<event>
 8    1  0.7281309E-009  0.1897365E+03  0.7561462E-02  0.1158699E+00
          1   -1    0    0  501    0  0.00000000000E+00  0.00000000000E+00  0.51310439564E+02  0.51310439564E+02  0.00000000000E+00 0. -1.
         -1   -1    0    0    0  501 -0.00000000000E+00 -0.00000000000E+00 -0.74022325844E+03  0.74022325844E+03  0.00000000000E+00 0.  1.
         25    2    1    2    0    0  0.46248907172E+02 -0.15467691655E+03 -0.36893525221E+03  0.42169240242E+03  0.12508937608E+03 0.  0.
         23    2    1    2    0    0 -0.46248907172E+02  0.15467691655E+03 -0.31997756667E+03  0.36984129558E+03  0.91285435981E+02 0.  0.
          5    1    3    3  502    0 -0.24252633000E+02 -0.10538051469E+03 -0.26788621399E+03  0.28891822222E+03  0.41800000000E+01 0. -1.
         -5    1    3    3    0  502  0.70501540173E+02 -0.49296401854E+02 -0.10104903822E+03  0.13277418020E+03  0.41800000000E+01 0. -1.
        -11    1    4    4    0    0  0.27406856770E+02  0.33022513646E+02 -0.83873138886E+02  0.94214253869E+02  0.00000000000E+00 0. -1.
         11    1    4    4    0    0 -0.73655763942E+02  0.12165440290E+03 -0.23610442778E+03  0.27562704172E+03  0.00000000000E+00 0.  1.
</event>
<event>
 8    1  0.7281309E-009  0.9464732E+02  0.7561462E-02  0.1291972E+00
          1   -1    0    0  501    0  0.00000000000E+00  0.00000000000E+00  0.48122134320E+03  0.48122134320E+03  0.00000000000E+00 0. -1.
         -1   -1    0    0    0  501 -0.00000000000E+00 -0.00000000000E+00 -0.33570053350E+02  0.33570053350E+02  0.00000000000E+00 0.  1.
         25    2    1    2    0    0  0.36870022072E+02 -0.23527885543E+02  0.14222935781E+03  0.19439650363E+03  0.12509136850E+03 0.  0.
         23    2    1    2    0    0 -0.36870022072E+02  0.23527885543E+02  0.30542193204E+03  0.32039489292E+03  0.86356070509E+02 0.  0.
          5    1    3    3  502    0 -0.21198271415E+02  0.11625460168E+02 -0.10897367262E+02  0.26846658048E+02  0.41800000000E+01 0.  1.
         -5    1    3    3    0  502  0.58068293487E+02 -0.35153345710E+02  0.15312672507E+03  0.16754984558E+03  0.41800000000E+01 0.  1.
        -11    1    4    4    0    0  0.14679954354E+02  0.40019467223E+02  0.13968589355E+03  0.14604522475E+03  0.00000000000E+00 0. -1.
         11    1    4    4    0    0 -0.51549976426E+02 -0.16491581681E+02  0.16573603849E+03  0.17434966817E+03  0.00000000000E+00 0.  1.
</event>
<event>
 8    1  0.7281309E-009  0.2525978E+03  0.7561462E-02  0.1111674E+00
         -2   -1    0    0    0  501 -0.00000000000E+00  0.00000000000E+00  0.11676728699E+03  0.11676728699E+03  0.00000000000E+00 0. -1.
          2   -1    0    0  501    0  0.00000000000E+00 -0.00000000000E+00 -0.59846743945E+03  0.59846743945E+03  0.00000000000E+00 0.  1.
         25    2    1    2    0    0 -0.15549115942E+03 -0.18032295673E+03 -0.20036407981E+03  0.33539248309E+03  0.12509390014E+03 0.  0.
         23    2    1    2    0    0  0.15549115942E+03  0.18032295673E+03 -0.28133607265E+03  0.37984224335E+03  0.91849195286E+02 0.  0.
          5    1    3    3  502    0 -0.68047996209E+02 -0.15788242851E+03 -0.16505792614E+03  0.23836732663E+03  0.41800000000E+01 0.  1.
         -5    1    3    3    0  502 -0.87443163215E+02 -0.22440528219E+02 -0.35306153667E+02  0.97025156463E+02  0.41800000000E+01 0.  1.
        -11    1    4    4    0    0  0.15889642760E+02  0.47764416647E+02 -0.17613848992E+02  0.53330740863E+02  0.00000000000E+00 0. -1.
         11    1    4    4    0    0  0.13960151666E+03  0.13255854008E+03 -0.26372222366E+03  0.32651150249E+03  0.00000000000E+00 0.  1.
</event>
<event>
 8    1  0.7281309E-009  0.1071133E+03  0.7561462E-02  0.1266011E+00
          2   -1    0    0  501    0  0.00000000000E+00  0.00000000000E+00  0.42854445088E+02  0.42854445088E+02  0.00000000000E+00 0.  1.
         -2   -1    0    0    0  501 -0.00000000000E+00 -0.00000000000E+00 -0.42519069555E+03  0.42519069555E+03  0.00000000000E+00 0. -1.
         25    2    1    2    0    0 -0.30295800080E+02 -0.22196221424E+02 -0.90217567918E+02  0.15873475586E+03  0.12508799066E+03 0.  0.
         23    2    1    2    0    0  0.30295800080E+02  0.22196221424E+02 -0.29211868255E+03  0.30931038478E+03  0.94493818280E+02 0.  0.
          5    1    3    3  502    0  0.40046389547E+02  0.41666564015E+01  0.10019587498E+01  0.40491365285E+02  0.41800000000E+01 0.  1.
         -5    1    3    3    0  502 -0.70342189627E+02 -0.26362877825E+02 -0.91219526668E+02  0.11824339057E+03  0.41800000000E+01 0.  1.
        -11    1    4    4    0    0 -0.20038430620E+02  0.40310906124E+02 -0.96065594018E+02  0.10609008534E+03  0.00000000000E+00 0.  1.
         11    1    4    4    0    0  0.50334230700E+02 -0.18114684700E+02 -0.19605308853E+03  0.20322029944E+03  0.00000000000E+00 0. -1.
</event>
<event>
 8    1  0.7281309E-009  0.7829398E+02  0.7561462E-02  0.1333964E+00
         -3   -1    0    0    0  501 -0.00000000000E+00  0.00000000000E+00  0.31481789526E+02  0.31481789526E+02  0.00000000000E+00 0.  1.
          3   -1    0    0  501    0  0.00000000000E+00 -0.00000000000E+00 -0.54178017031E+03  0.54178017031E+03  0.00000000000E+00 0. -1.
         25    2    1    2    0    0 -0.53801940632E+02 -0.21472065162E+02 -0.37137781720E+03  0.39613730010E+03  0.12509028348E+03 0.  0.
         23    2    1    2    0    0  0.53801940632E+02  0.21472065162E+02 -0.13892056358E+03  0.17712465974E+03  0.93373035205E+02 0.  0.
          5    1    3    3  502    0 -0.44631026733E+02 -0.38301922937E+02 -0.37186900224E+03  0.37651426676E+03  0.41800000000E+01 0.  1.
         -5    1    3    3    0  502 -0.91709138993E+01  0.16829857775E+02  0.49118504081E+00  0.19623033333E+02  0.41800000000E+01 0.  1.
        -11    1    4    4    0    0  0.96582041390E+01  0.31324709405E+02 -0.19032406638E+01  0.32835052178E+02  0.00000000000E+00 0.  1.
         11    1    4    4    0    0  0.44143736493E+02 -0.98526442430E+01 -0.13701732292E+03  0.14428960756E+03  0.00000000000E+00 0. -1.
</event>
<event>
 8    1  0.7281309E-009  0.1347483E+03  0.7561462E-02  0.1220576E+00
         -2   -1    0    0    0  501 -0.00000000000E+00  0.00000000000E+00  0.14058352954E+02  0.14058352954E+02  0.00000000000E+00 0.  1.
          2   -1    0    0  501    0  0.00000000000E+00 -0.00000000000E+00 -0.13799020434E+04  0.13799020434E+04  0.00000000000E+00 0. -1.
         25    2    1    2    0    0  0.41344379157E+02  0.71288506122E+02 -0.89124219639E+03  0.90374356722E+03  0.12509346054E+03 0.  0.
         23    2    1    2    0    0 -0.41344379157E+02 -0.71288506122E+02 -0.47460149405E+03  0.49021682913E+03  0.90964567905E+02 0.  0.
          5    1    3    3  502    0 -0.19196138266E+02  0.84793030043E+02 -0.47977520019E+03  0.48760646507E+03  0.41800000000E+01 0. -1.
         -5    1    3    3    0  502  0.60540517422E+02 -0.13504523921E+02 -0.41146699621E+03  0.41613710215E+03  0.41800000000E+01 0. -1.
        -11    1    4    4    0    0  0.81773517452E+00 -0.77645260309E+02 -0.25688004520E+03  0.26835948420E+03  0.00000000000E+00 0.  1.
         11    1    4    4    0    0 -0.42162114331E+02  0.63567541877E+01 -0.21772144885E+03  0.22185734493E+03  0.00000000000E+00 0. -1.
</event>
<event>
 8    1  0.7281309E-009  0.1107293E+03  0.7561462E-02  0.1259225E+00
         -1   -1    0    0    0  501 -0.00000000000E+00  0.00000000000E+00  0.51620870846E+02  0.51620870846E+02  0.00000000000E+00 0.  1.
          1   -1    0    0  501    0  0.00000000000E+00 -0.00000000000E+00 -0.25530623456E+03  0.25530623456E+03  0.00000000000E+00 0. -1.
         25    2    1    2    0    0 -0.38578297096E+02  0.55342994224E+01 -0.12129403829E+03  0.17851934110E+03  0.12505198097E+03 0.  0.
         23    2    1    2    0    0  0.38578297096E+02 -0.55342994224E+01 -0.82391325427E+02  0.12840776431E+03  0.90450593987E+02 0.  0.
          5    1    3    3  502    0 -0.64668554047E+02  0.43365735394E+02 -0.10227339991E+03  0.12860765770E+03  0.41800000000E+01 0. -1.
         -5    1    3    3    0  502  0.26090256951E+02 -0.37831435972E+02 -0.19020638375E+02  0.49911683398E+02  0.41800000000E+01 0. -1.
        -11    1    4    4    0    0  0.36474136537E+02 -0.44938735472E+02 -0.39193891166E+02  0.69900026371E+02  0.00000000000E+00 0. -1.
         11    1    4    4    0    0  0.21041605593E+01  0.39404436049E+02 -0.43197434262E+02  0.58507737940E+02  0.00000000000E+00 0.  1.
</event>
<event>
 8    1  0.7281309E-009  0.1232039E+03  0.7561462E-02  0.1237903E+00
         -3   -1    0    0    0  501 -0.00000000000E+00  0.00000000000E+00  0.17249044339E+03  0.17249044339E+03  0.00000000000E+00 0.  1.
          3   -1    0    0  501    0  0.00000000000E+00 -0.00000000000E+00 -0.89842500583E+02  0.89842500583E+02  0.00000000000E+00 0. -1.
         25    2    1    2    0    0 -0.63981685528E+01 -0.59236040030E+02  0.53036995022E+02  0.14835912053E+03  0.12509061037E+03 0.  0.
         23    2    1    2    0    0  0.63981685528E+01  0.59236040030E+02  0.29610947788E+02  0.11397382345E+03  0.92538528213E+02 0.  0.
          5    1    3    3  502    0 -0.54345607969E+02 -0.69944245267E+02  0.40493260416E+02  0.97482404006E+02  0.41800000000E+01 0.  1.
         -5    1    3    3    0  502  0.47947439417E+02  0.10708205238E+02  0.12543734605E+02  0.50876716520E+02  0.41800000000E+01 0.  1.
        -11    1    4    4    0    0  0.46977327658E+02  0.17270665347E+02  0.39510524097E+01  0.50207131073E+02  0.00000000000E+00 0.  1.
         11    1    4    4    0    0 -0.40579159105E+02  0.41965374682E+02  0.25659895379E+02  0.63766692378E+02  0.00000000000E+00 0. -1.
</event>
<event>
 8    1  0.7281309E-009  0.8217998E+02  0.7561462E-02  0.1322976E+00
         -2   -1    0    0    0  501 -0.00000000000E+00  0.00000000000E+00  0.48072499593E+02  0.48072499593E+02  0.00000000000E+00 0. -1.
          2   -1    0    0  501    0  0.00000000000E+00 -0.00000000000E+00 -0.29847110948E+03  0.29847110948E+03  0.00000000000E+00 0.  1.
         25    2    1    2    0    0 -0.56367358894E+02  0.59454887899E+01 -0.14213189294E+03  0.19763939732E+03  0.12508888199E+03 0.  0.
         23    2    1    2    0    0  0.56367358894E+02 -0.59454887899E+01 -0.10826671695E+03  0.14890421175E+03  0.85077343004E+02 0.  0.
          5    1    3    3  502    0 -0.31509984337E+01  0.76843510560E+01  0.22614909542E+02  0.24451678386E+02  0.41800000000E+01 0.  1.
         -5    1    3    3    0  502 -0.53216360460E+02 -0.17388622661E+01 -0.16474680248E+03  0.17318771894E+03  0.41800000000E+01 0.  1.
        -11    1    4    4    0    0  0.44841631859E+02  0.36407321498E+02 -0.69251630787E+02  0.90177898474E+02  0.00000000000E+00 0.  1.
         11    1    4    4    0    0  0.11525727035E+02 -0.42352810288E+02 -0.39015086162E+02  0.58726313278E+02  0.00000000000E+00 0. -1.
</event>
<event>
 8    1  0.7281309E-009  0.1127275E+03  0.7561462E-02  0.1255601E+00
         -1   -1    0    0    0  501 -0.00000000000E+00  0.00000000000E+00  0.73141841442E+03  0.73141841442E+03  0.00000000000E+00 0.  1.
          1   -1    0    0  501    0  0.00000000000E+00 -0.00000000000E+00 -0.20238807273E+02  0.20238807273E+02  0.00000000000E+00 0. -1.
         25    2    1    2    0    0 -0.19207363800E+02 -0.28373359008E+02  0.26551965722E+03  0.29550379302E+03  0.12509129862E+03 0.  0.
         23    2    1    2    0    0  0.19207363800E+02  0.28373359008E+02  0.44565994993E+03  0.45615342868E+03  0.91044984483E+02 0.  0.
          5    1    3    3  502    0 -0.41731904989E+00 -0.76575666563E+02  0.17680108594E+03  0.19271767758E+03  0.41800000000E+01 0. -1.
         -5    1    3    3    0  502 -0.18790044750E+02  0.48202307554E+02  0.88718571283E+02  0.10278611543E+03  0.41800000000E+01 0. -1.
        -11    1    4    4    0    0 -0.31623314864E+02  0.33139481943E+02  0.23196237631E+03  0.23644196609E+03  0.00000000000E+00 0.  1.
         11    1    4    4    0    0  0.50830678664E+02 -0.47661229345E+01  0.21369757362E+03  0.21971146259E+03  0.00000000000E+00 0. -1.
</event>
<event>
 8    1  0.7281309E-009  0.6710587E+02  0.7561462E-02  0.1370221E+00
          2   -1    0    0  501    0  0.00000000000E+00  0.00000000000E+00  0.20468875415E+03  0.20468875415E+03  0.00000000000E+00 0.  1.
         -2   -1    0    0    0  501 -0.00000000000E+00 -0.00000000000E+00 -0.59741125217E+02  0.59741125217E+02  0.00000000000E+00 0. -1.
         25    2    1    2    0    0 -0.16683851520E+02  0.30343164079E+01  0.93134593755E+02  0.15687478086E+03  0.12509231127E+03 0.  0.
         23    2    1    2    0    0  0.16683851520E+02 -0.30343164079E+01  0.51813035179E+02  0.10755509851E+03  0.92714349604E+02 0.  0.
          5    1    3    3  502    0  0.63442607472E+01 -0.13758104290E+02  0.11786591968E+03  0.11890913548E+03  0.41800000000E+01 0. -1.
         -5    1    3    3    0  502 -0.23028112267E+02  0.16792420698E+02 -0.24731325924E+02  0.37965645384E+02  0.41800000000E+01 0. -1.
        -11    1    4    4    0    0 -0.36351302348E+02 -0.45374705713E+01  0.53346022669E+01  0.37019775836E+02  0.00000000000E+00 0. -1.
         11    1    4    4    0    0  0.53035153868E+02  0.15031541634E+01  0.46478432912E+02  0.70535322670E+02  0.00000000000E+00 0.  1.
</event>
<event>
 7    1  0.7281309E-009  0.9044818E+02  0.7561462E-02  0.1301770E+00
          2   -1    0    0  501    0  0.00000000000E+00  0.00000000000E+00  0.43296227580E+03  0.43296227580E+03  0.00000000000E+00 0.  1.
         -2   -1    0    0    0  501 -0.00000000000E+00 -0.00000000000E+00 -0.27419758303E+02  0.27419758303E+02  0.00000000000E+00 0. -1.
         23    2    1    2    0    0 -0.40867298487E+01  0.71723790414E+01  0.18218585106E+03  0.20421281919E+03  0.91886053428E+02 0.  0.
          5    1    1    2  502    0  0.46727276235E+02  0.29108178860E+02  0.16990856122E+03  0.17865362016E+03  0.41800000000E+01 0.  1.
         -5    1    1    2    0  502 -0.42640546387E+02 -0.36280557902E+02  0.53448105221E+02  0.77515594751E+02  0.41800000000E+01 0.  1.
        -11    1    3    3    0    0  0.29549240134E+02  0.17518957789E+02  0.23377653532E+02  0.41552210040E+02  0.00000000000E+00 0. -1.
         11    1    3    3    0    0 -0.33635969983E+02 -0.10346578748E+02  0.15880819752E+03  0.16266060915E+03  0.00000000000E+00 0.  1.
</event>
<event>
 8    1  0.7281309E-009  0.1577897E+03  0.7561462E-02  0.1191215E+00
          1   -1    0    0  501    0  0.00000000000E+00  0.00000000000E+00  0.50695505467E+03  0.50695505467E+03  0.00000000000E+00 0. -1.
         -1   -1    0    0    0  501 -0.00000000000E+00 -0.00000000000E+00 -0.54013352857E+02  0.54013352857E+02  0.00000000000E+00 0.  1.
         25    2    1    2    0    0 -0.98053820354E+02  0.75663374916E+02  0.27056936650E+03  0.32279208844E+03  0.12508977688E+03 0.  0.
         23    2    1    2    0    0  0.98053820354E+02 -0.75663374916E+02  0.18237233531E+03  0.23817631909E+03  0.90159815316E+02 0.  0.
          5    1    3    3  502    0 -0.27391929528E+01 -0.29024265432E+02  0.80741317911E+02  0.85945005556E+02  0.41800000000E+01 0.  1.
         -5    1    3    3    0  502 -0.95314627402E+02  0.10468764035E+03  0.18982804859E+03  0.23684708288E+03  0.41800000000E+01 0.  1.
        -11    1    4    4    0    0  0.56704303988E+02 -0.84923410235E+02  0.16116522167E+03  0.19079201339E+03  0.00000000000E+00 0. -1.
         11    1    4    4    0    0  0.41349516367E+02  0.92600353189E+01  0.21207113645E+02  0.47384305704E+02  0.00000000000E+00 0.  1.
</event>
<event>
 8    1  0.7281309E-009  0.1101914E+03  0.7561462E-02  0.1260216E+00
          1   -1    0    0  501    0  0.00000000000E+00  0.00000000000E+00  0.19582936304E+03  0.19582936304E+03  0.00000000000E+00 0. -1.
         -1   -1    0    0    0  501 -0.00000000000E+00 -0.00000000000E+00 -0.79208144525E+02  0.79208144525E+02  0.00000000000E+00 0.  1.
         25    2    1    2    0    0 -0.50819695797E+02  0.30428451223E+02  0.32128848521E+02  0.14211369243E+03  0.12512196667E+03 0.  0.
         23    2    1    2    0    0  0.50819695797E+02 -0.30428451223E+02  0.84492369995E+02  0.13292381514E+03  0.83792887042E+02 0.  0.
          5    1    3    3  502    0  0.24826873825E+02 -0.20825182537E+02 -0.18519976075E+02  0.37556940842E+02  0.41800000000E+01 0.  1.
         -5    1    3    3    0  502 -0.75646569622E+02  0.51253633760E+02  0.50648824596E+02  0.10455675159E+03  0.41800000000E+01 0.  1.
        -11    1    4    4    0    0  0.59705062101E+02  0.48094843986E+01  0.73787485608E+02  0.95039037311E+02  0.00000000000E+00 0. -1.
         11    1    4    4    0    0 -0.88853663040E+01 -0.35237935622E+02  0.10704884386E+02  0.37884777827E+02  0.00000000000E+00 0.  1.
</event>
<event>
 8    1  0.7281309E-009  0.1319160E+03  0.7561462E-02  0.1224640E+00
          1   -1    0    0  501    0  0.00000000000E+00  0.00000000000E+00  0.94195265160E+03  0.94195265160E+03  0.00000000000E+00 0. -1.
         -1   -1    0    0    0  501 -0.00000000000E+00 -0.00000000000E+00 -0.22876998848E+02  0.22876998848E+02  0.00000000000E+00 0.  1.
         25    2    1    2    0    0 -0.81420768892E+02  0.33681894968E+02  0.64050433656E+03  0.65852637626E+03  0.12508945370E+03 0.  0.
         23    2    1    2    0    0  0.81420768892E+02 -0.33681894968E+02  0.27857131619E+03  0.30630327418E+03  0.91955999888E+02 0.  0.
          5    1    3    3  502    0 -0.91198073262E+02 -0.97101884683E+01  0.26665938561E+03  0.28202141171E+03  0.41800000000E+01 0.  1.
         -5    1    3    3    0  502  0.97773043694E+01  0.43392083436E+02  0.37384495095E+03  0.37650496456E+03  0.41800000000E+01 0.  1.
        -11    1    4    4    0    0  0.24512933033E+01 -0.47170543100E+02  0.10511592837E+03  0.11524073660E+03  0.00000000000E+00 0.  1.
         11    1    4    4    0    0  0.78969475589E+02  0.13488648132E+02  0.17345538782E+03  0.19106253758E+03  0.00000000000E+00 0. -1.
</event>
<event>
 8    1  0.7281309E-009  0.1125811E+03  0.7561462E-02  0.1255863E+00
         -2   -1    0    0    0  501 -0.00000000000E+00  0.00000000000E+00  0.30790543976E+02  0.30790543976E+02  0.00000000000E+00 0.  1.
          2   -1    0    0  501    0  0.00000000000E+00 -0.00000000000E+00 -0.80853506423E+03  0.80853506423E+03  0.00000000000E+00 0. -1.
         25    2    1    2    0    0 -0.70233856261E+01 -0.10477637594E+03 -0.29656833895E+03  0.33856728534E+03  0.12509040786E+03 0.  0.
         23    2    1    2    0    0  0.70233856261E+01  0.10477637594E+03 -0.48117618131E+03  0.50075832286E+03  0.90559171586E+02 0.  0.
          5    1    3    3  502    0 -0.12762946217E+02 -0.73064773302E+02 -0.49268686663E+02  0.89141627646E+02  0.41800000000E+01 0. -1.
         -5    1    3    3    0  502  0.57395605913E+01 -0.31711602637E+02 -0.24729965228E+03  0.24942565770E+03  0.41800000000E+01 0. -1.
        -11    1    4    4    0    0 -0.24020302848E+02  0.47525573377E+02 -0.93081348558E+02  0.10723708558E+03  0.00000000000E+00 0.  1.
         11    1    4    4    0    0  0.31043688474E+02  0.57250802562E+02 -0.38809483275E+03  0.39352123729E+03  0.00000000000E+00 0. -1.
</event>
<event>
 8    1  0.7281309E-009  0.1871922E+03  0.7561462E-02  0.1161018E+00
         -1   -1    0    0    0  501 -0.00000000000E+00  0.00000000000E+00  0.14337702403E+03  0.14337702403E+03  0.00000000000E+00 0.  1.
          1   -1    0    0  501    0  0.00000000000E+00 -0.00000000000E+00 -0.36732364061E+03  0.36732364061E+03  0.00000000000E+00 0. -1.
         25    2    1    2    0    0 -0.15577710133E+03 -0.48467000025E+02  0.15667224830E+02  0.20617522588E+03  0.12508879424E+03 0.  0.
         23    2    1    2    0    0  0.15577710133E+03  0.48467000025E+02 -0.23961384140E+03  0.30452543875E+03  0.93302703425E+02 0.  0.
          5    1    3    3  502    0 -0.11889673700E+03  0.26484367488E+02  0.68743748290E+01  0.12207614517E+03  0.41800000000E+01 0.  1.
         -5    1    3    3    0  502 -0.36880364327E+02 -0.74951367513E+02  0.87928500011E+01  0.84099080709E+02  0.41800000000E+01 0.  1.
        -11    1    4    4    0    0  0.92718667271E+02  0.61501253645E+01 -0.19609785418E+03  0.21699987031E+03  0.00000000000E+00 0.  1.
         11    1    4    4    0    0  0.63058434060E+02  0.42316874661E+02 -0.43515987228E+02  0.87525568444E+02  0.00000000000E+00 0. -1.
</event>
<event>
 8    1  0.7281309E-009  0.1111424E+03  0.7561462E-02  0.1258469E+00
          2   -1    0    0  501    0  0.00000000000E+00  0.00000000000E+00  0.54369165558E+02  0.54369165558E+02  0.00000000000E+00 0. -1.
         -2   -1    0    0    0  501 -0.00000000000E+00 -0.00000000000E+00 -0.34049147132E+03  0.34049147132E+03  0.00000000000E+00 0.  1.
         25    2    1    2    0    0  0.57565494526E+02  0.54136388016E+02 -0.12834039916E+03  0.19586615309E+03  0.12509099569E+03 0.  0.
         23    2    1    2    0    0 -0.57565494526E+02 -0.54136388016E+02 -0.15778190660E+03  0.19899448379E+03  0.91973582400E+02 0.  0.
          5    1    3    3  502    0 -0.19693931010E+02  0.56119536414E+02 -0.20339364916E+02  0.62995360553E+02  0.41800000000E+01 0.  1.
         -5    1    3    3    0  502  0.77259425535E+02 -0.19831483988E+01 -0.10800103424E+03  0.13287079253E+03  0.41800000000E+01 0.  1.
        -11    1    4    4    0    0 -0.47314128258E+02 -0.23241623722E+02 -0.15787508096E+03  0.16644320651E+03  0.00000000000E+00 0.  1.
         11    1    4    4    0    0 -0.10251366267E+02 -0.30894764294E+02  0.93174352186E-01  0.32551277280E+02  0.00000000000E+00 0. -1.
</event>
<event>
 8    1  0.7281309E-009  0.1283864E+03  0.7561462E-02  0.1229870E+00
         -1   -1    0    0    0  501 -0.00000000000E+00  0.00000000000E+00  0.28536378875E+02  0.28536378875E+02  0.00000000000E+00 0.  1.
          1   -1    0    0  501    0  0.00000000000E+00 -0.00000000000E+00 -0.62069894272E+03  0.62069894272E+03  0.00000000000E+00 0. -1.
         25    2    1    2    0    0 -0.61054037817E+01 -0.76451923775E+02 -0.33946135075E+03  0.36980975059E+03  0.12507226060E+03 0.  0.
         23    2    1    2    0    0  0.61054037817E+01  0.76451923775E+02 -0.25270121309E+03  0.27942557100E+03  0.91315792873E+02 0.  0.
          5    1    3    3  502    0 -0.19253228074E+02 -0.10463177111E+03 -0.19696412474E+03  0.22389915844E+03  0.41800000000E+01 0. -1.
         -5    1    3    3    0  502  0.13147824292E+02  0.28179847335E+02 -0.14249722601E+03  0.14591059215E+03  0.41800000000E+01 0. -1.
        -11    1    4    4    0    0  0.38300194006E+02  0.26309653900E+01 -0.91450685947E+02  0.99181927789E+02  0.00000000000E+00 0.  1.
         11    1    4    4    0    0 -0.32194790225E+02  0.73820958385E+02 -0.16125052714E+03  0.18024364321E+03  0.00000000000E+00 0. -1.
</event>
<event>
 8    1  0.7281309E-009  0.1214219E+03  0.7561462E-02  0.1240770E+00
          2   -1    0    0  501    0  0.00000000000E+00  0.00000000000E+00  0.12163312661E+04  0.12163312661E+04  0.00000000000E+00 0. -1.
         -2   -1    0    0    0  501 -0.00000000000E+00 -0.00000000000E+00 -0.18967242727E+02  0.18967242727E+02  0.00000000000E+00 0.  1.
         25    2    1    2    0    0 -0.52639379982E+02  0.48909002693E+02  0.96585797919E+03  0.97657206990E+03  0.12509347256E+03 0.  0.
         23    2    1    2    0    0  0.52639379982E+02 -0.48909002693E+02  0.23150604422E+03  0.25872643896E+03  0.90450687330E+02 0.  0.
          5    1    3    3  502    0 -0.61191299845E+00  0.82058521822E+02  0.52175297641E+03  0.52818331688E+03  0.41800000000E+01 0.  1.
         -5    1    3    3    0  502 -0.52027466983E+02 -0.33149519128E+02  0.44410500278E+03  0.44838875302E+03  0.41800000000E+01 0.  1.
        -11    1    4    4    0    0 -0.11062648629E+02 -0.30637810204E+02  0.22823568760E+02  0.39774022926E+02  0.00000000000E+00 0.  1.
         11    1    4    4    0    0  0.63702028610E+02 -0.18271192489E+02  0.20868247546E+03  0.21895241604E+03  0.00000000000E+00 0. -1.
</event>
<event>
 8    1  0.7281309E-009  0.9672929E+02  0.7561462E-02  0.1287328E+00
         -1   -1    0    0    0  501 -0.00000000000E+00  0.00000000000E+00  0.23293987821E+02  0.23293987821E+02  0.00000000000E+00 0.  1.
          1   -1    0    0  501    0  0.00000000000E+00 -0.00000000000E+00 -0.62290447141E+03  0.62290447141E+03  0.00000000000E+00 0. -1.
         25    2    1    2    0    0  0.86897594218E+01  0.14961052774E+02 -0.49824798264E+03  0.51400258960E+03  0.12509302496E+03 0.  0.
         23    2    1    2    0    0 -0.86897594218E+01 -0.14961052774E+02 -0.10136250096E+03  0.13219586964E+03  0.83078555175E+02 0.  0.
          5    1    3    3  502    0 -0.42912619577E+02  0.44971700829E+02 -0.18854868219E+03  0.19857498521E+03  0.41800000000E+01 0.  1.
         -5    1    3    3    0  502  0.51602378999E+02 -0.30010648055E+02 -0.30969930045E+03  0.31542760439E+03  0.41800000000E+01 0.  1.
        -11    1    4    4    0    0 -0.33060424093E+02  0.11817250595E+02 -0.85950084490E+02  0.92844257101E+02  0.00000000000E+00 0. -1.
         11    1    4    4    0    0  0.24370664671E+02 -0.26778303369E+02 -0.15412416467E+02  0.39351612536E+02  0.00000000000E+00 0.  1.
</event>
<event>
 8    1  0.7281309E-009  0.2565070E+03  0.7561462E-02  0.1109260E+00
         -2   -1    0    0    0  501 -0.00000000000E+00  0.00000000000E+00  0.78374308416E+02  0.78374308416E+02  0.00000000000E+00 0. -1.
          2   -1    0    0  501    0  0.00000000000E+00 -0.00000000000E+00 -0.11732930992E+04  0.11732930992E+04  0.00000000000E+00 0.  1.
         25    2    1    2    0    0 -0.22458718881E+03  0.60155670347E+02 -0.22586635629E+03  0.34744917311E+03  0.12508879622E+03 0.  0.
         23    2    1    2    0    0  0.22458718881E+03 -0.60155670347E+02 -0.86905243452E+03  0.90421823453E+03  0.91106375518E+02 0.  0.
          5    1    3    3  502    0 -0.10156887470E+03  0.91224079370E+02 -0.10655438227E+03  0.17323214986E+03  0.41800000000E+01 0. -1.
         -5    1    3    3    0  502 -0.12301831411E+03 -0.31068409023E+02 -0.11931197403E+03  0.17421702325E+03  0.41800000000E+01 0. -1.
        -11    1    4    4    0    0  0.93824339822E+02 -0.71877001852E+02 -0.43146110602E+03  0.44735667666E+03  0.00000000000E+00 0.  1.
         11    1    4    4    0    0  0.13076284899E+03  0.11721331505E+02 -0.43759132850E+03  0.45686155787E+03  0.00000000000E+00 0. -1.
</event>
<event>
 8    1  0.7281309E-009  0.8797603E+02  0.7561462E-02  0.1307828E+00
          2   -1    0    0  501    0  0.00000000000E+00  0.00000000000E+00  0.56863483557E+03  0.56863483557E+03  0.00000000000E+00 0.  1.
         -2   -1    0    0    0  501 -0.00000000000E+00 -0.00000000000E+00 -0.39053677027E+02  0.39053677027E+02  0.00000000000E+00 0. -1.
         25    2    1    2    0    0  0.79704010314E+02  0.14356946903E+02  0.41948640659E+03  0.44516822583E+03  0.12508818008E+03 0.  0.
         23    2    1    2    0    0 -0.79704010314E+02 -0.14356946903E+02  0.11009475195E+03  0.16252028676E+03  0.87938262532E+02 0.  0.
          5    1    3    3  502    0  0.39559773887E+02 -0.80082672950E+01  0.24301465064E+02  0.47298431891E+02  0.41800000000E+01 0. -1.
         -5    1    3    3    0  502  0.40144236427E+02  0.22365214198E+02  0.39518494153E+03  0.39786979394E+03  0.41800000000E+01 0. -1.
        -11    1    4    4    0    0 -0.29187043485E+02  0.12806958833E+02  0.99125310170E+02  0.10412362277E+03  0.00000000000E+00 0.  1.
         11    1    4    4    0    0 -0.50516966829E+02 -0.27163905736E+02  0.10969441779E+02  0.58396663992E+02  0.00000000000E+00 0. -1.
</event>
<event>
 8    1  0.7281309E-009  0.1120891E+03  0.7561462E-02  0.1256749E+00
          3   -1    0    0  501    0  0.00000000000E+00  0.00000000000E+00  0.76116466544E+02  0.76116466544E+02  0.00000000000E+00 0. -1.
         -3   -1    0    0    0  501 -0.00000000000E+00 -0.00000000000E+00 -0.17585461911E+03  0.17585461911E+03  0.00000000000E+00 0.  1.
         25    2    1    2    0    0  0.11913593872E+02  0.39364194601E+02 -0.59001958067E+02  0.14429802907E+03  0.12509682890E+03 0.  0.
         23    2    1    2    0    0 -0.11913593872E+02 -0.39364194601E+02 -0.40736194495E+02  0.10767305658E+03  0.90788633849E+02 0.  0.
          5    1    3    3  502    0  0.45633320693E+02  0.70042540103E+02 -0.25263764836E+02  0.87430472921E+02  0.41800000000E+01 0. -1.
         -5    1    3    3    0  502 -0.33719726821E+02 -0.30678345502E+02 -0.33738193232E+02  0.56867556147E+02  0.41800000000E+01 0. -1.
        -11    1    4    4    0    0 -0.42859958802E+02  0.21568155912E+01 -0.19230142508E+01  0.42957256730E+02  0.00000000000E+00 0. -1.
         11    1    4    4    0    0  0.30946364929E+02 -0.41521010192E+02 -0.38813180244E+02  0.64715799851E+02  0.00000000000E+00 0.  1.
</event>
<event>
 8    1  0.7281309E-009  0.1935729E+03  0.7561462E-02  0.1155278E+00
         -1   -1    0    0    0  501 -0.00000000000E+00  0.00000000000E+00  0.98019119360E+02  0.98019119360E+02  0.00000000000E+00 0.  1.
          1   -1    0    0  501    0  0.00000000000E+00 -0.00000000000E+00 -0.44545881216E+03  0.44545881216E+03  0.00000000000E+00 0. -1.
         25    2    1    2    0    0 -0.15358722973E+02 -0.17372673660E+03 -0.22957796550E+03  0.31427801546E+03  0.12509100438E+03 0.  0.
         23    2    1    2    0    0  0.15358722973E+02  0.17372673660E+03 -0.11786172730E+03  0.22919991606E+03  0.90688176629E+02 0.  0.
          5    1    3    3  502    0 -0.30501368780E+02 -0.18041966506E+03 -0.23357322935E+03  0.29674149509E+03  0.41800000000E+01 0. -1.
         -5    1    3    3    0  502  0.15142645807E+02  0.66929284680E+01  0.39952638470E+01  0.17536520371E+02  0.41800000000E+01 0. -1.
        -11    1    4    4    0    0  0.37902461509E+02  0.59023683100E+02 -0.79834124572E+02  0.10627266441E+03  0.00000000000E+00 0. -1.
         11    1    4    4    0    0 -0.22543738536E+02  0.11470305350E+03 -0.38027602730E+02  0.12292725165E+03  0.00000000000E+00 0.  1.
</event>
<event>
 8    1  0.7281309E-009  0.6752704E+02  0.7561462E-02  0.1368710E+00
          2   -1    0    0  501    0  0.00000000000E+00  0.00000000000E+00  0.15296499136E+03  0.15296499136E+03  0.00000000000E+00 0. -1.
         -2   -1    0    0    0  501 -0.00000000000E+00 -0.00000000000E+00 -0.83570256193E+02  0.83570256193E+02  0.00000000000E+00 0.  1.
         25    2    1    2    0    0 -0.31999939772E+01 -0.20716951546E+01  0.74336628790E+02  0.14556013406E+03  0.12508911370E+03 0.  0.
         23    2    1    2    0    0  0.31999939772E+01  0.20716951546E+01 -0.49418936254E+01  0.90975113489E+02  0.90760768394E+02 0.  0.
          5    1    3    3  502    0  0.29583177052E+02 -0.32391199123E+02  0.88217946489E+02  0.98611523809E+02  0.41800000000E+01 0. -1.
         -5    1    3    3    0  502 -0.32783171029E+02  0.30319503969E+02 -0.13881317699E+02  0.46948610253E+02  0.41800000000E+01 0. -1.
        -11    1    4    4    0    0  0.13477871356E+02  0.20794343581E+02  0.36637574943E+02  0.44230867491E+02  0.00000000000E+00 0. -1.
         11    1    4    4    0    0 -0.10277877379E+02 -0.18722648426E+02 -0.41579468569E+02  0.46744245998E+02  0.00000000000E+00 0.  1.
</event>
<event>
 8    1  0.7281309E-009  0.1598864E+03  0.7561462E-02  0.1188825E+00
         -1   -1    0    0    0  501 -0.00000000000E+00  0.00000000000E+00  0.17275914107E+03  0.17275914107E+03  0.00000000000E+00 0.  1.
          1   -1    0    0  501    0  0.00000000000E+00 -0.00000000000E+00 -0.16572467388E+03  0.16572467388E+03  0.00000000000E+00 0. -1.
         25    2    1    2    0    0 -0.33433575273E+02  0.12534214237E+03 -0.19879960209E+01  0.18022180530E+03  0.12508992912E+03 0.  0.
         23    2    1    2    0    0  0.33433575273E+02 -0.12534214237E+03  0.90224632158E+01  0.15826200965E+03  0.90205333806E+02 0.  0.
          5    1    3    3  502    0 -0.23787352307E+02  0.15020672203E+03  0.54051842204E+01  0.15223201335E+03  0.41800000000E+01 0.  1.
         -5    1    3    3    0  502 -0.96462229664E+01 -0.24864579659E+02 -0.73931802413E+01  0.27989791947E+02  0.41800000000E+01 0.  1.
        -11    1    4    4    0    0 -0.14194263301E+02 -0.45602082697E+02  0.37926749076E+02  0.60987419625E+02  0.00000000000E+00 0.  1.
         11    1    4    4    0    0  0.47627838574E+02 -0.79740059670E+02 -0.28904285860E+02  0.97274590025E+02  0.00000000000E+00 0. -1.
</event>
<event>
 8    1  0.7281309E-009  0.1277647E+03  0.7561462E-02  0.1230811E+00
         -2   -1    0    0    0  501 -0.00000000000E+00  0.00000000000E+00  0.13396904120E+03  0.13396904120E+03  0.00000000000E+00 0.  1.
          2   -1    0    0  501    0  0.00000000000E+00 -0.00000000000E+00 -0.14541133520E+03  0.14541133520E+03  0.00000000000E+00 0. -1.
         25    2    1    2    0    0 -0.56616274441E+02 -0.44868623609E+02 -0.56320093167E+02  0.15504119851E+03  0.12508886611E+03 0.  0.
         23    2    1    2    0    0  0.56616274441E+02  0.44868623609E+02  0.44877799163E+02  0.12433917790E+03  0.90706220221E+02 0.  0.
          5    1    3    3  502    0 -0.70251446222E+02  0.19993155829E+02 -0.94770049101E+01  0.73771796768E+02  0.41800000000E+01 0. -1.
         -5    1    3    3    0  502  0.13635171782E+02 -0.64861779438E+02 -0.46843088256E+02  0.81269401738E+02  0.41800000000E+01 0. -1.
        -11    1    4    4    0    0  0.35820176378E+02 -0.24592956541E+02  0.16798903886E+02  0.46584350579E+02  0.00000000000E+00 0. -1.
         11    1    4    4    0    0  0.20796098063E+02  0.69461580149E+02  0.28078895278E+02  0.77754827320E+02  0.00000000000E+00 0.  1.
</event>
<event>
 8    1  0.7281309E-009  0.9068140E+02  0.7561462E-02  0.1301210E+00
          1   -1    0    0  501    0  0.00000000000E+00  0.00000000000E+00  0.66595945302E+02  0.66595945302E+02  0.00000000000E+00 0. -1.
         -1   -1    0    0    0  501 -0.00000000000E+00 -0.00000000000E+00 -0.20193216053E+03  0.20193216053E+03  0.00000000000E+00 0.  1.
         25    2    1    2    0    0  0.34808633683E+02 -0.20825449611E+02 -0.64065257328E+02  0.14627794572E+03  0.12509012702E+03 0.  0.
         23    2    1    2    0    0 -0.34808633683E+02  0.20825449611E+02 -0.71270957905E+02  0.12225016011E+03  0.90665384116E+02 0.  0.
          5    1    3    3  502    0  0.51263600836E+02 -0.64203908678E+02 -0.54622229390E+02  0.98747956960E+02  0.41800000000E+01 0. -1.
         -5    1    3    3    0  502 -0.16454967153E+02  0.43378459067E+02 -0.94430279375E+01  0.47529988761E+02  0.41800000000E+01 0. -1.
        -11    1    4    4    0    0 -0.80008206079E+01  0.24206873933E+02  0.16530622048E+02  0.30384985459E+02  0.00000000000E+00 0.  1.
         11    1    4    4    0    0 -0.26807813076E+02 -0.33814243223E+01 -0.87801579953E+02  0.91865174656E+02  0.00000000000E+00 0. -1.
</event>
<event>
 8    1  0.7281309E-009  0.2014983E+03  0.7561462E-02  0.1148481E+00
         -2   -1    0    0    0  501 -0.00000000000E+00  0.00000000000E+00  0.34958300057E+02  0.34958300057E+02  0.00000000000E+00 0.  1.
          2   -1    0    0  501    0  0.00000000000E+00 -0.00000000000E+00 -0.14284373819E+04  0.14284373819E+04  0.00000000000E+00 0. -1.
         25    2    1    2    0    0  0.72289974681E+02 -0.18069996793E+03 -0.70120688117E+03  0.73838674929E+03  0.12508230281E+03 0.  0.
         23    2    1    2    0    0 -0.72289974681E+02  0.18069996793E+03 -0.69227220068E+03  0.72500893268E+03  0.92297528535E+02 0.  0.
          5    1    3    3  502    0  0.68748015213E+02 -0.13793859169E+03 -0.32498330750E+03  0.35970121939E+03  0.41800000000E+01 0. -1.
         -5    1    3    3    0  502  0.35419594673E+01 -0.42761376246E+02 -0.37622357367E+03  0.37868552990E+03  0.41800000000E+01 0. -1.
        -11    1    4    4    0    0 -0.85071373993E+02  0.14983693017E+03 -0.64147142337E+03  0.66420917738E+03  0.00000000000E+00 0. -1.
         11    1    4    4    0    0  0.12781399313E+02  0.30863037768E+02 -0.50800777307E+02  0.60799755293E+02  0.00000000000E+00 0.  1.
</event>
<event>
 8    1  0.7281309E-009  0.9840688E+02  0.7561462E-02  0.1283682E+00
         -2   -1    0    0    0  501 -0.00000000000E+00  0.00000000000E+00  0.34274488150E+02  0.34274488150E+02  0.00000000000E+00 0.  1.
          2   -1    0    0  501    0  0.00000000000E+00 -0.00000000000E+00 -0.35679663196E+03  0.35679663196E+03  0.00000000000E+00 0. -1.
         25    2    1    2    0    0 -0.11015391687E+02  0.19084857030E+02 -0.18142059370E+03  0.22146571642E+03  0.12509221043E+03 0.  0.
         23    2    1    2    0    0  0.11015391687E+02 -0.19084857030E+02 -0.14110155011E+03  0.16960540369E+03  0.91491938963E+02 0.  0.
          5    1    3    3  502    0 -0.30795493099E+02  0.55496801571E+02 -0.16475562424E+03  0.17660732006E+03  0.41800000000E+01 0.  1.
         -5    1    3    3    0  502  0.19780101412E+02 -0.36411944541E+02 -0.16664969462E+02  0.44858396363E+02  0.41800000000E+01 0.  1.
        -11    1    4    4    0    0  0.48682121620E+02 -0.22710589184E+02 -0.10145226036E+03  0.11479669403E+03  0.00000000000E+00 0. -1.
         11    1    4    4    0    0 -0.37666729933E+02  0.36257321536E+01 -0.39649289746E+02  0.54808709663E+02  0.00000000000E+00 0.  1.
</event>
<event>
 8    1  0.7281309E-009  0.1288770E+03  0.7561462E-02  0.1229132E+00
          1   -1    0    0  501    0  0.00000000000E+00  0.00000000000E+00  0.10505737938E+03  0.10505737938E+03  0.00000000000E+00 0. -1.
         -1   -1    0    0    0  501 -0.00000000000E+00 -0.00000000000E+00 -0.29079795112E+03  0.29079795112E+03  0.00000000000E+00 0.  1.
         25    2    1    2    0    0 -0.10047502057E+03  0.27996354327E+02 -0.20018756089E+03  0.25807218429E+03  0.12508863720E+03 0.  0.
         23    2    1    2    0    0  0.10047502057E+03 -0.27996354327E+02  0.14446989153E+02  0.13778314621E+03  0.88861995649E+02 0.  0.
          5    1    3    3  502    0 -0.84086154218E+02 -0.15666740718E+02 -0.46574771616E+02  0.97481330761E+02  0.41800000000E+01 0.  1.
         -5    1    3    3    0  502 -0.16388866352E+02  0.43663095046E+02 -0.15361278927E+03  0.16059085353E+03  0.41800000000E+01 0.  1.
        -11    1    4    4    0    0  0.43128460315E+02  0.22712569239E+02 -0.21424956778E+02  0.53244282918E+02  0.00000000000E+00 0.  1.
         11    1    4    4    0    0  0.57346560255E+02 -0.50708923566E+02  0.35871945932E+02  0.84538863295E+02  0.00000000000E+00 0. -1.
</event>
<event>
 8    1  0.7281309E-009  0.1498490E+03  0.7561462E-02  0.1200659E+00
         -2   -1    0    0    0  501 -0.00000000000E+00  0.00000000000E+00  0.31366384309E+02  0.31366384309E+02  0.00000000000E+00 0.  1.
          2   -1    0    0  501    0  0.00000000000E+00 -0.00000000000E+00 -0.10388621209E+04  0.10388621209E+04  0.00000000000E+00 0. -1.
         25    2    1    2    0    0  0.32240298656E+02  0.13988772329E+03 -0.55826212186E+03  0.58983989641E+03  0.12508594930E+03 0.  0.
         23    2    1    2    0    0 -0.32240298656E+02 -0.13988772329E+03 -0.44923361470E+03  0.48038860876E+03  0.91402203859E+02 0.  0.
          5    1    3    3  502    0  0.23261548828E+02  0.11704557133E+03 -0.55116485786E+03  0.56395118438E+03  0.41800000000E+01 0.  1.
         -5    1    3    3    0  502  0.89787498275E+01  0.22842151961E+02 -0.70972640040E+01  0.25888712038E+02  0.41800000000E+01 0.  1.
        -11    1    4    4    0    0 -0.49869232207E+02 -0.10797703508E+03 -0.23834997443E+03  0.26637697111E+03  0.00000000000E+00 0.  1.
         11    1    4    4    0    0  0.17628933551E+02 -0.31910688213E+02 -0.21088364026E+03  0.21401163765E+03  0.00000000000E+00 0. -1.
</event>
<event>
 8    1  0.7281309E-009  0.1582930E+03  0.7561462E-02  0.1190638E+00
          2   -1    0    0  501    0  0.00000000000E+00  0.00000000000E+00  0.40203100255E+03  0.40203100255E+03  0.00000000000E+00 0. -1.
         -2   -1    0    0    0  501 -0.00000000000E+00 -0.00000000000E+00 -0.73402687294E+02  0.73402687294E+02  0.00000000000E+00 0.  1.
         25    2    1    2    0    0 -0.94491822973E+02 -0.87101454952E+02  0.22137505156E+03  0.28490252037E+03  0.12508862696E+03 0.  0.
         23    2    1    2    0    0  0.94491822973E+02  0.87101454952E+02  0.10725326370E+03  0.19053116948E+03  0.91013712733E+02 0.  0.
          5    1    3    3  502    0  0.24809884722E+02 -0.39342003289E+02  0.88134539296E+02  0.99742132620E+02  0.41800000000E+01 0. -1.
         -5    1    3    3    0  502 -0.11930170769E+03 -0.47759451664E+02  0.13324051226E+03  0.18516038775E+03  0.41800000000E+01 0. -1.
        -11    1    4    4    0    0  0.10022645731E+03  0.67369107505E+02  0.11668021189E+03  0.16792323019E+03  0.00000000000E+00 0.  1.
         11    1    4    4    0    0 -0.57346343376E+01  0.19732347447E+02 -0.94269481893E+01  0.22607939290E+02  0.00000000000E+00 0. -1.
</event>
<event>
 8    1  0.7281309E-009  0.1058003E+03  0.7561462E-02  0.1268551E+00
          3   -1    0    0  501    0  0.00000000000E+00  0.00000000000E+00  0.90657518565E+02  0.90657518565E+02  0.00000000000E+00 0. -1.
         -3   -1    0    0    0  501 -0.00000000000E+00 -0.00000000000E+00 -0.18168206402E+03  0.18168206402E+03  0.00000000000E+00 0.  1.
         25    2    1    2    0    0  0.37271243862E+02  0.53707773515E+02 -0.32929010884E+02  0.14493073004E+03  0.12508767404E+03 0.  0.
         23    2    1    2    0    0 -0.37271243862E+02 -0.53707773515E+02 -0.58095534567E+02  0.12740885254E+03  0.92651249393E+02 0.  0.
          5    1    3    3  502    0  0.57329220348E+02  0.65442620617E+02  0.17866188009E+02  0.88915966918E+02  0.41800000000E+01 0. -1.
         -5    1    3    3    0  502 -0.20057976486E+02 -0.11734847102E+02 -0.50795198892E+02  0.56014763123E+02  0.41800000000E+01 0. -1.
        -11    1    4    4    0    0  0.20350718051E+02  0.23615097425E+01 -0.40084757253E+02  0.45016843709E+02  0.00000000000E+00 0.  1.
         11    1    4    4    0    0 -0.57621961914E+02 -0.56069283258E+02 -0.18010777314E+02  0.82392008831E+02  0.00000000000E+00 0. -1.
</event>
<event>
 8    1  0.7281309E-009  0.1521635E+03  0.7561462E-02  0.1197839E+00
         -2   -1    0    0    0  501 -0.00000000000E+00  0.00000000000E+00  0.86369544270E+02  0.86369544270E+02  0.00000000000E+00 0. -1.
          2   -1    0    0  501    0  0.00000000000E+00 -0.00000000000E+00 -0.45318933488E+03  0.45318933488E+03  0.00000000000E+00 0.  1.
         25    2    1    2    0    0  0.70331479653E+02 -0.12668872993E+03 -0.29966180821E+03  0.35558402850E+03  0.12508497392E+03 0.  0.
         23    2    1    2    0    0 -0.70331479653E+02  0.12668872993E+03 -0.67157982394E+02  0.18397485065E+03  0.91323599087E+02 0.  0.
          5    1    3    3  502    0 -0.31928318496E+01 -0.47742558833E+02 -0.20946870380E+03  0.21490499383E+03  0.41800000000E+01 0.  1.
         -5    1    3    3    0  502  0.73524311502E+02 -0.78946171097E+02 -0.90193104410E+02  0.14067903467E+03  0.41800000000E+01 0.  1.
        -11    1    4    4    0    0 -0.63473002514E+02  0.84997990565E+02 -0.17373596509E+01  0.10609664871E+03  0.00000000000E+00 0. -1.
         11    1    4    4    0    0 -0.68584771384E+01  0.41690739366E+02 -0.65420622743E+02  0.77878201941E+02  0.00000000000E+00 0.  1.
</event>
<event>
 8    1  0.7281309E-009  0.1090158E+03  0.7561462E-02  0.1262403E+00
          2   -1    0    0  501    0  0.00000000000E+00  0.00000000000E+00  0.86089279075E+02  0.86089279075E+02  0.00000000000E+00 0. -1.
         -2   -1    0    0    0  501 -0.00000000000E+00 -0.00000000000E+00 -0.18131272979E+03  0.18131272979E+03  0.00000000000E+00 0.  1.
         25    2    1    2    0    0  0.52916353100E+02  0.26709925389E+02 -0.36313145878E+02  0.14310779362E+03  0.12509050920E+03 0.  0.
         23    2    1    2    0    0 -0.52916353100E+02 -0.26709925389E+02 -0.58910304841E+02  0.12429421525E+03  0.92005800839E+02 0.  0.
          5    1    3    3  502    0 -0.28964333490E+02  0.25744588311E+02  0.19833970287E+02  0.43732999202E+02  0.41800000000E+01 0. -1.
         -5    1    3    3    0  502  0.81880686590E+02  0.96533707809E+00 -0.56147116165E+02  0.99374794419E+02  0.41800000000E+01 0. -1.
        -11    1    4    4    0    0 -0.60650202590E+02 -0.46102970665E+02 -0.67435740260E+02  0.10174237093E+03  0.00000000000E+00 0.  1.
         11    1    4    4    0    0  0.77338494900E+01  0.19393045275E+02  0.85254354197E+01  0.22551844317E+02  0.00000000000E+00 0. -1.
</event>
<event>
 8    1  0.7281309E-009  0.3597754E+03  0.7561462E-02  0.1058673E+00
         -1   -1    0    0    0  501 -0.00000000000E+00  0.00000000000E+00  0.23044255013E+03  0.23044255013E+03  0.00000000000E+00 0.  1.
          1   -1    0    0  501    0  0.00000000000E+00 -0.00000000000E+00 -0.58128865331E+03  0.58128865331E+03  0.00000000000E+00 0. -1.
         25    2    1    2    0    0  0.34698420912E+03 -0.38779905090E+02 -0.18689005914E+03  0.41530569270E+03  0.12509597022E+03 0.  0.
         23    2    1    2    0    0 -0.34698420912E+03  0.38779905090E+02 -0.16395604405E+03  0.39642551074E+03  0.91485948490E+02 0.  0.
          5    1    3    3  502    0  0.17682855641E+03 -0.74940088070E+02 -0.13111738888E+03  0.23258030275E+03  0.41800000000E+01 0. -1.
         -5    1    3    3    0  502  0.17015565271E+03  0.36160182980E+02 -0.55772670256E+02  0.18272538994E+03  0.41800000000E+01 0. -1.
        -11    1    4    4    0    0 -0.19899314532E+03 -0.51930432025E+01 -0.13176298395E+03  0.23871892158E+03  0.00000000000E+00 0. -1.
         11    1    4    4    0    0 -0.14799106380E+03  0.43972948293E+02 -0.32193060095E+02  0.15770658916E+03  0.00000000000E+00 0.  1.
</event>
<event>
 8    1  0.7281309E-009  0.1100334E+03  0.7561462E-02  0.1260508E+00
          1   -1    0    0  501    0  0.00000000000E+00  0.00000000000E+00  0.46338456232E+03  0.46338456232E+03  0.00000000000E+00 0. -1.
         -1   -1    0    0    0  501 -0.00000000000E+00 -0.00000000000E+00 -0.54573307811E+02  0.54573307811E+02  0.00000000000E+00 0.  1.
         25    2    1    2    0    0  0.44360577793E+02 -0.25606769006E+02  0.38819540122E+03  0.41105370276E+03  0.12508361021E+03 0.  0.
         23    2    1    2    0    0 -0.44360577793E+02  0.25606769006E+02  0.20615853288E+02  0.10690416737E+03  0.91541903594E+02 0.  0.
          5    1    3    3  502    0 -0.76168959967E+01 -0.62581152779E+02  0.26300363520E+03  0.27048623314E+03  0.41800000000E+01 0. -1.
         -5    1    3    3    0  502  0.51977473790E+02  0.36974383773E+02  0.12519176602E+03  0.14056746962E+03  0.41800000000E+01 0. -1.
        -11    1    4    4    0    0 -0.26849046937E+02 -0.26661546292E+02 -0.15621888789E+02  0.40935959515E+02  0.00000000000E+00 0.  1.
         11    1    4    4    0    0 -0.17511530856E+02  0.52268315298E+02  0.36237742077E+02  0.65968207857E+02  0.00000000000E+00 0. -1.
</event>
<event>
 8    1  0.7281309E-009  0.8333816E+02  0.7561462E-02  0.1319837E+00
          1   -1    0    0  501    0  0.00000000000E+00  0.00000000000E+00  0.36163961912E+02  0.36163961912E+02  0.00000000000E+00 0.  1.
         -1   -1    0    0    0  501 -0.00000000000E+00 -0.00000000000E+00 -0.54229711478E+03  0.54229711478E+03  0.00000000000E+00 0. -1.
         25    2    1    2    0    0  0.72535419588E+01 -0.33053943761E+02 -0.44437506357E+03  0.46288349906E+03  0.12508700776E+03 0.  0.
         23    2    1    2    0    0 -0.72535419588E+01  0.33053943761E+02 -0.61758089304E+02  0.11557757764E+03  0.91645718881E+02 0.  0.
          5    1    3    3  502    0 -0.30813721299E+02 -0.29419925261E+02 -0.46696251154E+02  0.63348478233E+02  0.41800000000E+01 0.  1.
         -5    1    3    3    0  502  0.38067263258E+02 -0.36340184998E+01 -0.39767881241E+03  0.39953502082E+03  0.41800000000E+01 0.  1.
        -11    1    4    4    0    0 -0.42796213853E+02  0.13731177613E+02 -0.60153828275E+02  0.75090240477E+02  0.00000000000E+00 0.  1.
         11    1    4    4    0    0  0.35542671894E+02  0.19322766147E+02 -0.16042610296E+01  0.40487337161E+02  0.00000000000E+00 0. -1.
</event>
<event>
 8    1  0.7281309E-009  0.8183775E+02  0.7561462E-02  0.1323916E+00
          2   -1    0    0  501    0  0.00000000000E+00  0.00000000000E+00  0.26003648570E+03  0.26003648570E+03  0.00000000000E+00 0. -1.
         -2   -1    0    0    0  501 -0.00000000000E+00 -0.00000000000E+00 -0.58646250075E+02  0.58646250075E+02  0.00000000000E+00 0.  1.
         25    2    1    2    0    0  0.16633816272E+02 -0.39039777245E+02  0.69320963896E+02  0.14918377198E+03  0.12509841620E+03 0.  0.
         23    2    1    2    0    0 -0.16633816272E+02  0.39039777245E+02  0.13206927173E+03  0.16949896380E+03  0.97400298467E+02 0.  0.
          5    1    3    3  502    0  0.42227163624E+02  0.23683575859E+02  0.65022033124E+02  0.81175010346E+02  0.41800000000E+01 0.  1.
         -5    1    3    3    0  502 -0.25593347353E+02 -0.62723353103E+02  0.42989307723E+01  0.68008761634E+02  0.41800000000E+01 0.  1.
        -11    1    4    4    0    0  0.21987660855E+01  0.21045415255E+02 -0.11158571973E+02  0.23921910543E+02  0.00000000000E+00 0.  1.
         11    1    4    4    0    0 -0.18832582357E+02  0.17994361990E+02  0.14322784371E+03  0.14557705325E+03  0.00000000000E+00 0. -1.
</event>
<event>
 8    1  0.7281309E-009  0.1226928E+03  0.7561462E-02  0.1238720E+00
          1   -1    0    0  501    0  0.00000000000E+00  0.00000000000E+00  0.21980910988E+03  0.21980910988E+03  0.00000000000E+00 0. -1.
         -1   -1    0    0    0  501 -0.00000000000E+00 -0.00000000000E+00 -0.77549841425E+02  0.77549841425E+02  0.00000000000E+00 0.  1.
         25    2    1    2    0    0  0.47892324841E+02  0.54368493648E+02  0.91677336828E+02  0.17117987672E+03  0.12509279845E+03 0.  0.
         23    2    1    2    0    0 -0.47892324841E+02 -0.54368493648E+02  0.50581931631E+02  0.12617907459E+03  0.90072299723E+02 0.  0.
          5    1    3    3  502    0 -0.34959404079E+02  0.13827299237E+02  0.64768558509E+02  0.75005284541E+02  0.41800000000E+01 0. -1.
         -5    1    3    3    0  502  0.82851728920E+02  0.40541194411E+02  0.26908778320E+02  0.96174592175E+02  0.41800000000E+01 0. -1.
        -11    1    4    4    0    0  0.23146641095E+02  0.37417538373E+01  0.14462475116E+02  0.27548700554E+02  0.00000000000E+00 0.  1.
         11    1    4    4    0    0 -0.71038965936E+02 -0.58110247486E+02  0.36119456515E+02  0.98630374039E+02  0.00000000000E+00 0. -1.
</event>
<event>
 7    1  0.7281309E-009  0.1425696E+03  0.7561462E-02  0.1209913E+00
          2   -1    0    0  501    0  0.00000000000E+00  0.00000000000E+00  0.16941159332E+04  0.16941159332E+04  0.00000000000E+00 0. -1.
         -2   -1    0    0    0  501 -0.00000000000E+00 -0.00000000000E+00 -0.17766977988E+02  0.17766977988E+02  0.00000000000E+00 0.  1.
         25    2    1    2    0    0  0.82370157717E+02 -0.58348390924E+02  0.10195879939E+04  0.10321799543E+04  0.12508558337E+03 0.  0.
          5    1    3    3  502    0  0.88293101978E+02 -0.60430117715E+02  0.45079263909E+03  0.46333459491E+03  0.41800000000E+01 0.  1.
         -5    1    3    3    0  502 -0.59229442611E+01  0.20817267910E+01  0.56879535477E+03  0.56884535936E+03  0.41800000000E+01 0.  1.
        -11    1    1    2    0    0 -0.90119838842E+02 -0.19569356548E+02  0.43078262595E+03  0.44054309197E+03  0.00000000000E+00 0. -1.
         11    1    1    2    0    0  0.77496811255E+01  0.77917747472E+02  0.22597833543E+03  0.23915986497E+03  0.00000000000E+00 0.  1.
</event>
<event>
 8    1  0.7281309E-009  0.2042121E+03  0.7561462E-02  0.1146233E+00
          2   -1    0    0  501    0  0.00000000000E+00  0.00000000000E+00  0.63658473504E+03  0.63658473504E+03  0.00000000000E+00 0. -1.
         -2   -1    0    0    0  501 -0.00000000000E+00 -0.00000000000E+00 -0.75947873820E+02  0.75947873820E+02  0.00000000000E+00 0.  1.
         25    2    1    2    0    0 -0.14639373870E+03 -0.11864578396E+03  0.24321892716E+03  0.33213095859E+03  0.12509028077E+03 0.  0.
         23    2    1    2    0    0  0.14639373870E+03  0.11864578396E+03  0.31741793405E+03  0.38040165027E+03  0.91887550229E+02 0.  0.
          5    1    3    3  502    0 -0.99247451464E+02 -0.80904370060E+01  0.72231421262E+02  0.12308680843E+03  0.41800000000E+01 0.  1.
         -5    1    3    3    0  502 -0.47146287233E+02 -0.11055534695E+03  0.17098750590E+03  0.20904415015E+03  0.41800000000E+01 0.  1.
        -11    1    4    4    0    0  0.11562203175E+03  0.91106665418E+02  0.30264137516E+03  0.33654224203E+03  0.00000000000E+00 0. -1.
         11    1    4    4    0    0  0.30771706946E+02  0.27539118540E+02  0.14776558890E+02  0.43859408238E+02  0.00000000000E+00 0.  1.
</event>
<event>
 8    1  0.7281309E-009  0.2003463E+03  0.7561462E-02  0.1149447E+00
          2   -1    0    0  501    0  0.00000000000E+00  0.00000000000E+00  0.77168304386E+03  0.77168304386E+03  0.00000000000E+00 0. -1.
         -2   -1    0    0    0  501 -0.00000000000E+00 -0.00000000000E+00 -0.62999824532E+02  0.62999824532E+02  0.00000000000E+00 0.  1.
         25    2    1    2    0    0 -0.16039721398E+03  0.10166216086E+03  0.31797229680E+03  0.39091747264E+03  0.12509047796E+03 0.  0.
         23    2    1    2    0    0  0.16039721398E+03 -0.10166216086E+03  0.39071092253E+03  0.44376539576E+03  0.90610376259E+02 0.  0.
          5    1    3    3  502    0 -0.43593569996E+02  0.31995238410E+02  0.11280181932E+02  0.55396836826E+02  0.41800000000E+01 0. -1.
         -5    1    3    3    0  502 -0.11680364398E+03  0.69666922449E+02  0.30669211487E+03  0.33552063581E+03  0.41800000000E+01 0. -1.
        -11    1    4    4    0    0  0.56709367511E+02  0.10467577980E+02  0.10433571151E+03  0.11921184190E+03  0.00000000000E+00 0.  1.
         11    1    4    4    0    0  0.10368784647E+03 -0.11212973884E+03  0.28637521102E+03  0.32455355386E+03  0.00000000000E+00 0. -1.
</event>
<event>
 8    1  0.7281309E-009  0.1373362E+03  0.7561462E-02  0.1216959E+00
         -1   -1    0    0    0  501 -0.00000000000E+00  0.00000000000E+00  0.48849280382E+02  0.48849280382E+02  0.00000000000E+00 0.  1.
          1   -1    0    0  501    0  0.00000000000E+00 -0.00000000000E+00 -0.45328757612E+03  0.45328757612E+03  0.00000000000E+00 0. -1.
         25    2    1    2    0    0 -0.97076051855E+02 -0.37289591807E+01 -0.16632823360E+03  0.22967582708E+03  0.12509292256E+03 0.  0.
         23    2    1    2    0    0  0.97076051855E+02  0.37289591807E+01 -0.23811006214E+03  0.27246102942E+03  0.90005254738E+02 0.  0.
          5    1    3    3  502    0 -0.47146096952E+02  0.57701024449E+02 -0.53678543072E+02  0.91929435257E+02  0.41800000000E+01 0.  1.
         -5    1    3    3    0  502 -0.49929954903E+02 -0.61429983630E+02 -0.11264969053E+03  0.13774639183E+03  0.41800000000E+01 0.  1.
        -11    1    4    4    0    0  0.73740196500E+02  0.35102915259E+02 -0.20688770246E+03  0.22242381318E+03  0.00000000000E+00 0. -1.
         11    1    4    4    0    0  0.23335855355E+02 -0.31373956078E+02 -0.31222359675E+02  0.50037216238E+02  0.00000000000E+00 0.  1.
</event>
<event>
 8    1  0.7281309E-009  0.1060419E+03  0.7561462E-02  0.1268080E+00
          2   -1    0    0  501    0  0.00000000000E+00  0.00000000000E+00  0.42136701545E+02  0.42136701545E+02  0.00000000000E+00 0. -1.
         -2   -1    0    0    0  501 -0.00000000000E+00 -0.00000000000E+00 -0.39834434559E+03  0.39834434559E+03  0.00000000000E+00 0.  1.
         25    2    1    2    0    0  0.45327750749E+02  0.50297580494E+02 -0.16529157626E+03  0.21806679872E+03  0.12508945571E+03 0.  0.
         23    2    1    2    0    0 -0.45327750749E+02 -0.50297580494E+02 -0.19091606778E+03  0.22241424842E+03  0.91840630271E+02 0.  0.
          5    1    3    3  502    0  0.22104445758E+02  0.91620666767E+02 -0.11655851570E+03  0.14995437000E+03  0.41800000000E+01 0.  1.
         -5    1    3    3    0  502  0.23223304990E+02 -0.41323086273E+02 -0.48733060561E+02  0.68112428715E+02  0.41800000000E+01 0.  1.
        -11    1    4    4    0    0 -0.16747202025E+02 -0.32292979717E+02 -0.91151663063E+01  0.37501887572E+02  0.00000000000E+00 0. -1.
         11    1    4    4    0    0 -0.28580548724E+02 -0.18004600777E+02 -0.18180090148E+03  0.18491236084E+03  0.00000000000E+00 0.  1.
</event>
<event>
 8    1  0.7281309E-009  0.1078458E+03  0.7561462E-02  0.1264612E+00
         -3   -1    0    0    0  501 -0.00000000000E+00  0.00000000000E+00  0.12192742745E+03  0.12192742745E+03  0.00000000000E+00 0.  1.
          3   -1    0    0  501    0  0.00000000000E+00 -0.00000000000E+00 -0.14055832769E+03  0.14055832769E+03  0.00000000000E+00 0. -1.
         25    2    1    2    0    0  0.42650445053E+02 -0.30753409284E+02 -0.61285037634E+02  0.14888958554E+03  0.12508964864E+03 0.  0.
         23    2    1    2    0    0 -0.42650445053E+02  0.30753409284E+02  0.42654137393E+02  0.11359616960E+03  0.91213385341E+02 0.  0.
          5    1    3    3  502    0  0.42898091224E+02 -0.69857968302E+02 -0.70830527216E+02  0.10841963822E+03  0.41800000000E+01 0. -1.
         -5    1    3    3    0  502 -0.24764617116E+00  0.39104559017E+02  0.95454895817E+01  0.40469947318E+02  0.41800000000E+01 0. -1.
        -11    1    4    4    0    0 -0.65592568394E+02  0.27431372594E+02  0.52530424807E+02  0.88398590268E+02  0.00000000000E+00 0. -1.
         11    1    4    4    0    0  0.22942123341E+02  0.33220366901E+01 -0.98762874138E+01  0.25197579333E+02  0.00000000000E+00 0.  1.
</event>
<event>
 8    1  0.7281309E-009  0.6611444E+02  0.7561462E-02  0.1373828E+00
          1   -1    0    0  501    0  0.00000000000E+00  0.00000000000E+00  0.53921638606E+03  0.53921638606E+03  0.00000000000E+00 0. -1.
         -1   -1    0    0    0  501 -0.00000000000E+00 -0.00000000000E+00 -0.30347377951E+02  0.30347377951E+02  0.00000000000E+00 0.  1.
         25    2    1    2    0    0 -0.17058369817E+02  0.54112312545E+02  0.29726260489E+03  0.32746274099E+03  0.12509060762E+03 0.  0.
         23    2    1    2    0    0  0.17058369817E+02 -0.54112312545E+02  0.21160640322E+03  0.24210102303E+03  0.10303642617E+03 0.  0.
          5    1    3    3  502    0 -0.31905449514E+02  0.31258493643E+02  0.20487948982E+02  0.49318146630E+02  0.41800000000E+01 0.  1.
         -5    1    3    3    0  502  0.14847079697E+02  0.22853818902E+02  0.27677465591E+03  0.27814459436E+03  0.41800000000E+01 0.  1.
        -11    1    4    4    0    0  0.21078470384E+02 -0.41304891235E+02  0.22093836342E+03  0.22575242277E+03  0.00000000000E+00 0. -1.
         11    1    4    4    0    0 -0.40201005669E+01 -0.12807421310E+02 -0.93319602056E+01  0.16348600260E+02  0.00000000000E+00 0.  1.
</event>
<event>
 8    1  0.7281309E-009  0.8863104E+02  0.7561462E-02  0.1306201E+00
         -1   -1    0    0    0  501 -0.00000000000E+00  0.00000000000E+00  0.49915253942E+02  0.49915253942E+02  0.00000000000E+00 0.  1.
          1   -1    0    0  501    0  0.00000000000E+00 -0.00000000000E+00 -0.25875786351E+03  0.25875786351E+03  0.00000000000E+00 0. -1.
         25    2    1    2    0    0 -0.24598636361E+01  0.28794622793E+02 -0.14766152269E+03  0.19566997935E+03  0.12509050445E+03 0.  0.
         23    2    1    2    0    0  0.24598636361E+01 -0.28794622793E+02 -0.61181086878E+02  0.11300313810E+03  0.90506367723E+02 0.  0.
          5    1    3    3  502    0  0.93573856756E+01 -0.43336293113E+02 -0.20689945847E+02  0.49103372864E+02  0.41800000000E+01 0. -1.
         -5    1    3    3    0  502 -0.11817249312E+02  0.72130915906E+02 -0.12697157684E+03  0.14656660648E+03  0.41800000000E+01 0. -1.
        -11    1    4    4    0    0  0.26895071707E+02 -0.20124208232E+02  0.11760933110E+02  0.35590001219E+02  0.00000000000E+00 0.  1.
         11    1    4    4    0    0 -0.24435208071E+02 -0.86704145604E+01 -0.72942019988E+02  0.77413136883E+02  0.00000000000E+00 0. -1.
</event>
<event>
 8    1  0.7281309E-009  0.9769352E+02  0.7561462E-02  0.1285222E+00
         -2   -1    0    0    0  501 -0.00000000000E+00  0.00000000000E+00  0.14845198619E+03  0.14845198619E+03  0.00000000000E+00 0.  1.
          2   -1    0    0  501    0  0.00000000000E+00 -0.00000000000E+00 -0.12929640156E+03  0.12929640156E+03  0.00000000000E+00 0. -1.
         25    2    1    2    0    0 -0.15286010994E+01  0.68954444270E+02  0.61315294720E+02  0.15544690295E+03  0.12508845775E+03 0.  0.
         23    2    1    2    0    0  0.15286010994E+01 -0.68954444270E+02 -0.42159710089E+02  0.12230148480E+03  0.91777775218E+02 0.  0.
          5    1    3    3  502    0  0.29655648455E+02 -0.12269724973E+02  0.60184087804E+02  0.68334474909E+02  0.41800000000E+01 0.  1.
         -5    1    3    3    0  502 -0.31184249555E+02  0.81224169243E+02  0.11312069159E+01  0.87112428038E+02  0.41800000000E+01 0.  1.
        -11    1    4    4    0    0  0.16309091921E+02 -0.43851590872E+02  0.22102888760E+02  0.51744431515E+02  0.00000000000E+00 0.  1.
         11    1    4    4    0    0 -0.14780490822E+02 -0.25102853398E+02 -0.64262598849E+02  0.70557053287E+02  0.00000000000E+00 0. -1.
</event>
<event>
 8    1  0.7281309E-009  0.9842907E+02  0.7561462E-02  0.1283635E+00
          2   -1    0    0  501    0  0.00000000000E+00  0.00000000000E+00  0.69862882398E+03  0.69862882398E+03  0.00000000000E+00 0. -1.
         -2   -1    0    0    0  501 -0.00000000000E+00 -0.00000000000E+00 -0.20584260905E+02  0.20584260905E+02  0.00000000000E+00 0.  1.
         25    2    1    2    0    0 -0.47327283066E+02 -0.15594037951E+02  0.41134027208E+03  0.43281750659E+03  0.12508848403E+03 0.  0.
         23    2    1    2    0    0  0.47327283066E+02  0.15594037951E+02  0.26670429099E+03  0.28639557829E+03  0.91696252307E+02 0.  0.
          5    1    3    3  502    0 -0.36853540677E+02 -0.49387611889E+02  0.38114530575E+03  0.38611725702E+03  0.41800000000E+01 0.  1.
         -5    1    3    3    0  502 -0.10473742389E+02  0.33793573938E+02  0.30194966327E+02  0.46700249578E+02  0.41800000000E+01 0.  1.
        -11    1    4    4    0    0 -0.17441572362E+02  0.28512391924E+02  0.52464064602E+02  0.62206454764E+02  0.00000000000E+00 0.  1.
         11    1    4    4    0    0  0.64768855427E+02 -0.12918353973E+02  0.21424022639E+03  0.22418912353E+03  0.00000000000E+00 0. -1.
</event>
<event>
 8    1  0.7281309E-009  0.1057499E+03  0.7561462E-02  0.1268649E+00
          1   -1    0    0  501    0  0.00000000000E+00  0.00000000000E+00  0.27138720730E+03  0.27138720730E+03  0.00000000000E+00 0. -1.
         -1   -1    0    0    0  501 -0.00000000000E+00 -0.00000000000E+00 -0.74158946496E+02  0.74158946496E+02  0.00000000000E+00 0.  1.
         25    2    1    2    0    0  0.29808485652E+01  0.82981586925E+02  0.64130832857E+02  0.16326300477E+03  0.12508883154E+03 0.  0.
         23    2    1    2    0    0 -0.29808485652E+01 -0.82981586925E+02  0.13309742795E+03  0.18228314902E+03  0.92829908247E+02 0.  0.
          5    1    3    3  502    0  0.34705413298E+02  0.82837925154E+02 -0.18518891060E+01  0.89930470082E+02  0.41800000000E+01 0.  1.
         -5    1    3    3    0  502 -0.31724564733E+02  0.14366177112E+00  0.65982721963E+02  0.73332534688E+02  0.41800000000E+01 0.  1.
        -11    1    4    4    0    0  0.14661239470E+02 -0.24986868079E+02  0.11562128491E+03  0.11919554121E+03  0.00000000000E+00 0. -1.
         11    1    4    4    0    0 -0.17642088035E+02 -0.57994718846E+02  0.17476143032E+02  0.63087607813E+02  0.00000000000E+00 0.  1.
</event>
<event>
 8    1  0.7281309E-009  0.1097051E+03  0.7561462E-02  0.1261117E+00
          2   -1    0    0  501    0  0.00000000000E+00  0.00000000000E+00  0.40748282999E+03  0.40748282999E+03  0.00000000000E+00 0. -1.
         -2   -1    0    0    0  501 -0.00000000000E+00 -0.00000000000E+00 -0.39642000104E+02  0.39642000104E+02  0.00000000000E+00 0.  1.
         25    2    1    2    0    0 -0.69453934674E+01 -0.35993293595E+02  0.29807742752E+03  0.32533674372E+03  0.12510031312E+03 0.  0.
         23    2    1    2    0    0  0.69453934674E+01  0.35993293595E+02  0.69763402364E+02  0.12178808637E+03  0.92852840553E+02 0.  0.
          5    1    3    3  502    0 -0.64285112317E+02 -0.12162310420E+02  0.12065634635E+03  0.13731687360E+03  0.41800000000E+01 0. -1.
         -5    1    3    3    0  502  0.57339718849E+02 -0.23830983175E+02  0.17742108117E+03  0.18801987012E+03  0.41800000000E+01 0. -1.
        -11    1    4    4    0    0 -0.81510341109E+01  0.61466966288E+02  0.68145833294E+02  0.92132957714E+02  0.00000000000E+00 0.  1.
         11    1    4    4    0    0  0.15096427578E+02 -0.25473672693E+02  0.16175690700E+01  0.29655128659E+02  0.00000000000E+00 0. -1.
</event>
<event>
 8    1  0.7281309E-009  0.1254050E+03  0.7561462E-02  0.1234438E+00
         -2   -1    0    0    0  501 -0.00000000000E+00  0.00000000000E+00  0.38933204295E+02  0.38933204295E+02  0.00000000000E+00 0.  1.
          2   -1    0    0  501    0  0.00000000000E+00 -0.00000000000E+00 -0.67721197102E+03  0.67721197102E+03  0.00000000000E+00 0. -1.
         25    2    1    2    0    0  0.45602294249E+02  0.83011740014E+02 -0.50517736527E+03  0.52898207916E+03  0.12508937392E+03 0.  0.
         23    2    1    2    0    0 -0.45602294249E+02 -0.83011740014E+02 -0.13310140145E+03  0.18716309615E+03  0.91342888459E+02 0.  0.
          5    1    3    3  502    0 -0.18821637558E+02  0.10187347587E+00 -0.27812705479E+03  0.27879453981E+03  0.41800000000E+01 0. -1.
         -5    1    3    3    0  502  0.64423931807E+02  0.82909866538E+02 -0.22705031048E+03  0.25018753936E+03  0.41800000000E+01 0. -1.
        -11    1    4    4    0    0 -0.49951703752E+02 -0.98456629111E+02 -0.94370621633E+02  0.14524012789E+03  0.00000000000E+00 0.  1.
         11    1    4    4    0    0  0.43494095026E+01  0.15444889097E+02 -0.38730779814E+02  0.41922968254E+02  0.00000000000E+00 0. -1.
</event>
<event>
 8    1  0.7281309E-009  0.1202089E+03  0.7561462E-02  0.1242753E+00
         -2   -1    0    0    0  501 -0.00000000000E+00  0.00000000000E+00  0.43819409573E+02  0.43819409573E+02  0.00000000000E+00 0.  1.
          2   -1    0    0  501    0  0.00000000000E+00 -0.00000000000E+00 -0.44895252483E+03  0.44895252483E+03  0.00000000000E+00 0. -1.
         25    2    1    2    0    0 -0.66043015800E+02 -0.20485471286E+02 -0.12306456405E+03  0.18861053270E+03  0.12509081362E+03 0.  0.
         23    2    1    2    0    0  0.66043015800E+02  0.20485471286E+02 -0.28206855120E+03  0.30416140170E+03  0.90388916551E+02 0.  0.
          5    1    3    3  502    0 -0.97373251296E+02 -0.18902549221E+02 -0.54876268614E+02  0.11343603348E+03  0.41800000000E+01 0.  1.
         -5    1    3    3    0  502  0.31330235496E+02 -0.15829220645E+01 -0.68188295437E+02  0.75174499221E+02  0.41800000000E+01 0.  1.
        -11    1    4    4    0    0 -0.60573585572E+01  0.35357960790E+02 -0.56906012600E+02  0.67269393144E+02  0.00000000000E+00 0.  1.
         11    1    4    4    0    0  0.72100374357E+02 -0.14872489505E+02 -0.22516253860E+03  0.23689200855E+03  0.00000000000E+00 0. -1.
</event>
<event>
 8    1  0.7281309E-009  0.1618689E+03  0.7561462E-02  0.1186603E+00
          1   -1    0    0  501    0  0.00000000000E+00  0.00000000000E+00  0.44281824312E+03  0.44281824312E+03  0.00000000000E+00 0. -1.
         -1   -1    0    0    0  501 -0.00000000000E+00 -0.00000000000E+00 -0.79182472628E+02  0.79182472628E+02  0.00000000000E+00 0.  1.
         25    2    1    2    0    0 -0.14561067651E+03  0.37797119608E+02  0.17384403888E+03  0.26172498377E+03  0.12508847235E+03 0.  0.
         23    2    1    2    0    0  0.14561067651E+03 -0.37797119608E+02  0.18979173162E+03  0.26027573198E+03  0.95349168333E+02 0.  0.
          5    1    3    3  502    0 -0.84767151538E+02  0.64602628594E+02  0.16215499458E+03  0.19408937186E+03  0.41800000000E+01 0. -1.
         -5    1    3    3    0  502 -0.60843524969E+02 -0.26805508986E+02  0.11689044298E+02  0.67635611916E+02  0.41800000000E+01 0. -1.
        -11    1    4    4    0    0  0.85343474495E+02 -0.20810432966E+02  0.37311370406E+02  0.95439620288E+02  0.00000000000E+00 0.  1.
         11    1    4    4    0    0  0.60267202012E+02 -0.16986686642E+02  0.15248036121E+03  0.16483611169E+03  0.00000000000E+00 0. -1.
</event>
<event>
 8    1  0.7281309E-009  0.1327918E+03  0.7561462E-02  0.1223371E+00
          1   -1    0    0  501    0  0.00000000000E+00  0.00000000000E+00  0.92501370142E+02  0.92501370142E+02  0.00000000000E+00 0. -1.
         -1   -1    0    0    0  501 -0.00000000000E+00 -0.00000000000E+00 -0.27367121239E+03  0.27367121239E+03  0.00000000000E+00 0.  1.
         25    2    1    2    0    0 -0.76178024458E+02 -0.85477068150E+02 -0.12066246781E+03  0.20812580309E+03  0.12508996037E+03 0.  0.
         23    2    1    2    0    0  0.76178024458E+02  0.85477068150E+02 -0.60507374439E+02  0.15804677944E+03  0.90599235869E+02 0.  0.
          5    1    3    3  502    0 -0.57073265847E+02 -0.84249276266E+02 -0.14480326302E+03  0.17703320481E+03  0.41800000000E+01 0.  1.
         -5    1    3    3    0  502 -0.19104758612E+02 -0.12277918837E+01  0.24140795207E+02  0.31092598280E+02  0.41800000000E+01 0.  1.
        -11    1    4    4    0    0  0.58491178542E+02  0.10350349909E+03 -0.39749598630E+02  0.12535638349E+03  0.00000000000E+00 0. -1.
         11    1    4    4    0    0  0.17686845916E+02 -0.18026430937E+02 -0.20757775809E+02  0.32690395949E+02  0.00000000000E+00 0.  1.
</event>
<event>
 8    1  0.7281309E-009  0.8241702E+02  0.7561462E-02  0.1322329E+00
          2   -1    0    0  501    0  0.00000000000E+00  0.00000000000E+00  0.44129588746E+03  0.44129588746E+03  0.00000000000E+00 0. -1.
         -2   -1    0    0    0  501 -0.00000000000E+00 -0.00000000000E+00 -0.36945251662E+02  0.36945251662E+02  0.00000000000E+00 0.  1.
         25    2    1    2    0    0 -0.28938545029E+02  0.19012132326E+02  0.11827693511E+03  0.17560479345E+03  0.12509480221E+03 0.  0.
         23    2    1    2    0    0  0.28938545029E+02 -0.19012132326E+02  0.28607370069E+03  0.30263634567E+03  0.92475374731E+02 0.  0.
          5    1    3    3  502    0 -0.29946455969E+02 -0.18446747480E+02 -0.13979672525E+02  0.38078555140E+02  0.41800000000E+01 0.  1.
         -5    1    3    3    0  502  0.10079109397E+01  0.37458879806E+02  0.13225660764E+03  0.13752623831E+03  0.41800000000E+01 0.  1.
        -11    1    4    4    0    0 -0.28642633715E+02 -0.18553308892E+02  0.56991409385E+02  0.66427753843E+02  0.00000000000E+00 0.  1.
         11    1    4    4    0    0  0.57581178744E+02 -0.45882343408E+00  0.22908229130E+03  0.23620859183E+03  0.00000000000E+00 0. -1.
</event>
<event>
 8    1  0.7281309E-009  0.9204903E+02  0.7561462E-02  0.1297964E+00
         -1   -1    0    0    0  501 -0.00000000000E+00  0.00000000000E+00  0.16417479797E+03  0.16417479797E+03  0.00000000000E+00 0.  1.
          1   -1    0    0  501    0  0.00000000000E+00 -0.00000000000E+00 -0.76716214262E+02  0.76716214262E+02  0.00000000000E+00 0. -1.
         25    2    1    2    0    0  0.83978191263E+01  0.14144912052E+01  0.17097449883E+02  0.12653980956E+03  0.12508987352E+03 0.  0.
         23    2    1    2    0    0 -0.83978191263E+01 -0.14144912052E+01  0.70361133821E+02  0.11435120267E+03  0.89738421253E+02 0.  0.
          5    1    3    3  502    0  0.27377643607E+02  0.50231248850E+02  0.39264835266E+02  0.69511966013E+02  0.41800000000E+01 0. -1.
         -5    1    3    3    0  502 -0.18979824481E+02 -0.48816757645E+02 -0.22167385383E+02  0.57027843542E+02  0.41800000000E+01 0. -1.
        -11    1    4    4    0    0 -0.39595795099E+02 -0.11794872762E+02  0.70218449944E+02  0.81471324560E+02  0.00000000000E+00 0.  1.
         11    1    4    4    0    0  0.31197975973E+02  0.10380381557E+02  0.14268387672E+00  0.32879878114E+02  0.00000000000E+00 0. -1.
</event>
<event>
 8    1  0.7281309E-009  0.8728398E+02  0.7561462E-02  0.1309565E+00
         -2   -1    0    0    0  501 -0.00000000000E+00  0.00000000000E+00  0.29927412882E+03  0.29927412882E+03  0.00000000000E+00 0.  1.
          2   -1    0    0  501    0  0.00000000000E+00 -0.00000000000E+00 -0.72215082965E+02  0.72215082965E+02  0.00000000000E+00 0. -1.
         25    2    1    2    0    0 -0.64196722511E+02 -0.13138715733E+02  0.26884302434E+02  0.14375346433E+03  0.12509375587E+03 0.  0.
         23    2    1    2    0    0  0.64196722511E+02  0.13138715733E+02  0.20017474342E+03  0.22773574746E+03  0.86601372590E+02 0.  0.
          5    1    3    3  502    0 -0.37297461355E+02  0.25428178391E+02 -0.40962981272E+02  0.61099354452E+02  0.41800000000E+01 0.  1.
         -5    1    3    3    0  502 -0.26899261156E+02 -0.38566894123E+02  0.67847283705E+02  0.82654109875E+02  0.41800000000E+01 0.  1.
        -11    1    4    4    0    0  0.18231759028E+02  0.28267407498E+02  0.16374787017E+03  0.16716700736E+03  0.00000000000E+00 0.  1.
         11    1    4    4    0    0  0.45964963483E+02 -0.15128691765E+02  0.36426873253E+02  0.60568740102E+02  0.00000000000E+00 0. -1.
</event>
<event>
 8    1  0.7281309E-009  0.8718777E+02  0.7561462E-02  0.1309808E+00
          2   -1    0    0  501    0  0.00000000000E+00  0.00000000000E+00  0.29267581790E+02  0.29267581790E+02  0.00000000000E+00 0.  1.
         -2   -1    0    0    0  501 -0.00000000000E+00 -0.00000000000E+00 -0.48950604857E+03  0.48950604857E+03  0.00000000000E+00 0. -1.
         25    2    1    2    0    0  0.48719902336E+02 -0.91742241332E+01 -0.23807114706E+03  0.27346774338E+03  0.12509572468E+03 0.  0.
         23    2    1    2    0    0 -0.48719902336E+02  0.91742241332E+01 -0.22216731972E+03  0.24530588698E+03  0.91426828473E+02 0.  0.
          5    1    3    3  502    0  0.65510750109E+02  0.27219716727E+02 -0.21627936702E+03  0.22765502050E+03  0.41800000000E+01 0.  1.
         -5    1    3    3    0  502 -0.16790847773E+02 -0.36393940860E+02 -0.21791780037E+02  0.45812722878E+02  0.41800000000E+01 0.  1.
        -11    1    4    4    0    0 -0.13546430056E+02 -0.15093561666E+02 -0.12782886737E+01  0.20321303919E+02  0.00000000000E+00 0.  1.
         11    1    4    4    0    0 -0.35173472280E+02  0.24267785799E+02 -0.22088903104E+03  0.22498458306E+03  0.00000000000E+00 0. -1.
</event>
<event>
 8    1  0.7281309E-009  0.9980407E+02  0.7561462E-02  0.1280709E+00
          2   -1    0    0  501    0  0.00000000000E+00  0.00000000000E+00  0.95555535772E+03  0.95555535772E+03  0.00000000000E+00 0. -1.
         -2   -1    0    0    0  501 -0.00000000000E+00 -0.00000000000E+00 -0.11727392058E+02  0.11727392058E+02  0.00000000000E+00 0.  1.
         25    2    1    2    0    0 -0.14522263461E+02 -0.51849418499E+01  0.59262224240E+03  0.60587689221E+03  0.12509159272E+03 0.  0.
         23    2    1    2    0    0  0.14522263461E+02  0.51849418499E+01  0.35120572327E+03  0.36140585757E+03  0.83850784575E+02 0.  0.
          5    1    3    3  502    0 -0.58140400634E+02 -0.30025082169E+02  0.44713922962E+03  0.45192120421E+03  0.41800000000E+01 0.  1.
         -5    1    3    3    0  502  0.43618137172E+02  0.24840140319E+02  0.14548301277E+03  0.15395568800E+03  0.41800000000E+01 0.  1.
        -11    1    4    4    0    0  0.34130522549E+01 -0.38471375952E+02  0.12801303071E+03  0.13371249652E+03  0.00000000000E+00 0.  1.
         11    1    4    4    0    0  0.11109211207E+02  0.43656317802E+02  0.22319269255E+03  0.22769336105E+03  0.00000000000E+00 0. -1.
</event>
<event>
 8    1  0.7281309E-009  0.1120831E+03  0.7561462E-02  0.1256760E+00
         -2   -1    0    0    0  501 -0.00000000000E+00  0.00000000000E+00  0.37957318456E+03  0.37957318456E+03  0.00000000000E+00 0.  1.
          2   -1    0    0  501    0  0.00000000000E+00 -0.00000000000E+00 -0.63894376819E+02  0.63894376819E+02  0.00000000000E+00 0. -1.
         25    2    1    2    0    0  0.41860110847E+02 -0.57096309885E+02  0.29220252060E+03  0.32564071320E+03  0.12508918245E+03 0.  0.
         23    2    1    2    0    0 -0.41860110847E+02  0.57096309885E+02  0.23476287140E+02  0.11782684818E+03  0.91212787541E+02 0.  0.
          5    1    3    3  502    0 -0.35092013019E+02 -0.10513199755E+02  0.16936165127E+03  0.17332864179E+03  0.41800000000E+01 0.  1.
         -5    1    3    3    0  502  0.76952123866E+02 -0.46583110130E+02  0.12284086933E+03  0.15231207140E+03  0.41800000000E+01 0.  1.
        -11    1    4    4    0    0 -0.32241786368E+02  0.72351819651E+02 -0.99626640955E+01  0.79834662090E+02  0.00000000000E+00 0. -1.
         11    1    4    4    0    0 -0.96183244795E+01 -0.15255509766E+02  0.33438951236E+02  0.37992186089E+02  0.00000000000E+00 0.  1.
</event>
<event>
 8    1  0.7281309E-009  0.1194890E+03  0.7561462E-02  0.1243942E+00
          2   -1    0    0  501    0  0.00000000000E+00  0.00000000000E+00  0.13672612884E+04  0.13672612884E+04  0.00000000000E+00 0.  1.
         -2   -1    0    0    0  501 -0.00000000000E+00 -0.00000000000E+00 -0.12858868019E+02  0.12858868019E+02  0.00000000000E+00 0. -1.
         25    2    1    2    0    0  0.62977374156E+02  0.18169223098E+02  0.93135331382E+03  0.94199956819E+03  0.12509165028E+03 0.  0.
         23    2    1    2    0    0 -0.62977374156E+02 -0.18169223098E+02  0.42304910656E+03  0.43812058823E+03  0.93181720042E+02 0.  0.
          5    1    3    3  502    0 -0.32695747552E+02  0.10609488022E+02  0.11748662878E+03  0.12248327840E+03  0.41800000000E+01 0. -1.
         -5    1    3    3    0  502  0.95673121708E+02  0.75597350763E+01  0.81386668504E+03  0.81951628979E+03  0.41800000000E+01 0. -1.
        -11    1    4    4    0    0 -0.62724739427E+02 -0.47671942321E+02  0.35985568607E+03  0.36837904639E+03  0.00000000000E+00 0.  1.
         11    1    4    4    0    0 -0.25263472977E+00  0.29502719223E+02  0.63193420483E+02  0.69741541839E+02  0.00000000000E+00 0. -1.
</event>
<event>
 8    1  0.7281309E-009  0.1243448E+03  0.7561462E-02  0.1236097E+00
         -2   -1    0    0    0  501 -0.00000000000E+00  0.00000000000E+00  0.10887665052E+03  0.10887665052E+03  0.00000000000E+00 0.  1.
          2   -1    0    0  501    0  0.00000000000E+00 -0.00000000000E+00 -0.16240070399E+03  0.16240070399E+03  0.00000000000E+00 0. -1.
         25    2    1    2    0    0 -0.39820912895E+02  0.53128959355E+02  0.11630425434E+02  0.14209705534E+03  0.12509162608E+03 0.  0.
         23    2    1    2    0    0  0.39820912895E+02 -0.53128959355E+02 -0.65154478903E+02  0.12918029917E+03  0.89632874257E+02 0.  0.
          5    1    3    3  502    0 -0.10411481377E+02  0.92008252045E+02  0.79851555018E+01  0.93033072061E+02  0.41800000000E+01 0. -1.
         -5    1    3    3    0  502 -0.29409431518E+02 -0.38879292689E+02  0.36452699318E+01  0.49063983278E+02  0.41800000000E+01 0. -1.
        -11    1    4    4    0    0  0.84289964356E+00 -0.66013740620E+02 -0.21926152841E+02  0.69564938071E+02  0.00000000000E+00 0.  1.
         11    1    4    4    0    0  0.38978013251E+02  0.12884781265E+02 -0.43228326062E+02  0.59615361102E+02  0.00000000000E+00 0. -1.
</event>
<event>
 8    1  0.7281309E-009  0.1637109E+03  0.7561462E-02  0.1184570E+00
         -2   -1    0    0    0  501 -0.00000000000E+00  0.00000000000E+00  0.30431504587E+02  0.30431504587E+02  0.00000000000E+00 0.  1.
          2   -1    0    0  501    0  0.00000000000E+00 -0.00000000000E+00 -0.12480383282E+04  0.12480383282E+04  0.00000000000E+00 0. -1.
         25    2    1    2    0    0  0.12269328654E+03 -0.89814987517E+02 -0.45709398677E+03  0.49769695470E+03  0.12508785484E+03 0.  0.
         23    2    1    2    0    0 -0.12269328654E+03  0.89814987517E+02 -0.76051283682E+03  0.78077287807E+03  0.90034091403E+02 0.  0.
          5    1    3    3  502    0  0.32371437254E+02 -0.23383881970E+02 -0.31054173142E+03  0.31312673990E+03  0.41800000000E+01 0. -1.
         -5    1    3    3    0  502  0.90321849285E+02 -0.66431105547E+02 -0.14655225535E+03  0.18457021480E+03  0.41800000000E+01 0. -1.
        -11    1    4    4    0    0 -0.96291122583E+02  0.17213393478E+02 -0.37140477346E+03  0.38407002871E+03  0.00000000000E+00 0. -1.
         11    1    4    4    0    0 -0.26402163956E+02  0.72601594039E+02 -0.38910806336E+03  0.39670284936E+03  0.00000000000E+00 0.  1.
</event>
<event>
 8    1  0.7281309E-009  0.1752591E+03  0.7561462E-02  0.1172472E+00
         -1   -1    0    0    0  501 -0.00000000000E+00  0.00000000000E+00  0.20189301680E+03  0.20189301680E+03  0.00000000000E+00 0.  1.
          1   -1    0    0  501    0  0.00000000000E+00 -0.00000000000E+00 -0.21504610239E+03  0.21504610239E+03  0.00000000000E+00 0. -1.
         25    2    1    2    0    0 -0.16116783397E+03 -0.66840164793E+02  0.35763393268E+02  0.21764506491E+03  0.12509066971E+03 0.  0.
         23    2    1    2    0    0  0.16116783397E+03  0.66840164793E+02 -0.48916478856E+02  0.19929405428E+03  0.82961556355E+02 0.  0.
          5    1    3    3  502    0 -0.88852229279E+02 -0.44283911837E+02 -0.43014595087E+02  0.10827516468E+03  0.41800000000E+01 0.  1.
         -5    1    3    3    0  502 -0.72315604687E+02 -0.22556252956E+02  0.78777988354E+02  0.10936990024E+03  0.41800000000E+01 0.  1.
        -11    1    4    4    0    0  0.98850936778E+02  0.32052299027E+02  0.13105648606E+02  0.10474070651E+03  0.00000000000E+00 0.  1.
         11    1    4    4    0    0  0.62316897188E+02  0.34787865766E+02 -0.62022127462E+02  0.94553347770E+02  0.00000000000E+00 0. -1.
</event>
<event>
 8    1  0.7281309E-009  0.1093725E+03  0.7561462E-02  0.1261736E+00
         -2   -1    0    0    0  501 -0.00000000000E+00  0.00000000000E+00  0.52123461950E+03  0.52123461950E+03  0.00000000000E+00 0.  1.
          2   -1    0    0  501    0  0.00000000000E+00 -0.00000000000E+00 -0.38090373751E+02  0.38090373751E+02  0.00000000000E+00 0. -1.
         25    2    1    2    0    0 -0.53566830236E+02  0.53994726786E+02  0.17134066253E+03  0.22536637248E+03  0.12509014104E+03 0.  0.
         23    2    1    2    0    0  0.53566830236E+02 -0.53994726786E+02  0.31180358321E+03  0.33395862077E+03  0.92314950357E+02 0.  0.
          5    1    3    3  502    0 -0.87797613621E+01 -0.16047664515E+02 -0.13185345153E+02  0.22933326683E+02  0.41800000000E+01 0.  1.
         -5    1    3    3    0  502 -0.44787068874E+02  0.70042391301E+02  0.18452600769E+03  0.20243304580E+03  0.41800000000E+01 0.  1.
        -11    1    4    4    0    0  0.57124567532E+02  0.52702341634E+01  0.11698190352E+03  0.13029104856E+03  0.00000000000E+00 0. -1.
         11    1    4    4    0    0 -0.35577372960E+01 -0.59264960949E+02  0.19482167969E+03  0.20366757221E+03  0.00000000000E+00 0.  1.
</event>
<event>
 8    1  0.7281309E-009  0.1261280E+03  0.7561462E-02  0.1233317E+00
          1   -1    0    0  501    0  0.00000000000E+00  0.00000000000E+00  0.21186524261E+03  0.21186524261E+03  0.00000000000E+00 0. -1.
         -1   -1    0    0    0  501 -0.00000000000E+00 -0.00000000000E+00 -0.93387613610E+02  0.93387613610E+02  0.00000000000E+00 0.  1.
         25    2    1    2    0    0  0.38926799707E+02 -0.58429814937E+02  0.12280886529E+03  0.18884901359E+03  0.12511032543E+03 0.  0.
         23    2    1    2    0    0 -0.38926799707E+02  0.58429814937E+02 -0.43312362916E+01  0.11640384263E+03  0.92745651987E+02 0.  0.
          5    1    3    3  502    0 -0.31126411064E+02 -0.63942564850E+02  0.46723271648E+02  0.85194140519E+02  0.41800000000E+01 0. -1.
         -5    1    3    3    0  502  0.70053210771E+02  0.55127499126E+01  0.76085593644E+02  0.10365487307E+03  0.41800000000E+01 0. -1.
        -11    1    4    4    0    0 -0.59612138267E+02  0.13443745543E+02  0.15535274961E+02  0.63053041886E+02  0.00000000000E+00 0. -1.
         11    1    4    4    0    0  0.20685338560E+02  0.44986069394E+02 -0.19866511252E+02  0.53350800745E+02  0.00000000000E+00 0.  1.
</event>
<event>
 8    1  0.7281309E-009  0.9463995E+02  0.7561462E-02  0.1291989E+00
         -2   -1    0    0    0  501 -0.00000000000E+00  0.00000000000E+00  0.77053570934E+03  0.77053570934E+03  0.00000000000E+00 0.  1.
          2   -1    0    0  501    0  0.00000000000E+00 -0.00000000000E+00 -0.14445689241E+02  0.14445689241E+02  0.00000000000E+00 0. -1.
         25    2    1    2    0    0  0.10159943624E+02 -0.34993976552E+02  0.60491144532E+03  0.61878375137E+03  0.12509065285E+03 0.  0.
         23    2    1    2    0    0 -0.10159943624E+02  0.34993976552E+02  0.15117857478E+03  0.16619764721E+03  0.58642080602E+02 0.  0.
          5    1    3    3  502    0  0.41031667216E+02 -0.71084674684E+02  0.40650988334E+03  0.41473411524E+03  0.41800000000E+01 0. -1.
         -5    1    3    3    0  502 -0.30871723592E+02  0.36090698132E+02  0.19840156198E+03  0.20404963613E+03  0.41800000000E+01 0. -1.
        -11    1    4    4    0    0  0.18917534151E+02  0.14774592303E+02  0.23102473088E+02  0.33314950681E+02  0.00000000000E+00 0. -1.
         11    1    4    4    0    0 -0.29077477775E+02  0.20219384250E+02  0.12807610169E+03  0.13288269653E+03  0.00000000000E+00 0.  1.
</event>
<event>
 8    1  0.7281309E-009  0.1138808E+03  0.7561462E-02  0.1253547E+00
          2   -1    0    0  501    0  0.00000000000E+00  0.00000000000E+00  0.59600563075E+03  0.59600563075E+03  0.00000000000E+00 0. -1.
         -2   -1    0    0    0  501 -0.00000000000E+00 -0.00000000000E+00 -0.25217598976E+02  0.25217598976E+02  0.00000000000E+00 0.  1.
         25    2    1    2    0    0  0.43751263108E+02 -0.23876673683E+01  0.26888800914E+03  0.29978016633E+03  0.12509001832E+03 0.  0.
         23    2    1    2    0    0 -0.43751263108E+02  0.23876673683E+01  0.30190002263E+03  0.32144306340E+03  0.10130224757E+03 0.  0.
          5    1    3    3  502    0 -0.91924129122E+01  0.45081602850E+02  0.18020437074E+03  0.18603209133E+03  0.41800000000E+01 0. -1.
         -5    1    3    3    0  502  0.52943676021E+02 -0.47469270218E+02  0.88683638400E+02  0.11374807500E+03  0.41800000000E+01 0. -1.
        -11    1    4    4    0    0  0.32134724991E+02  0.10985337789E+02  0.96970713704E+02  0.10274549875E+03  0.00000000000E+00 0. -1.
         11    1    4    4    0    0 -0.75885988099E+02 -0.85976704204E+01  0.20492930893E+03  0.21869756465E+03  0.00000000000E+00 0.  1.
</event>
<event>
 8    1  0.7281309E-009  0.1369458E+03  0.7561462E-02  0.1217499E+00
          1   -1    0    0  501    0  0.00000000000E+00  0.00000000000E+00  0.76202630628E+02  0.76202630628E+02  0.00000000000E+00 0. -1.
         -1   -1    0    0    0  501 -0.00000000000E+00 -0.00000000000E+00 -0.25706269420E+03  0.25706269420E+03  0.00000000000E+00 0.  1.
         25    2    1    2    0    0  0.15195007037E+02 -0.80890372111E+02 -0.85656648894E+02  0.17249879329E+03  0.12507850194E+03 0.  0.
         23    2    1    2    0    0 -0.15195007037E+02  0.80890372111E+02 -0.95203414676E+02  0.16076653154E+03  0.10004022670E+03 0.  0.
          5    1    3    3  502    0  0.69163893629E+02 -0.30443944738E+02 -0.45602515947E+02  0.88360284143E+02  0.41800000000E+01 0. -1.
         -5    1    3    3    0  502 -0.53968886592E+02 -0.50446427374E+02 -0.40054132947E+02  0.84138509144E+02  0.41800000000E+01 0. -1.
        -11    1    4    4    0    0 -0.51250478762E+02  0.69600063141E+02 -0.43592429100E+02  0.96804339973E+02  0.00000000000E+00 0. -1.
         11    1    4    4    0    0  0.36055471726E+02  0.11290308970E+02 -0.51610985576E+02  0.63962191568E+02  0.00000000000E+00 0.  1.
</event>
<event>
 8    1  0.7281309E-009  0.1139938E+03  0.7561462E-02  0.1253348E+00
         -2   -1    0    0    0  501 -0.00000000000E+00  0.00000000000E+00  0.15904826767E+02  0.15904826767E+02  0.00000000000E+00 0.  1.
          2   -1    0    0  501    0  0.00000000000E+00 -0.00000000000E+00 -0.89977309944E+03  0.89977309944E+03  0.00000000000E+00 0. -1.
         25    2    1    2    0    0 -0.47539518019E+02  0.11748288455E+02 -0.45433736622E+03  0.47378102261E+03  0.12509191415E+03 0.  0.
         23    2    1    2    0    0  0.47539518019E+02 -0.11748288455E+02 -0.42953090645E+03  0.44189690359E+03  0.91531665314E+02 0.  0.
          5    1    3    3  502    0  0.34918341791E+02  0.22788919531E+02 -0.24359759360E+03  0.24717581891E+03  0.41800000000E+01 0.  1.
         -5    1    3    3    0  502 -0.82457859810E+02 -0.11040631076E+02 -0.21073977262E+03  0.22660520370E+03  0.41800000000E+01 0.  1.
        -11    1    4    4    0    0 -0.14650584295E+02 -0.33768462485E+02 -0.18474691571E+03  0.18837826717E+03  0.00000000000E+00 0.  1.
         11    1    4    4    0    0  0.62190102314E+02  0.22020174030E+02 -0.24478399074E+03  0.25351863642E+03  0.00000000000E+00 0. -1.
</event>
<event>
 8    1  0.7281309E-009  0.1349513E+03  0.7561462E-02  0.1220288E+00
         -1   -1    0    0    0  501 -0.00000000000E+00  0.00000000000E+00  0.31869004076E+02  0.31869004076E+02  0.00000000000E+00 0.  1.
          1   -1    0    0  501    0  0.00000000000E+00 -0.00000000000E+00 -0.76190554425E+03  0.76190554425E+03  0.00000000000E+00 0. -1.
         25    2    1    2    0    0  0.80232699636E+02  0.61046866333E+02 -0.51364526335E+03  0.53818461017E+03  0.12508881680E+03 0.  0.
         23    2    1    2    0    0 -0.80232699636E+02 -0.61046866333E+02 -0.21639127683E+03  0.25558993815E+03  0.91307315253E+02 0.  0.
          5    1    3    3  502    0  0.73691236359E+01 -0.36721105434E+02 -0.97736749617E+02  0.10475059997E+03  0.41800000000E+01 0.  1.
         -5    1    3    3    0  502  0.72863576000E+02  0.97767971768E+02 -0.41590851373E+03  0.43343401021E+03  0.41800000000E+01 0.  1.
        -11    1    4    4    0    0 -0.57031253539E+02 -0.15505809480E+02 -0.38580897554E+02  0.70579598071E+02  0.00000000000E+00 0.  1.
         11    1    4    4    0    0 -0.23201446098E+02 -0.45541056854E+02 -0.17781037927E+03  0.18501034008E+03  0.00000000000E+00 0. -1.
</event>
<event>
 8    1  0.7281309E-009  0.1535817E+03  0.7561462E-02  0.1196140E+00
         -1   -1    0    0    0  501 -0.00000000000E+00  0.00000000000E+00  0.29783722177E+03  0.29783722177E+03  0.00000000000E+00 0.  1.
          1   -1    0    0  501    0  0.00000000000E+00 -0.00000000000E+00 -0.86255525648E+02  0.86255525648E+02  0.00000000000E+00 0. -1.
         25    2    1    2    0    0  0.19973401085E+02  0.11300498700E+03  0.80356617768E+02  0.18781197253E+03  0.12508831748E+03 0.  0.
         23    2    1    2    0    0 -0.19973401085E+02 -0.11300498700E+03  0.13122507836E+03  0.19628077489E+03  0.90205640422E+02 0.  0.
          5    1    3    3  502    0 -0.28293972165E+02  0.10965285451E+03  0.28674547530E+02  0.11689311117E+03  0.41800000000E+01 0. -1.
         -5    1    3    3    0  502  0.48267373251E+02  0.33521324886E+01  0.51682070238E+02  0.70918861362E+02  0.41800000000E+01 0. -1.
        -11    1    4    4    0    0 -0.23047773331E+01 -0.12429109278E+03  0.11857011708E+03  0.17179191020E+03  0.00000000000E+00 0.  1.
         11    1    4    4    0    0 -0.17668623752E+02  0.11286105785E+02  0.12654961274E+02  0.24488864693E+02  0.00000000000E+00 0. -1.
</event>
<event>
 8    1  0.7281309E-009  0.1127112E+03  0.7561462E-02  0.1255630E+00
          2   -1    0    0  501    0  0.00000000000E+00  0.00000000000E+00  0.53747993732E+02  0.53747993732E+02  0.00000000000E+00 0. -1.
         -2   -1    0    0    0  501 -0.00000000000E+00 -0.00000000000E+00 -0.23830453340E+03  0.23830453340E+03  0.00000000000E+00 0.  1.
         25    2    1    2    0    0  0.32961502722E+02  0.61348025265E+01 -0.97833421319E+02  0.16230421878E+03  0.12508870710E+03 0.  0.
         23    2    1    2    0    0 -0.32961502722E+02 -0.61348025265E+01 -0.86723118348E+02  0.12974830835E+03  0.90496562367E+02 0.  0.
          5    1    3    3  502    0 -0.29158910349E+02  0.46308026381E+02 -0.34474141654E+02  0.64812145489E+02  0.41800000000E+01 0.  1.
         -5    1    3    3    0  502  0.62120413072E+02 -0.40173223854E+02 -0.63359279665E+02  0.97492073292E+02  0.41800000000E+01 0.  1.
        -11    1    4    4    0    0 -0.64599304540E+02 -0.47808302378E+01 -0.60462270906E+02  0.88609326191E+02  0.00000000000E+00 0. -1.
         11    1    4    4    0    0  0.31637801818E+02 -0.13539722887E+01 -0.26260847442E+02  0.41138982160E+02  0.00000000000E+00 0.  1.
</event>
<event>
 8    1  0.7281309E-009  0.1347306E+03  0.7561462E-02  0.1220600E+00
          2   -1    0    0  501    0  0.00000000000E+00  0.00000000000E+00  0.30057288195E+03  0.30057288195E+03  0.00000000000E+00 0. -1.
         -2   -1    0    0    0  501 -0.00000000000E+00 -0.00000000000E+00 -0.81535290129E+02  0.81535290129E+02  0.00000000000E+00 0.  1.
         25    2    1    2    0    0  0.29274731027E+02  0.10258863705E+03  0.16046959684E+03  0.22973508940E+03  0.12508509688E+03 0.  0.
         23    2    1    2    0    0 -0.29274731027E+02 -0.10258863705E+03  0.58567994981E+02  0.15237308269E+03  0.91683738819E+02 0.  0.
          5    1    3    3  502    0 -0.38774292770E+02  0.58031122787E+02  0.11977321541E+03  0.13868724714E+03  0.41800000000E+01 0. -1.
         -5    1    3    3    0  502  0.68049023796E+02  0.44557514258E+02  0.40696381437E+02  0.91047842251E+02  0.41800000000E+01 0. -1.
        -11    1    4    4    0    0  0.90340832513E+01 -0.60554736557E+02  0.71416263614E+02  0.94067919549E+02  0.00000000000E+00 0. -1.
         11    1    4    4    0    0 -0.38308814278E+02 -0.42033900488E+02 -0.12848268633E+02  0.58305163138E+02  0.00000000000E+00 0.  1.
</event>
<event>
 8    1  0.7281309E-009  0.1635146E+03  0.7561462E-02  0.1184785E+00
          2   -1    0    0  501    0  0.00000000000E+00  0.00000000000E+00  0.11408030287E+04  0.11408030287E+04  0.00000000000E+00 0. -1.
         -2   -1    0    0    0  501 -0.00000000000E+00 -0.00000000000E+00 -0.37105344235E+02  0.37105344235E+02  0.00000000000E+00 0.  1.
         25    2    1    2    0    0  0.81333185462E+02 -0.10392869755E+03  0.91341803565E+03  0.93134156848E+03  0.12509335756E+03 0.  0.
         23    2    1    2    0    0 -0.81333185462E+02  0.10392869755E+03  0.19027964885E+03  0.24656680448E+03  0.84691103871E+02 0.  0.
          5    1    3    3  502    0 -0.10762791473E+02  0.18646029858E+02  0.22389215162E+03  0.22496373056E+03  0.41800000000E+01 0.  1.
         -5    1    3    3    0  502  0.92095976936E+02 -0.12257472741E+03  0.68952588403E+03  0.70637783792E+03  0.41800000000E+01 0.  1.
        -11    1    4    4    0    0 -0.52208800065E+02  0.11019074866E+03  0.12403582215E+03  0.17393287519E+03  0.00000000000E+00 0.  1.
         11    1    4    4    0    0 -0.29124385397E+02 -0.62620511123E+01  0.66243826699E+02  0.72633929293E+02  0.00000000000E+00 0. -1.
</event>
<event>
 8    1  0.7281309E-009  0.1136964E+03  0.7561462E-02  0.1253874E+00
         -1   -1    0    0    0  501 -0.00000000000E+00  0.00000000000E+00  0.21797619121E+03  0.21797619121E+03  0.00000000000E+00 0.  1.
          1   -1    0    0  501    0  0.00000000000E+00 -0.00000000000E+00 -0.63908562401E+02  0.63908562401E+02  0.00000000000E+00 0. -1.
         25    2    1    2    0    0 -0.43074419704E+02 -0.78631612614E+01  0.68319343415E+02  0.14910466438E+03  0.12508970109E+03 0.  0.
         23    2    1    2    0    0  0.43074419704E+02  0.78631612614E+01  0.85748285392E+02  0.13278008922E+03  0.91436036161E+02 0.  0.
          5    1    3    3  502    0  0.41071453254E+02 -0.63410639445E+01  0.18992340998E+01  0.41810917887E+02  0.41800000000E+01 0.  1.
         -5    1    3    3    0  502 -0.84145872958E+02 -0.15220973169E+01  0.66420109315E+02  0.10729374650E+03  0.41800000000E+01 0.  1.
        -11    1    4    4    0    0  0.43600187490E+02  0.45908156281E+02  0.52352550968E+02  0.82154274114E+02  0.00000000000E+00 0.  1.
         11    1    4    4    0    0 -0.52576778664E+00 -0.38044995020E+02  0.33395734424E+02  0.50625815110E+02  0.00000000000E+00 0. -1.
</event>
<event>
 8    1  0.7281309E-009  0.6552870E+02  0.7561462E-02  0.1375994E+00
         -1   -1    0    0    0  501 -0.00000000000E+00  0.00000000000E+00  0.13275429915E+03  0.13275429915E+03  0.00000000000E+00 0.  1.
          1   -1    0    0  501    0  0.00000000000E+00 -0.00000000000E+00 -0.10722773327E+03  0.10722773327E+03  0.00000000000E+00 0. -1.
         25    2    1    2    0    0 -0.38378279890E+01 -0.29369358089E+02  0.56156231599E+02  0.14027916458E+03  0.12508970202E+03 0.  0.
         23    2    1    2    0    0  0.38378279890E+01  0.29369358089E+02 -0.30629665715E+02  0.99702867833E+02  0.90139876382E+02 0.  0.
          5    1    3    3  502    0  0.55050136247E+01  0.33603770847E+01 -0.38678452949E+02  0.39434660284E+02  0.41800000000E+01 0.  1.
         -5    1    3    3    0  502 -0.93428416137E+01 -0.32729735174E+02  0.94834684548E+02  0.10084450430E+03  0.41800000000E+01 0.  1.
        -11    1    4    4    0    0  0.38072061380E+02 -0.74598089927E+01 -0.30613756987E+02  0.49419962817E+02  0.00000000000E+00 0. -1.
         11    1    4    4    0    0 -0.34234233391E+02  0.36829167082E+02 -0.15908727777E-01  0.50282905017E+02  0.00000000000E+00 0.  1.
</event>
<event>
 8    1  0.7281309E-009  0.1044284E+03  0.7561462E-02  0.1271250E+00
          1   -1    0    0  501    0  0.00000000000E+00  0.00000000000E+00  0.52884843317E+03  0.52884843317E+03  0.00000000000E+00 0. -1.
         -1   -1    0    0    0  501 -0.00000000000E+00 -0.00000000000E+00 -0.22208941218E+02  0.22208941218E+02  0.00000000000E+00 0.  1.
         25    2    1    2    0    0 -0.14056944213E+01  0.68343631644E+01  0.32170295223E+03  0.34523738460E+03  0.12508947902E+03 0.  0.
         23    2    1    2    0    0  0.14056944213E+01 -0.68343631644E+01  0.18493653972E+03  0.20581998978E+03  0.90064754328E+02 0.  0.
          5    1    3    3  502    0  0.50924271609E+02 -0.31680634554E+02  0.15951043468E+03  0.17046405843E+03  0.41800000000E+01 0. -1.
         -5    1    3    3    0  502 -0.52329966031E+02  0.38514997718E+02  0.16219251754E+03  0.17477332617E+03  0.41800000000E+01 0. -1.
        -11    1    4    4    0    0 -0.34405922929E+02 -0.25891963420E+02  0.55930223965E+02  0.70585772328E+02  0.00000000000E+00 0.  1.
         11    1    4    4    0    0  0.35811617351E+02  0.19057600256E+02  0.12900631576E+03  0.13523421745E+03  0.00000000000E+00 0. -1.
</event>
<event>
 8    1  0.7281309E-009  0.1994873E+03  0.7561462E-02  0.1150172E+00
          1   -1    0    0  501    0  0.00000000000E+00  0.00000000000E+00  0.37430063626E+02  0.37430063626E+02  0.00000000000E+00 0. -1.
         -1   -1    0    0    0  501 -0.00000000000E+00 -0.00000000000E+00 -0.11042356044E+04  0.11042356044E+04  0.00000000000E+00 0.  1.
         25    2    1    2    0    0 -0.16068140911E+03 -0.60780104436E+02 -0.54184443309E+03  0.58202708138E+03  0.12508955778E+03 0.  0.
         23    2    1    2    0    0  0.16068140911E+03  0.60780104436E+02 -0.52496110768E+03  0.55963858664E+03  0.89991370416E+02 0.  0.
          5    1    3    3  502    0 -0.15901980855E+03 -0.90116916129E+02 -0.46525437601E+03  0.49988745221E+03  0.41800000000E+01 0.  1.
         -5    1    3    3    0  502 -0.16616005575E+01  0.29336811693E+02 -0.76590057082E+02  0.82139629172E+02  0.41800000000E+01 0.  1.
        -11    1    4    4    0    0  0.31517531047E+02 -0.16881594466E+02 -0.17481783857E+03  0.17843659848E+03  0.00000000000E+00 0.  1.
         11    1    4    4    0    0  0.12916387806E+03  0.77661698902E+02 -0.35014326911E+03  0.38120198816E+03  0.00000000000E+00 0. -1.
</event>
<event>
 8    1  0.7281309E-009  0.1408827E+03  0.7561462E-02  0.1212146E+00
          3   -1    0    0  501    0  0.00000000000E+00  0.00000000000E+00  0.52225485838E+03  0.52225485838E+03  0.00000000000E+00 0. -1.
         -3   -1    0    0    0  501 -0.00000000000E+00 -0.00000000000E+00 -0.42931822654E+02  0.42931822654E+02  0.00000000000E+00 0.  1.
         25    2    1    2    0    0 -0.47771150422E+01 -0.97479244243E+02  0.19829906688E+03  0.25396740747E+03  0.12510755471E+03 0.  0.
         23    2    1    2    0    0  0.47771150422E+01  0.97479244243E+02  0.28102396885E+03  0.31121927356E+03  0.91421776858E+02 0.  0.
          5    1    3    3  502    0  0.15562942645E+01 -0.12288708850E+03  0.12211682740E+03  0.17330219417E+03  0.41800000000E+01 0. -1.
         -5    1    3    3    0  502 -0.63334093068E+01  0.25407844260E+02  0.76182239486E+02  0.80665213298E+02  0.41800000000E+01 0. -1.
        -11    1    4    4    0    0  0.44761798102E+02  0.72279968073E+02  0.20165120159E+03  0.21884062570E+03  0.00000000000E+00 0.  1.
         11    1    4    4    0    0 -0.39984683060E+02  0.25199276170E+02  0.79372767256E+02  0.92378647862E+02  0.00000000000E+00 0. -1.
</event>
<event>
 8    1  0.7281309E-009  0.9392823E+02  0.7561462E-02  0.1293608E+00
         -1   -1    0    0    0  501 -0.00000000000E+00  0.00000000000E+00  0.45053256534E+02  0.45053256534E+02  0.00000000000E+00 0.  1.
          1   -1    0    0  501    0  0.00000000000E+00 -0.00000000000E+00 -0.42626821458E+03  0.42626821458E+03  0.00000000000E+00 0. -1.
         25    2    1    2    0    0  0.35914414111E+02 -0.46552640429E+02 -0.10055902503E+03  0.17093087794E+03  0.12509298161E+03 0.  0.
         23    2    1    2    0    0 -0.35914414111E+02  0.46552640429E+02 -0.28065593302E+03  0.30039059317E+03  0.89497275129E+02 0.  0.
          5    1    3    3  502    0  0.37808042363E+02 -0.63840432583E+02 -0.12209701147E+03  0.14293425590E+03  0.41800000000E+01 0.  1.
         -5    1    3    3    0  502 -0.18936282521E+01  0.17287792154E+02  0.21537986446E+02  0.27996622040E+02  0.41800000000E+01 0.  1.
        -11    1    4    4    0    0  0.21214162476E+02  0.28923861911E+02 -0.46526165858E+02  0.58747890063E+02  0.00000000000E+00 0.  1.
         11    1    4    4    0    0 -0.57128576587E+02  0.17628778518E+02 -0.23412976716E+03  0.24164270311E+03  0.00000000000E+00 0. -1.
</event>
<event>
 7    1  0.7281309E-009  0.1511019E+03  0.7561462E-02  0.1199125E+00
          2   -1    0    0  501    0  0.00000000000E+00  0.00000000000E+00  0.39524054077E+03  0.39524054077E+03  0.00000000000E+00 0.  1.
         -2   -1    0    0    0  501 -0.00000000000E+00 -0.00000000000E+00 -0.73458956212E+02  0.73458956212E+02  0.00000000000E+00 0. -1.
         23    2    1    2    0    0  0.99615536846E+02 -0.64203097050E+02  0.69931609667E+02  0.16357760323E+03  0.88441559212E+02 0.  0.
          5    1    1    2  502    0  0.24753925259E+02  0.84375703987E+00  0.12599829732E+02  0.28101545348E+02  0.41800000000E+01 0.  1.
         -5    1    1    2    0  502 -0.12436946211E+03  0.63359340010E+02  0.23925014515E+03  0.27702034840E+03  0.41800000000E+01 0.  1.
        -11    1    3    3    0    0  0.65906466606E+02 -0.77030236605E+02  0.76391022267E+02  0.12693662976E+03  0.00000000000E+00 0.  1.
         11    1    3    3    0    0  0.33709070240E+02  0.12827139556E+02 -0.64594126001E+01  0.36640973469E+02  0.00000000000E+00 0. -1.
</event>
<event>
 8    1  0.7281309E-009  0.1376660E+03  0.7561462E-02  0.1216504E+00
         -2   -1    0    0    0  501 -0.00000000000E+00  0.00000000000E+00  0.46198983669E+02  0.46198983669E+02  0.00000000000E+00 0. -1.
          2   -1    0    0  501    0  0.00000000000E+00 -0.00000000000E+00 -0.77187297522E+03  0.77187297522E+03  0.00000000000E+00 0.  1.
         25    2    1    2    0    0  0.71523188904E+02  0.97113838806E+02 -0.17138424584E+03  0.24406278620E+03  0.12508964644E+03 0.  0.
         23    2    1    2    0    0 -0.71523188904E+02 -0.97113838806E+02 -0.55428974571E+03  0.57400917269E+03  0.87765277237E+02 0.  0.
          5    1    3    3  502    0  0.38130545043E+02  0.10674432636E+03 -0.17534639944E+03  0.20883515478E+03  0.41800000000E+01 0. -1.
         -5    1    3    3    0  502  0.33392643861E+02 -0.96304875510E+01  0.39621536012E+01  0.35227631422E+02  0.41800000000E+01 0. -1.
        -11    1    4    4    0    0 -0.65585933967E+02 -0.58661175247E+02 -0.49717059503E+03  0.50489726557E+03  0.00000000000E+00 0.  1.
         11    1    4    4    0    0 -0.59372549376E+01 -0.38452663559E+02 -0.57119150683E+02  0.69111907119E+02  0.00000000000E+00 0. -1.
</event>
<event>
 8    1  0.7281309E-009  0.1561914E+03  0.7561462E-02  0.1193065E+00
         -2   -1    0    0    0  501 -0.00000000000E+00  0.00000000000E+00  0.27418902595E+03  0.27418902595E+03  0.00000000000E+00 0.  1.
          2   -1    0    0  501    0  0.00000000000E+00 -0.00000000000E+00 -0.10196701669E+03  0.10196701669E+03  0.00000000000E+00 0. -1.
         25    2    1    2    0    0  0.12281086834E+03  0.20837135724E+02  0.59715843382E+02  0.18635790693E+03  0.12508633785E+03 0.  0.
         23    2    1    2    0    0 -0.12281086834E+03 -0.20837135724E+02  0.11250616588E+03  0.18979813571E+03  0.88594578550E+02 0.  0.
          5    1    3    3  502    0  0.99502281046E+02 -0.29684459854E+02  0.75408649956E+02  0.12839707153E+03  0.41800000000E+01 0. -1.
         -5    1    3    3    0  502  0.23308587294E+02  0.50521595578E+02 -0.15692806574E+02  0.57960835394E+02  0.41800000000E+01 0. -1.
        -11    1    4    4    0    0 -0.88326761020E+02  0.28199450091E+02  0.63659313123E+02  0.11246925733E+03  0.00000000000E+00 0.  1.
         11    1    4    4    0    0 -0.34484107321E+02 -0.49036585815E+02  0.48846852756E+02  0.77328878372E+02  0.00000000000E+00 0. -1.
</event>
<event>
 8    1  0.7281309E-009  0.1216153E+03  0.7561462E-02  0.1240456E+00
         -2   -1    0    0    0  501 -0.00000000000E+00  0.00000000000E+00  0.46156217882E+03  0.46156217882E+03  0.00000000000E+00 0.  1.
          2   -1    0    0  501    0  0.00000000000E+00 -0.00000000000E+00 -0.48517061933E+02  0.48517061933E+02  0.00000000000E+00 0. -1.
         25    2    1    2    0    0  0.29910880530E+02  0.60826917451E+02  0.85557416773E+02  0.16601596361E+03  0.12508658581E+03 0.  0.
         23    2    1    2    0    0 -0.29910880530E+02 -0.60826917451E+02  0.32748770011E+03  0.34406327714E+03  0.80850295541E+02 0.  0.
          5    1    3    3  502    0  0.52512140467E+02 -0.18130087352E+02  0.15087355734E+02  0.57717637399E+02  0.41800000000E+01 0.  1.
         -5    1    3    3    0  502 -0.22601259937E+02  0.78957004804E+02  0.70470061039E+02  0.10829832622E+03  0.41800000000E+01 0.  1.
        -11    1    4    4    0    0 -0.56274918156E+02 -0.27053160345E+02  0.20499892929E+03  0.21429722562E+03  0.00000000000E+00 0. -1.
         11    1    4    4    0    0  0.26364037626E+02 -0.33773757107E+02  0.12248877083E+03  0.12976605152E+03  0.00000000000E+00 0.  1.
</event>
<event>
 8    1  0.7281309E-009  0.8697423E+02  0.7561462E-02  0.1310349E+00
         -2   -1    0    0    0  501 -0.00000000000E+00  0.00000000000E+00  0.12152788634E+03  0.12152788634E+03  0.00000000000E+00 0.  1.
          2   -1    0    0  501    0  0.00000000000E+00 -0.00000000000E+00 -0.11452373407E+03  0.11452373407E+03  0.00000000000E+00 0. -1.
         25    2    1    2    0    0  0.34746290083E+02  0.12496995626E+02 -0.29195161829E+02  0.13365281673E+03  0.12508892186E+03 0.  0.
         23    2    1    2    0    0 -0.34746290083E+02 -0.12496995626E+02  0.36199314101E+02  0.10239880368E+03  0.88383511355E+02 0.  0.
          5    1    3    3  502    0  0.25121016322E+02  0.49690094305E+02 -0.61657696365E+02  0.83182419141E+02  0.41800000000E+01 0. -1.
         -5    1    3    3    0  502  0.96252737613E+01 -0.37193098679E+02  0.32462534537E+02  0.50470397590E+02  0.41800000000E+01 0. -1.
        -11    1    4    4    0    0 -0.56254047453E+02 -0.13794299447E+02 -0.26424767271E+01  0.57980886810E+02  0.00000000000E+00 0. -1.
         11    1    4    4    0    0  0.21507757370E+02  0.12973038214E+01  0.38841790828E+02  0.44417916870E+02  0.00000000000E+00 0.  1.
</event>
<event>
 8    1  0.7281309E-009  0.9199332E+02  0.7561462E-02  0.1298095E+00
          2   -1    0    0  501    0  0.00000000000E+00  0.00000000000E+00  0.79295278831E+03  0.79295278831E+03  0.00000000000E+00 0. -1.
         -2   -1    0    0    0  501 -0.00000000000E+00 -0.00000000000E+00 -0.15251134547E+02  0.15251134547E+02  0.00000000000E+00 0.  1.
         25    2    1    2    0    0  0.65539450597E+01 -0.12253597002E+02  0.39214471374E+03  0.41184976535E+03  0.12509855261E+03 0.  0.
         23    2    1    2    0    0 -0.65539450597E+01  0.12253597002E+02  0.38555694002E+03  0.39635415751E+03  0.90825983844E+02 0.  0.
          5    1    3    3  502    0  0.29037783815E+02 -0.45051713751E+02  0.75470501573E+02  0.92661312361E+02  0.41800000000E+01 0.  1.
         -5    1    3    3    0  502 -0.22483838755E+02  0.32798116748E+02  0.31667421217E+03  0.31918845299E+03  0.41800000000E+01 0.  1.
        -11    1    4    4    0    0  0.27355582916E+02 -0.26954090141E+02  0.12820158400E+03  0.13383010511E+03  0.00000000000E+00 0.  1.
         11    1    4    4    0    0 -0.33909527976E+02  0.39207687143E+02  0.25735535602E+03  0.26252405240E+03  0.00000000000E+00 0. -1.
</event>
<event>
 8    1  0.7281309E-009  0.1010715E+03  0.7561462E-02  0.1278059E+00
          1   -1    0    0  501    0  0.00000000000E+00  0.00000000000E+00  0.10180403778E+04  0.10180403778E+04  0.00000000000E+00 0. -1.
         -1   -1    0    0    0  501 -0.00000000000E+00 -0.00000000000E+00 -0.25659115411E+02  0.25659115411E+02  0.00000000000E+00 0.  1.
         25    2    1    2    0    0  0.10519081618E+02 -0.90340487579E+02  0.78026209084E+03  0.79544275191E+03  0.12509271116E+03 0.  0.
         23    2    1    2    0    0 -0.10519081618E+02  0.90340487579E+02  0.21211917152E+03  0.24825674127E+03  0.91459345545E+02 0.  0.
          5    1    3    3  502    0 -0.21645431213E+02 -0.21537552106E+02  0.36371557408E+02  0.47673403816E+02  0.41800000000E+01 0. -1.
         -5    1    3    3    0  502  0.32164512831E+02 -0.68802935473E+02  0.74389053343E+03  0.74776934809E+03  0.41800000000E+01 0. -1.
        -11    1    4    4    0    0  0.95928387910E+01  0.21564980372E+02 -0.78723660819E+00  0.23615475350E+02  0.00000000000E+00 0.  1.
         11    1    4    4    0    0 -0.20111920409E+02  0.68775507206E+02  0.21290640813E+03  0.22464126592E+03  0.00000000000E+00 0. -1.
</event>
<event>
 8    1  0.7281309E-009  0.1170804E+03  0.7561462E-02  0.1247993E+00
          1   -1    0    0  501    0  0.00000000000E+00  0.00000000000E+00  0.64403138173E+02  0.64403138173E+02  0.00000000000E+00 0. -1.
         -1   -1    0    0    0  501 -0.00000000000E+00 -0.00000000000E+00 -0.24225496219E+03  0.24225496219E+03  0.00000000000E+00 0.  1.
         25    2    1    2    0    0  0.54911172321E+02 -0.12985188985E+02 -0.13083455496E+03  0.18960312771E+03  0.12509121986E+03 0.  0.
         23    2    1    2    0    0 -0.54911172321E+02  0.12985188985E+02 -0.47017269053E+02  0.11705497266E+03  0.91144890452E+02 0.  0.
          5    1    3    3  502    0  0.61762266297E+02  0.40562371491E+02 -0.10780321055E+03  0.13076271687E+03  0.41800000000E+01 0. -1.
         -5    1    3    3    0  502 -0.68510939758E+01 -0.53547560476E+02 -0.23031344412E+02  0.58840410833E+02  0.41800000000E+01 0. -1.
        -11    1    4    4    0    0 -0.14898222008E+02  0.49587473195E+02 -0.31675782303E+02  0.60697855822E+02  0.00000000000E+00 0.  1.
         11    1    4    4    0    0 -0.40012950313E+02 -0.36602284210E+02 -0.15341486751E+02  0.56357116834E+02  0.00000000000E+00 0. -1.
</event>
<event>
 8    1  0.7281309E-009  0.9523306E+02  0.7561462E-02  0.1290652E+00
         -4   -1    0    0    0  501 -0.00000000000E+00  0.00000000000E+00  0.40745789337E+03  0.40745789337E+03  0.00000000000E+00 0.  1.
          4   -1    0    0  501    0  0.00000000000E+00 -0.00000000000E+00 -0.35146941888E+02  0.35146941888E+02  0.00000000000E+00 0. -1.
         25    2    1    2    0    0 -0.33852574979E+02 -0.35480075002E+02  0.23545053860E+03  0.27108904776E+03  0.12508990021E+03 0.  0.
         23    2    1    2    0    0  0.33852574979E+02  0.35480075002E+02  0.13686041289E+03  0.17151578750E+03  0.91005825041E+02 0.  0.
          5    1    3    3  502    0 -0.55397470800E+02 -0.13443465247E+02  0.32465007346E+02  0.65734736866E+02  0.41800000000E+01 0.  1.
         -5    1    3    3    0  502  0.21544895820E+02 -0.22036609755E+02  0.20298553125E+03  0.20535431089E+03  0.41800000000E+01 0.  1.
        -11    1    4    4    0    0 -0.30341720947E+02  0.19452658057E+02  0.61026894699E+02  0.70875297616E+02  0.00000000000E+00 0. -1.
         11    1    4    4    0    0  0.64194295927E+02  0.16027416945E+02  0.75833518188E+02  0.10064048988E+03  0.00000000000E+00 0.  1.
</event>
<event>
 8    1  0.7281309E-009  0.1525087E+03  0.7561462E-02  0.1197424E+00
         -2   -1    0    0    0  501 -0.00000000000E+00  0.00000000000E+00  0.97302451100E+02  0.97302451100E+02  0.00000000000E+00 0.  1.
          2   -1    0    0  501    0  0.00000000000E+00 -0.00000000000E+00 -0.35967977366E+03  0.35967977366E+03  0.00000000000E+00 0. -1.
         25    2    1    2    0    0  0.85937268709E+02  0.12347520253E+03 -0.12251979845E+03  0.23084731517E+03  0.12509213451E+03 0.  0.
         23    2    1    2    0    0 -0.85937268709E+02 -0.12347520253E+03 -0.13985752411E+03  0.22613490959E+03  0.94580814606E+02 0.  0.
          5    1    3    3  502    0  0.19077889116E+02  0.26404108215E+02  0.25503694730E+02  0.41581890634E+02  0.41800000000E+01 0. -1.
         -5    1    3    3    0  502  0.66859379593E+02  0.97071094317E+02 -0.14802349318E+03  0.18926542454E+03  0.41800000000E+01 0. -1.
        -11    1    4    4    0    0 -0.54984364486E+02 -0.49266588285E+02 -0.11564158577E+02  0.74727550627E+02  0.00000000000E+00 0.  1.
         11    1    4    4    0    0 -0.30952904223E+02 -0.74208614248E+02 -0.12829336553E+03  0.15140735896E+03  0.00000000000E+00 0. -1.
</event>
<event>
 8    1  0.7281309E-009  0.1706578E+03  0.7561462E-02  0.1177164E+00
          1   -1    0    0  501    0  0.00000000000E+00  0.00000000000E+00  0.64131163670E+03  0.64131163670E+03  0.00000000000E+00 0. -1.
         -1   -1    0    0    0  501 -0.00000000000E+00 -0.00000000000E+00 -0.63221724049E+02  0.63221724049E+02  0.00000000000E+00 0.  1.
         25    2    1    2    0    0 -0.16874935997E+03 -0.17059432107E+02  0.31303639924E+03  0.37737007659E+03  0.12509603010E+03 0.  0.
         23    2    1    2    0    0  0.16874935997E+03  0.17059432107E+02  0.26505351341E+03  0.32716328416E+03  0.89526972555E+02 0.  0.
          5    1    3    3  502    0 -0.52736237978E+02  0.18931770757E+01  0.12153940620E+02  0.54312849199E+02  0.41800000000E+01 0.  1.
         -5    1    3    3    0  502 -0.11601312199E+03 -0.18952609183E+02  0.30088245862E+03  0.32305722739E+03  0.41800000000E+01 0.  1.
        -11    1    4    4    0    0  0.13106126151E+03  0.48964971449E+01  0.12340462964E+03  0.18008257153E+03  0.00000000000E+00 0.  1.
         11    1    4    4    0    0  0.37688098455E+02  0.12162934962E+02  0.14164888377E+03  0.14708071262E+03  0.00000000000E+00 0. -1.
</event>
<event>
 8    1  0.7281309E-009  0.7922434E+02  0.7561462E-02  0.1331267E+00
         -1   -1    0    0    0  501 -0.00000000000E+00  0.00000000000E+00  0.34825582105E+02  0.34825582105E+02  0.00000000000E+00 0.  1.
          1   -1    0    0  501    0  0.00000000000E+00 -0.00000000000E+00 -0.43511490660E+03  0.43511490660E+03  0.00000000000E+00 0. -1.
         25    2    1    2    0    0 -0.33659527874E+02  0.44229041604E+02 -0.23680880026E+03  0.27352395589E+03  0.12509106534E+03 0.  0.
         23    2    1    2    0    0  0.33659527874E+02 -0.44229041604E+02 -0.16348052424E+03  0.19641653282E+03  0.93618377579E+02 0.  0.
          5    1    3    3  502    0 -0.27049364843E+01 -0.61404941284E+01  0.13853305633E+02  0.15950198321E+02  0.41800000000E+01 0.  1.
         -5    1    3    3    0  502 -0.30954591390E+02  0.50369535732E+02 -0.25066210589E+03  0.25757375757E+03  0.41800000000E+01 0.  1.
        -11    1    4    4    0    0 -0.22038738584E+02 -0.35955363065E+01 -0.40192579424E+01  0.22688946959E+02  0.00000000000E+00 0.  1.
         11    1    4    4    0    0  0.55698266458E+02 -0.40633505297E+02 -0.15946126630E+03  0.17372758586E+03  0.00000000000E+00 0. -1.
</event>
<event>
 8    1  0.7281309E-009  0.1376335E+03  0.7561462E-02  0.1216549E+00
          1   -1    0    0  501    0  0.00000000000E+00  0.00000000000E+00  0.46516186929E+03  0.46516186929E+03  0.00000000000E+00 0. -1.
         -1   -1    0    0    0  501 -0.00000000000E+00 -0.00000000000E+00 -0.61407357335E+02  0.61407357335E+02  0.00000000000E+00 0.  1.
         25    2    1    2    0    0 -0.10439356435E+03  0.50260834444E+02  0.31653695852E+03  0.35953825581E+03  0.12509174043E+03 0.  0.
         23    2    1    2    0    0  0.10439356435E+03 -0.50260834444E+02  0.87217553435E+02  0.16703097082E+03  0.82875061553E+02 0.  0.
          5    1    3    3  502    0  0.17649365372E+02  0.22572023957E+02  0.14102700286E+02  0.32207994643E+02  0.41800000000E+01 0.  1.
         -5    1    3    3    0  502 -0.12204292972E+03  0.27688810487E+02  0.30243425824E+03  0.32733026117E+03  0.41800000000E+01 0.  1.
        -11    1    4    4    0    0  0.53721462178E+02 -0.45135785896E+02  0.50346847410E+01  0.70346163488E+02  0.00000000000E+00 0.  1.
         11    1    4    4    0    0  0.50672102174E+02 -0.51250485483E+01  0.82182868694E+02  0.96684807328E+02  0.00000000000E+00 0. -1.
</event>
<event>
 8    1  0.7281309E-009  0.1459990E+03  0.7561462E-02  0.1205477E+00
         -1   -1    0    0    0  501 -0.00000000000E+00  0.00000000000E+00  0.51474061300E+02  0.51474061300E+02  0.00000000000E+00 0.  1.
          1   -1    0    0  501    0  0.00000000000E+00 -0.00000000000E+00 -0.52048543330E+03  0.52048543330E+03  0.00000000000E+00 0. -1.
         25    2    1    2    0    0 -0.77222758612E+02  0.87310166359E+02 -0.31769860403E+03  0.36078429064E+03  0.12508589756E+03 0.  0.
         23    2    1    2    0    0  0.77222758612E+02 -0.87310166359E+02 -0.15131276796E+03  0.21117520396E+03  0.90072156749E+02 0.  0.
          5    1    3    3  502    0 -0.83091412754E+02  0.32165698779E+02 -0.27931337055E+03  0.29321024269E+03  0.41800000000E+01 0.  1.
         -5    1    3    3    0  502  0.58686541413E+01  0.55144467580E+02 -0.38385233484E+02  0.67574047946E+02  0.41800000000E+01 0.  1.
        -11    1    4    4    0    0 -0.14514909422E+02 -0.42852817993E+02 -0.50501157791E+02  0.67804229541E+02  0.00000000000E+00 0.  1.
         11    1    4    4    0    0  0.91737668035E+02 -0.44457348366E+02 -0.10081161017E+03  0.14337097442E+03  0.00000000000E+00 0. -1.
</event>
<event>
 8    1  0.7281309E-009  0.8946187E+02  0.7561462E-02  0.1304160E+00
         -1   -1    0    0    0  501 -0.00000000000E+00  0.00000000000E+00  0.90004799084E+02  0.90004799084E+02  0.00000000000E+00 0.  1.
          1   -1    0    0  501    0  0.00000000000E+00 -0.00000000000E+00 -0.18598108544E+03  0.18598108544E+03  0.00000000000E+00 0. -1.
         25    2    1    2    0    0 -0.27090771211E+02  0.59637906366E+02 -0.81934006850E+02  0.16325376398E+03  0.12509204697E+03 0.  0.
         23    2    1    2    0    0  0.27090771211E+02 -0.59637906366E+02 -0.14042279510E+02  0.11273212055E+03  0.90668382741E+02 0.  0.
          5    1    3    3  502    0  0.75334379608E+01  0.14635455343E+02 -0.10160680804E+03  0.10301633404E+03  0.41800000000E+01 0.  1.
         -5    1    3    3    0  502 -0.34624209172E+02  0.45002451023E+02  0.19672801185E+02  0.60237429936E+02  0.41800000000E+01 0.  1.
        -11    1    4    4    0    0 -0.18995801872E+02 -0.55585764683E+02  0.11541577393E+02  0.59865062706E+02  0.00000000000E+00 0.  1.
         11    1    4    4    0    0  0.46086573084E+02 -0.40521416833E+01 -0.25583856903E+02  0.52867057842E+02  0.00000000000E+00 0. -1.
</event>
<event>
 8    1  0.7281309E-009  0.1567249E+03  0.7561462E-02  0.1192445E+00
         -2   -1    0    0    0  501 -0.00000000000E+00  0.00000000000E+00  0.43745611103E+03  0.43745611103E+03  0.00000000000E+00 0.  1.
          2   -1    0    0  501    0  0.00000000000E+00 -0.00000000000E+00 -0.64737044288E+02  0.64737044288E+02  0.00000000000E+00 0. -1.
         25    2    1    2    0    0  0.18270340629E+02 -0.12247939036E+03  0.14838029234E+03  0.23021604480E+03  0.12509080589E+03 0.  0.
         23    2    1    2    0    0 -0.18270340629E+02  0.12247939036E+03  0.22433877440E+03  0.27197711052E+03  0.91151832336E+02 0.  0.
          5    1    3    3  502    0  0.59626556946E+02 -0.84869596555E+02  0.46100449899E+02  0.11358212268E+03  0.41800000000E+01 0. -1.
         -5    1    3    3    0  502 -0.41356216317E+02 -0.37609793802E+02  0.10227984245E+03  0.11663392212E+03  0.41800000000E+01 0. -1.
        -11    1    4    4    0    0 -0.30215193733E+02 -0.31195699632E+00  0.39100476367E+02  0.49415609898E+02  0.00000000000E+00 0.  1.
         11    1    4    4    0    0  0.11944853104E+02  0.12279134735E+03  0.18523829803E+03  0.22256150062E+03  0.00000000000E+00 0. -1.
</event>
<event>
 8    1  0.7281309E-009  0.1276397E+03  0.7561462E-02  0.1231001E+00
          2   -1    0    0  501    0  0.00000000000E+00  0.00000000000E+00  0.32361653279E+02  0.32361653279E+02  0.00000000000E+00 0. -1.
         -2   -1    0    0    0  501 -0.00000000000E+00 -0.00000000000E+00 -0.53220793832E+03  0.53220793832E+03  0.00000000000E+00 0.  1.
         25    2    1    2    0    0  0.11665628261E+02  0.67111836023E+02 -0.21543804773E+03  0.25826252129E+03  0.12508354040E+03 0.  0.
         23    2    1    2    0    0 -0.11665628261E+02 -0.67111836023E+02 -0.28440823732E+03  0.30630707031E+03  0.91081778917E+02 0.  0.
          5    1    3    3  502    0  0.64522702958E+02  0.60996574873E+02 -0.14059069019E+03  0.16633392892E+03  0.41800000000E+01 0. -1.
         -5    1    3    3    0  502 -0.52857074697E+02  0.61152611503E+01 -0.74847357539E+02  0.91928592369E+02  0.41800000000E+01 0. -1.
        -11    1    4    4    0    0  0.17280873058E+02 -0.79627131554E+02 -0.21970704738E+03  0.23432945893E+03  0.00000000000E+00 0.  1.
         11    1    4    4    0    0 -0.28946501319E+02  0.12515295531E+02 -0.64701189933E+02  0.71977611377E+02  0.00000000000E+00 0. -1.
</event>
<event>
 8    1  0.7281309E-009  0.1925831E+03  0.7561462E-02  0.1156152E+00
         -1   -1    0    0    0  501 -0.00000000000E+00  0.00000000000E+00  0.36408623238E+03  0.36408623238E+03  0.00000000000E+00 0.  1.
          1   -1    0    0  501    0  0.00000000000E+00 -0.00000000000E+00 -0.17488977689E+03  0.17488977689E+03  0.00000000000E+00 0. -1.
         25    2    1    2    0    0  0.95694507197E+02  0.14628652229E+03 -0.58117230654E+02  0.22267120801E+03  0.12509064341E+03 0.  0.
         23    2    1    2    0    0 -0.95694507197E+02 -0.14628652229E+03  0.24731368614E+03  0.31630480126E+03  0.91255041721E+02 0.  0.
          5    1    3    3  502    0 -0.43205690327E+01  0.46513631547E+02  0.30414446218E+02  0.55898981880E+02  0.41800000000E+01 0. -1.
         -5    1    3    3    0  502  0.10001507623E+03  0.99772890739E+02 -0.88531676873E+02  0.16677222613E+03  0.41800000000E+01 0. -1.
        -11    1    4    4    0    0  0.38183434872E+01 -0.73603253500E+02  0.10049176160E+03  0.12462187939E+03  0.00000000000E+00 0.  1.
         11    1    4    4    0    0 -0.99512850684E+02 -0.72683268785E+02  0.14682192454E+03  0.19168292188E+03  0.00000000000E+00 0. -1.
</event>
<event>
 8    1  0.7281309E-009  0.1567347E+03  0.7561462E-02  0.1192433E+00
          2   -1    0    0  501    0  0.00000000000E+00  0.00000000000E+00  0.10418341511E+03  0.10418341511E+03  0.00000000000E+00 0. -1.
         -2   -1    0    0    0  501 -0.00000000000E+00 -0.00000000000E+00 -0.29954460553E+03  0.29954460553E+03  0.00000000000E+00 0.  1.
         25    2    1    2    0    0  0.58055572126E+02  0.11642375134E+03 -0.15811738952E+03  0.23994396573E+03  0.12508820284E+03 0.  0.
         23    2    1    2    0    0 -0.58055572126E+02 -0.11642375134E+03 -0.37243800902E+02  0.16378405491E+03  0.92266877083E+02 0.  0.
          5    1    3    3  502    0  0.71978065067E+01  0.12769340224E+03 -0.10640063082E+03  0.16642109251E+03  0.41800000000E+01 0. -1.
         -5    1    3    3    0  502  0.50857765619E+02 -0.11269650899E+02 -0.51716758703E+02  0.73522873216E+02  0.41800000000E+01 0. -1.
        -11    1    4    4    0    0 -0.52427165972E+02 -0.75385246437E+02 -0.66238953978E+02  0.11322165048E+03  0.00000000000E+00 0.  1.
         11    1    4    4    0    0 -0.56284061542E+01 -0.41038504906E+02  0.28995153076E+02  0.50562404439E+02  0.00000000000E+00 0. -1.
</event>
<event>
 8    1  0.7281309E-009  0.9963799E+02  0.7561462E-02  0.1281059E+00
          1   -1    0    0  501    0  0.00000000000E+00  0.00000000000E+00  0.37232976884E+02  0.37232976884E+02  0.00000000000E+00 0. -1.
         -1   -1    0    0    0  501 -0.00000000000E+00 -0.00000000000E+00 -0.31975098606E+03  0.31975098606E+03  0.00000000000E+00 0.  1.
         25    2    1    2    0    0  0.21174444262E+01  0.16388973066E+02 -0.15855722049E+03  0.20263540098E+03  0.12509049346E+03 0.  0.
         23    2    1    2    0    0 -0.21174444262E+01 -0.16388973066E+02 -0.12396078869E+03  0.15434856196E+03  0.90466123154E+02 0.  0.
          5    1    3    3  502    0 -0.57892317118E+02 -0.98981941003E+01 -0.91382336221E+02  0.10870923788E+03  0.41800000000E+01 0.  1.
         -5    1    3    3    0  502  0.60009761544E+02  0.26287167166E+02 -0.67174884264E+02  0.93926163097E+02  0.41800000000E+01 0.  1.
        -11    1    4    4    0    0 -0.40356980716E+01 -0.45446957789E+02 -0.11524957943E+03  0.12395232305E+03  0.00000000000E+00 0.  1.
         11    1    4    4    0    0  0.19182536454E+01  0.29057984724E+02 -0.87112092604E+01  0.30396238912E+02  0.00000000000E+00 0. -1.
</event>
<event>
 8    1  0.7281309E-009  0.9015590E+02  0.7561462E-02  0.1302475E+00
          1   -1    0    0  501    0  0.00000000000E+00  0.00000000000E+00  0.13942209819E+04  0.13942209819E+04  0.00000000000E+00 0. -1.
         -1   -1    0    0    0  501 -0.00000000000E+00 -0.00000000000E+00 -0.13570798268E+02  0.13570798268E+02  0.00000000000E+00 0.  1.
         25    2    1    2    0    0  0.72077337688E+02 -0.10438142188E+02  0.98372493254E+03  0.99431688802E+03  0.12508890233E+03 0.  0.
         23    2    1    2    0    0 -0.72077337688E+02  0.10438142188E+02  0.39692525105E+03  0.41347489211E+03  0.90042956740E+02 0.  0.
          5    1    3    3  502    0  0.31795822166E+02 -0.18766453319E+02  0.90165903633E+03  0.90242431498E+03  0.41800000000E+01 0. -1.
         -5    1    3    3    0  502  0.40281515522E+02  0.83283111313E+01  0.82065896212E+02  0.91892573041E+02  0.41800000000E+01 0. -1.
        -11    1    4    4    0    0 -0.27754965850E+02 -0.30666063301E+02  0.72520823719E+02  0.83486618332E+02  0.00000000000E+00 0.  1.
         11    1    4    4    0    0 -0.44322371837E+02  0.41104205489E+02  0.32440442734E+03  0.32998827378E+03  0.00000000000E+00 0. -1.
</event>
<event>
 8    1  0.7281309E-009  0.1182131E+03  0.7561462E-02  0.1246074E+00
         -1   -1    0    0    0  501 -0.00000000000E+00  0.00000000000E+00  0.23888823156E+03  0.23888823156E+03  0.00000000000E+00 0.  1.
          1   -1    0    0  501    0  0.00000000000E+00 -0.00000000000E+00 -0.75843879699E+02  0.75843879699E+02  0.00000000000E+00 0. -1.
         25    2    1    2    0    0 -0.19341566904E+02  0.77930814134E+02  0.95398413563E+02  0.17662412898E+03  0.12509163691E+03 0.  0.
         23    2    1    2    0    0  0.19341566904E+02 -0.77930814134E+02  0.67645938299E+02  0.13810798228E+03  0.89724766921E+02 0.  0.
          5    1    3    3  502    0  0.47130658609E+02  0.40950475330E+02  0.12085427428E+02  0.63732019949E+02  0.41800000000E+01 0.  1.
         -5    1    3    3    0  502 -0.66472225513E+02  0.36980338804E+02  0.83312986135E+02  0.11289210903E+03  0.41800000000E+01 0.  1.
        -11    1    4    4    0    0 -0.12139439292E+02 -0.60457541388E+02  0.21287287536E+00  0.61664622045E+02  0.00000000000E+00 0.  1.
         11    1    4    4    0    0  0.31481006196E+02 -0.17473272746E+02  0.67433065423E+02  0.76443360235E+02  0.00000000000E+00 0. -1.
</event>
<event>
 8    1  0.7281309E-009  0.1191938E+03  0.7561462E-02  0.1244433E+00
         -4   -1    0    0    0  501 -0.00000000000E+00  0.00000000000E+00  0.21873021069E+03  0.21873021069E+03  0.00000000000E+00 0.  1.
          4   -1    0    0  501    0  0.00000000000E+00 -0.00000000000E+00 -0.90752684462E+02  0.90752684462E+02  0.00000000000E+00 0. -1.
         25    2    1    2    0    0  0.22633291624E+01 -0.53296867774E+02  0.14994205296E+03  0.20242323709E+03  0.12508744499E+03 0.  0.
         23    2    1    2    0    0 -0.22633291624E+01  0.53296867774E+02 -0.21964526733E+02  0.10705965806E+03  0.90186757213E+02 0.  0.
          5    1    3    3  502    0 -0.43280157577E+02  0.19724599855E+02  0.71030252413E+02  0.85586219902E+02  0.41800000000E+01 0. -1.
         -5    1    3    3    0  502  0.45543486739E+02 -0.73021467629E+02  0.78911800546E+02  0.11683701718E+03  0.41800000000E+01 0. -1.
        -11    1    4    4    0    0 -0.38054381595E+01  0.78819110910E+02 -0.20055896263E+02  0.81419730896E+02  0.00000000000E+00 0.  1.
         11    1    4    4    0    0  0.15421089971E+01 -0.25522243136E+02 -0.19086304708E+01  0.25639927167E+02  0.00000000000E+00 0. -1.
</event>
<event>
 8    1  0.7281309E-009  0.1106643E+03  0.7561462E-02  0.1259345E+00
          1   -1    0    0  501    0  0.00000000000E+00  0.00000000000E+00  0.90186669675E+03  0.90186669675E+03  0.00000000000E+00 0. -1.
         -1   -1    0    0    0  501 -0.00000000000E+00 -0.00000000000E+00 -0.22734526590E+02  0.22734526590E+02  0.00000000000E+00 0.  1.
         25    2    1    2    0    0 -0.38945368705E+02  0.44747192760E+02  0.70895953778E+03  0.72234811764E+03  0.12507647201E+03 0.  0.
         23    2    1    2    0    0  0.38945368705E+02 -0.44747192760E+02  0.17017263238E+03  0.20225310570E+03  0.91807085511E+02 0.  0.
          5    1    3    3  502    0 -0.49409100759E+02  0.81474085705E+02  0.41095901911E+03  0.42188158726E+03  0.41800000000E+01 0.  1.
         -5    1    3    3    0  502  0.10463732054E+02 -0.36726892946E+02  0.29800051867E+03  0.30046653038E+03  0.41800000000E+01 0.  1.
        -11    1    4    4    0    0  0.27676589336E+02 -0.61445065678E+02  0.59925586531E+02  0.90180738600E+02  0.00000000000E+00 0.  1.
         11    1    4    4    0    0  0.11268779369E+02  0.16697872918E+02  0.11024704585E+03  0.11207236710E+03  0.00000000000E+00 0. -1.
</event>
<event>
 8    1  0.7281309E-009  0.2752548E+03  0.7561462E-02  0.1098309E+00
          2   -1    0    0  501    0  0.00000000000E+00  0.00000000000E+00  0.16948816977E+03  0.16948816977E+03  0.00000000000E+00 0. -1.
         -2   -1    0    0    0  501 -0.00000000000E+00 -0.00000000000E+00 -0.70308058661E+03  0.70308058661E+03  0.00000000000E+00 0.  1.
         25    2    1    2    0    0 -0.14946305561E+03  0.21411632951E+03 -0.21489313084E+02  0.29034762074E+03  0.12511971365E+03 0.  0.
         23    2    1    2    0    0  0.14946305561E+03 -0.21411632951E+03 -0.51210310375E+03  0.58222113564E+03  0.92449198814E+02 0.  0.
          5    1    3    3  502    0 -0.65878370393E+02  0.19616315831E+02 -0.36752456128E+02  0.78057510618E+02  0.41800000000E+01 0. -1.
         -5    1    3    3    0  502 -0.83584685213E+02  0.19450001367E+03  0.15263143044E+02  0.21229011013E+03  0.41800000000E+01 0. -1.
        -11    1    4    4    0    0  0.19888249507E+02 -0.83822052328E+02 -0.22942831992E+03  0.24506944507E+03  0.00000000000E+00 0. -1.
         11    1    4    4    0    0  0.12957480610E+03 -0.13029427718E+03 -0.28267478383E+03  0.33715169057E+03  0.00000000000E+00 0.  1.
</event>
<event>
 8    1  0.7281309E-009  0.4474739E+03  0.7561462E-02  0.1028478E+00
          1   -1    0    0  501    0  0.00000000000E+00  0.00000000000E+00  0.82992608606E+03  0.82992608606E+03  0.00000000000E+00 0. -1.
         -1   -1    0    0    0  501 -0.00000000000E+00 -0.00000000000E+00 -0.27034829877E+03  0.27034829877E+03  0.00000000000E+00 0.  1.
         25    2    1    2    0    0  0.44391854449E+03 -0.32110371790E+02  0.14093780115E+03  0.48332671266E+03  0.12508595950E+03 0.  0.
         23    2    1    2    0    0 -0.44391854449E+03  0.32110371790E+02  0.41863998614E+03  0.61694767217E+03  0.85265714623E+02 0.  0.
          5    1    3    3  502    0  0.25563289544E+03 -0.26015852674E+01  0.17619293588E+02  0.25628667032E+03  0.41800000000E+01 0.  1.
         -5    1    3    3    0  502  0.18828564905E+03 -0.29508786522E+02  0.12331850757E+03  0.22704004235E+03  0.41800000000E+01 0.  1.
        -11    1    4    4    0    0 -0.14582467974E+03  0.37220814316E+02  0.10065424345E+03  0.18105662917E+03  0.00000000000E+00 0.  1.
         11    1    4    4    0    0 -0.29809386474E+03 -0.51104425260E+01  0.31798574269E+03  0.43589104301E+03  0.00000000000E+00 0. -1.
</event>
<event>
 8    1  0.7281309E-009  0.1153038E+03  0.7561462E-02  0.1251052E+00
         -4   -1    0    0    0  501 -0.00000000000E+00  0.00000000000E+00  0.11734104223E+03  0.11734104223E+03  0.00000000000E+00 0.  1.
          4   -1    0    0  501    0  0.00000000000E+00 -0.00000000000E+00 -0.14083152798E+03  0.14083152798E+03  0.00000000000E+00 0. -1.
         25    2    1    2    0    0  0.21444158117E+02  0.41843989574E+02  0.37312818383E+02  0.13869812778E+03  0.12503660605E+03 0.  0.
         23    2    1    2    0    0 -0.21444158117E+02 -0.41843989574E+02 -0.60803304132E+02  0.11947444243E+03  0.91467640292E+02 0.  0.
          5    1    3    3  502    0  0.90831167999E+01 -0.44637099188E+02  0.17823421608E+02  0.49092977018E+02  0.41800000000E+01 0. -1.
         -5    1    3    3    0  502  0.12361041317E+02  0.86481088762E+02  0.19489396775E+02  0.89605150759E+02  0.41800000000E+01 0. -1.
        -11    1    4    4    0    0 -0.30758571758E+02  0.18800107657E+02 -0.41899661956E+02  0.55273098850E+02  0.00000000000E+00 0. -1.
         11    1    4    4    0    0  0.93144136406E+01 -0.60644097231E+02 -0.18903642176E+02  0.64201343583E+02  0.00000000000E+00 0.  1.
</event>
<event>
 8    1  0.7281309E-009  0.1022599E+03  0.7561462E-02  0.1275614E+00
          1   -1    0    0  501    0  0.00000000000E+00  0.00000000000E+00  0.45507747440E+03  0.45507747440E+03  0.00000000000E+00 0. -1.
         -1   -1    0    0    0  501 -0.00000000000E+00 -0.00000000000E+00 -0.30909187486E+02  0.30909187486E+02  0.00000000000E+00 0.  1.
         25    2    1    2    0    0  0.33554639209E+02  0.15082019621E+02  0.17197336329E+03  0.21582064488E+03  0.12510128675E+03 0.  0.
         23    2    1    2    0    0 -0.33554639209E+02 -0.15082019621E+02  0.25219492362E+03  0.27016601701E+03  0.89632673263E+02 0.  0.
          5    1    3    3  502    0  0.51179572577E+02 -0.29874609525E+02  0.15236267144E+03  0.16353500234E+03  0.41800000000E+01 0. -1.
         -5    1    3    3    0  502 -0.17624933368E+02  0.44956629146E+02  0.19610691855E+02  0.52285642537E+02  0.41800000000E+01 0. -1.
        -11    1    4    4    0    0 -0.39225473595E+02  0.31134546265E+02  0.14026645113E+03  0.14893849423E+03  0.00000000000E+00 0. -1.
         11    1    4    4    0    0  0.56708343867E+01 -0.46216565886E+02  0.11192847249E+03  0.12122752278E+03  0.00000000000E+00 0.  1.
</event>
<event>
 8    1  0.7281309E-009  0.7520583E+02  0.7561462E-02  0.1343235E+00
          2   -1    0    0  501    0  0.00000000000E+00  0.00000000000E+00  0.49601039203E+02  0.49601039203E+02  0.00000000000E+00 0. -1.
         -2   -1    0    0    0  501 -0.00000000000E+00 -0.00000000000E+00 -0.30253629940E+03  0.30253629940E+03  0.00000000000E+00 0.  1.
         25    2    1    2    0    0  0.37351810497E+02  0.42729475105E+02 -0.14376293626E+03  0.19884392804E+03  0.12510059987E+03 0.  0.
         23    2    1    2    0    0 -0.37351810497E+02 -0.42729475105E+02 -0.10917232394E+03  0.15329341057E+03  0.91429249247E+02 0.  0.
          5    1    3    3  502    0 -0.13872859462E+00  0.36198566567E+01  0.22893852886E+02  0.23552569028E+02  0.41800000000E+01 0. -1.
         -5    1    3    3    0  502  0.37490539091E+02  0.39109618448E+02 -0.16665678914E+03  0.17529135901E+03  0.41800000000E+01 0. -1.
        -11    1    4    4    0    0 -0.68959952318E+01 -0.56641627652E+02 -0.10506498872E+03  0.11955952738E+03  0.00000000000E+00 0.  1.
         11    1    4    4    0    0 -0.30455815265E+02  0.13912152547E+02 -0.41073352212E+01  0.33733883182E+02  0.00000000000E+00 0. -1.
</event>
<event>
 8    1  0.7281309E-009  0.2342307E+03  0.7561462E-02  0.1123697E+00
          2   -1    0    0  501    0  0.00000000000E+00  0.00000000000E+00  0.20803830130E+04  0.20803830130E+04  0.00000000000E+00 0. -1.
         -2   -1    0    0    0  501 -0.00000000000E+00 -0.00000000000E+00 -0.29842842608E+02  0.29842842608E+02  0.00000000000E+00 0.  1.
         25    2    1    2    0    0  0.30759180163E+02 -0.21154078651E+03  0.13296801935E+04  0.13525508410E+04  0.12509487966E+03 0.  0.
         23    2    1    2    0    0 -0.30759180163E+02  0.21154078651E+03  0.72085997689E+03  0.75767501463E+03  0.93470262604E+02 0.  0.
          5    1    3    3  502    0 -0.49663063310E+01 -0.20004803005E+03  0.94160567971E+03  0.96264355136E+03  0.41800000000E+01 0. -1.
         -5    1    3    3    0  502  0.35725486494E+02 -0.11492756457E+02  0.38807451382E+03  0.38990728964E+03  0.41800000000E+01 0. -1.
        -11    1    4    4    0    0 -0.41645046451E+02  0.37119429798E+02  0.12882848734E+03  0.14038853626E+03  0.00000000000E+00 0.  1.
         11    1    4    4    0    0  0.10885866288E+02  0.17442135671E+03  0.59203148955E+03  0.61728647837E+03  0.00000000000E+00 0. -1.
</event>
<event>
 8    1  0.7281309E-009  0.9110114E+02  0.7561462E-02  0.1300207E+00
         -2   -1    0    0    0  501 -0.00000000000E+00  0.00000000000E+00  0.91671063040E+02  0.91671063040E+02  0.00000000000E+00 0.  1.
          2   -1    0    0  501    0  0.00000000000E+00 -0.00000000000E+00 -0.15003337877E+03  0.15003337877E+03  0.00000000000E+00 0. -1.
         25    2    1    2    0    0 -0.41279335596E+02 -0.49787355221E+01 -0.45460668834E+02  0.13943009354E+03  0.12508120250E+03 0.  0.
         23    2    1    2    0    0  0.41279335596E+02  0.49787355221E+01 -0.12901646901E+02  0.10227434828E+03  0.92546304456E+02 0.  0.
          5    1    3    3  502    0 -0.33187862354E+02 -0.60192317235E+02 -0.25457873997E+01  0.68909380314E+02  0.41800000000E+01 0.  1.
         -5    1    3    3    0  502 -0.80914732425E+01  0.55213581713E+02 -0.42914881434E+02  0.70520713222E+02  0.41800000000E+01 0.  1.
        -11    1    4    4    0    0  0.30815660753E+02 -0.15416998909E+02 -0.48765338693E+02  0.59710527220E+02  0.00000000000E+00 0. -1.
         11    1    4    4    0    0  0.10463674843E+02  0.20395734432E+02  0.35863691792E+02  0.42563821060E+02  0.00000000000E+00 0.  1.
</event>
<event>
 8    1  0.7281309E-009  0.1292571E+03  0.7561462E-02  0.1228562E+00
         -2   -1    0    0    0  501 -0.00000000000E+00  0.00000000000E+00  0.97698357985E+02  0.97698357985E+02  0.00000000000E+00 0. -1.
          2   -1    0    0  501    0  0.00000000000E+00 -0.00000000000E+00 -0.43775765989E+03  0.43775765989E+03  0.00000000000E+00 0.  1.
         25    2    1    2    0    0  0.47684630228E+02  0.95098397546E+02 -0.35954794821E+03  0.39527200609E+03  0.12509077728E+03 0.  0.
         23    2    1    2    0    0 -0.47684630228E+02 -0.95098397546E+02  0.19488646312E+02  0.14018401178E+03  0.89186437577E+02 0.  0.
          5    1    3    3  502    0  0.13617768188E+02  0.11049425768E+03 -0.32724140126E+03  0.34568603051E+03  0.41800000000E+01 0.  1.
         -5    1    3    3    0  502  0.34066862040E+02 -0.15395860131E+02 -0.32306546949E+02  0.49585975580E+02  0.41800000000E+01 0.  1.
        -11    1    4    4    0    0 -0.11604750255E+02 -0.52009472594E+02  0.52665561006E+02  0.74922071408E+02  0.00000000000E+00 0. -1.
         11    1    4    4    0    0 -0.36079879974E+02 -0.43088924951E+02 -0.33176914694E+02  0.65261940371E+02  0.00000000000E+00 0.  1.
</event>
<event>
 8    1  0.7281309E-009  0.9641072E+02  0.7561462E-02  0.1288030E+00
          3   -1    0    0  501    0  0.00000000000E+00  0.00000000000E+00  0.13444639051E+03  0.13444639051E+03  0.00000000000E+00 0. -1.
         -3   -1    0    0    0  501 -0.00000000000E+00 -0.00000000000E+00 -0.99106286832E+02  0.99106286832E+02  0.00000000000E+00 0.  1.
         25    2    1    2    0    0 -0.12362896947E+02 -0.49503397201E+01  0.56542982089E+02  0.13792003351E+03  0.12508988662E+03 0.  0.
         23    2    1    2    0    0  0.12362896947E+02  0.49503397201E+01 -0.21202878409E+02  0.95632643837E+02  0.92296768255E+02 0.  0.
          5    1    3    3  502    0 -0.25474546253E+02 -0.57811781540E+02  0.61667315071E+01  0.63613328549E+02  0.41800000000E+01 0.  1.
         -5    1    3    3    0  502  0.13111649306E+02  0.52861441820E+02  0.50376250582E+02  0.74306704957E+02  0.41800000000E+01 0.  1.
        -11    1    4    4    0    0 -0.32361102745E-01  0.38818818646E+02 -0.39336197702E+02  0.55265162426E+02  0.00000000000E+00 0.  1.
         11    1    4    4    0    0  0.12395258049E+02 -0.33868478926E+02  0.18133319293E+02  0.40367481411E+02  0.00000000000E+00 0. -1.
</event>
<event>
 8    1  0.7281309E-009  0.9868654E+02  0.7561462E-02  0.1283082E+00
          1   -1    0    0  501    0  0.00000000000E+00  0.00000000000E+00  0.14487655395E+03  0.14487655395E+03  0.00000000000E+00 0. -1.
         -1   -1    0    0    0  501 -0.00000000000E+00 -0.00000000000E+00 -0.96555003638E+02  0.96555003638E+02  0.00000000000E+00 0.  1.
         25    2    1    2    0    0  0.39708717304E+02 -0.25428551384E+02  0.12146378125E+02  0.13423675452E+03  0.12509427767E+03 0.  0.
         23    2    1    2    0    0 -0.39708717304E+02  0.25428551384E+02  0.36175172186E+02  0.10719480307E+03  0.89211486182E+02 0.  0.
          5    1    3    3  502    0  0.63778242415E+02 -0.31559323440E+02  0.51200796584E+02  0.87764737066E+02  0.41800000000E+01 0.  1.
         -5    1    3    3    0  502 -0.24069525111E+02  0.61307720555E+01 -0.39054418459E+02  0.46472017454E+02  0.41800000000E+01 0.  1.
        -11    1    4    4    0    0  0.43747677622E+01 -0.29867355371E+02  0.10471873928E+02  0.31950863108E+02  0.00000000000E+00 0. -1.
         11    1    4    4    0    0 -0.44083485066E+02  0.55295906755E+02  0.25703298259E+02  0.75243939960E+02  0.00000000000E+00 0.  1.
</event>
<event>
 8    1  0.7281309E-009  0.9760373E+02  0.7561462E-02  0.1285417E+00
         -2   -1    0    0    0  501 -0.00000000000E+00  0.00000000000E+00  0.14415274206E+03  0.14415274206E+03  0.00000000000E+00 0. -1.
          2   -1    0    0  501    0  0.00000000000E+00 -0.00000000000E+00 -0.17395291990E+03  0.17395291990E+03  0.00000000000E+00 0.  1.
         25    2    1    2    0    0 -0.28852677339E+02  0.76410374463E+02  0.63382505655E+02  0.16228360368E+03  0.12509038207E+03 0.  0.
         23    2    1    2    0    0  0.28852677339E+02 -0.76410374463E+02 -0.93182683500E+02  0.15582205827E+03  0.94480045646E+02 0.  0.
          5    1    3    3  502    0 -0.23273790813E+01  0.75784249986E+02 -0.16757479524E+02  0.77762167918E+02  0.41800000000E+01 0. -1.
         -5    1    3    3    0  502 -0.26525298258E+02  0.62612447756E+00  0.80139985180E+02  0.84521435767E+02  0.41800000000E+01 0. -1.
        -11    1    4    4    0    0  0.40321481409E+02 -0.56091168481E+02 -0.10454571516E+02  0.69866580781E+02  0.00000000000E+00 0. -1.
         11    1    4    4    0    0 -0.11468804070E+02 -0.20319205983E+02 -0.82728111984E+02  0.85955477493E+02  0.00000000000E+00 0.  1.
</event>
<event>
 8    1  0.7281309E-009  0.1093371E+03  0.7561462E-02  0.1261802E+00
         -2   -1    0    0    0  501 -0.00000000000E+00  0.00000000000E+00  0.17880397067E+03  0.17880397067E+03  0.00000000000E+00 0.  1.
          2   -1    0    0  501    0  0.00000000000E+00 -0.00000000000E+00 -0.86981300301E+02  0.86981300301E+02  0.00000000000E+00 0. -1.
         25    2    1    2    0    0 -0.17565903685E+02 -0.28306265557E+02  0.11162731903E+03  0.17092877620E+03  0.12508470145E+03 0.  0.
         23    2    1    2    0    0  0.17565903685E+02  0.28306265557E+02 -0.19804648663E+02  0.94856494772E+02  0.86577854268E+02 0.  0.
          5    1    3    3  502    0 -0.45578543600E+02 -0.66138174527E+02  0.56366316804E+02  0.98215558017E+02  0.41800000000E+01 0. -1.
         -5    1    3    3    0  502  0.28012639915E+02  0.37831908970E+02  0.55261002229E+02  0.72713218184E+02  0.41800000000E+01 0. -1.
        -11    1    4    4    0    0 -0.16033166770E+02  0.48977711580E+02 -0.19949902352E+01  0.51573817527E+02  0.00000000000E+00 0.  1.
         11    1    4    4    0    0  0.33599070455E+02 -0.20671446023E+02 -0.17809658428E+02  0.43282677245E+02  0.00000000000E+00 0. -1.
</event>
<event>
 8    1  0.7281309E-009  0.2127838E+03  0.7561462E-02  0.1139380E+00
          2   -1    0    0  501    0  0.00000000000E+00  0.00000000000E+00  0.77474307787E+03  0.77474307787E+03  0.00000000000E+00 0. -1.
         -2   -1    0    0    0  501 -0.00000000000E+00 -0.00000000000E+00 -0.71878620040E+02  0.71878620040E+02  0.00000000000E+00 0.  1.
         25    2    1    2    0    0 -0.16335071560E+03 -0.12685474500E+03  0.30652581005E+03  0.39036058491E+03  0.12509089258E+03 0.  0.
         23    2    1    2    0    0  0.16335071560E+03  0.12685474500E+03  0.39633864778E+03  0.45626111301E+03  0.91182766485E+02 0.  0.
          5    1    3    3  502    0 -0.88754355578E+02 -0.26323208703E+02  0.21829435649E+03  0.23715004834E+03  0.41800000000E+01 0. -1.
         -5    1    3    3    0  502 -0.74596360020E+02 -0.10053153629E+03  0.88231453560E+02  0.15321053657E+03  0.41800000000E+01 0. -1.
        -11    1    4    4    0    0  0.11902787367E+03  0.10244521759E+03  0.36340879092E+03  0.39588963946E+03  0.00000000000E+00 0. -1.
         11    1    4    4    0    0  0.44322841932E+02  0.24409527410E+02  0.32929856865E+02  0.60371473549E+02  0.00000000000E+00 0.  1.
</event>
<event>
 7    1  0.7281309E-009  0.1046639E+03  0.7561462E-02  0.1270783E+00
         -1   -1    0    0    0  501 -0.00000000000E+00  0.00000000000E+00  0.34650069516E+03  0.34650069516E+03  0.00000000000E+00 0.  1.
          1   -1    0    0  501    0  0.00000000000E+00 -0.00000000000E+00 -0.41650513705E+02  0.41650513705E+02  0.00000000000E+00 0. -1.
         23    2    1    2    0    0  0.26138986319E+02  0.94379677867E+01  0.19402027031E+03  0.21861565204E+03  0.96832929223E+02 0.  0.
          5    1    1    2  502    0 -0.36135179413E+01  0.51922336942E+02  0.83677872968E+02  0.98632881991E+02  0.41800000000E+01 0. -1.
         -5    1    1    2    0  502 -0.22525468377E+02 -0.61360304729E+02  0.27152038176E+02  0.70902674838E+02  0.41800000000E+01 0. -1.
        -11    1    3    3    0    0  0.19331140014E+02 -0.38561001137E+02  0.46930162936E+02  0.63742324841E+02  0.00000000000E+00 0. -1.
         11    1    3    3    0    0  0.68078463052E+01  0.47998968923E+02  0.14709010737E+03  0.15487332720E+03  0.00000000000E+00 0.  1.
</event>
<event>
 8    1  0.7281309E-009  0.1991140E+03  0.7561462E-02  0.1150489E+00
         -2   -1    0    0    0  501 -0.00000000000E+00  0.00000000000E+00  0.10019991740E+03  0.10019991740E+03  0.00000000000E+00 0. -1.
          2   -1    0    0  501    0  0.00000000000E+00 -0.00000000000E+00 -0.80979484651E+03  0.80979484651E+03  0.00000000000E+00 0.  1.
         25    2    1    2    0    0 -0.18335399844E+03 -0.26967946826E+02 -0.66096529645E+03  0.69776025857E+03  0.12509315101E+03 0.  0.
         23    2    1    2    0    0  0.18335399844E+03  0.26967946826E+02 -0.48629632665E+02  0.21223450535E+03  0.91283542808E+02 0.  0.
          5    1    3    3  502    0 -0.66499275967E+02  0.16585449380E+02 -0.89357010406E+02  0.11269151940E+03  0.41800000000E+01 0.  1.
         -5    1    3    3    0  502 -0.11685472247E+03 -0.43553396206E+02 -0.57160828604E+03  0.58506873917E+03  0.41800000000E+01 0.  1.
        -11    1    4    4    0    0  0.61084995947E+02 -0.32090919514E+02 -0.32911722297E+01  0.69079922262E+02  0.00000000000E+00 0.  1.
         11    1    4    4    0    0  0.12226900249E+03  0.59058866340E+02 -0.45338460435E+02  0.14315458308E+03  0.00000000000E+00 0. -1.
</event>
<event>
 8    1  0.7281309E-009  0.1186642E+03  0.7561462E-02  0.1245317E+00
         -2   -1    0    0    0  501 -0.00000000000E+00  0.00000000000E+00  0.24330800830E+02  0.24330800830E+02  0.00000000000E+00 0. -1.
          2   -1    0    0  501    0  0.00000000000E+00 -0.00000000000E+00 -0.81320759512E+03  0.81320759512E+03  0.00000000000E+00 0.  1.
         25    2    1    2    0    0  0.72513747319E+02 -0.33672061358E+02 -0.54894570127E+03  0.56866377483E+03  0.12508019263E+03 0.  0.
         23    2    1    2    0    0 -0.72513747319E+02  0.33672061358E+02 -0.23993109302E+03  0.26887462113E+03  0.91293927626E+02 0.  0.
          5    1    3    3  502    0  0.98932659783E+02 -0.16731047152E+02 -0.27258809036E+03  0.29049843118E+03  0.41800000000E+01 0.  1.
         -5    1    3    3    0  502 -0.26418912463E+02 -0.16941014205E+02 -0.27635761091E+03  0.27816534365E+03  0.41800000000E+01 0.  1.
        -11    1    4    4    0    0 -0.18799677438E+02  0.46380541351E+02 -0.48675217437E+02  0.69813030878E+02  0.00000000000E+00 0. -1.
         11    1    4    4    0    0 -0.53714069882E+02 -0.12708479994E+02 -0.19125587558E+03  0.19906159025E+03  0.00000000000E+00 0.  1.
</event>
<event>
 8    1  0.7281309E-009  0.6072367E+02  0.7561462E-02  0.1394820E+00
         -2   -1    0    0    0  501 -0.00000000000E+00  0.00000000000E+00  0.31615134172E+02  0.31615134172E+02  0.00000000000E+00 0.  1.
          2   -1    0    0  501    0  0.00000000000E+00 -0.00000000000E+00 -0.46292232966E+03  0.46292232966E+03  0.00000000000E+00 0. -1.
         25    2    1    2    0    0 -0.22935236050E+02 -0.47376052510E+02 -0.24203417165E+03  0.27748695438E+03  0.12509178311E+03 0.  0.
         23    2    1    2    0    0  0.22935236050E+02  0.47376052510E+02 -0.18927302383E+03  0.21705050944E+03  0.92282884086E+02 0.  0.
          5    1    3    3  502    0 -0.19058973258E+02 -0.13177869733E+02  0.81470998478E+01  0.24914821859E+02  0.41800000000E+01 0.  1.
         -5    1    3    3    0  502 -0.38762627921E+01 -0.34198182777E+02 -0.25018127150E+03  0.25257213253E+03  0.41800000000E+01 0.  1.
        -11    1    4    4    0    0  0.21423378882E+02  0.65842727625E+01  0.10131942793E+01  0.22435248454E+02  0.00000000000E+00 0.  1.
         11    1    4    4    0    0  0.15118571675E+01  0.40791779747E+02 -0.19028621811E+03  0.19461526099E+03  0.00000000000E+00 0. -1.
</event>
<event>
 8    1  0.7281309E-009  0.1244622E+03  0.7561462E-02  0.1235912E+00
          1   -1    0    0  501    0  0.00000000000E+00  0.00000000000E+00  0.49377216215E+03  0.49377216215E+03  0.00000000000E+00 0. -1.
         -1   -1    0    0    0  501 -0.00000000000E+00 -0.00000000000E+00 -0.45202651351E+02  0.45202651351E+02  0.00000000000E+00 0.  1.
         25    2    1    2    0    0 -0.10629960714E+02 -0.97136440220E+02  0.18798182947E+03  0.24603476342E+03  0.12508977784E+03 0.  0.
         23    2    1    2    0    0  0.10629960714E+02  0.97136440220E+02  0.26058768133E+03  0.29294005008E+03  0.91430023481E+02 0.  0.
          5    1    3    3  502    0 -0.16064738569E+01 -0.12161881224E+03  0.11127526904E+03  0.16490413624E+03  0.41800000000E+01 0.  1.
         -5    1    3    3    0  502 -0.90234868570E+01  0.24482372021E+02  0.76706560426E+02  0.81130627184E+02  0.41800000000E+01 0.  1.
        -11    1    4    4    0    0  0.16627222022E+02  0.39587629707E+02  0.23609538152E+02  0.49000563565E+02  0.00000000000E+00 0.  1.
         11    1    4    4    0    0 -0.59972613077E+01  0.57548810513E+02  0.23697814318E+03  0.24393948651E+03  0.00000000000E+00 0. -1.
</event>
<event>
 8    1  0.7281309E-009  0.8343930E+02  0.7561462E-02  0.1319565E+00
         -2   -1    0    0    0  501 -0.00000000000E+00  0.00000000000E+00  0.24655777219E+03  0.24655777219E+03  0.00000000000E+00 0.  1.
          2   -1    0    0  501    0  0.00000000000E+00 -0.00000000000E+00 -0.59425437243E+02  0.59425437243E+02  0.00000000000E+00 0. -1.
         25    2    1    2    0    0 -0.30030388155E+02  0.20508700057E+02  0.15150744073E+03  0.19981576633E+03  0.12509758146E+03 0.  0.
         23    2    1    2    0    0  0.30030388155E+02 -0.20508700057E+02  0.35624894217E+02  0.10616744310E+03  0.93166313099E+02 0.  0.
          5    1    3    3  502    0 -0.60454793752E+02 -0.13119586984E+02  0.27720973910E+02  0.67917821261E+02  0.41800000000E+01 0.  1.
         -5    1    3    3    0  502  0.30424405597E+02  0.33628287041E+02  0.12378646682E+03  0.13189794507E+03  0.41800000000E+01 0.  1.
        -11    1    4    4    0    0  0.30747341033E+02 -0.33990374894E+02  0.61666514910E+02  0.76834260764E+02  0.00000000000E+00 0.  1.
         11    1    4    4    0    0 -0.71695287774E+00  0.13481674837E+02 -0.26041620693E+02  0.29333182340E+02  0.00000000000E+00 0. -1.
</event>
<event>
 8    1  0.7281309E-009  0.1493213E+03  0.7561462E-02  0.1201309E+00
          1   -1    0    0  501    0  0.00000000000E+00  0.00000000000E+00  0.73206461333E+03  0.73206461333E+03  0.00000000000E+00 0. -1.
         -1   -1    0    0    0  501 -0.00000000000E+00 -0.00000000000E+00 -0.42453242196E+02  0.42453242196E+02  0.00000000000E+00 0.  1.
         25    2    1    2    0    0  0.12231808560E+03 -0.68523923719E+02  0.38872609281E+03  0.43175493835E+03  0.12508840624E+03 0.  0.
         23    2    1    2    0    0 -0.12231808560E+03  0.68523923719E+02  0.30088527833E+03  0.34276291718E+03  0.85423793472E+02 0.  0.
          5    1    3    3  502    0  0.29399518380E+01 -0.16335236598E+02 -0.43231920963E+01  0.17653488647E+02  0.41800000000E+01 0. -1.
         -5    1    3    3    0  502  0.11937813376E+03 -0.52188687121E+02  0.39304928490E+03  0.41410144970E+03  0.41800000000E+01 0. -1.
        -11    1    4    4    0    0 -0.62588111898E+02  0.32181849044E+01  0.62628551154E+02  0.88600021923E+02  0.00000000000E+00 0.  1.
         11    1    4    4    0    0 -0.59729973697E+02  0.65305738815E+02  0.23825672717E+03  0.25416289525E+03  0.00000000000E+00 0. -1.
</event>
<event>
 8    1  0.7281309E-009  0.1002306E+03  0.7561462E-02  0.1279812E+00
          4   -1    0    0  501    0  0.00000000000E+00  0.00000000000E+00  0.10047383404E+03  0.10047383404E+03  0.00000000000E+00 0. -1.
         -4   -1    0    0    0  501 -0.00000000000E+00 -0.00000000000E+00 -0.25750748115E+03  0.25750748115E+03  0.00000000000E+00 0.  1.
         25    2    1    2    0    0 -0.74205628100E+02 -0.48639806632E+02 -0.17082011177E+03  0.22956377869E+03  0.12509081448E+03 0.  0.
         23    2    1    2    0    0  0.74205628100E+02  0.48639806632E+02  0.13786464658E+02  0.12841753650E+03  0.91807902940E+02 0.  0.
          5    1    3    3  502    0 -0.28413093707E+02 -0.57775872168E+02 -0.17090896305E+03  0.18268196778E+03  0.41800000000E+01 0. -1.
         -5    1    3    3    0  502 -0.45792534393E+02  0.91360655357E+01  0.88851278376E-01  0.46881810910E+02  0.41800000000E+01 0. -1.
        -11    1    4    4    0    0  0.28982899713E+02  0.14568158009E+02 -0.39192775182E+02  0.50875468843E+02  0.00000000000E+00 0.  1.
         11    1    4    4    0    0  0.45222728387E+02  0.34071648623E+02  0.52979239840E+02  0.77542067658E+02  0.00000000000E+00 0. -1.
</event>
<event>
 8    1  0.7281309E-009  0.7895126E+02  0.7561462E-02  0.1332054E+00
          2   -1    0    0  501    0  0.00000000000E+00  0.00000000000E+00  0.10003662661E+03  0.10003662661E+03  0.00000000000E+00 0. -1.
         -2   -1    0    0    0  501 -0.00000000000E+00 -0.00000000000E+00 -0.13993678628E+03  0.13993678628E+03  0.00000000000E+00 0.  1.
         25    2    1    2    0    0 -0.55257051632E+01 -0.52006210741E+01 -0.70837752675E+02  0.14395458416E+03  0.12508938892E+03 0.  0.
         23    2    1    2    0    0  0.55257051632E+01  0.52006210741E+01  0.30937593004E+02  0.96018828739E+02  0.90580908222E+02 0.  0.
          5    1    3    3  502    0  0.53027978002E+02 -0.16842170574E+02 -0.62084305848E+02  0.83471903017E+02  0.41800000000E+01 0. -1.
         -5    1    3    3    0  502 -0.58553683165E+02  0.11641549500E+02 -0.87534468261E+01  0.60482681143E+02  0.41800000000E+01 0. -1.
        -11    1    4    4    0    0  0.73951169247E+01  0.23105079591E+02 -0.26440186615E+02  0.35883365581E+02  0.00000000000E+00 0.  1.
         11    1    4    4    0    0 -0.18694117615E+01 -0.17904458517E+02  0.57377779619E+02  0.60135463157E+02  0.00000000000E+00 0. -1.
</event>
<event>
 8    1  0.7281309E-009  0.1020048E+03  0.7561462E-02  0.1276136E+00
          2   -1    0    0  501    0  0.00000000000E+00  0.00000000000E+00  0.80476755446E+03  0.80476755446E+03  0.00000000000E+00 0. -1.
         -2   -1    0    0    0  501 -0.00000000000E+00 -0.00000000000E+00 -0.15963906770E+02  0.15963906770E+02  0.00000000000E+00 0.  1.
         25    2    1    2    0    0  0.14476043302E+02  0.74667925122E+01  0.56730771532E+03  0.58116462103E+03  0.12509581949E+03 0.  0.
         23    2    1    2    0    0 -0.14476043302E+02 -0.74667925122E+01  0.22149593237E+03  0.23956684020E+03  0.89813774265E+02 0.  0.
          5    1    3    3  502    0 -0.31908841205E+02  0.49616196544E+02  0.20135104924E+03  0.20985628067E+03  0.41800000000E+01 0. -1.
         -5    1    3    3    0  502  0.46384884507E+02 -0.42149404032E+02  0.36595666609E+03  0.37130834036E+03  0.41800000000E+01 0. -1.
        -11    1    4    4    0    0 -0.48082947957E+02 -0.54213244186E+01  0.17858197235E+03  0.18502130010E+03  0.00000000000E+00 0. -1.
         11    1    4    4    0    0  0.33606904655E+02 -0.20454680936E+01  0.42913960017E+02  0.54545540098E+02  0.00000000000E+00 0.  1.
</event>
<event>
 8    1  0.7281309E-009  0.2253907E+03  0.7561462E-02  0.1129927E+00
         -2   -1    0    0    0  501 -0.00000000000E+00  0.00000000000E+00  0.58053888558E+02  0.58053888558E+02  0.00000000000E+00 0.  1.
          2   -1    0    0  501    0  0.00000000000E+00 -0.00000000000E+00 -0.10642882238E+04  0.10642882238E+04  0.00000000000E+00 0. -1.
         25    2    1    2    0    0  0.17110030156E+03 -0.13941476051E+03 -0.44617113589E+03  0.51325231988E+03  0.12508985857E+03 0.  0.
         23    2    1    2    0    0 -0.17110030156E+03  0.13941476051E+03 -0.56006319934E+03  0.60908979247E+03  0.92778226940E+02 0.  0.
          5    1    3    3  502    0  0.12656189747E+02 -0.19858615795E+02 -0.17794159946E+03  0.17954171932E+03  0.41800000000E+01 0. -1.
         -5    1    3    3    0  502  0.15844411181E+03 -0.11955614472E+03 -0.26822953644E+03  0.33371060056E+03  0.41800000000E+01 0. -1.
        -11    1    4    4    0    0 -0.12962738435E+03  0.13411424974E+03 -0.51442315018E+03  0.54719381228E+03  0.00000000000E+00 0. -1.
         11    1    4    4    0    0 -0.41472917208E+02  0.53005107729E+01 -0.45640049155E+02  0.61895980185E+02  0.00000000000E+00 0.  1.
</event>
<event>
 8    1  0.7281309E-009  0.9158532E+02  0.7561462E-02  0.1299057E+00
          2   -1    0    0  501    0  0.00000000000E+00  0.00000000000E+00  0.54797073217E+03  0.54797073217E+03  0.00000000000E+00 0. -1.
         -2   -1    0    0    0  501 -0.00000000000E+00 -0.00000000000E+00 -0.39874745073E+02  0.39874745073E+02  0.00000000000E+00 0.  1.
         25    2    1    2    0    0  0.24217334231E+02  0.35361051260E+02  0.47543166900E+03  0.49347662335E+03  0.12508805972E+03 0.  0.
         23    2    1    2    0    0 -0.24217334231E+02 -0.35361051260E+02  0.32664318100E+02  0.94368853893E+02  0.77470250320E+02 0.  0.
          5    1    3    3  502    0  0.75215052402E+02  0.21273605058E+02  0.25488052581E+03  0.26662975306E+03  0.41800000000E+01 0.  1.
         -5    1    3    3    0  502 -0.50997718170E+02  0.14087446202E+02  0.22055114319E+03  0.22684687029E+03  0.41800000000E+01 0.  1.
        -11    1    4    4    0    0 -0.27347586041E+02 -0.14942388085E+02  0.55453786272E+02  0.63610438105E+02  0.00000000000E+00 0. -1.
         11    1    4    4    0    0  0.31302518095E+01 -0.20418663175E+02 -0.22789468172E+02  0.30758415788E+02  0.00000000000E+00 0.  1.
</event>
<event>
 8    1  0.7281309E-009  0.1636182E+03  0.7561462E-02  0.1184671E+00
         -2   -1    0    0    0  501 -0.00000000000E+00  0.00000000000E+00  0.59657686912E+02  0.59657686912E+02  0.00000000000E+00 0.  1.
          2   -1    0    0  501    0  0.00000000000E+00 -0.00000000000E+00 -0.53950688524E+03  0.53950688524E+03  0.00000000000E+00 0. -1.
         25    2    1    2    0    0 -0.47032068596E+02 -0.13275826909E+03 -0.29066997487E+03  0.34637150462E+03  0.12508961362E+03 0.  0.
         23    2    1    2    0    0  0.47032068596E+02  0.13275826909E+03 -0.18917922346E+03  0.25279306753E+03  0.90987817387E+02 0.  0.
          5    1    3    3  502    0 -0.67349624192E+02 -0.13719445939E+03 -0.19195252615E+03  0.24540076662E+03  0.41800000000E+01 0. -1.
         -5    1    3    3    0  502  0.20317555597E+02  0.44361902961E+01 -0.98717448723E+02  0.10097073800E+03  0.41800000000E+01 0. -1.
        -11    1    4    4    0    0  0.76154871737E+01  0.10415149175E+03 -0.17186292747E+03  0.20110294557E+03  0.00000000000E+00 0. -1.
         11    1    4    4    0    0  0.39416581422E+02  0.28606777344E+02 -0.17316295984E+02  0.51690121954E+02  0.00000000000E+00 0.  1.
</event>
<event>
 8    1  0.7281309E-009  0.1427850E+03  0.7561462E-02  0.1209630E+00
         -2   -1    0    0    0  501 -0.00000000000E+00  0.00000000000E+00  0.45642628192E+03  0.45642628192E+03  0.00000000000E+00 0.  1.
          2   -1    0    0  501    0  0.00000000000E+00 -0.00000000000E+00 -0.74144331285E+02  0.74144331285E+02  0.00000000000E+00 0. -1.
         25    2    1    2    0    0 -0.37767095543E+02  0.11236558803E+03  0.73176674650E+02  0.18722915224E+03  0.12509017090E+03 0.  0.
         23    2    1    2    0    0  0.37767095543E+02 -0.11236558803E+03  0.30910527598E+03  0.34334146096E+03  0.91021471629E+02 0.  0.
          5    1    3    3  502    0  0.15465020677E+02  0.62861152383E+02  0.91483953327E+02  0.11214935336E+03  0.41800000000E+01 0. -1.
         -5    1    3    3    0  502 -0.53232116220E+02  0.49504435652E+02 -0.18307278677E+02  0.75079798874E+02  0.41800000000E+01 0. -1.
        -11    1    4    4    0    0  0.66711361511E+02 -0.85006273834E+02  0.24645104274E+03  0.26909958903E+03  0.00000000000E+00 0. -1.
         11    1    4    4    0    0 -0.28944265968E+02 -0.27359314201E+02  0.62654233240E+02  0.74241871938E+02  0.00000000000E+00 0.  1.
</event>
<event>
 8    1  0.7281309E-009  0.1032852E+03  0.7561462E-02  0.1273536E+00
         -2   -1    0    0    0  501 -0.00000000000E+00  0.00000000000E+00  0.11438065878E+03  0.11438065878E+03  0.00000000000E+00 0.  1.
          2   -1    0    0  501    0  0.00000000000E+00 -0.00000000000E+00 -0.15920577028E+03  0.15920577028E+03  0.00000000000E+00 0. -1.
         25    2    1    2    0    0 -0.66078193681E+02  0.45353765680E+02 -0.72601885082E+01  0.14873699020E+03  0.12508673061E+03 0.  0.
         23    2    1    2    0    0  0.66078193681E+02 -0.45353765680E+02 -0.37564922992E+02  0.12484943887E+03  0.88050935290E+02 0.  0.
          5    1    3    3  502    0 -0.42249717345E+02  0.29867163852E+01  0.55059603652E+02  0.69591604701E+02  0.41800000000E+01 0.  1.
         -5    1    3    3    0  502 -0.23828476336E+02  0.42367049294E+02 -0.62319792160E+02  0.79145385496E+02  0.41800000000E+01 0.  1.
        -11    1    4    4    0    0  0.19017247728E+02 -0.62349996956E+02 -0.54924087759E+01  0.65416698065E+02  0.00000000000E+00 0.  1.
         11    1    4    4    0    0  0.47060945953E+02  0.16996231276E+02 -0.32072514216E+02  0.59432740806E+02  0.00000000000E+00 0. -1.
</event>
<event>
 8    1  0.7281309E-009  0.8685544E+02  0.7561462E-02  0.1310650E+00
          2   -1    0    0  501    0  0.00000000000E+00  0.00000000000E+00  0.11506156348E+03  0.11506156348E+03  0.00000000000E+00 0. -1.
         -2   -1    0    0    0  501 -0.00000000000E+00 -0.00000000000E+00 -0.13569636625E+03  0.13569636625E+03  0.00000000000E+00 0.  1.
         25    2    1    2    0    0 -0.39135211530E+02 -0.32969471282E+02  0.95003217216E+01  0.13548661850E+03  0.12509123416E+03 0.  0.
         23    2    1    2    0    0  0.39135211530E+02  0.32969471282E+02 -0.30135124489E+02  0.11527131123E+03  0.98796754226E+02 0.  0.
          5    1    3    3  502    0 -0.25545680282E+02  0.15689646877E+01 -0.55082052474E+02  0.60881428499E+02  0.41800000000E+01 0.  1.
         -5    1    3    3    0  502 -0.13589531248E+02 -0.34538435970E+02  0.64582374196E+02  0.74605190004E+02  0.41800000000E+01 0.  1.
        -11    1    4    4    0    0  0.59622348871E+02 -0.12174275943E+02 -0.95720350023E+01  0.61600822508E+02  0.00000000000E+00 0. -1.
         11    1    4    4    0    0 -0.20487137341E+02  0.45143747225E+02 -0.20563089487E+02  0.53670488717E+02  0.00000000000E+00 0.  1.
</event>
<event>
 8    1  0.7281309E-009  0.1138971E+03  0.7561462E-02  0.1253519E+00
         -2   -1    0    0    0  501 -0.00000000000E+00  0.00000000000E+00  0.46153360612E+02  0.46153360612E+02  0.00000000000E+00 0.  1.
          2   -1    0    0  501    0  0.00000000000E+00 -0.00000000000E+00 -0.44074707999E+03  0.44074707999E+03  0.00000000000E+00 0. -1.
         25    2    1    2    0    0 -0.38818418277E+02  0.30861068662E+02 -0.34820320107E+03  0.37329920696E+03  0.12509018158E+03 0.  0.
         23    2    1    2    0    0  0.38818418277E+02 -0.30861068662E+02 -0.46390518309E+02  0.11360123364E+03  0.91070768851E+02 0.  0.
          5    1    3    3  502    0 -0.76350676493E+02  0.50411022570E+02 -0.22316555641E+03  0.24122818028E+03  0.41800000000E+01 0. -1.
         -5    1    3    3    0  502  0.37532258217E+02 -0.19549953908E+02 -0.12503764466E+03  0.13207102668E+03  0.41800000000E+01 0. -1.
        -11    1    4    4    0    0  0.60588764902E+02 -0.63829696245E+01 -0.54491445742E+01  0.61167261752E+02  0.00000000000E+00 0.  1.
         11    1    4    4    0    0 -0.21770346626E+02 -0.24478099037E+02 -0.40941373735E+02  0.52433971888E+02  0.00000000000E+00 0. -1.
</event>
<event>
 8    1  0.7281309E-009  0.2412644E+03  0.7561462E-02  0.1118953E+00
          1   -1    0    0  501    0  0.00000000000E+00  0.00000000000E+00  0.17030564419E+03  0.17030564419E+03  0.00000000000E+00 0. -1.
         -1   -1    0    0    0  501 -0.00000000000E+00 -0.00000000000E+00 -0.34520747349E+03  0.34520747349E+03  0.00000000000E+00 0.  1.
         25    2    1    2    0    0  0.17411859989E+03 -0.12552724219E+03 -0.11485283800E+03  0.27370309979E+03  0.12509131495E+03 0.  0.
         23    2    1    2    0    0 -0.17411859989E+03  0.12552724219E+03 -0.60048991303E+02  0.24181001789E+03  0.93764748357E+02 0.  0.
          5    1    3    3  502    0  0.45143772492E+02  0.23603545195E+02 -0.27052277880E+02  0.57830663831E+02  0.41800000000E+01 0. -1.
         -5    1    3    3    0  502  0.12897482740E+03 -0.14913078739E+03 -0.87800560120E+02  0.21587243596E+03  0.41800000000E+01 0. -1.
        -11    1    4    4    0    0 -0.86214303959E+02  0.11777671718E+03 -0.39304536872E+02  0.15115921386E+03  0.00000000000E+00 0.  1.
         11    1    4    4    0    0 -0.87904295935E+02  0.77505250162E+01 -0.20744454431E+02  0.90650804031E+02  0.00000000000E+00 0. -1.
</event>
<event>
 8    1  0.7281309E-009  0.1002189E+03  0.7561462E-02  0.1279836E+00
         -2   -1    0    0    0  501 -0.00000000000E+00  0.00000000000E+00  0.79126585195E+02  0.79126585195E+02  0.00000000000E+00 0.  1.
          2   -1    0    0  501    0  0.00000000000E+00 -0.00000000000E+00 -0.19407368315E+03  0.19407368315E+03  0.00000000000E+00 0. -1.
         25    2    1    2    0    0 -0.51591529564E+02 -0.19637748942E+02 -0.90381783468E+02  0.16390061695E+03  0.12508884181E+03 0.  0.
         23    2    1    2    0    0  0.51591529564E+02  0.19637748942E+02 -0.24565314490E+02  0.10929965140E+03  0.91080360201E+02 0.  0.
          5    1    3    3  502    0 -0.43565692928E+01 -0.62147012616E+02 -0.13168791111E+02  0.63813167391E+02  0.41800000000E+01 0.  1.
         -5    1    3    3    0  502 -0.47234960271E+02  0.42509263675E+02 -0.77212992357E+02  0.10008744956E+03  0.41800000000E+01 0.  1.
        -11    1    4    4    0    0 -0.69895865972E+01  0.13766965343E+02 -0.44531107791E+02  0.47131764412E+02  0.00000000000E+00 0. -1.
         11    1    4    4    0    0  0.58581116161E+02  0.58707835989E+01  0.19965793300E+02  0.62167886990E+02  0.00000000000E+00 0.  1.
</event>
<event>
 8    1  0.7281309E-009  0.1192571E+03  0.7561462E-02  0.1244328E+00
         -1   -1    0    0    0  501 -0.00000000000E+00  0.00000000000E+00  0.15207975115E+03  0.15207975115E+03  0.00000000000E+00 0.  1.
          1   -1    0    0  501    0  0.00000000000E+00 -0.00000000000E+00 -0.14024918106E+03  0.14024918106E+03  0.00000000000E+00 0. -1.
         25    2    1    2    0    0  0.19126656321E+02  0.81330440479E+02  0.57872365093E+02  0.16117209360E+03  0.12508702404E+03 0.  0.
         23    2    1    2    0    0 -0.19126656321E+02 -0.81330440479E+02 -0.46041795001E+02  0.13115683861E+03  0.90009998875E+02 0.  0.
          5    1    3    3  502    0  0.13205711549E+02 -0.26553363843E+02 -0.12185209122E+02  0.32333012081E+02  0.41800000000E+01 0.  1.
         -5    1    3    3    0  502  0.59209447723E+01  0.10788380432E+03  0.70057574215E+02  0.12883908152E+03  0.41800000000E+01 0.  1.
        -11    1    4    4    0    0 -0.35943617124E+02 -0.31316163516E+02  0.15464842098E+02  0.50117931426E+02  0.00000000000E+00 0.  1.
         11    1    4    4    0    0  0.16816960802E+02 -0.50014276963E+02 -0.61506637099E+02  0.81038907187E+02  0.00000000000E+00 0. -1.
</event>
<event>
 8    1  0.7281309E-009  0.1489244E+03  0.7561462E-02  0.1201801E+00
          2   -1    0    0  501    0  0.00000000000E+00  0.00000000000E+00  0.54517751196E+02  0.54517751196E+02  0.00000000000E+00 0.  1.
         -2   -1    0    0    0  501 -0.00000000000E+00 -0.00000000000E+00 -0.55835532115E+03  0.55835532115E+03  0.00000000000E+00 0. -1.
         25    2    1    2    0    0 -0.14751831117E+02  0.13421017307E+03 -0.30039323901E+03  0.35229770940E+03  0.12509033107E+03 0.  0.
         23    2    1    2    0    0  0.14751831117E+02 -0.13421017307E+03 -0.20344433094E+03  0.26057536295E+03  0.90994158641E+02 0.  0.
          5    1    3    3  502    0 -0.23515692304E+02  0.10638190926E+03 -0.94434989117E+02  0.14424124920E+03  0.41800000000E+01 0. -1.
         -5    1    3    3    0  502  0.87638611866E+01  0.27828263807E+02 -0.20595824989E+03  0.20805646020E+03  0.41800000000E+01 0. -1.
        -11    1    4    4    0    0 -0.28139099254E+02 -0.13438272127E+02 -0.63928516486E+02  0.71128414046E+02  0.00000000000E+00 0.  1.
         11    1    4    4    0    0  0.42890930371E+02 -0.12077190094E+03 -0.13951581445E+03  0.18944694890E+03  0.00000000000E+00 0. -1.
</event>
<event>
 8    1  0.7281309E-009  0.1303004E+03  0.7561462E-02  0.1227011E+00
          2   -1    0    0  501    0  0.00000000000E+00  0.00000000000E+00  0.13691026684E+03  0.13691026684E+03  0.00000000000E+00 0. -1.
         -2   -1    0    0    0  501 -0.00000000000E+00 -0.00000000000E+00 -0.16337203120E+03  0.16337203120E+03  0.00000000000E+00 0.  1.
         25    2    1    2    0    0 -0.96864279089E+02  0.12298999403E+02  0.13428305894E+02  0.15925308865E+03  0.12508905985E+03 0.  0.
         23    2    1    2    0    0  0.96864279089E+02 -0.12298999403E+02 -0.39890070258E+02  0.14102920939E+03  0.93616591722E+02 0.  0.
          5    1    3    3  502    0 -0.82466472742E+02 -0.39415684022E+02  0.39221960880E+02  0.99549735754E+02  0.41800000000E+01 0. -1.
         -5    1    3    3    0  502 -0.14397806347E+02  0.51714683424E+02 -0.25793654986E+02  0.59703352894E+02  0.41800000000E+01 0. -1.
        -11    1    4    4    0    0  0.52414014173E+02  0.24212436536E+02 -0.56881326339E+02  0.81049097779E+02  0.00000000000E+00 0.  1.
         11    1    4    4    0    0  0.44450264916E+02 -0.36511435939E+02  0.16991256080E+02  0.59980111609E+02  0.00000000000E+00 0. -1.
</event>
<event>
 8    1  0.7281309E-009  0.1109998E+03  0.7561462E-02  0.1258730E+00
          2   -1    0    0  501    0  0.00000000000E+00  0.00000000000E+00  0.31182942545E+02  0.31182942545E+02  0.00000000000E+00 0. -1.
         -2   -1    0    0    0  501 -0.00000000000E+00 -0.00000000000E+00 -0.62009278696E+03  0.62009278696E+03  0.00000000000E+00 0.  1.
         25    2    1    2    0    0  0.10822238679E+02  0.52062961154E+02 -0.48629159330E+03  0.50493035741E+03  0.12508988507E+03 0.  0.
         23    2    1    2    0    0 -0.10822238679E+02 -0.52062961154E+02 -0.10261825111E+03  0.14634537209E+03  0.89770761924E+02 0.  0.
          5    1    3    3  502    0  0.47380177932E+02  0.65333575876E+02 -0.19587156192E+03  0.21188793870E+03  0.41800000000E+01 0.  1.
         -5    1    3    3    0  502 -0.36557939253E+02 -0.13270614722E+02 -0.29042003138E+03  0.29304241872E+03  0.41800000000E+01 0.  1.
        -11    1    4    4    0    0 -0.13287589708E+02 -0.76431076084E+02 -0.63783046335E+02  0.10043179990E+03  0.00000000000E+00 0. -1.
         11    1    4    4    0    0  0.24653510288E+01  0.24368114931E+02 -0.38835204777E+02  0.45913572188E+02  0.00000000000E+00 0.  1.
</event>
<event>
 8    1  0.7281309E-009  0.1552460E+03  0.7561462E-02  0.1194171E+00
          2   -1    0    0  501    0  0.00000000000E+00  0.00000000000E+00  0.44050322886E+03  0.44050322886E+03  0.00000000000E+00 0. -1.
         -2   -1    0    0    0  501 -0.00000000000E+00 -0.00000000000E+00 -0.58404137575E+02  0.58404137575E+02  0.00000000000E+00 0.  1.
         25    2    1    2    0    0 -0.52119069044E+02 -0.97370640064E+02  0.16581097790E+03  0.23524162780E+03  0.12509158306E+03 0.  0.
         23    2    1    2    0    0  0.52119069044E+02  0.97370640064E+02  0.21628811338E+03  0.26366573864E+03  0.10267246386E+03 0.  0.
          5    1    3    3  502    0 -0.86467400791E+02 -0.99675473427E+02  0.13553962115E+03  0.18920959992E+03  0.41800000000E+01 0. -1.
         -5    1    3    3    0  502  0.34348331747E+02  0.23048333638E+01  0.30271356757E+02  0.46032027878E+02  0.41800000000E+01 0. -1.
        -11    1    4    4    0    0  0.24990789950E+02 -0.14355886437E+02  0.81813817970E+02  0.86741753893E+02  0.00000000000E+00 0. -1.
         11    1    4    4    0    0  0.27128279093E+02  0.11172652650E+03  0.13447429541E+03  0.17692398474E+03  0.00000000000E+00 0.  1.
</event>
<event>
 8    1  0.7281309E-009  0.1482151E+03  0.7561462E-02  0.1202684E+00
         -1   -1    0    0    0  501 -0.00000000000E+00  0.00000000000E+00  0.18561016358E+02  0.18561016358E+02  0.00000000000E+00 0.  1.
          1   -1    0    0  501    0  0.00000000000E+00 -0.00000000000E+00 -0.13570969383E+04  0.13570969383E+04  0.00000000000E+00 0. -1.
         25    2    1    2    0    0 -0.90701062372E+02 -0.41901962938E+02 -0.94977901261E+03  0.96317764181E+03  0.12509412322E+03 0.  0.
         23    2    1    2    0    0  0.90701062372E+02  0.41901962938E+02 -0.38875690930E+03  0.41248031282E+03  0.95003245856E+02 0.  0.
          5    1    3    3  502    0 -0.10874692740E+03 -0.67826983800E+02 -0.76169711880E+03  0.77241592885E+03  0.41800000000E+01 0.  1.
         -5    1    3    3    0  502  0.18045865024E+02  0.25925020861E+02 -0.18808189381E+03  0.19076171296E+03  0.41800000000E+01 0.  1.
        -11    1    4    4    0    0  0.59542940907E+02 -0.23402682928E+02 -0.15205313010E+03  0.16496424386E+03  0.00000000000E+00 0.  1.
         11    1    4    4    0    0  0.31158121465E+02  0.65304645866E+02 -0.23670377920E+03  0.24751606896E+03  0.00000000000E+00 0. -1.
</event>
<event>
 8    1  0.7281309E-009  0.9132973E+02  0.7561462E-02  0.1299663E+00
          1   -1    0    0  501    0  0.00000000000E+00  0.00000000000E+00  0.46823659008E+03  0.46823659008E+03  0.00000000000E+00 0. -1.
         -1   -1    0    0    0  501 -0.00000000000E+00 -0.00000000000E+00 -0.26995669223E+02  0.26995669223E+02  0.00000000000E+00 0.  1.
         25    2    1    2    0    0 -0.21949990717E+02  0.13687082108E+02  0.26243471534E+03  0.29187123985E+03  0.12509077714E+03 0.  0.
         23    2    1    2    0    0  0.21949990717E+02 -0.13687082108E+02  0.17880620552E+03  0.20336101946E+03  0.93353665129E+02 0.  0.
          5    1    3    3  502    0 -0.44092565581E+02  0.34654480117E+02  0.25372544142E+03  0.25988297242E+03  0.41800000000E+01 0. -1.
         -5    1    3    3    0  502  0.22142574864E+02 -0.20967398009E+02  0.87092739245E+01  0.31988267430E+02  0.41800000000E+01 0. -1.
        -11    1    4    4    0    0 -0.23245179285E+02 -0.37831911014E+02  0.67071954315E+02  0.80437795261E+02  0.00000000000E+00 0.  1.
         11    1    4    4    0    0  0.45195170001E+02  0.24144828905E+02  0.11173425120E+03  0.12292322419E+03  0.00000000000E+00 0. -1.
</event>
<event>
 8    1  0.7281309E-009  0.1036246E+03  0.7561462E-02  0.1272853E+00
         -1   -1    0    0    0  501 -0.00000000000E+00  0.00000000000E+00  0.99401188291E+02  0.99401188291E+02  0.00000000000E+00 0.  1.
          1   -1    0    0  501    0  0.00000000000E+00 -0.00000000000E+00 -0.21246347101E+03  0.21246347101E+03  0.00000000000E+00 0. -1.
         25    2    1    2    0    0 -0.20330891052E+02  0.24037172673E+01 -0.16262611492E+03  0.20619167796E+03  0.12509449156E+03 0.  0.
         23    2    1    2    0    0  0.20330891052E+02 -0.24037172673E+01  0.49563832207E+02  0.10567298133E+03  0.91055381682E+02 0.  0.
          5    1    3    3  502    0 -0.25819870757E+02 -0.58001609223E+02 -0.63405450335E+02  0.89825252187E+02  0.41800000000E+01 0.  1.
         -5    1    3    3    0  502  0.54889797044E+01  0.60405326490E+02 -0.99220664589E+02  0.11636642578E+03  0.41800000000E+01 0.  1.
        -11    1    4    4    0    0 -0.61815168470E+01  0.35796128625E+02  0.46591760683E+02  0.59079320736E+02  0.00000000000E+00 0.  1.
         11    1    4    4    0    0  0.26512407900E+02 -0.38199845892E+02  0.29720715233E+01  0.46593660598E+02  0.00000000000E+00 0. -1.
</event>
<event>
 8    1  0.7281309E-009  0.1688029E+03  0.7561462E-02  0.1179102E+00
         -3   -1    0    0    0  501 -0.00000000000E+00  0.00000000000E+00  0.11777672968E+03  0.11777672968E+03  0.00000000000E+00 0.  1.
          3   -1    0    0  501    0  0.00000000000E+00 -0.00000000000E+00 -0.31722989448E+03  0.31722989448E+03  0.00000000000E+00 0. -1.
         25    2    1    2    0    0 -0.13802205024E+03  0.67860253891E+02 -0.15426749790E+03  0.25119745249E+03  0.12508636545E+03 0.  0.
         23    2    1    2    0    0  0.13802205024E+03 -0.67860253891E+02 -0.45185666904E+02  0.18380917167E+03  0.89938682915E+02 0.  0.
          5    1    3    3  502    0 -0.12800362888E+03  0.76153644654E+02 -0.67879135463E+02  0.16373562847E+03  0.41800000000E+01 0.  1.
         -5    1    3    3    0  502 -0.10018421362E+02 -0.82933907638E+01 -0.86388362433E+02  0.87461824019E+02  0.41800000000E+01 0.  1.
        -11    1    4    4    0    0  0.88062252686E+02 -0.84735720900E+02 -0.15210589842E+02  0.12315220172E+03  0.00000000000E+00 0.  1.
         11    1    4    4    0    0  0.49959797552E+02  0.16875467010E+02 -0.29975077063E+02  0.60656969947E+02  0.00000000000E+00 0. -1.
</event>
<event>
 8    1  0.7281309E-009  0.1998140E+03  0.7561462E-02  0.1149896E+00
          2   -1    0    0  501    0  0.00000000000E+00  0.00000000000E+00  0.53099757312E+03  0.53099757312E+03  0.00000000000E+00 0.  1.
         -2   -1    0    0    0  501 -0.00000000000E+00 -0.00000000000E+00 -0.91918200665E+02  0.91918200665E+02  0.00000000000E+00 0. -1.
         25    2    1    2    0    0  0.14036511455E+03 -0.11752708512E+03  0.30563172976E+03  0.37758666035E+03  0.12508377480E+03 0.  0.
         23    2    1    2    0    0 -0.14036511455E+03  0.11752708512E+03  0.13344764269E+03  0.24532911344E+03  0.94144141836E+02 0.  0.
          5    1    3    3  502    0  0.38578557914E+02  0.52951720304E+01  0.81410918552E+01  0.40001171910E+02  0.41800000000E+01 0. -1.
         -5    1    3    3    0  502  0.10178655663E+03 -0.12282225715E+03  0.29749063790E+03  0.33758548844E+03  0.41800000000E+01 0. -1.
        -11    1    4    4    0    0  0.10990576923E+02  0.40186725178E+01  0.24153485457E+02  0.26839026987E+02  0.00000000000E+00 0.  1.
         11    1    4    4    0    0 -0.15135569147E+03  0.11350841260E+03  0.10929415724E+03  0.21849008645E+03  0.00000000000E+00 0. -1.
</event>
<event>
 8    1  0.7281309E-009  0.1045790E+03  0.7561462E-02  0.1270951E+00
          2   -1    0    0  501    0  0.00000000000E+00  0.00000000000E+00  0.51316997856E+02  0.51316997856E+02  0.00000000000E+00 0. -1.
         -2   -1    0    0    0  501 -0.00000000000E+00 -0.00000000000E+00 -0.26092720091E+03  0.26092720091E+03  0.00000000000E+00 0.  1.
         25    2    1    2    0    0  0.23654392808E+02  0.23543322341E+02 -0.12890802478E+03  0.18269681516E+03  0.12508808532E+03 0.  0.
         23    2    1    2    0    0 -0.23654392808E+02 -0.23543322341E+02 -0.80702178266E+02  0.12954738360E+03  0.95686282691E+02 0.  0.
          5    1    3    3  502    0 -0.27283582404E+02 -0.25209345733E+02 -0.99311764817E+02  0.10611410845E+03  0.41800000000E+01 0. -1.
         -5    1    3    3    0  502  0.50937975212E+02  0.48752668074E+02 -0.29596259967E+02  0.76582706710E+02  0.41800000000E+01 0. -1.
        -11    1    4    4    0    0 -0.61007465216E+02 -0.14100613889E+02 -0.46017333080E+02  0.77706711859E+02  0.00000000000E+00 0.  1.
         11    1    4    4    0    0  0.37353072407E+02 -0.94427084523E+01 -0.34684845186E+02  0.51840671743E+02  0.00000000000E+00 0. -1.
</event>
<event>
 8    1  0.7281309E-009  0.8249537E+02  0.7561462E-02  0.1322115E+00
         -1   -1    0    0    0  501 -0.00000000000E+00  0.00000000000E+00  0.13834600225E+03  0.13834600225E+03  0.00000000000E+00 0.  1.
          1   -1    0    0  501    0  0.00000000000E+00 -0.00000000000E+00 -0.13233339237E+03  0.13233339237E+03  0.00000000000E+00 0. -1.
         25    2    1    2    0    0  0.51921456964E+02 -0.10008767942E+02  0.63907759440E+02  0.15009223108E+03  0.12508981967E+03 0.  0.
         23    2    1    2    0    0 -0.51921456964E+02  0.10008767942E+02 -0.57895149558E+02  0.12058716355E+03  0.91615514739E+02 0.  0.
          5    1    3    3  502    0 -0.68488449552E+01 -0.19085883715E+02 -0.31438511604E+02  0.37643459542E+02  0.41800000000E+01 0.  1.
         -5    1    3    3    0  502  0.58770301919E+02  0.90771157729E+01  0.95346271045E+02  0.11244877154E+03  0.41800000000E+01 0.  1.
        -11    1    4    4    0    0 -0.48146454358E+02 -0.21649830751E+02  0.18986245033E+01  0.52824246457E+02  0.00000000000E+00 0.  1.
         11    1    4    4    0    0 -0.37750026060E+01  0.31658598694E+02 -0.59793774061E+02  0.67762917089E+02  0.00000000000E+00 0. -1.
</event>
<event>
 8    1  0.7281309E-009  0.1236838E+03  0.7561462E-02  0.1237141E+00
          1   -1    0    0  501    0  0.00000000000E+00  0.00000000000E+00  0.45832133742E+03  0.45832133742E+03  0.00000000000E+00 0. -1.
         -1   -1    0    0    0  501 -0.00000000000E+00 -0.00000000000E+00 -0.35164215886E+02  0.35164215886E+02  0.00000000000E+00 0.  1.
         25    2    1    2    0    0 -0.42715561264E+02 -0.46522692084E+02  0.19338494818E+03  0.23882587007E+03  0.12510426843E+03 0.  0.
         23    2    1    2    0    0  0.42715561264E+02  0.46522692084E+02  0.22977217335E+03  0.25465968323E+03  0.89818275230E+02 0.  0.
          5    1    3    3  502    0  0.42069252680E+02  0.20720350876E+01  0.57713387730E+02  0.71571103622E+02  0.41800000000E+01 0. -1.
         -5    1    3    3    0  502 -0.84784813944E+02 -0.48594727171E+02  0.13567156045E+03  0.16725476645E+03  0.41800000000E+01 0. -1.
        -11    1    4    4    0    0  0.69379327143E+02  0.28287073101E+02  0.18369385305E+03  0.19838619203E+03  0.00000000000E+00 0. -1.
         11    1    4    4    0    0 -0.26663765879E+02  0.18235618983E+02  0.46078320299E+02  0.56273491203E+02  0.00000000000E+00 0.  1.
</event>
<event>
 8    1  0.7281309E-009  0.9377632E+02  0.7561462E-02  0.1293956E+00
          3   -1    0    0  501    0  0.00000000000E+00  0.00000000000E+00  0.90985238265E+02  0.90985238265E+02  0.00000000000E+00 0. -1.
         -3   -1    0    0    0  501 -0.00000000000E+00 -0.00000000000E+00 -0.22262412562E+03  0.22262412562E+03  0.00000000000E+00 0.  1.
         25    2    1    2    0    0 -0.17092149134E+02 -0.72530181085E+02 -0.12742415729E+03  0.19348937975E+03  0.12509378677E+03 0.  0.
         23    2    1    2    0    0  0.17092149134E+02  0.72530181085E+02 -0.42147300696E+01  0.12011998413E+03  0.94118424912E+02 0.  0.
          5    1    3    3  502    0 -0.29123985804E+01 -0.13458859338E+02 -0.13166477369E+03  0.13244888823E+03  0.41800000000E+01 0.  1.
         -5    1    3    3    0  502 -0.14179750554E+02 -0.59071321747E+02  0.42406164078E+01  0.61040491530E+02  0.41800000000E+01 0.  1.
        -11    1    4    4    0    0  0.28246890904E+02 -0.92565430908E+01  0.17856791988E+02  0.34676151111E+02  0.00000000000E+00 0. -1.
         11    1    4    4    0    0 -0.11154741770E+02  0.81786724176E+02 -0.22071522058E+02  0.85443833021E+02  0.00000000000E+00 0.  1.
</event>
<event>
 8    1  0.7281309E-009  0.1059139E+03  0.7561462E-02  0.1268329E+00
          4   -1    0    0  501    0  0.00000000000E+00  0.00000000000E+00  0.12139091742E+03  0.12139091742E+03  0.00000000000E+00 0. -1.
         -4   -1    0    0    0  501 -0.00000000000E+00 -0.00000000000E+00 -0.12152936205E+03  0.12152936205E+03  0.00000000000E+00 0.  1.
         25    2    1    2    0    0  0.16384651587E+02 -0.49704188535E+02  0.16697203533E+02  0.13662158144E+03  0.12509075403E+03 0.  0.
         23    2    1    2    0    0 -0.16384651587E+02  0.49704188535E+02 -0.16835648162E+02  0.10629869803E+03  0.90978079717E+02 0.  0.
          5    1    3    3  502    0  0.56843503747E+02 -0.67272013869E+02  0.24773528473E+02  0.91585522225E+02  0.41800000000E+01 0.  1.
         -5    1    3    3    0  502 -0.40458852160E+02  0.17567825334E+02 -0.80763249399E+01  0.45036059215E+02  0.41800000000E+01 0.  1.
        -11    1    4    4    0    0 -0.23602735871E+01 -0.13960894624E+02 -0.35722707029E+02  0.38426413670E+02  0.00000000000E+00 0.  1.
         11    1    4    4    0    0 -0.14024378000E+02  0.63665083159E+02  0.18887058866E+02  0.67872284363E+02  0.00000000000E+00 0. -1.
</event>
<event>
 8    1  0.7281309E-009  0.9662135E+02  0.7561462E-02  0.1287566E+00
         -2   -1    0    0    0  501 -0.00000000000E+00  0.00000000000E+00  0.16924544418E+03  0.16924544418E+03  0.00000000000E+00 0.  1.
          2   -1    0    0  501    0  0.00000000000E+00 -0.00000000000E+00 -0.15335421171E+03  0.15335421171E+03  0.00000000000E+00 0. -1.
         25    2    1    2    0    0 -0.96034751755E+02  0.41480094109E+01 -0.63902958174E+02  0.17020189609E+03  0.12508084523E+03 0.  0.
         23    2    1    2    0    0  0.96034751755E+02 -0.41480094109E+01  0.79794190644E+02  0.15239775979E+03  0.87281640699E+02 0.  0.
          5    1    3    3  502    0 -0.50436420212E+02  0.76934008213E+01  0.34416624633E+02  0.61684660582E+02  0.41800000000E+01 0.  1.
         -5    1    3    3    0  502 -0.45598331543E+02 -0.35453914104E+01 -0.98319582807E+02  0.10851723551E+03  0.41800000000E+01 0.  1.
        -11    1    4    4    0    0  0.53324950519E+02 -0.20755374730E+01 -0.87418435787E+01  0.54076594131E+02  0.00000000000E+00 0. -1.
         11    1    4    4    0    0  0.42709801236E+02 -0.20724719379E+01  0.88536034223E+02  0.98321165663E+02  0.00000000000E+00 0.  1.
</event>
<event>
 8    1  0.7281309E-009  0.9976574E+02  0.7561462E-02  0.1280789E+00
          1   -1    0    0  501    0  0.00000000000E+00  0.00000000000E+00  0.25583801135E+03  0.25583801135E+03  0.00000000000E+00 0.  1.
         -1   -1    0    0    0  501 -0.00000000000E+00 -0.00000000000E+00 -0.53865049087E+02  0.53865049087E+02  0.00000000000E+00 0. -1.
         25    2    1    2    0    0  0.31533972962E+02  0.17770417360E+02  0.78917887803E+02  0.15226847183E+03  0.12508986896E+03 0.  0.
         23    2    1    2    0    0 -0.31533972962E+02 -0.17770417360E+02  0.12305507446E+03  0.15743458860E+03  0.91284824335E+02 0.  0.
          5    1    3    3  502    0  0.76620159292E+02  0.18418138155E+02  0.71289385578E+02  0.10634625296E+03  0.41800000000E+01 0.  1.
         -5    1    3    3    0  502 -0.45086186330E+02 -0.64772079515E+00  0.76285022256E+01  0.45922218873E+02  0.41800000000E+01 0.  1.
        -11    1    4    4    0    0 -0.46960994021E+01 -0.40128920228E+02  0.11457361166E+03  0.12148866645E+03  0.00000000000E+00 0.  1.
         11    1    4    4    0    0 -0.26837873559E+02  0.22358502868E+02  0.84814627985E+01  0.35945922145E+02  0.00000000000E+00 0. -1.
</event>
<event>
 8    1  0.7281309E-009  0.8609503E+02  0.7561462E-02  0.1312593E+00
          4   -1    0    0  501    0  0.00000000000E+00  0.00000000000E+00  0.84944330738E+03  0.84944330738E+03  0.00000000000E+00 0. -1.
         -4   -1    0    0    0  501 -0.00000000000E+00 -0.00000000000E+00 -0.27958853348E+02  0.27958853348E+02  0.00000000000E+00 0.  1.
         25    2    1    2    0    0 -0.27797814786E+02  0.26758719455E+02  0.73384484111E+03  0.74542896321E+03  0.12508933122E+03 0.  0.
         23    2    1    2    0    0  0.27797814786E+02 -0.26758719455E+02  0.87639612919E+02  0.13197319752E+03  0.90815612853E+02 0.  0.
          5    1    3    3  502    0  0.17928984770E+02  0.39049722737E+02  0.89864444397E+02  0.99696640403E+02  0.41800000000E+01 0. -1.
         -5    1    3    3    0  502 -0.45726799556E+02 -0.12291003283E+02  0.64398039672E+03  0.64573232280E+03  0.41800000000E+01 0. -1.
        -11    1    4    4    0    0  0.51768572075E+01 -0.49287449950E+02  0.86900719963E+02  0.10003893094E+03  0.00000000000E+00 0.  1.
         11    1    4    4    0    0  0.22620957578E+02  0.22528730495E+02  0.73889295665E+00  0.31934266584E+02  0.00000000000E+00 0. -1.
</event>
<event>
 8    1  0.7281309E-009  0.9690552E+02  0.7561462E-02  0.1286941E+00
         -1   -1    0    0    0  501 -0.00000000000E+00  0.00000000000E+00  0.19056479465E+02  0.19056479465E+02  0.00000000000E+00 0.  1.
          1   -1    0    0  501    0  0.00000000000E+00 -0.00000000000E+00 -0.71112449300E+03  0.71112449300E+03  0.00000000000E+00 0. -1.
         25    2    1    2    0    0  0.36395337131E+02 -0.22401942720E+02 -0.38612124378E+03  0.40812228047E+03  0.12509082026E+03 0.  0.
         23    2    1    2    0    0 -0.36395337131E+02  0.22401942720E+02 -0.30594676976E+03  0.32205869200E+03  0.91059911953E+02 0.  0.
          5    1    3    3  502    0 -0.58999508637E+01 -0.44734386121E+02 -0.33476815635E+03  0.33782120363E+03  0.41800000000E+01 0.  1.
         -5    1    3    3    0  502  0.42295287995E+02  0.22332443401E+02 -0.51353087432E+02  0.70301076831E+02  0.41800000000E+01 0.  1.
        -11    1    4    4    0    0 -0.51901164738E+02 -0.19780315559E+02 -0.16174421750E+03  0.17101515628E+03  0.00000000000E+00 0. -1.
         11    1    4    4    0    0  0.15505827607E+02  0.42182258279E+02 -0.14420255226E+03  0.15104353572E+03  0.00000000000E+00 0.  1.
</event>
<event>
 8    1  0.7281309E-009  0.1181831E+03  0.7561462E-02  0.1246125E+00
          1   -1    0    0  501    0  0.00000000000E+00  0.00000000000E+00  0.44585925129E+03  0.44585925129E+03  0.00000000000E+00 0. -1.
         -1   -1    0    0    0  501 -0.00000000000E+00 -0.00000000000E+00 -0.50261910018E+02  0.50261910018E+02  0.00000000000E+00 0.  1.
         25    2    1    2    0    0  0.10967742988E+01  0.10102952629E+03  0.25245023651E+03  0.29931085436E+03  0.12509075716E+03 0.  0.
         23    2    1    2    0    0 -0.10967742988E+01 -0.10102952629E+03  0.14314710477E+03  0.19681030695E+03  0.89638358003E+02 0.  0.
          5    1    3    3  502    0 -0.16191282364E+02  0.71800036060E+02  0.25456984861E+03  0.26502958896E+03  0.41800000000E+01 0. -1.
         -5    1    3    3    0  502  0.17288056663E+02  0.29229490227E+02 -0.21196120956E+01  0.34281265402E+02  0.41800000000E+01 0. -1.
        -11    1    4    4    0    0 -0.40068171794E+02 -0.56317949598E+02  0.10690483169E+03  0.12730205370E+03  0.00000000000E+00 0. -1.
         11    1    4    4    0    0  0.38971397496E+02 -0.44711576689E+02  0.36242273076E+02  0.69508253254E+02  0.00000000000E+00 0.  1.
</event>
<event>
 8    1  0.7281309E-009  0.1277572E+03  0.7561462E-02  0.1230822E+00
         -2   -1    0    0    0  501 -0.00000000000E+00  0.00000000000E+00  0.59652926137E+02  0.59652926137E+02  0.00000000000E+00 0. -1.
          2   -1    0    0  501    0  0.00000000000E+00 -0.00000000000E+00 -0.33597785857E+03  0.33597785857E+03  0.00000000000E+00 0.  1.
         25    2    1    2    0    0 -0.15044793416E+02 -0.83434226468E+02 -0.10126440236E+03  0.18190612850E+03  0.12509094470E+03 0.  0.
         23    2    1    2    0    0  0.15044793416E+02  0.83434226468E+02 -0.17506053007E+03  0.21372465620E+03  0.88568750265E+02 0.  0.
          5    1    3    3  502    0 -0.58094807833E+02 -0.13562056926E+01 -0.36266422397E+02  0.68626319911E+02  0.41800000000E+01 0.  1.
         -5    1    3    3    0  502  0.43050014417E+02 -0.82078020776E+02 -0.64997979963E+02  0.11327980859E+03  0.41800000000E+01 0.  1.
        -11    1    4    4    0    0 -0.23905301134E+02  0.30281982400E+02 -0.12543021046E+03  0.13122956823E+03  0.00000000000E+00 0.  1.
         11    1    4    4    0    0  0.38950094551E+02  0.53152244068E+02 -0.49630319606E+02  0.82495087970E+02  0.00000000000E+00 0. -1.
</event>
<event>
 8    1  0.7281309E-009  0.1099613E+03  0.7561462E-02  0.1260642E+00
          1   -1    0    0  501    0  0.00000000000E+00  0.00000000000E+00  0.28916504772E+02  0.28916504772E+02  0.00000000000E+00 0.  1.
         -1   -1    0    0    0  501 -0.00000000000E+00 -0.00000000000E+00 -0.87185835404E+03  0.87185835404E+03  0.00000000000E+00 0. -1.
         25    2    1    2    0    0  0.40445334451E+02  0.50372084903E+02 -0.20156253470E+03  0.24586391928E+03  0.12509372244E+03 0.  0.
         23    2    1    2    0    0 -0.40445334451E+02 -0.50372084903E+02 -0.64137931457E+03  0.65491093953E+03  0.11561894976E+03 0.  0.
          5    1    3    3  502    0  0.13014167273E+02 -0.13859729995E+02 -0.16643972246E+03  0.16757420529E+03  0.41800000000E+01 0. -1.
         -5    1    3    3    0  502  0.27431167178E+02  0.64231814898E+02 -0.35122812241E+02  0.78289713996E+02  0.41800000000E+01 0. -1.
        -11    1    4    4    0    0 -0.58876638233E+02  0.16481096177E+02 -0.35705526562E+03  0.36225205005E+03  0.00000000000E+00 0.  1.
         11    1    4    4    0    0  0.18431303782E+02 -0.66853181079E+02 -0.28432404895E+03  0.29265888948E+03  0.00000000000E+00 0. -1.
</event>
<event>
 8    1  0.7281309E-009  0.1489182E+03  0.7561462E-02  0.1201809E+00
          1   -1    0    0  501    0  0.00000000000E+00  0.00000000000E+00  0.89841609356E+03  0.89841609356E+03  0.00000000000E+00 0. -1.
         -1   -1    0    0    0  501 -0.00000000000E+00 -0.00000000000E+00 -0.39781309991E+02  0.39781309991E+02  0.00000000000E+00 0.  1.
         25    2    1    2    0    0 -0.10444318771E+03 -0.47914226276E+01  0.16809287648E+03  0.23416320338E+03  0.12508338620E+03 0.  0.
         23    2    1    2    0    0  0.10444318771E+03  0.47914226276E+01  0.69054190709E+03  0.70403420017E+03  0.88795790307E+02 0.  0.
          5    1    3    3  502    0 -0.10189299719E+03 -0.52469614927E+02  0.11079668646E+03  0.15946354285E+03  0.41800000000E+01 0. -1.
         -5    1    3    3    0  502 -0.25501905197E+01  0.47678192299E+02  0.57296190017E+02  0.74699660529E+02  0.41800000000E+01 0. -1.
        -11    1    4    4    0    0  0.58590790461E+02  0.45282905410E+02  0.43610143900E+03  0.44234363039E+03  0.00000000000E+00 0.  1.
         11    1    4    4    0    0  0.45852397249E+02 -0.40491482782E+02  0.25444046809E+03  0.26169056978E+03  0.00000000000E+00 0. -1.
</event>
<event>
 8    1  0.7281309E-009  0.1979148E+03  0.7561462E-02  0.1151510E+00
          2   -1    0    0  501    0  0.00000000000E+00  0.00000000000E+00  0.22194082684E+03  0.22194082684E+03  0.00000000000E+00 0.  1.
         -2   -1    0    0    0  501 -0.00000000000E+00 -0.00000000000E+00 -0.19814819175E+03  0.19814819175E+03  0.00000000000E+00 0. -1.
         25    2    1    2    0    0 -0.12261872862E+03  0.12814097967E+03  0.31800936044E+02  0.21934885598E+03  0.12508859982E+03 0.  0.
         23    2    1    2    0    0  0.12261872862E+03 -0.12814097967E+03 -0.80083009568E+01  0.20074016262E+03  0.93685733835E+02 0.  0.
          5    1    3    3  502    0 -0.37204351375E+02 -0.16666519810E+02  0.30644889505E+02  0.51171459785E+02  0.41800000000E+01 0. -1.
         -5    1    3    3    0  502 -0.85414377243E+02  0.14480749948E+03  0.11560465393E+01  0.16817739619E+03  0.41800000000E+01 0. -1.
        -11    1    4    4    0    0  0.10743000855E+02  0.57592790050E+01 -0.22565934515E+02  0.25647665830E+02  0.00000000000E+00 0. -1.
         11    1    4    4    0    0  0.11187572776E+03 -0.13390025868E+03  0.14557633558E+02  0.17509249679E+03  0.00000000000E+00 0.  1.
</event>
<event>
 8    1  0.7281309E-009  0.1047532E+03  0.7561462E-02  0.1270607E+00
         -1   -1    0    0    0  501 -0.00000000000E+00  0.00000000000E+00  0.14399655029E+03  0.14399655029E+03  0.00000000000E+00 0.  1.
          1   -1    0    0  501    0  0.00000000000E+00 -0.00000000000E+00 -0.90227861679E+02  0.90227861679E+02  0.00000000000E+00 0. -1.
         25    2    1    2    0    0 -0.21906024697E+01  0.15285930542E+02 -0.86654323422E+00  0.12605779425E+03  0.12510538831E+03 0.  0.
         23    2    1    2    0    0  0.21906024697E+01 -0.15285930542E+02  0.54635231843E+02  0.10816661771E+03  0.92068182438E+02 0.  0.
          5    1    3    3  502    0 -0.51056103819E+02 -0.24775202907E+02  0.18501963729E+02  0.59835871165E+02  0.41800000000E+01 0.  1.
         -5    1    3    3    0  502  0.48865501350E+02  0.40061133449E+02 -0.19368506963E+02  0.66221923087E+02  0.41800000000E+01 0.  1.
        -11    1    4    4    0    0  0.15792403503E+02  0.34352355069E+02  0.39134374145E+02  0.54414920260E+02  0.00000000000E+00 0.  1.
         11    1    4    4    0    0 -0.13601801034E+02 -0.49638285612E+02  0.15500857698E+02  0.53751697454E+02  0.00000000000E+00 0. -1.
</event>
<event>
 8    1  0.7281309E-009  0.2401765E+03  0.7561462E-02  0.1119675E+00
          2   -1    0    0  501    0  0.00000000000E+00  0.00000000000E+00  0.41695594408E+03  0.41695594408E+03  0.00000000000E+00 0.  1.
         -2   -1    0    0    0  501 -0.00000000000E+00 -0.00000000000E+00 -0.17137949031E+03  0.17137949031E+03  0.00000000000E+00 0. -1.
         25    2    1    2    0    0  0.21860484874E+03 -0.76374703573E+02  0.20440159820E+03  0.33324050472E+03  0.12509214763E+03 0.  0.
         23    2    1    2    0    0 -0.21860484874E+03  0.76374703573E+02  0.41174855572E+02  0.25509492967E+03  0.98776916194E+02 0.  0.
          5    1    3    3  502    0 -0.28806433683E+00 -0.15762870551E+02 -0.11408834711E+02  0.19904395960E+02  0.41800000000E+01 0.  1.
         -5    1    3    3    0  502  0.21889291308E+03 -0.60611833022E+02  0.21581043291E+03  0.31333610876E+03  0.41800000000E+01 0.  1.
        -11    1    4    4    0    0 -0.47232961202E+02 -0.43671664001E+01 -0.26005631062E+02  0.54095449099E+02  0.00000000000E+00 0. -1.
         11    1    4    4    0    0 -0.17137188754E+03  0.80741869973E+02  0.67180486634E+02  0.20099948057E+03  0.00000000000E+00 0.  1.
</event>
<event>
 8    1  0.7281309E-009  0.1161295E+03  0.7561462E-02  0.1249622E+00
          4   -1    0    0  501    0  0.00000000000E+00  0.00000000000E+00  0.71454210349E+02  0.71454210349E+02  0.00000000000E+00 0.  1.
         -4   -1    0    0    0  501 -0.00000000000E+00 -0.00000000000E+00 -0.23107182009E+03  0.23107182009E+03  0.00000000000E+00 0. -1.
         25    2    1    2    0    0  0.55219574121E+02 -0.35642946426E+02 -0.91037857926E+02  0.16809020876E+03  0.12508719243E+03 0.  0.
         23    2    1    2    0    0 -0.55219574121E+02  0.35642946426E+02 -0.68579751812E+02  0.13443582167E+03  0.95132469715E+02 0.  0.
          5    1    3    3  502    0  0.82861178649E+02  0.93838247800E+01 -0.76232990732E+02  0.11306180774E+03  0.41800000000E+01 0. -1.
         -5    1    3    3    0  502 -0.27641604528E+02 -0.45026771206E+02 -0.14804867194E+02  0.55028401020E+02  0.41800000000E+01 0. -1.
        -11    1    4    4    0    0 -0.35889714908E+02  0.56748017909E+02 -0.79269844624E+02  0.10388511654E+03  0.00000000000E+00 0. -1.
         11    1    4    4    0    0 -0.19329859213E+02 -0.21105071482E+02  0.10690092812E+02  0.30550705128E+02  0.00000000000E+00 0.  1.
</event>
<event>
 8    1  0.7281309E-009  0.8916794E+02  0.7561462E-02  0.1304879E+00
         -2   -1    0    0    0  501 -0.00000000000E+00  0.00000000000E+00  0.50742815758E+02  0.50742815758E+02  0.00000000000E+00 0.  1.
          2   -1    0    0  501    0  0.00000000000E+00 -0.00000000000E+00 -0.31541539863E+03  0.31541539863E+03  0.00000000000E+00 0. -1.
         25    2    1    2    0    0  0.58780209707E+02  0.22775201680E+02 -0.12477978583E+03  0.18759342675E+03  0.12508987147E+03 0.  0.
         23    2    1    2    0    0 -0.58780209707E+02 -0.22775201680E+02 -0.13989279704E+03  0.17856478764E+03  0.91332173168E+02 0.  0.
          5    1    3    3  502    0  0.79500127781E+02  0.14663930029E+02 -0.13900323498E+03  0.16085606266E+03  0.41800000000E+01 0. -1.
         -5    1    3    3    0  502 -0.20719918073E+02  0.81112716511E+01  0.14223449146E+02  0.26737364088E+02  0.41800000000E+01 0. -1.
        -11    1    4    4    0    0 -0.25481808765E+02  0.10602243579E+02 -0.12660883769E+03  0.12958212812E+03  0.00000000000E+00 0. -1.
         11    1    4    4    0    0 -0.33298400942E+02 -0.33377445259E+02 -0.13283959350E+02  0.48982659517E+02  0.00000000000E+00 0.  1.
</event>
<event>
 7    1  0.7281309E-009  0.1063672E+03  0.7561462E-02  0.1267449E+00
         -2   -1    0    0    0  501 -0.00000000000E+00  0.00000000000E+00  0.66732699658E+02  0.66732699658E+02  0.00000000000E+00 0.  1.
          2   -1    0    0  501    0  0.00000000000E+00 -0.00000000000E+00 -0.34403557852E+03  0.34403557852E+03  0.00000000000E+00 0. -1.
         23    2    1    2    0    0  0.22665030731E+02  0.13597040845E+02  0.92558602421E+01  0.96920457373E+02  0.92786426652E+02 0.  0.
          5    1    1    2  502    0 -0.14699889327E+02  0.51259956740E+02 -0.73152619849E+02  0.90622558461E+02  0.41800000000E+01 0. -1.
         -5    1    1    2    0  502 -0.79651414043E+01 -0.64856997585E+02 -0.21340611925E+03  0.22322526234E+03  0.41800000000E+01 0. -1.
        -11    1    3    3    0    0 -0.21592329976E+02  0.37645196479E+02 -0.70734850502E+01  0.43970714373E+02  0.00000000000E+00 0. -1.
         11    1    3    3    0    0  0.44257360707E+02 -0.24048155633E+02  0.16329345292E+02  0.52949743000E+02  0.00000000000E+00 0.  1.
</event>
<event>
 8    1  0.7281309E-009  0.7823065E+02  0.7561462E-02  0.1334149E+00
          2   -1    0    0  501    0  0.00000000000E+00  0.00000000000E+00  0.19039035576E+03  0.19039035576E+03  0.00000000000E+00 0. -1.
         -2   -1    0    0    0  501 -0.00000000000E+00 -0.00000000000E+00 -0.85427129128E+02  0.85427129128E+02  0.00000000000E+00 0.  1.
         25    2    1    2    0    0  0.22001093090E+02  0.50614156672E+02  0.10671512971E+03  0.17343975121E+03  0.12508951770E+03 0.  0.
         23    2    1    2    0    0 -0.22001093090E+02 -0.50614156672E+02 -0.17519030699E+01  0.10237773368E+03  0.86210731565E+02 0.  0.
          5    1    3    3  502    0 -0.17447235216E+02  0.40894203788E+02  0.12193369094E+03  0.12985391525E+03  0.41800000000E+01 0.  1.
         -5    1    3    3    0  502  0.39448328306E+02  0.97199528845E+01 -0.15218561232E+02  0.43585835958E+02  0.41800000000E+01 0.  1.
        -11    1    4    4    0    0  0.13280054190E+02 -0.74978432811E+01 -0.34523718261E+02  0.37742080172E+02  0.00000000000E+00 0.  1.
         11    1    4    4    0    0 -0.35281147280E+02 -0.43116313391E+02  0.32771815191E+02  0.64635653511E+02  0.00000000000E+00 0. -1.
</event>
<event>
 8    1  0.7281309E-009  0.1091494E+03  0.7561462E-02  0.1262153E+00
          1   -1    0    0  501    0  0.00000000000E+00  0.00000000000E+00  0.13453929308E+04  0.13453929308E+04  0.00000000000E+00 0. -1.
         -1   -1    0    0    0  501 -0.00000000000E+00 -0.00000000000E+00 -0.11409756508E+02  0.11409756508E+02  0.00000000000E+00 0.  1.
         25    2    1    2    0    0 -0.51231940162E+02 -0.15286012501E+02  0.10102924085E+04  0.10194097207E+04  0.12508818522E+03 0.  0.
         23    2    1    2    0    0  0.51231940162E+02  0.15286012501E+02  0.32369076576E+03  0.33739296660E+03  0.78739622786E+02 0.  0.
          5    1    3    3  502    0 -0.90815041502E+02 -0.13350136261E+02  0.57482188112E+03  0.58211963145E+03  0.41800000000E+01 0.  1.
         -5    1    3    3    0  502  0.39583101341E+02 -0.19358762399E+01  0.43547052736E+03  0.43729008922E+03  0.41800000000E+01 0.  1.
        -11    1    4    4    0    0  0.67544308249E+02  0.18287247074E+02  0.30247196613E+03  0.31046086272E+03  0.00000000000E+00 0. -1.
         11    1    4    4    0    0 -0.16312368087E+02 -0.30012345728E+01  0.21218799631E+02  0.26932103879E+02  0.00000000000E+00 0.  1.
</event>
<event>
 8    1  0.7281309E-009  0.6902889E+02  0.7561462E-02  0.1363427E+00
         -1   -1    0    0    0  501 -0.00000000000E+00  0.00000000000E+00  0.16130671721E+03  0.16130671721E+03  0.00000000000E+00 0.  1.
          1   -1    0    0  501    0  0.00000000000E+00 -0.00000000000E+00 -0.11903214557E+03  0.11903214557E+03  0.00000000000E+00 0. -1.
         25    2    1    2    0    0 -0.10143838827E+02  0.67640410903E+02  0.75021481640E+02  0.16110151327E+03  0.12508937691E+03 0.  0.
         23    2    1    2    0    0  0.10143838827E+02 -0.67640410903E+02 -0.32746910002E+02  0.11923734952E+03  0.92016643890E+02 0.  0.
          5    1    3    3  502    0 -0.39091670509E+01  0.32714471852E+02  0.10768879166E+03  0.11269368441E+03  0.41800000000E+01 0. -1.
         -5    1    3    3    0  502 -0.62346717765E+01  0.34925939051E+02 -0.32667310022E+02  0.48407828859E+02  0.41800000000E+01 0. -1.
        -11    1    4    4    0    0 -0.80762014030E+00 -0.27603865863E+02 -0.62392119714E+02  0.68230508303E+02  0.00000000000E+00 0. -1.
         11    1    4    4    0    0  0.10951458968E+02 -0.40036545040E+02  0.29645209711E+02  0.51006841218E+02  0.00000000000E+00 0.  1.
</event>
<event>
 8    1  0.7281309E-009  0.9258112E+02  0.7561462E-02  0.1296719E+00
          3   -1    0    0  501    0  0.00000000000E+00  0.00000000000E+00  0.18194304692E+03  0.18194304692E+03  0.00000000000E+00 0. -1.
         -3   -1    0    0    0  501 -0.00000000000E+00 -0.00000000000E+00 -0.14215757725E+03  0.14215757725E+03  0.00000000000E+00 0.  1.
         25    2    1    2    0    0  0.47630194967E+02  0.27159239129E+02 -0.84068324091E+02  0.16038078953E+03  0.12509298459E+03 0.  0.
         23    2    1    2    0    0 -0.47630194967E+02 -0.27159239129E+02  0.12385379376E+03  0.16371983464E+03  0.91968267804E+02 0.  0.
          5    1    3    3  502    0 -0.23348308510E+02  0.18254643305E+01 -0.81452531820E+02  0.84855542956E+02  0.41800000000E+01 0. -1.
         -5    1    3    3    0  502  0.70978503478E+02  0.25333774799E+02 -0.26157922707E+01  0.75525246578E+02  0.41800000000E+01 0. -1.
        -11    1    4    4    0    0 -0.63647477592E+02 -0.14014392989E+02  0.38086305771E+02  0.75484907776E+02  0.00000000000E+00 0.  1.
         11    1    4    4    0    0  0.16017282625E+02 -0.13144846140E+02  0.85767487986E+02  0.88234926861E+02  0.00000000000E+00 0. -1.
</event>
<event>
 8    1  0.7281309E-009  0.9356340E+02  0.7561462E-02  0.1294445E+00
          3   -1    0    0  501    0  0.00000000000E+00  0.00000000000E+00  0.16559059226E+02  0.16559059226E+02  0.00000000000E+00 0. -1.
         -3   -1    0    0    0  501 -0.00000000000E+00 -0.00000000000E+00 -0.92968166217E+03  0.92968166217E+03  0.00000000000E+00 0.  1.
         25    2    1    2    0    0  0.28731166454E+02 -0.14162705243E+02 -0.69574813711E+03  0.70762856557E+03  0.12508658750E+03 0.  0.
         23    2    1    2    0    0 -0.28731166454E+02  0.14162705243E+02 -0.21737446584E+03  0.23861215583E+03  0.93048591420E+02 0.  0.
          5    1    3    3  502    0  0.44157562295E+02  0.45214489996E+02 -0.26220795616E+03  0.26974937458E+03  0.41800000000E+01 0.  1.
         -5    1    3    3    0  502 -0.15426395841E+02 -0.59377195239E+02 -0.43354018094E+03  0.43787919098E+03  0.41800000000E+01 0.  1.
        -11    1    4    4    0    0  0.42517176010E+01  0.26682397484E+02 -0.10882686432E+02  0.29128341903E+02  0.00000000000E+00 0. -1.
         11    1    4    4    0    0 -0.32982884056E+02 -0.12519692241E+02 -0.20649177941E+03  0.20948381393E+03  0.00000000000E+00 0.  1.
</event>
<event>
 7    1  0.7281309E-009  0.1170822E+03  0.7561462E-02  0.1247990E+00
          1   -1    0    0  501    0  0.00000000000E+00  0.00000000000E+00  0.55609856563E+02  0.55609856563E+02  0.00000000000E+00 0. -1.
         -1   -1    0    0    0  501 -0.00000000000E+00 -0.00000000000E+00 -0.33109374280E+03  0.33109374280E+03  0.00000000000E+00 0.  1.
         23    2    1    2    0    0  0.64477446395E+01  0.49587916423E+02 -0.21707403453E+03  0.23993057195E+03  0.89134774482E+02 0.  0.
          5    1    1    2  502    0 -0.30260607902E+01  0.42139769340E+02 -0.13887586294E+02  0.44668273495E+02  0.41800000000E+01 0.  1.
         -5    1    1    2    0  502 -0.34216838493E+01 -0.91727685763E+02 -0.44522265414E+02  0.10210475392E+03  0.41800000000E+01 0.  1.
        -11    1    3    3    0    0  0.32337063136E+01  0.74567622819E+02 -0.18235608574E+03  0.19703941037E+03  0.00000000000E+00 0.  1.
         11    1    3    3    0    0  0.32140383259E+01 -0.24979706395E+02 -0.34717948787E+02  0.42891161583E+02  0.00000000000E+00 0. -1.
</event>
<event>
 8    1  0.7281309E-009  0.1154676E+03  0.7561462E-02  0.1250767E+00
          1   -1    0    0  501    0  0.00000000000E+00  0.00000000000E+00  0.65568132029E+03  0.65568132029E+03  0.00000000000E+00 0. -1.
         -1   -1    0    0    0  501 -0.00000000000E+00 -0.00000000000E+00 -0.20662553823E+02  0.20662553823E+02  0.00000000000E+00 0.  1.
         25    2    1    2    0    0  0.10524569218E+02  0.42109022209E+02  0.38195250666E+03  0.40425183864E+03  0.12509154807E+03 0.  0.
         23    2    1    2    0    0 -0.10524569218E+02 -0.42109022209E+02  0.25306625981E+03  0.27209203547E+03  0.90042254539E+02 0.  0.
          5    1    3    3  502    0  0.36522705937E+02  0.78592055298E+02  0.23194603138E+03  0.24764299521E+03  0.41800000000E+01 0.  1.
         -5    1    3    3    0  502 -0.25998136719E+02 -0.36483033090E+02  0.15000647528E+03  0.15660884343E+03  0.41800000000E+01 0.  1.
        -11    1    4    4    0    0  0.30134604144E+02 -0.49403832087E+02  0.13060263956E+03  0.14284915979E+03  0.00000000000E+00 0. -1.
         11    1    4    4    0    0 -0.40659173362E+02  0.72948098783E+01  0.12246362026E+03  0.12924287569E+03  0.00000000000E+00 0.  1.
</event>
<event>
 8    1  0.7281309E-009  0.1128574E+03  0.7561462E-02  0.1255368E+00
         -1   -1    0    0    0  501 -0.00000000000E+00  0.00000000000E+00  0.96658128142E+03  0.96658128142E+03  0.00000000000E+00 0.  1.
          1   -1    0    0  501    0  0.00000000000E+00 -0.00000000000E+00 -0.20923686902E+02  0.20923686902E+02  0.00000000000E+00 0. -1.
         25    2    1    2    0    0 -0.33822116225E+02  0.84544643227E+02  0.55297885852E+03  0.57421692581E+03  0.12509087766E+03 0.  0.
         23    2    1    2    0    0  0.33822116225E+02 -0.84544643227E+02  0.39267873600E+03  0.41328804251E+03  0.91206820650E+02 0.  0.
          5    1    3    3  502    0 -0.46824649063E+01 -0.50470668126E+01 -0.42208750378E+01  0.90932143434E+01  0.41800000000E+01 0.  1.
         -5    1    3    3    0  502 -0.29139651319E+02  0.89591710039E+02  0.55719973356E+03  0.56512371147E+03  0.41800000000E+01 0.  1.
        -11    1    4    4    0    0  0.61768471464E+02 -0.55304608094E+02  0.31476666336E+03  0.32550268218E+03  0.00000000000E+00 0.  1.
         11    1    4    4    0    0 -0.27946355238E+02 -0.29240035132E+02  0.77912072636E+02  0.87785360329E+02  0.00000000000E+00 0. -1.
</event>
<event>
 8    1  0.7281309E-009  0.1691508E+03  0.7561462E-02  0.1178736E+00
          2   -1    0    0  501    0  0.00000000000E+00  0.00000000000E+00  0.16654421882E+03  0.16654421882E+03  0.00000000000E+00 0. -1.
         -2   -1    0    0    0  501 -0.00000000000E+00 -0.00000000000E+00 -0.21952305656E+03  0.21952305656E+03  0.00000000000E+00 0.  1.
         25    2    1    2    0    0  0.29050766218E+02  0.13423832978E+03  0.48721598319E+02  0.19206653171E+03  0.12510748284E+03 0.  0.
         23    2    1    2    0    0 -0.29050766218E+02 -0.13423832978E+03 -0.10170043606E+03  0.19400074366E+03  0.91811947193E+02 0.  0.
          5    1    3    3  502    0  0.71134504021E+02  0.97242826229E+02  0.60148057050E+02  0.13472767378E+03  0.41800000000E+01 0.  1.
         -5    1    3    3    0  502 -0.42083737803E+02  0.36995503547E+02 -0.11426458731E+02  0.57338857935E+02  0.41800000000E+01 0.  1.
        -11    1    4    4    0    0  0.24223585514E+02 -0.96843056503E+01 -0.33123369329E+02  0.42163081799E+02  0.00000000000E+00 0.  1.
         11    1    4    4    0    0 -0.53274351732E+02 -0.12455402413E+03 -0.68577066730E+02  0.15183766186E+03  0.00000000000E+00 0. -1.
</event>
<event>
 8    1  0.7281309E-009  0.1804364E+03  0.7561462E-02  0.1167381E+00
          2   -1    0    0  501    0  0.00000000000E+00  0.00000000000E+00  0.95055255792E+03  0.95055255792E+03  0.00000000000E+00 0. -1.
         -2   -1    0    0    0  501 -0.00000000000E+00 -0.00000000000E+00 -0.42672263247E+02  0.42672263247E+02  0.00000000000E+00 0.  1.
         25    2    1    2    0    0  0.13280419567E+03  0.78691997490E+02  0.31237318102E+03  0.37020767442E+03  0.12508930058E+03 0.  0.
         23    2    1    2    0    0 -0.13280419567E+03 -0.78691997490E+02  0.59550711365E+03  0.62301714675E+03  0.98449265508E+02 0.  0.
          5    1    3    3  502    0  0.14598499708E+03  0.88386999017E+02  0.23175564585E+03  0.28784029035E+03  0.41800000000E+01 0. -1.
         -5    1    3    3    0  502 -0.13180801409E+02 -0.96950015263E+01  0.80617535175E+02  0.82367384067E+02  0.41800000000E+01 0. -1.
        -11    1    4    4    0    0  0.80162185632E+01 -0.18441449298E+02  0.23848754615E+02  0.31194709631E+02  0.00000000000E+00 0.  1.
         11    1    4    4    0    0 -0.14082041423E+03 -0.60250548193E+02  0.57165835903E+03  0.59182243712E+03  0.00000000000E+00 0. -1.
</event>
<event>
 8    1  0.7281309E-009  0.8838722E+02  0.7561462E-02  0.1306805E+00
          2   -1    0    0  501    0  0.00000000000E+00  0.00000000000E+00  0.20661230825E+03  0.20661230825E+03  0.00000000000E+00 0. -1.
         -2   -1    0    0    0  501 -0.00000000000E+00 -0.00000000000E+00 -0.63891449352E+02  0.63891449352E+02  0.00000000000E+00 0.  1.
         25    2    1    2    0    0 -0.18084990273E+02  0.30731711957E+02  0.68483189903E+02  0.14700294729E+03  0.12509362182E+03 0.  0.
         23    2    1    2    0    0  0.18084990273E+02 -0.30731711957E+02  0.74237668995E+02  0.12350081031E+03  0.92031047247E+02 0.  0.
          5    1    3    3  502    0 -0.64892411004E+02  0.38411025818E+02  0.18067769414E+02  0.77655319212E+02  0.41800000000E+01 0. -1.
         -5    1    3    3    0  502  0.46807420731E+02 -0.76793138614E+01  0.50415420489E+02  0.69347628077E+02  0.41800000000E+01 0. -1.
        -11    1    4    4    0    0 -0.65171933746E+01 -0.28151593568E+02 -0.13822616419E+02  0.32032027013E+02  0.00000000000E+00 0.  1.
         11    1    4    4    0    0  0.24602183647E+02 -0.25801183887E+01  0.88060285415E+02  0.91468783300E+02  0.00000000000E+00 0. -1.
</event>
<event>
 8    1  0.7281309E-009  0.9989754E+02  0.7561462E-02  0.1280512E+00
          2   -1    0    0  501    0  0.00000000000E+00  0.00000000000E+00  0.39220219516E+03  0.39220219516E+03  0.00000000000E+00 0. -1.
         -2   -1    0    0    0  501 -0.00000000000E+00 -0.00000000000E+00 -0.40774871775E+02  0.40774871775E+02  0.00000000000E+00 0.  1.
         25    2    1    2    0    0 -0.42009661591E+02 -0.22241826364E+02  0.27206985624E+03  0.30319858577E+03  0.12509142748E+03 0.  0.
         23    2    1    2    0    0  0.42009661591E+02  0.22241826364E+02  0.79357467146E+02  0.12977848117E+03  0.91023821476E+02 0.  0.
          5    1    3    3  502    0  0.72353030796E+01 -0.50777743238E+02  0.22002191219E+03  0.22595982622E+03  0.41800000000E+01 0.  1.
         -5    1    3    3    0  502 -0.49244964670E+02  0.28535916875E+02  0.52047944049E+02  0.77238759551E+02  0.41800000000E+01 0.  1.
        -11    1    4    4    0    0  0.29089888024E+02 -0.27404790011E+02  0.62252391735E+01  0.40447468444E+02  0.00000000000E+00 0.  1.
         11    1    4    4    0    0  0.12919773566E+02  0.49646616374E+02  0.73132227973E+02  0.89331012726E+02  0.00000000000E+00 0. -1.
</event>
<event>
 8    1  0.7281309E-009  0.1336168E+03  0.7561462E-02  0.1222186E+00
          4   -1    0    0  501    0  0.00000000000E+00  0.00000000000E+00  0.25578695077E+03  0.25578695077E+03  0.00000000000E+00 0. -1.
         -4   -1    0    0    0  501 -0.00000000000E+00 -0.00000000000E+00 -0.77339127612E+02  0.77339127612E+02  0.00000000000E+00 0.  1.
         25    2    1    2    0    0  0.80501476068E+02 -0.35199913801E+01  0.14346073021E+03  0.20668657444E+03  0.12508189698E+03 0.  0.
         23    2    1    2    0    0 -0.80501476068E+02  0.35199913801E+01  0.34987092952E+02  0.12643950395E+03  0.90939394637E+02 0.  0.
          5    1    3    3  502    0  0.85903695565E+02 -0.49530720640E+02  0.77244124406E+02  0.12576511581E+03  0.41800000000E+01 0.  1.
         -5    1    3    3    0  502 -0.54022194977E+01  0.46010729260E+02  0.66216605802E+02  0.80921458628E+02  0.41800000000E+01 0.  1.
        -11    1    4    4    0    0 -0.72983289726E+02 -0.35903418323E+02  0.24792426867E+02  0.85031055835E+02  0.00000000000E+00 0.  1.
         11    1    4    4    0    0 -0.75181863418E+01  0.39423409703E+02  0.10194666085E+02  0.41408448112E+02  0.00000000000E+00 0. -1.
</event>
<event>
 8    1  0.7281309E-009  0.1450792E+03  0.7561462E-02  0.1206653E+00
         -1   -1    0    0    0  501 -0.00000000000E+00  0.00000000000E+00  0.28558072767E+03  0.28558072767E+03  0.00000000000E+00 0.  1.
          1   -1    0    0  501    0  0.00000000000E+00 -0.00000000000E+00 -0.83579292049E+02  0.83579292049E+02  0.00000000000E+00 0. -1.
         25    2    1    2    0    0 -0.67993239826E+02  0.71763455332E+02  0.15439260322E+03  0.22193953425E+03  0.12508799604E+03 0.  0.
         23    2    1    2    0    0  0.67993239826E+02 -0.71763455332E+02  0.47608832404E+02  0.14722048547E+03  0.98153941513E+02 0.  0.
          5    1    3    3  502    0 -0.18328518778E+02  0.98986544734E+02  0.81853717969E+02  0.12981438358E+03  0.41800000000E+01 0.  1.
         -5    1    3    3    0  502 -0.49664721049E+02 -0.27223089402E+02  0.72538885247E+02  0.92125150672E+02  0.41800000000E+01 0.  1.
        -11    1    4    4    0    0  0.19389564820E+02 -0.80870572604E+02  0.51167927575E+02  0.97643031239E+02  0.00000000000E+00 0.  1.
         11    1    4    4    0    0  0.48603675007E+02  0.91071172726E+01 -0.35590951703E+01  0.49577454227E+02  0.00000000000E+00 0. -1.
</event>
<event>
 8    1  0.7281309E-009  0.9078205E+02  0.7561462E-02  0.1300969E+00
         -1   -1    0    0    0  501 -0.00000000000E+00  0.00000000000E+00  0.18645062577E+03  0.18645062577E+03  0.00000000000E+00 0.  1.
          1   -1    0    0  501    0  0.00000000000E+00 -0.00000000000E+00 -0.72186315050E+02  0.72186315050E+02  0.00000000000E+00 0. -1.
         25    2    1    2    0    0 -0.22464809708E+02 -0.12821594399E+02  0.99751194066E+02  0.16207098253E+03  0.12509053403E+03 0.  0.
         23    2    1    2    0    0  0.22464809708E+02  0.12821594399E+02  0.14513116659E+02  0.96565958292E+02  0.91898274127E+02 0.  0.
          5    1    3    3  502    0 -0.39519617909E+02 -0.45469865934E+02  0.53182343488E+01  0.60622313749E+02  0.41800000000E+01 0. -1.
         -5    1    3    3    0  502  0.17054808201E+02  0.32648271535E+02  0.94432959717E+02  0.10144866878E+03  0.41800000000E+01 0. -1.
        -11    1    4    4    0    0  0.85924190150E+01 -0.34104896645E+02  0.28943161062E+02  0.45548657631E+02  0.00000000000E+00 0.  1.
         11    1    4    4    0    0  0.13872390693E+02  0.46926491044E+02 -0.14430044403E+02  0.51017300661E+02  0.00000000000E+00 0. -1.
</event>
<event>
 7    1  0.7281309E-009  0.1421111E+03  0.7561462E-02  0.1210516E+00
         -1   -1    0    0    0  501 -0.00000000000E+00  0.00000000000E+00  0.10537420781E+03  0.10537420781E+03  0.00000000000E+00 0.  1.
          1   -1    0    0  501    0  0.00000000000E+00 -0.00000000000E+00 -0.23856641467E+03  0.23856641467E+03  0.00000000000E+00 0. -1.
         23    2    1    2    0    0 -0.46163301369E+02 -0.80376725642E+02 -0.13390682402E+03  0.18831663780E+03  0.94555011158E+02 0.  0.
          5    1    1    2  502    0  0.66500198229E+02  0.10341736222E+03 -0.83626978342E+01  0.12330788413E+03  0.41800000000E+01 0. -1.
         -5    1    1    2    0  502 -0.20336896859E+02 -0.23040636577E+02  0.90773149903E+01  0.32316100557E+02  0.41800000000E+01 0. -1.
        -11    1    3    3    0    0 -0.74002198956E+02 -0.52103590835E+02 -0.10809687077E+03  0.14098242124E+03  0.00000000000E+00 0. -1.
         11    1    3    3    0    0  0.27838897586E+02 -0.28273134807E+02 -0.25809953247E+02  0.47334216559E+02  0.00000000000E+00 0.  1.
</event>
<event>
 8    1  0.7281309E-009  0.1188456E+03  0.7561462E-02  0.1245014E+00
         -1   -1    0    0    0  501 -0.00000000000E+00  0.00000000000E+00  0.25470522474E+02  0.25470522474E+02  0.00000000000E+00 0.  1.
          1   -1    0    0  501    0  0.00000000000E+00 -0.00000000000E+00 -0.66276783925E+03  0.66276783925E+03  0.00000000000E+00 0. -1.
         25    2    1    2    0    0  0.57525977002E+02 -0.15984142408E+02 -0.25340821142E+03  0.28883941418E+03  0.12509098581E+03 0.  0.
         23    2    1    2    0    0 -0.57525977002E+02  0.15984142408E+02 -0.38388910536E+03  0.39939894754E+03  0.92649572313E+02 0.  0.
          5    1    3    3  502    0  0.82320855956E+02  0.25623869712E+02 -0.12846234385E+03  0.15476870553E+03  0.41800000000E+01 0.  1.
         -5    1    3    3    0  502 -0.24794878954E+02 -0.41608012120E+02 -0.12494586757E+03  0.13407070865E+03  0.41800000000E+01 0.  1.
        -11    1    4    4    0    0 -0.46855419719E+02  0.49157199778E+02 -0.17671622903E+03  0.18931583729E+03  0.00000000000E+00 0. -1.
         11    1    4    4    0    0 -0.10670557283E+02 -0.33173057369E+02 -0.20717287633E+03  0.21008311025E+03  0.00000000000E+00 0.  1.
</event>
<event>
 8    1  0.7281309E-009  0.9943203E+02  0.7561462E-02  0.1281495E+00
         -2   -1    0    0    0  501 -0.00000000000E+00  0.00000000000E+00  0.34875311813E+02  0.34875311813E+02  0.00000000000E+00 0.  1.
          2   -1    0    0  501    0  0.00000000000E+00 -0.00000000000E+00 -0.39201214959E+03  0.39201214959E+03  0.00000000000E+00 0. -1.
         25    2    1    2    0    0  0.16322940256E+02 -0.30793798986E+02 -0.25562887944E+03  0.28672067886E+03  0.12509167539E+03 0.  0.
         23    2    1    2    0    0 -0.16322940256E+02  0.30793798986E+02 -0.10150795834E+03  0.14016678254E+03  0.90156335811E+02 0.  0.
          5    1    3    3  502    0 -0.15034596060E+02 -0.74287395042E+02 -0.15670375921E+03  0.17412121264E+03  0.41800000000E+01 0.  1.
         -5    1    3    3    0  502  0.31357536315E+02  0.43493596057E+02 -0.98925120225E+02  0.11259946622E+03  0.41800000000E+01 0.  1.
        -11    1    4    4    0    0 -0.24907737028E+02 -0.10475565658E+02  0.32789631172E+01  0.27219192472E+02  0.00000000000E+00 0.  1.
         11    1    4    4    0    0  0.85847967721E+01  0.41269364644E+02 -0.10478692146E+03  0.11294759007E+03  0.00000000000E+00 0. -1.
</event>
<event>
 8    1  0.7281309E-009  0.1077544E+03  0.7561462E-02  0.1264786E+00
         -2   -1    0    0    0  501 -0.00000000000E+00  0.00000000000E+00  0.67396543501E+02  0.67396543501E+02  0.00000000000E+00 0.  1.
          2   -1    0    0  501    0  0.00000000000E+00 -0.00000000000E+00 -0.27746722587E+03  0.27746722587E+03  0.00000000000E+00 0. -1.
         25    2    1    2    0    0 -0.59198256282E+02  0.10765453933E+02 -0.18665538956E+03  0.23261216016E+03  0.12509138283E+03 0.  0.
         23    2    1    2    0    0  0.59198256282E+02 -0.10765453933E+02 -0.23415292814E+02  0.11225160921E+03  0.91824938266E+02 0.  0.
          5    1    3    3  502    0  0.28768222359E+02 -0.12610241331E+02 -0.10698002822E+03  0.11157431444E+03  0.41800000000E+01 0. -1.
         -5    1    3    3    0  502 -0.87966478641E+02  0.23375695264E+02 -0.79675361338E+02  0.12103784573E+03  0.41800000000E+01 0. -1.
        -11    1    4    4    0    0 -0.10597958175E+02  0.14948185225E+02  0.19188558547E+02  0.26532352668E+02  0.00000000000E+00 0.  1.
         11    1    4    4    0    0  0.69796214458E+02 -0.25713639158E+02 -0.42603851361E+02  0.85719256542E+02  0.00000000000E+00 0. -1.
</event>
<event>
 8    1  0.7281309E-009  0.2145828E+03  0.7561462E-02  0.1137987E+00
         -1   -1    0    0    0  501 -0.00000000000E+00  0.00000000000E+00  0.64536005755E+02  0.64536005755E+02  0.00000000000E+00 0.  1.
          1   -1    0    0  501    0  0.00000000000E+00 -0.00000000000E+00 -0.83342894403E+03  0.83342894403E+03  0.00000000000E+00 0. -1.
         25    2    1    2    0    0  0.13098297974E+03 -0.14435369210E+03 -0.27725283658E+03  0.36126030516E+03  0.12508134670E+03 0.  0.
         23    2    1    2    0    0 -0.13098297974E+03  0.14435369210E+03 -0.49164010169E+03  0.53670464462E+03  0.91363868996E+02 0.  0.
          5    1    3    3  502    0 -0.15709596283E+02  0.17367363999E+01 -0.55500978409E+02  0.57858782160E+02  0.41800000000E+01 0. -1.
         -5    1    3    3    0  502  0.14669257602E+03 -0.14609042850E+03 -0.22175185817E+03  0.30340152300E+03  0.41800000000E+01 0. -1.
        -11    1    4    4    0    0 -0.12416898616E+03  0.96100616960E+02 -0.29576416560E+03  0.33485774197E+03  0.00000000000E+00 0.  1.
         11    1    4    4    0    0 -0.68139935815E+01  0.48253075142E+02 -0.19587593609E+03  0.20184690265E+03  0.00000000000E+00 0. -1.
</event>
<event>
 8    1  0.7281309E-009  0.1061799E+03  0.7561462E-02  0.1267812E+00
          1   -1    0    0  501    0  0.00000000000E+00  0.00000000000E+00  0.63282518517E+02  0.63282518517E+02  0.00000000000E+00 0. -1.
         -1   -1    0    0    0  501 -0.00000000000E+00 -0.00000000000E+00 -0.28735558902E+03  0.28735558902E+03  0.00000000000E+00 0.  1.
         25    2    1    2    0    0  0.13487540204E+02 -0.19451624827E+02 -0.23806485180E+02  0.12951134044E+03  0.12508460784E+03 0.  0.
         23    2    1    2    0    0 -0.13487540204E+02  0.19451624827E+02 -0.20026658532E+03  0.22112676710E+03  0.90719691797E+02 0.  0.
          5    1    3    3  502    0 -0.39736064360E+02  0.31969348728E+02  0.14821170937E+01  0.51192412915E+02  0.41800000000E+01 0.  1.
         -5    1    3    3    0  502  0.53223604564E+02 -0.51420973555E+02 -0.25288602274E+02  0.78318927528E+02  0.41800000000E+01 0.  1.
        -11    1    4    4    0    0  0.16306697165E+02 -0.27198438248E+02 -0.36991294417E+02  0.48723908691E+02  0.00000000000E+00 0. -1.
         11    1    4    4    0    0 -0.29794237369E+02  0.46650063074E+02 -0.16327529091E+03  0.17240285840E+03  0.00000000000E+00 0.  1.
</event>
<event>
 8    1  0.7281309E-009  0.1064977E+03  0.7561462E-02  0.1267197E+00
         -1   -1    0    0    0  501 -0.00000000000E+00  0.00000000000E+00  0.37185369072E+02  0.37185369072E+02  0.00000000000E+00 0.  1.
          1   -1    0    0  501    0  0.00000000000E+00 -0.00000000000E+00 -0.45580724643E+03  0.45580724643E+03  0.00000000000E+00 0. -1.
         25    2    1    2    0    0 -0.72994996246E+02 -0.14842898634E+01 -0.23370730533E+03  0.27495390246E+03  0.12510024509E+03 0.  0.
         23    2    1    2    0    0  0.72994996246E+02  0.14842898634E+01 -0.18491457203E+03  0.21803871304E+03  0.89537750932E+02 0.  0.
          5    1    3    3  502    0 -0.86708737581E+02 -0.22743672015E+02 -0.23257454147E+03  0.24928712267E+03  0.41800000000E+01 0. -1.
         -5    1    3    3    0  502  0.13713741334E+02  0.21259382151E+02 -0.11327638580E+01  0.25666779790E+02  0.41800000000E+01 0. -1.
        -11    1    4    4    0    0  0.13813699007E+02  0.29171317979E+02 -0.12597823112E+03  0.13004729443E+03  0.00000000000E+00 0. -1.
         11    1    4    4    0    0  0.59181297240E+02 -0.27687028116E+02 -0.58936340907E+02  0.87991418607E+02  0.00000000000E+00 0.  1.
</event>
<event>
 8    1  0.7281309E-009  0.1055573E+03  0.7561462E-02  0.1269026E+00
         -1   -1    0    0    0  501 -0.00000000000E+00  0.00000000000E+00  0.18577240392E+03  0.18577240392E+03  0.00000000000E+00 0.  1.
          1   -1    0    0  501    0  0.00000000000E+00 -0.00000000000E+00 -0.82233157514E+02  0.82233157514E+02  0.00000000000E+00 0. -1.
         25    2    1    2    0    0  0.55537024532E+02 -0.20983724470E+02  0.47330158766E+02  0.14633078805E+03  0.12509147780E+03 0.  0.
         23    2    1    2    0    0 -0.55537024532E+02  0.20983724470E+02  0.56209087644E+02  0.12167477338E+03  0.90114433682E+02 0.  0.
          5    1    3    3  502    0  0.75983575618E+02  0.29680138198E+02  0.16071207205E+02  0.83247645421E+02  0.41800000000E+01 0. -1.
         -5    1    3    3    0  502 -0.20446551086E+02 -0.50663862668E+02  0.31258951561E+02  0.63083142633E+02  0.41800000000E+01 0. -1.
        -11    1    4    4    0    0 -0.34189952879E+02  0.35137211333E+02 -0.10569573940E+02  0.50152690769E+02  0.00000000000E+00 0. -1.
         11    1    4    4    0    0 -0.21347071653E+02 -0.14153486863E+02  0.66778661585E+02  0.71522082615E+02  0.00000000000E+00 0.  1.
</event>
<event>
 8    1  0.7281309E-009  0.2011014E+03  0.7561462E-02  0.1148813E+00
         -2   -1    0    0    0  501 -0.00000000000E+00  0.00000000000E+00  0.23680494593E+03  0.23680494593E+03  0.00000000000E+00 0.  1.
          2   -1    0    0  501    0  0.00000000000E+00 -0.00000000000E+00 -0.20278532694E+03  0.20278532694E+03  0.00000000000E+00 0. -1.
         25    2    1    2    0    0  0.31602964098E+02  0.17643139988E+03  0.82297370027E+02  0.23355315374E+03  0.12508969703E+03 0.  0.
         23    2    1    2    0    0 -0.31602964098E+02 -0.17643139988E+03 -0.48277751034E+02  0.20603711913E+03  0.89407868824E+02 0.  0.
          5    1    3    3  502    0 -0.34656618203E+02  0.10426104842E+02 -0.70088036743E+00  0.36438283175E+02  0.41800000000E+01 0. -1.
         -5    1    3    3    0  502  0.66259582301E+02  0.16600529504E+03  0.82998250395E+02  0.19711487056E+03  0.41800000000E+01 0. -1.
        -11    1    4    4    0    0 -0.27545526866E+02 -0.30904675947E+02  0.19130683419E+02  0.45605241955E+02  0.00000000000E+00 0.  1.
         11    1    4    4    0    0 -0.40574372320E+01 -0.14552672394E+03 -0.67408434453E+02  0.16043187717E+03  0.00000000000E+00 0. -1.
</event>
<event>
 8    1  0.7281309E-009  0.1107834E+03  0.7561462E-02  0.1259126E+00
          1   -1    0    0  501    0  0.00000000000E+00  0.00000000000E+00  0.15034455353E+03  0.15034455353E+03  0.00000000000E+00 0. -1.
         -1   -1    0    0    0  501 -0.00000000000E+00 -0.00000000000E+00 -0.12182288217E+03  0.12182288217E+03  0.00000000000E+00 0.  1.
         25    2    1    2    0    0  0.74895652154E+02  0.65024077284E+01  0.45100968323E+02  0.15276408353E+03  0.12510446776E+03 0.  0.
         23    2    1    2    0    0 -0.74895652154E+02 -0.65024077284E+01 -0.16579296961E+02  0.11940335217E+03  0.91272380287E+02 0.  0.
          5    1    3    3  502    0 -0.28155377557E+02  0.28467004820E+02  0.84996120182E+01  0.41143789972E+02  0.41800000000E+01 0.  1.
         -5    1    3    3    0  502  0.10305102971E+03 -0.21964597092E+02  0.36601356304E+02  0.11162029355E+03  0.41800000000E+01 0.  1.
        -11    1    4    4    0    0 -0.56264248048E+02 -0.43010948797E+00 -0.53476912156E+02  0.77624936305E+02  0.00000000000E+00 0.  1.
         11    1    4    4    0    0 -0.18631404106E+02 -0.60722982404E+01  0.36897615195E+02  0.41778415862E+02  0.00000000000E+00 0. -1.
</event>
<event>
 8    1  0.7281309E-009  0.8947997E+02  0.7561462E-02  0.1304116E+00
         -1   -1    0    0    0  501 -0.00000000000E+00  0.00000000000E+00  0.59064360868E+02  0.59064360868E+02  0.00000000000E+00 0.  1.
          1   -1    0    0  501    0  0.00000000000E+00 -0.00000000000E+00 -0.30161275810E+03  0.30161275810E+03  0.00000000000E+00 0. -1.
         25    2    1    2    0    0 -0.14115962448E+02 -0.60282449857E+02 -0.19712020178E+03  0.24153004883E+03  0.12508859412E+03 0.  0.
         23    2    1    2    0    0  0.14115962448E+02  0.60282449857E+02 -0.45428195457E+02  0.11914707015E+03  0.91099227358E+02 0.  0.
          5    1    3    3  502    0  0.14800421459E+02 -0.47877294328E+02 -0.94157081563E+01  0.51160685566E+02  0.41800000000E+01 0. -1.
         -5    1    3    3    0  502 -0.28916383907E+02 -0.12405155529E+02 -0.18770449362E+03  0.19036936326E+03  0.41800000000E+01 0. -1.
        -11    1    4    4    0    0 -0.26858343540E+02  0.46504019895E+02  0.35501690456E+01  0.53820053738E+02  0.00000000000E+00 0.  1.
         11    1    4    4    0    0  0.40974305988E+02  0.13778429962E+02 -0.48978364503E+02  0.65327016408E+02  0.00000000000E+00 0. -1.
</event>
<event>
 8    1  0.7281309E-009  0.1103520E+03  0.7561462E-02  0.1259919E+00
          1   -1    0    0  501    0  0.00000000000E+00  0.00000000000E+00  0.24120944350E+03  0.24120944350E+03  0.00000000000E+00 0. -1.
         -1   -1    0    0    0  501 -0.00000000000E+00 -0.00000000000E+00 -0.58166068455E+02  0.58166068455E+02  0.00000000000E+00 0.  1.
         25    2    1    2    0    0 -0.23077548200E+02 -0.38285568034E+02  0.12528880632E+03  0.18260189604E+03  0.12509120472E+03 0.  0.
         23    2    1    2    0    0  0.23077548200E+02  0.38285568034E+02  0.57754568723E+02  0.11677361591E+03  0.91116020625E+02 0.  0.
          5    1    3    3  502    0 -0.62691441828E+02  0.15545080841E+02  0.73570056391E+02  0.97989244380E+02  0.41800000000E+01 0.  1.
         -5    1    3    3    0  502  0.39613893628E+02 -0.53830648875E+02  0.51718749932E+02  0.84612651662E+02  0.41800000000E+01 0.  1.
        -11    1    4    4    0    0 -0.18361596970E+02  0.43528858593E+02  0.58251671644E+02  0.75001113479E+02  0.00000000000E+00 0. -1.
         11    1    4    4    0    0  0.41439145170E+02 -0.52432905590E+01 -0.49710292111E+00  0.41772502435E+02  0.00000000000E+00 0.  1.
</event>
<event>
 8    1  0.7281309E-009  0.9766163E+02  0.7561462E-02  0.1285291E+00
         -2   -1    0    0    0  501 -0.00000000000E+00  0.00000000000E+00  0.22892514961E+03  0.22892514961E+03  0.00000000000E+00 0. -1.
          2   -1    0    0  501    0  0.00000000000E+00 -0.00000000000E+00 -0.59533709023E+02  0.59533709023E+02  0.00000000000E+00 0.  1.
         25    2    1    2    0    0  0.12905384847E+02 -0.79448573373E+01  0.89237652309E+02  0.15440221457E+03  0.12508803124E+03 0.  0.
         23    2    1    2    0    0 -0.12905384847E+02  0.79448573373E+01  0.80153788274E+02  0.13405664406E+03  0.10638084567E+03 0.  0.
          5    1    3    3  502    0 -0.21655582140E+01  0.41485224550E+02 -0.95559571203E+01  0.42831089349E+02  0.41800000000E+01 0.  1.
         -5    1    3    3    0  502  0.15070943061E+02 -0.49430081887E+02  0.98793609429E+02  0.11157112523E+03  0.41800000000E+01 0.  1.
        -11    1    4    4    0    0  0.28551695976E+02 -0.32877365011E+02  0.13516980038E+02  0.45594179700E+02  0.00000000000E+00 0.  1.
         11    1    4    4    0    0 -0.41457080823E+02  0.40822222349E+02  0.66636808236E+02  0.88462464355E+02  0.00000000000E+00 0. -1.
</event>
<event>
 8    1  0.7281309E-009  0.1173915E+03  0.7561462E-02  0.1247463E+00
          1   -1    0    0  501    0  0.00000000000E+00  0.00000000000E+00  0.10694871596E+04  0.10694871596E+04  0.00000000000E+00 0. -1.
         -1   -1    0    0    0  501 -0.00000000000E+00 -0.00000000000E+00 -0.15652231747E+02  0.15652231747E+02  0.00000000000E+00 0.  1.
         25    2    1    2    0    0 -0.42008416522E+02  0.18586662113E+02  0.81153443022E+03  0.82240197947E+03  0.12508682321E+03 0.  0.
         23    2    1    2    0    0  0.42008416522E+02 -0.18586662113E+02  0.24230049765E+03  0.26273741189E+03  0.90615922327E+02 0.  0.
          5    1    3    3  502    0  0.39886795681E+02 -0.17382922734E+02  0.26494000248E+03  0.26852150712E+03  0.41800000000E+01 0. -1.
         -5    1    3    3    0  502 -0.81895212203E+02  0.35969584847E+02  0.54659442774E+03  0.55388047235E+03  0.41800000000E+01 0. -1.
        -11    1    4    4    0    0  0.67252131046E+02  0.43883491486E+01  0.15632497562E+03  0.17023397059E+03  0.00000000000E+00 0.  1.
         11    1    4    4    0    0 -0.25243714523E+02 -0.22975011262E+02  0.85975522027E+02  0.92503441304E+02  0.00000000000E+00 0. -1.
</event>
<event>
 8    1  0.7281309E-009  0.1169196E+03  0.7561462E-02  0.1248267E+00
         -1   -1    0    0    0  501 -0.00000000000E+00  0.00000000000E+00  0.44872711475E+02  0.44872711475E+02  0.00000000000E+00 0.  1.
          1   -1    0    0  501    0  0.00000000000E+00 -0.00000000000E+00 -0.49441106651E+03  0.49441106651E+03  0.00000000000E+00 0. -1.
         25    2    1    2    0    0 -0.69328638770E+02  0.14901401356E+01 -0.41912819574E+03  0.44285943428E+03  0.12508938162E+03 0.  0.
         23    2    1    2    0    0  0.69328638770E+02 -0.14901401356E+01 -0.30410159296E+02  0.96424343705E+02  0.59700884409E+02 0.  0.
          5    1    3    3  502    0 -0.73099760272E+01 -0.56884620979E+02 -0.15617257131E+03  0.16642307617E+03  0.41800000000E+01 0.  1.
         -5    1    3    3    0  502 -0.62018662743E+02  0.58374761115E+02 -0.26295562443E+03  0.27643635810E+03  0.41800000000E+01 0.  1.
        -11    1    4    4    0    0  0.24634674067E+02  0.28169834162E+02 -0.17177392840E+02  0.41176079802E+02  0.00000000000E+00 0. -1.
         11    1    4    4    0    0  0.44693964703E+02 -0.29659974297E+02 -0.13232766456E+02  0.55248263903E+02  0.00000000000E+00 0.  1.
</event>
<event>
 8    1  0.7281309E-009  0.1107135E+03  0.7561462E-02  0.1259254E+00
         -1   -1    0    0    0  501 -0.00000000000E+00  0.00000000000E+00  0.48393685607E+02  0.48393685607E+02  0.00000000000E+00 0. -1.
          1   -1    0    0  501    0  0.00000000000E+00 -0.00000000000E+00 -0.33193881030E+03  0.33193881030E+03  0.00000000000E+00 0.  1.
         25    2    1    2    0    0 -0.42192153441E+02 -0.31363677020E+02 -0.99997850070E+02  0.16858396466E+03  0.12512843432E+03 0.  0.
         23    2    1    2    0    0  0.42192153441E+02  0.31363677020E+02 -0.18354727463E+03  0.21174853125E+03  0.91564078185E+02 0.  0.
          5    1    3    3  502    0 -0.19920551512E+02 -0.69820249165E+02 -0.10036664378E+03  0.12394608162E+03  0.41800000000E+01 0.  1.
         -5    1    3    3    0  502 -0.22271601929E+02  0.38456572145E+02  0.36879370943E+00  0.44637883041E+02  0.41800000000E+01 0.  1.
        -11    1    4    4    0    0  0.69965651749E+02  0.30369797894E+02 -0.11740896214E+03  0.14000850488E+03  0.00000000000E+00 0. -1.
         11    1    4    4    0    0 -0.27773498308E+02  0.99387912564E+00 -0.66138312490E+02  0.71740026366E+02  0.00000000000E+00 0.  1.
</event>
<event>
 8    1  0.7281309E-009  0.2612273E+03  0.7561462E-02  0.1106408E+00
         -2   -1    0    0    0  501 -0.00000000000E+00  0.00000000000E+00  0.91456335753E+02  0.91456335753E+02  0.00000000000E+00 0.  1.
          2   -1    0    0  501    0  0.00000000000E+00 -0.00000000000E+00 -0.10214473866E+04  0.10214473866E+04  0.00000000000E+00 0. -1.
         25    2    1    2    0    0  0.24281233454E+03  0.37063594913E+02 -0.21033557920E+03  0.34672725481E+03  0.12508874241E+03 0.  0.
         23    2    1    2    0    0 -0.24281233454E+03 -0.37063594913E+02 -0.71965547163E+03  0.76617646752E+03  0.93759488408E+02 0.  0.
          5    1    3    3  502    0  0.94746841662E+02 -0.26551483756E+02 -0.26029861476E+02  0.10186742062E+03  0.41800000000E+01 0. -1.
         -5    1    3    3    0  502  0.14806549288E+03  0.63615078669E+02 -0.18430571772E+03  0.24485983419E+03  0.41800000000E+01 0. -1.
        -11    1    4    4    0    0 -0.57873892845E+02  0.31052119203E+02 -0.16889645601E+03  0.18121709200E+03  0.00000000000E+00 0. -1.
         11    1    4    4    0    0 -0.18493844170E+03 -0.68115714117E+02 -0.55075901562E+03  0.58495937552E+03  0.00000000000E+00 0.  1.
</event>
<event>
 8    1  0.7281309E-009  0.1619581E+03  0.7561462E-02  0.1186504E+00
          1   -1    0    0  501    0  0.00000000000E+00  0.00000000000E+00  0.13043185170E+03  0.13043185170E+03  0.00000000000E+00 0. -1.
         -1   -1    0    0    0  501 -0.00000000000E+00 -0.00000000000E+00 -0.26025254477E+03  0.26025254477E+03  0.00000000000E+00 0.  1.
         25    2    1    2    0    0  0.14641051857E+03  0.20792746276E+02 -0.51450655514E+02  0.20040321306E+03  0.12508357048E+03 0.  0.
         23    2    1    2    0    0 -0.14641051857E+03 -0.20792746276E+02 -0.78370037558E+02  0.19028118341E+03  0.90535560573E+02 0.  0.
          5    1    3    3  502    0  0.50042183036E+02 -0.11774217937E+02 -0.79532318293E+02  0.94793007886E+02  0.41800000000E+01 0.  1.
         -5    1    3    3    0  502  0.96368335535E+02  0.32566964213E+02  0.28081662779E+02  0.10561020517E+03  0.41800000000E+01 0.  1.
        -11    1    4    4    0    0 -0.15203159880E+03 -0.34340618781E+02 -0.60572005808E+02  0.16721798055E+03  0.00000000000E+00 0.  1.
         11    1    4    4    0    0  0.56210802239E+01  0.13547872505E+02 -0.17798031750E+02  0.23063202867E+02  0.00000000000E+00 0. -1.
</event>
<event>
 8    1  0.7281309E-009  0.1220227E+03  0.7561462E-02  0.1239797E+00
         -2   -1    0    0    0  501 -0.00000000000E+00  0.00000000000E+00  0.15441886341E+02  0.15441886341E+02  0.00000000000E+00 0.  1.
          2   -1    0    0  501    0  0.00000000000E+00 -0.00000000000E+00 -0.14577590953E+04  0.14577590953E+04  0.00000000000E+00 0. -1.
         25    2    1    2    0    0  0.22218526813E+02 -0.97756947260E+02 -0.66553707289E+03  0.68457074131E+03  0.12508965105E+03 0.  0.
         23    2    1    2    0    0 -0.22218526813E+02  0.97756947260E+02 -0.77678013609E+03  0.78863024035E+03  0.92196488528E+02 0.  0.
          5    1    3    3  502    0  0.11902159515E+02 -0.96770291731E+02 -0.66626337635E+03  0.67337248966E+03  0.41800000000E+01 0. -1.
         -5    1    3    3    0  502  0.10316367298E+02 -0.98665552949E+00  0.72630346206E+00  0.11198251653E+02  0.41800000000E+01 0. -1.
        -11    1    4    4    0    0 -0.47688653928E+01  0.11240063595E+03 -0.67689895730E+03  0.68618426347E+03  0.00000000000E+00 0.  1.
         11    1    4    4    0    0 -0.17449661420E+02 -0.14643688693E+02 -0.99881178797E+02  0.10244597689E+03  0.00000000000E+00 0. -1.
</event>
<event>
 8    1  0.7281309E-009  0.9814107E+02  0.7561462E-02  0.1284254E+00
          1   -1    0    0  501    0  0.00000000000E+00  0.00000000000E+00  0.91915078003E+02  0.91915078003E+02  0.00000000000E+00 0. -1.
         -1   -1    0    0    0  501 -0.00000000000E+00 -0.00000000000E+00 -0.17672266692E+03  0.17672266692E+03  0.00000000000E+00 0.  1.
         25    2    1    2    0    0 -0.99059997166E+01  0.65445730118E+02 -0.60033519050E+02  0.15369818479E+03  0.12505133417E+03 0.  0.
         23    2    1    2    0    0  0.99059997166E+01 -0.65445730118E+02 -0.24774069870E+02  0.11493956014E+03  0.90642570161E+02 0.  0.
          5    1    3    3  502    0 -0.29856929579E+02  0.26010938930E+02 -0.91163042404E+02  0.99479535022E+02  0.41800000000E+01 0. -1.
         -5    1    3    3    0  502  0.19950929862E+02  0.39434791187E+02  0.31129523354E+02  0.54218649767E+02  0.41800000000E+01 0. -1.
        -11    1    4    4    0    0 -0.27101962838E+02 -0.69735414251E+02 -0.19465511793E+02  0.77307506362E+02  0.00000000000E+00 0.  1.
         11    1    4    4    0    0  0.37007962555E+02  0.42896841336E+01 -0.53085580776E+01  0.37632053774E+02  0.00000000000E+00 0. -1.
</event>
<event>
 8    1  0.7281309E-009  0.1391014E+03  0.7561462E-02  0.1214543E+00
          2   -1    0    0  501    0  0.00000000000E+00  0.00000000000E+00  0.10480083779E+04  0.10480083779E+04  0.00000000000E+00 0.  1.
         -2   -1    0    0    0  501 -0.00000000000E+00 -0.00000000000E+00 -0.20470462196E+02  0.20470462196E+02  0.00000000000E+00 0. -1.
         25    2    1    2    0    0  0.55497157520E+02 -0.78807734851E+02  0.66022425960E+03  0.67884925574E+03  0.12509854309E+03 0.  0.
         23    2    1    2    0    0 -0.55497157520E+02  0.78807734851E+02  0.36731365610E+03  0.38962958436E+03  0.87185420132E+02 0.  0.
          5    1    3    3  502    0  0.90826843245E+02 -0.62329242444E+02  0.37259503259E+03  0.38856013772E+03  0.41800000000E+01 0.  1.
         -5    1    3    3    0  502 -0.35329685725E+02 -0.16478492407E+02  0.28762922701E+03  0.29028911801E+03  0.41800000000E+01 0.  1.
        -11    1    4    4    0    0 -0.76870855417E+02  0.45935688530E+02  0.22968943579E+03  0.24652880725E+03  0.00000000000E+00 0. -1.
         11    1    4    4    0    0  0.21373697897E+02  0.32872046321E+02  0.13762422032E+03  0.14310077711E+03  0.00000000000E+00 0.  1.
</event>
<event>
 8    1  0.7281309E-009  0.1194075E+03  0.7561462E-02  0.1244078E+00
         -1   -1    0    0    0  501 -0.00000000000E+00  0.00000000000E+00  0.50117719495E+02  0.50117719495E+02  0.00000000000E+00 0.  1.
          1   -1    0    0  501    0  0.00000000000E+00 -0.00000000000E+00 -0.50298089101E+03  0.50298089101E+03  0.00000000000E+00 0. -1.
         25    2    1    2    0    0 -0.60066277305E+02 -0.92856332825E+02 -0.29634606248E+03  0.34014617985E+03  0.12509268044E+03 0.  0.
         23    2    1    2    0    0  0.60066277305E+02  0.92856332825E+02 -0.15651710903E+03  0.21295243066E+03  0.92848673056E+02 0.  0.
          5    1    3    3  502    0 -0.28972983559E+02 -0.29829894280E+02 -0.70222537757E+01  0.42379721769E+02  0.41800000000E+01 0.  1.
         -5    1    3    3    0  502 -0.31093293745E+02 -0.63026438544E+02 -0.28932380871E+03  0.29776645808E+03  0.41800000000E+01 0.  1.
        -11    1    4    4    0    0  0.99892717419E+01  0.71471285335E+02 -0.35875460702E+02  0.80591431666E+02  0.00000000000E+00 0.  1.
         11    1    4    4    0    0  0.50077005563E+02  0.21385047490E+02 -0.12064164833E+03  0.13236099899E+03  0.00000000000E+00 0. -1.
</event>
<event>
 8    1  0.7281309E-009  0.9137340E+02  0.7561462E-02  0.1299559E+00
          2   -1    0    0  501    0  0.00000000000E+00  0.00000000000E+00  0.60450304936E+03  0.60450304936E+03  0.00000000000E+00 0. -1.
         -2   -1    0    0    0  501 -0.00000000000E+00 -0.00000000000E+00 -0.22773032306E+02  0.22773032306E+02  0.00000000000E+00 0.  1.
         25    2    1    2    0    0 -0.13601495361E+02  0.44760449758E+02  0.32131395315E+03  0.34796376904E+03  0.12509048542E+03 0.  0.
         23    2    1    2    0    0  0.13601495361E+02 -0.44760449758E+02  0.26041606391E+03  0.27931231262E+03  0.89500520129E+02 0.  0.
          5    1    3    3  502    0 -0.41775471149E+02  0.34191430952E+02  0.31130309332E+03  0.31597679068E+03  0.41800000000E+01 0.  1.
         -5    1    3    3    0  502  0.28173975788E+02  0.10569018806E+02  0.10010859830E+02  0.31986978363E+02  0.41800000000E+01 0.  1.
        -11    1    4    4    0    0 -0.28543723767E+02 -0.48113186010E+02  0.11516935111E+03  0.12803750337E+03  0.00000000000E+00 0.  1.
         11    1    4    4    0    0  0.42145219129E+02  0.33527362516E+01  0.14524671279E+03  0.15127480925E+03  0.00000000000E+00 0. -1.
</event>
<event>
 8    1  0.7281309E-009  0.8886324E+02  0.7561462E-02  0.1305628E+00
          1   -1    0    0  501    0  0.00000000000E+00  0.00000000000E+00  0.34856031216E+02  0.34856031216E+02  0.00000000000E+00 0. -1.
         -1   -1    0    0    0  501 -0.00000000000E+00 -0.00000000000E+00 -0.35734349663E+03  0.35734349663E+03  0.00000000000E+00 0.  1.
         25    2    1    2    0    0  0.16145808988E+02  0.65782722472E+01 -0.14912216285E+03  0.19541560813E+03  0.12508349066E+03 0.  0.
         23    2    1    2    0    0 -0.16145808988E+02 -0.65782722472E+01 -0.17336530257E+03  0.19678391971E+03  0.91457214641E+02 0.  0.
          5    1    3    3  502    0  0.49556777168E+02 -0.15963644415E+02 -0.14566674937E+03  0.15474813853E+03  0.41800000000E+01 0. -1.
         -5    1    3    3    0  502 -0.33410968180E+02  0.22541916662E+02 -0.34554134753E+01  0.40667469602E+02  0.41800000000E+01 0. -1.
        -11    1    4    4    0    0  0.21420979141E+02 -0.32789846433E+02 -0.40931428028E+02  0.56651691739E+02  0.00000000000E+00 0. -1.
         11    1    4    4    0    0 -0.37566788129E+02  0.26211574186E+02 -0.13243387454E+03  0.14013222797E+03  0.00000000000E+00 0.  1.
</event>
<event>
 8    1  0.7281309E-009  0.8163851E+02  0.7561462E-02  0.1324465E+00
         -1   -1    0    0    0  501 -0.00000000000E+00  0.00000000000E+00  0.73615969339E+02  0.73615969339E+02  0.00000000000E+00 0.  1.
          1   -1    0    0  501    0  0.00000000000E+00 -0.00000000000E+00 -0.19645935701E+03  0.19645935701E+03  0.00000000000E+00 0. -1.
         25    2    1    2    0    0  0.41567153735E+02  0.22468833435E+02 -0.94567922140E+02  0.16378029777E+03  0.12509283471E+03 0.  0.
         23    2    1    2    0    0 -0.41567153735E+02 -0.22468833435E+02 -0.28275465534E+02  0.10629502858E+03  0.90920044016E+02 0.  0.
          5    1    3    3  502    0  0.73291641873E+01 -0.12349983113E+02 -0.11106491117E+03  0.11206750476E+03  0.41800000000E+01 0. -1.
         -5    1    3    3    0  502  0.34237989548E+02  0.34818816548E+02  0.16496989029E+02  0.51712793012E+02  0.41800000000E+01 0. -1.
        -11    1    4    4    0    0 -0.26654872396E+01 -0.50997991402E+02 -0.14314525435E+01  0.51087660014E+02  0.00000000000E+00 0. -1.
         11    1    4    4    0    0 -0.38901666495E+02  0.28529157967E+02 -0.26844012990E+02  0.55207368565E+02  0.00000000000E+00 0.  1.
</event>
<event>
 8    1  0.7281309E-009  0.1106026E+03  0.7561462E-02  0.1259458E+00
          2   -1    0    0  501    0  0.00000000000E+00  0.00000000000E+00  0.43752331688E+03  0.43752331688E+03  0.00000000000E+00 0. -1.
         -2   -1    0    0    0  501 -0.00000000000E+00 -0.00000000000E+00 -0.18213597700E+03  0.18213597700E+03  0.00000000000E+00 0.  1.
         25    2    1    2    0    0 -0.34310758332E+02 -0.91717884334E+02  0.39563309994E+03  0.42633575947E+03  0.12508889477E+03 0.  0.
         23    2    1    2    0    0  0.34310758332E+02  0.91717884334E+02 -0.14024576005E+03  0.19332353440E+03  0.90087275998E+02 0.  0.
          5    1    3    3  502    0 -0.20456402784E+02 -0.25926854523E+02  0.98499875141E+01  0.34715426748E+02  0.41800000000E+01 0. -1.
         -5    1    3    3    0  502 -0.13854355549E+02 -0.65791029811E+02  0.38578311243E+03  0.39162033273E+03  0.41800000000E+01 0. -1.
        -11    1    4    4    0    0  0.40712620479E+02  0.14724284272E+02 -0.93465020219E+02  0.10300500968E+03  0.00000000000E+00 0. -1.
         11    1    4    4    0    0 -0.64018621471E+01  0.76993600062E+02 -0.46780739835E+02  0.90318524728E+02  0.00000000000E+00 0.  1.
</event>
<event>
 8    1  0.7281309E-009  0.1483470E+03  0.7561462E-02  0.1202519E+00
          1   -1    0    0  501    0  0.00000000000E+00  0.00000000000E+00  0.20179755473E+03  0.20179755473E+03  0.00000000000E+00 0. -1.
         -1   -1    0    0    0  501 -0.00000000000E+00 -0.00000000000E+00 -0.20802675069E+03  0.20802675069E+03  0.00000000000E+00 0.  1.
         25    2    1    2    0    0  0.11330194780E+03  0.52028863608E+02 -0.12375055474E+03  0.21564955383E+03  0.12508475624E+03 0.  0.
         23    2    1    2    0    0 -0.11330194780E+03 -0.52028863608E+02  0.11752135878E+03  0.19417475159E+03  0.91368650879E+02 0.  0.
          5    1    3    3  502    0  0.13759641295E+03  0.39972081106E+02 -0.12185888952E+03  0.18814250312E+03  0.41800000000E+01 0.  1.
         -5    1    3    3    0  502 -0.24294465153E+02  0.12056782502E+02 -0.18916652237E+01  0.27507050709E+02  0.41800000000E+01 0.  1.
        -11    1    4    4    0    0 -0.34614962986E+02 -0.25029066743E+02 -0.81273816445E+01  0.43482228288E+02  0.00000000000E+00 0.  1.
         11    1    4    4    0    0 -0.78686984812E+02 -0.26999796865E+02  0.12564874043E+03  0.15069252331E+03  0.00000000000E+00 0. -1.
</event>
<event>
 8    1  0.7281309E-009  0.7367715E+02  0.7561462E-02  0.1348017E+00
         -1   -1    0    0    0  501 -0.00000000000E+00  0.00000000000E+00  0.36414491904E+03  0.36414491904E+03  0.00000000000E+00 0.  1.
          1   -1    0    0  501    0  0.00000000000E+00 -0.00000000000E+00 -0.40974724454E+02  0.40974724454E+02  0.00000000000E+00 0. -1.
         25    2    1    2    0    0 -0.34201760499E+02 -0.42767866597E+02  0.20202458747E+03  0.24383533537E+03  0.12507152353E+03 0.  0.
         23    2    1    2    0    0  0.34201760499E+02  0.42767866597E+02  0.12114560711E+03  0.16128430812E+03  0.91310016363E+02 0.  0.
          5    1    3    3  502    0  0.10477055096E+02 -0.28288273338E+02 -0.55644461225E+01  0.30958529561E+02  0.41800000000E+01 0.  1.
         -5    1    3    3    0  502 -0.44678815595E+02 -0.14479593259E+02  0.20758903359E+03  0.21287680581E+03  0.41800000000E+01 0.  1.
        -11    1    4    4    0    0  0.43295131581E+02  0.25538877271E+02  0.13718018957E+02  0.52104574799E+02  0.00000000000E+00 0. -1.
         11    1    4    4    0    0 -0.90933710816E+01  0.17228989326E+02  0.10742758816E+03  0.10917973332E+03  0.00000000000E+00 0.  1.
</event>
<event>
 7    1  0.7281309E-009  0.1021389E+03  0.7561462E-02  0.1275861E+00
         -1   -1    0    0    0  501 -0.00000000000E+00  0.00000000000E+00  0.33031642275E+02  0.33031642275E+02  0.00000000000E+00 0.  1.
          1   -1    0    0  501    0  0.00000000000E+00 -0.00000000000E+00 -0.52320380949E+03  0.52320380949E+03  0.00000000000E+00 0. -1.
         23    2    1    2    0    0  0.47339698098E+02 -0.57345200659E+02 -0.23796801903E+03  0.26509602490E+03  0.90097754035E+02 0.  0.
          5    1    1    2  502    0 -0.94615916534E+01  0.67740418373E+02 -0.49277256386E+02  0.84403829267E+02  0.41800000000E+01 0. -1.
         -5    1    1    2    0  502 -0.37878106445E+02 -0.10395217714E+02 -0.20292689179E+03  0.20673559759E+03  0.41800000000E+01 0. -1.
        -11    1    3    3    0    0  0.20532639483E+02 -0.65168446498E+02 -0.22336754674E+03  0.23358419604E+03  0.00000000000E+00 0.  1.
         11    1    3    3    0    0  0.26807058616E+02  0.78232458391E+01 -0.14600472292E+02  0.31511828862E+02  0.00000000000E+00 0. -1.
</event>
<event>
 8    1  0.7281309E-009  0.1748565E+03  0.7561462E-02  0.1172876E+00
         -1   -1    0    0    0  501 -0.00000000000E+00  0.00000000000E+00  0.82452982342E+02  0.82452982342E+02  0.00000000000E+00 0.  1.
          1   -1    0    0  501    0  0.00000000000E+00 -0.00000000000E+00 -0.51226137090E+03  0.51226137090E+03  0.00000000000E+00 0. -1.
         25    2    1    2    0    0 -0.16347780255E+03  0.18049406623E+02 -0.14166469858E+03  0.25053107946E+03  0.12508461913E+03 0.  0.
         23    2    1    2    0    0  0.16347780255E+03 -0.18049406623E+02 -0.28814368998E+03  0.34418327379E+03  0.91567280602E+02 0.  0.
          5    1    3    3  502    0 -0.14358870306E+03  0.45775185977E+02 -0.15254120897E+03  0.21447465149E+03  0.41800000000E+01 0.  1.
         -5    1    3    3    0  502 -0.19889099484E+02 -0.27725779354E+02  0.10876510390E+02  0.36056427962E+02  0.41800000000E+01 0.  1.
        -11    1    4    4    0    0  0.31357434663E+02 -0.12144319126E+01 -0.14622791112E+03  0.14955723166E+03  0.00000000000E+00 0. -1.
         11    1    4    4    0    0  0.13212036788E+03 -0.16834974710E+02 -0.14191577886E+03  0.19462604213E+03  0.00000000000E+00 0.  1.
</event>
<event>
 8    1  0.7281309E-009  0.1427332E+03  0.7561462E-02  0.1209698E+00
          2   -1    0    0  501    0  0.00000000000E+00  0.00000000000E+00  0.34850199384E+03  0.34850199384E+03  0.00000000000E+00 0. -1.
         -2   -1    0    0    0  501 -0.00000000000E+00 -0.00000000000E+00 -0.75860033355E+02  0.75860033355E+02  0.00000000000E+00 0.  1.
         25    2    1    2    0    0  0.72070766054E+02  0.87875957946E+02  0.92921165334E+02  0.19286448584E+03  0.12508392234E+03 0.  0.
         23    2    1    2    0    0 -0.72070766054E+02 -0.87875957946E+02  0.17972079515E+03  0.23149754135E+03  0.91515944715E+02 0.  0.
          5    1    3    3  502    0 -0.34129927446E+01  0.77378079169E+02  0.69126498424E+01  0.77873440808E+02  0.41800000000E+01 0. -1.
         -5    1    3    3    0  502  0.75483758798E+02  0.10497878777E+02  0.86008515491E+02  0.11499104503E+03  0.41800000000E+01 0. -1.
        -11    1    4    4    0    0 -0.60043869074E+02 -0.20974809214E+02  0.13745093850E+03  0.15145286174E+03  0.00000000000E+00 0. -1.
         11    1    4    4    0    0 -0.12026896980E+02 -0.66901148733E+02  0.42269856652E+02  0.80044679611E+02  0.00000000000E+00 0.  1.
</event>
<event>
 8    1  0.7281309E-009  0.1444049E+03  0.7561462E-02  0.1207522E+00
          2   -1    0    0  501    0  0.00000000000E+00  0.00000000000E+00  0.32551798929E+03  0.32551798929E+03  0.00000000000E+00 0. -1.
         -2   -1    0    0    0  501 -0.00000000000E+00 -0.00000000000E+00 -0.12417181926E+03  0.12417181926E+03  0.00000000000E+00 0.  1.
         25    2    1    2    0    0 -0.10350033797E+03  0.35251518106E+02  0.25369047245E+03  0.30324264719E+03  0.12506901205E+03 0.  0.
         23    2    1    2    0    0  0.10350033797E+03 -0.35251518106E+02 -0.52344302418E+02  0.14644716136E+03  0.82169675588E+02 0.  0.
          5    1    3    3  502    0 -0.11875199326E+03 -0.48450876345E+01  0.15353343939E+03  0.19420478931E+03  0.41800000000E+01 0.  1.
         -5    1    3    3    0  502  0.15251655295E+02  0.40096605741E+02  0.10015703305E+03  0.10903785788E+03  0.41800000000E+01 0.  1.
        -11    1    4    4    0    0  0.28817857791E+02 -0.42931574903E+02  0.50396768259E+01  0.51951779506E+02  0.00000000000E+00 0. -1.
         11    1    4    4    0    0  0.74682480178E+02  0.76800567966E+01 -0.57383979244E+02  0.94495381854E+02  0.00000000000E+00 0.  1.
</event>
<event>
 8    1  0.7281309E-009  0.1517598E+03  0.7561462E-02  0.1198327E+00
         -2   -1    0    0    0  501 -0.00000000000E+00  0.00000000000E+00  0.16879007410E+02  0.16879007410E+02  0.00000000000E+00 0.  1.
          2   -1    0    0  501    0  0.00000000000E+00 -0.00000000000E+00 -0.14485078059E+04  0.14485078059E+04  0.00000000000E+00 0. -1.
         25    2    1    2    0    0  0.10910477735E+03  0.17940427330E+02 -0.69864523843E+03  0.71831652960E+03  0.12509099141E+03 0.  0.
         23    2    1    2    0    0 -0.10910477735E+03 -0.17940427330E+02 -0.73298356002E+03  0.74707028368E+03  0.92862253467E+02 0.  0.
          5    1    3    3  502    0  0.68983202754E+02  0.71382009702E+02 -0.38600659785E+03  0.39858830835E+03  0.41800000000E+01 0.  1.
         -5    1    3    3    0  502  0.40121574601E+02 -0.53441582372E+02 -0.31263864058E+03  0.31972822124E+03  0.41800000000E+01 0.  1.
        -11    1    4    4    0    0  0.81084683623E+01 -0.18275322483E+02 -0.45973707659E+02  0.50132987812E+02  0.00000000000E+00 0.  1.
         11    1    4    4    0    0 -0.11721324572E+03  0.33489515288E+00 -0.68700985237E+03  0.69693729587E+03  0.00000000000E+00 0. -1.
</event>
<event>
 8    1  0.7281309E-009  0.1073011E+03  0.7561462E-02  0.1265651E+00
          1   -1    0    0  501    0  0.00000000000E+00  0.00000000000E+00  0.27721579103E+03  0.27721579103E+03  0.00000000000E+00 0. -1.
         -1   -1    0    0    0  501 -0.00000000000E+00 -0.00000000000E+00 -0.50161622145E+02  0.50161622145E+02  0.00000000000E+00 0.  1.
         25    2    1    2    0    0  0.48923870514E+02  0.18676783168E+01  0.14615111539E+03  0.19850522319E+03  0.12508853575E+03 0.  0.
         23    2    1    2    0    0 -0.48923870514E+02 -0.18676783168E+01  0.80903053498E+02  0.12887218999E+03  0.87554005956E+02 0.  0.
          5    1    3    3  502    0 -0.31760325756E+02  0.21735706341E+02  0.11785499061E+02  0.40466401006E+02  0.41800000000E+01 0. -1.
         -5    1    3    3    0  502  0.80684196270E+02 -0.19868028024E+02  0.13436561633E+03  0.15803882218E+03  0.41800000000E+01 0. -1.
        -11    1    4    4    0    0 -0.69490740591E+02  0.78700188626E+01  0.79773945822E+02  0.10608856044E+03  0.00000000000E+00 0. -1.
         11    1    4    4    0    0  0.20566870077E+02 -0.97376971794E+01  0.11291076754E+01  0.22783629546E+02  0.00000000000E+00 0.  1.
</event>
<event>
 8    1  0.7281309E-009  0.1399821E+03  0.7561462E-02  0.1213353E+00
          2   -1    0    0  501    0  0.00000000000E+00  0.00000000000E+00  0.11354695309E+04  0.11354695309E+04  0.00000000000E+00 0. -1.
         -2   -1    0    0    0  501 -0.00000000000E+00 -0.00000000000E+00 -0.18242564844E+02  0.18242564844E+02  0.00000000000E+00 0.  1.
         25    2    1    2    0    0  0.68081721854E+01 -0.94438892780E+02  0.57859479584E+03  0.59948605270E+03  0.12508610606E+03 0.  0.
         23    2    1    2    0    0 -0.68081721854E+01  0.94438892780E+02  0.53863217021E+03  0.55422604304E+03  0.89871220754E+02 0.  0.
          5    1    3    3  502    0  0.57573540940E+02 -0.20086865589E+02  0.15949362142E+03  0.17080363714E+03  0.41800000000E+01 0. -1.
         -5    1    3    3    0  502 -0.50765368754E+02 -0.74352027191E+02  0.41910117442E+03  0.42868241556E+03  0.41800000000E+01 0. -1.
        -11    1    4    4    0    0  0.38527990959E+02  0.61907199808E+02  0.25833196417E+03  0.26842561574E+03  0.00000000000E+00 0. -1.
         11    1    4    4    0    0 -0.45336163144E+02  0.32531692972E+02  0.28030020604E+03  0.28580042730E+03  0.00000000000E+00 0.  1.
</event>
<event>
 8    1  0.7281309E-009  0.7644024E+02  0.7561462E-02  0.1339468E+00
          2   -1    0    0  501    0  0.00000000000E+00  0.00000000000E+00  0.23089837314E+03  0.23089837314E+03  0.00000000000E+00 0.  1.
         -2   -1    0    0    0  501 -0.00000000000E+00 -0.00000000000E+00 -0.51723138588E+02  0.51723138588E+02  0.00000000000E+00 0. -1.
         25    2    1    2    0    0  0.32765600512E+02  0.71166909124E+01  0.11990333021E+03  0.17648683786E+03  0.12508622416E+03 0.  0.
         23    2    1    2    0    0 -0.32765600512E+02 -0.71166909124E+01  0.59271904342E+02  0.10613467387E+03  0.81407484221E+02 0.  0.
          5    1    3    3  502    0  0.41226881014E+02  0.24098592720E+02 -0.66994946408E+01  0.48401999108E+02  0.41800000000E+01 0.  1.
         -5    1    3    3    0  502 -0.84612805015E+01 -0.16981901808E+02  0.12660282485E+03  0.12808483875E+03  0.41800000000E+01 0.  1.
        -11    1    4    4    0    0 -0.58785504608E+02 -0.10327236519E+01  0.51875138886E+02  0.78408112492E+02  0.00000000000E+00 0.  1.
         11    1    4    4    0    0  0.26019904096E+02 -0.60839672605E+01  0.73967654565E+01  0.27726561381E+02  0.00000000000E+00 0. -1.
</event>
<event>
 8    1  0.7281309E-009  0.1055088E+03  0.7561462E-02  0.1269120E+00
         -3   -1    0    0    0  501 -0.00000000000E+00  0.00000000000E+00  0.89918150423E+02  0.89918150423E+02  0.00000000000E+00 0.  1.
          3   -1    0    0  501    0  0.00000000000E+00 -0.00000000000E+00 -0.13949657330E+03  0.13949657330E+03  0.00000000000E+00 0. -1.
         25    2    1    2    0    0  0.18883618965E+02  0.17533621450E+02 -0.49368353170E+02  0.13692543328E+03  0.12508925229E+03 0.  0.
         23    2    1    2    0    0 -0.18883618965E+02 -0.17533621450E+02 -0.21006970754E+00  0.92489290443E+02  0.88826830243E+02 0.  0.
          5    1    3    3  502    0  0.55194785866E+02 -0.33566915573E+02 -0.28406565573E+02  0.70693759099E+02  0.41800000000E+01 0. -1.
         -5    1    3    3    0  502 -0.36311166901E+02  0.51100537023E+02 -0.20961787597E+02  0.66231674182E+02  0.41800000000E+01 0. -1.
        -11    1    4    4    0    0 -0.45080923137E+02  0.92167988838E+01 -0.19962052848E+02  0.50156979239E+02  0.00000000000E+00 0. -1.
         11    1    4    4    0    0  0.26197304171E+02 -0.26750420334E+02  0.19751983140E+02  0.42332311204E+02  0.00000000000E+00 0.  1.
</event>
<event>
 8    1  0.7281309E-009  0.1461798E+03  0.7561462E-02  0.1205247E+00
          1   -1    0    0  501    0  0.00000000000E+00  0.00000000000E+00  0.22189256897E+03  0.22189256897E+03  0.00000000000E+00 0. -1.
         -1   -1    0    0    0  501 -0.00000000000E+00 -0.00000000000E+00 -0.12110878506E+03  0.12110878506E+03  0.00000000000E+00 0.  1.
         25    2    1    2    0    0  0.96108724662E+02 -0.72380000022E+02  0.78549378449E+02  0.19050323299E+03  0.12508287479E+03 0.  0.
         23    2    1    2    0    0 -0.96108724662E+02  0.72380000022E+02  0.22234405463E+02  0.15249812105E+03  0.91025033791E+02 0.  0.
          5    1    3    3  502    0  0.88523431550E+02  0.99258777907E+01  0.53683858916E+02  0.10408818421E+03  0.41800000000E+01 0.  1.
         -5    1    3    3    0  502  0.75852931110E+01 -0.82305877813E+02  0.24865519533E+02  0.86415048780E+02  0.41800000000E+01 0.  1.
        -11    1    4    4    0    0 -0.47901203969E+02  0.39263702052E+02 -0.34599780146E+02  0.70945813313E+02  0.00000000000E+00 0.  1.
         11    1    4    4    0    0 -0.48207520692E+02  0.33116297970E+02  0.56834185609E+02  0.81552307732E+02  0.00000000000E+00 0. -1.
</event>
<event>
 8    1  0.7281309E-009  0.9315702E+02  0.7561462E-02  0.1295382E+00
         -1   -1    0    0    0  501 -0.00000000000E+00  0.00000000000E+00  0.45037136604E+02  0.45037136604E+02  0.00000000000E+00 0.  1.
          1   -1    0    0  501    0  0.00000000000E+00 -0.00000000000E+00 -0.27413421646E+03  0.27413421646E+03  0.00000000000E+00 0. -1.
         25    2    1    2    0    0 -0.20269858105E+02 -0.14198843431E+02 -0.10571339007E+03  0.16563661808E+03  0.12509074349E+03 0.  0.
         23    2    1    2    0    0  0.20269858105E+02  0.14198843431E+02 -0.12338368978E+03  0.15353473498E+03  0.87959681898E+02 0.  0.
          5    1    3    3  502    0 -0.59614996051E+02 -0.46924841754E+02 -0.58668232856E+02  0.95996471155E+02  0.41800000000E+01 0. -1.
         -5    1    3    3    0  502  0.39345137946E+02  0.32725998323E+02 -0.47045157218E+02  0.69640146926E+02  0.41800000000E+01 0. -1.
        -11    1    4    4    0    0  0.28588751701E+02  0.29805016218E+02 -0.12862235765E+03  0.13509021653E+03  0.00000000000E+00 0. -1.
         11    1    4    4    0    0 -0.83188935959E+01 -0.15606172788E+02  0.52386678694E+01  0.18444518448E+02  0.00000000000E+00 0.  1.
</event>
<event>
 8    1  0.7281309E-009  0.1756680E+03  0.7561462E-02  0.1172063E+00
         -1   -1    0    0    0  501 -0.00000000000E+00  0.00000000000E+00  0.30508654250E+02  0.30508654250E+02  0.00000000000E+00 0.  1.
          1   -1    0    0  501    0  0.00000000000E+00 -0.00000000000E+00 -0.10971782178E+04  0.10971782178E+04  0.00000000000E+00 0. -1.
         25    2    1    2    0    0  0.11916159120E+03  0.85037643438E+02 -0.52972167565E+03  0.56363643665E+03  0.12510033351E+03 0.  0.
         23    2    1    2    0    0 -0.11916159120E+03 -0.85037643438E+02 -0.53694788791E+03  0.56405043541E+03  0.91700456582E+02 0.  0.
          5    1    3    3  502    0  0.12432192091E+03  0.35629211264E+02 -0.46048552203E+03  0.47831973523E+03  0.41800000000E+01 0.  1.
         -5    1    3    3    0  502 -0.51603297043E+01  0.49408432174E+02 -0.69236153622E+02  0.85316701418E+02  0.41800000000E+01 0.  1.
        -11    1    4    4    0    0 -0.62100174763E+02 -0.95658014495E+02 -0.33201208773E+03  0.35105400417E+03  0.00000000000E+00 0. -1.
         11    1    4    4    0    0 -0.57061416440E+02  0.10620371057E+02 -0.20493580018E+03  0.21299643124E+03  0.00000000000E+00 0.  1.
</event>
<event>
 8    1  0.7281309E-009  0.1225300E+03  0.7561462E-02  0.1238981E+00
          2   -1    0    0  501    0  0.00000000000E+00  0.00000000000E+00  0.31066654285E+03  0.31066654285E+03  0.00000000000E+00 0. -1.
         -2   -1    0    0    0  501 -0.00000000000E+00 -0.00000000000E+00 -0.70858227255E+02  0.70858227255E+02  0.00000000000E+00 0.  1.
         25    2    1    2    0    0 -0.48316564273E+02 -0.85264503839E+02  0.98221629656E+02  0.18681418878E+03  0.12509007394E+03 0.  0.
         23    2    1    2    0    0  0.48316564273E+02  0.85264503839E+02  0.14158668594E+03  0.19471058133E+03  0.90889465004E+02 0.  0.
          5    1    3    3  502    0  0.29435304588E+02 -0.55456237411E+02  0.79455987269E+02  0.10135362715E+03  0.41800000000E+01 0.  1.
         -5    1    3    3    0  502 -0.77751868861E+02 -0.29808266428E+02  0.18765642387E+02  0.85460561623E+02  0.41800000000E+01 0.  1.
        -11    1    4    4    0    0  0.72474673649E+01  0.23481572004E+02 -0.95361841400E+01  0.26359985109E+02  0.00000000000E+00 0.  1.
         11    1    4    4    0    0  0.41069096908E+02  0.61782931835E+02  0.15112287008E+03  0.16835059622E+03  0.00000000000E+00 0. -1.
</event>
<event>
 8    1  0.7281309E-009  0.9864439E+02  0.7561462E-02  0.1283173E+00
          1   -1    0    0  501    0  0.00000000000E+00  0.00000000000E+00  0.95142634452E+02  0.95142634452E+02  0.00000000000E+00 0. -1.
         -1   -1    0    0    0  501 -0.00000000000E+00 -0.00000000000E+00 -0.16598034451E+03  0.16598034451E+03  0.00000000000E+00 0.  1.
         25    2    1    2    0    0  0.63180039675E+02  0.43734895119E+01 -0.35971710260E+02  0.14474650635E+03  0.12508693911E+03 0.  0.
         23    2    1    2    0    0 -0.63180039675E+02 -0.43734895119E+01 -0.34865999801E+02  0.11637647262E+03  0.91197591049E+02 0.  0.
          5    1    3    3  502    0  0.30348714694E+02 -0.29816298831E+02  0.37729977137E+02  0.57018240365E+02  0.41800000000E+01 0.  1.
         -5    1    3    3    0  502  0.32831324981E+02  0.34189788343E+02 -0.73701687397E+02  0.87728265981E+02  0.41800000000E+01 0.  1.
        -11    1    4    4    0    0 -0.80491433590E+02 -0.20751380494E+02 -0.13192476070E+02  0.84163721987E+02  0.00000000000E+00 0.  1.
         11    1    4    4    0    0  0.17311393915E+02  0.16377890982E+02 -0.21673523731E+02  0.32212750631E+02  0.00000000000E+00 0. -1.
</event>
<event>
 8    1  0.7281309E-009  0.7351452E+02  0.7561462E-02  0.1348534E+00
         -2   -1    0    0    0  501 -0.00000000000E+00  0.00000000000E+00  0.26970782625E+03  0.26970782625E+03  0.00000000000E+00 0.  1.
          2   -1    0    0  501    0  0.00000000000E+00 -0.00000000000E+00 -0.47555528735E+02  0.47555528735E+02  0.00000000000E+00 0. -1.
         25    2    1    2    0    0  0.22454741209E+02 -0.27464116301E+02  0.12063322517E+03  0.17736444919E+03  0.12508908720E+03 0.  0.
         23    2    1    2    0    0 -0.22454741209E+02  0.27464116301E+02  0.10151907234E+03  0.13989890579E+03  0.89482337388E+02 0.  0.
          5    1    3    3  502    0 -0.70596992332E+01  0.15213865968E+02 -0.20571551226E+02  0.26869354119E+02  0.41800000000E+01 0.  1.
         -5    1    3    3    0  502  0.29514440442E+02 -0.42677982269E+02  0.14120477639E+03  0.15049509507E+03  0.41800000000E+01 0.  1.
        -11    1    4    4    0    0  0.24556242299E+02  0.31422694095E+01 -0.72453100560E+00  0.24767071649E+02  0.00000000000E+00 0. -1.
         11    1    4    4    0    0 -0.47010983507E+02  0.24321846892E+02  0.10224360335E+03  0.11513183414E+03  0.00000000000E+00 0.  1.
</event>
<event>
 8    1  0.7281309E-009  0.9163165E+02  0.7561462E-02  0.1298948E+00
          2   -1    0    0  501    0  0.00000000000E+00  0.00000000000E+00  0.60635739526E+03  0.60635739526E+03  0.00000000000E+00 0. -1.
         -2   -1    0    0    0  501 -0.00000000000E+00 -0.00000000000E+00 -0.25209117928E+02  0.25209117928E+02  0.00000000000E+00 0.  1.
         25    2    1    2    0    0  0.26320858697E+02 -0.49292115955E+02  0.27817065938E+03  0.31008353890E+03  0.12510149902E+03 0.  0.
         23    2    1    2    0    0 -0.26320858697E+02  0.49292115955E+02  0.30297761794E+03  0.32148297428E+03  0.91833357124E+02 0.  0.
          5    1    3    3  502    0  0.95577363294E+01 -0.57791926068E+02  0.28396701244E+03  0.28997585002E+03  0.41800000000E+01 0.  1.
         -5    1    3    3    0  502  0.16763122368E+02  0.84998101126E+01 -0.57963530522E+01  0.20107688882E+02  0.41800000000E+01 0.  1.
        -11    1    4    4    0    0 -0.57465882679E+02  0.46666779012E+02  0.24030417722E+03  0.25144823230E+03  0.00000000000E+00 0. -1.
         11    1    4    4    0    0  0.31145023982E+02  0.26253369435E+01  0.62673440723E+02  0.70034741986E+02  0.00000000000E+00 0.  1.
</event>
<event>
 8    1  0.7281309E-009  0.1952943E+03  0.7561462E-02  0.1153771E+00
          2   -1    0    0  501    0  0.00000000000E+00  0.00000000000E+00  0.10413440761E+04  0.10413440761E+04  0.00000000000E+00 0.  1.
         -2   -1    0    0    0  501 -0.00000000000E+00 -0.00000000000E+00 -0.53608933526E+02  0.53608933526E+02  0.00000000000E+00 0. -1.
         25    2    1    2    0    0 -0.17769255630E+03  0.53800703051E+02  0.73348131249E+03  0.76688652045E+03  0.12510371408E+03 0.  0.
         23    2    1    2    0    0  0.17769255630E+03 -0.53800703051E+02  0.25425383008E+03  0.32806648917E+03  0.92268363964E+02 0.  0.
          5    1    3    3  502    0 -0.13306102129E+02  0.11444058800E+02  0.47827148304E+01  0.18664554557E+02  0.41800000000E+01 0.  1.
         -5    1    3    3    0  502 -0.16438645417E+03  0.42356644252E+02  0.72869859765E+03  0.74822196590E+03  0.41800000000E+01 0.  1.
        -11    1    4    4    0    0  0.13870596419E+03 -0.75705618703E+02  0.16634405767E+03  0.22943633262E+03  0.00000000000E+00 0. -1.
         11    1    4    4    0    0  0.38986592109E+02  0.21904915652E+02  0.87909772415E+02  0.98630156544E+02  0.00000000000E+00 0.  1.
</event>
<event>
 8    1  0.7281309E-009  0.1002963E+03  0.7561462E-02  0.1279674E+00
          2   -1    0    0  501    0  0.00000000000E+00  0.00000000000E+00  0.12734698345E+03  0.12734698345E+03  0.00000000000E+00 0. -1.
         -2   -1    0    0    0  501 -0.00000000000E+00 -0.00000000000E+00 -0.14313542340E+03  0.14313542340E+03  0.00000000000E+00 0.  1.
         25    2    1    2    0    0  0.18815081652E+02 -0.15272510406E+02 -0.85299344676E+02  0.15333412756E+03  0.12509244422E+03 0.  0.
         23    2    1    2    0    0 -0.18815081652E+02  0.15272510406E+02  0.69510904721E+02  0.11714827929E+03  0.91130108052E+02 0.  0.
          5    1    3    3  502    0  0.40310333883E+02 -0.53386766005E+02 -0.12335127207E+02  0.68152018059E+02  0.41800000000E+01 0.  1.
         -5    1    3    3    0  502 -0.21495252231E+02  0.38114255599E+02 -0.72964217468E+02  0.85182109501E+02  0.41800000000E+01 0.  1.
        -11    1    4    4    0    0 -0.53317396916E+02  0.47041621414E+01  0.58788097586E+02  0.79504178337E+02  0.00000000000E+00 0. -1.
         11    1    4    4    0    0  0.34502315264E+02  0.10568348265E+02  0.10722807135E+02  0.37644100952E+02  0.00000000000E+00 0.  1.
</event>
<event>
 8    1  0.7281309E-009  0.2123573E+03  0.7561462E-02  0.1139713E+00
         -1   -1    0    0    0  501 -0.00000000000E+00  0.00000000000E+00  0.12003356097E+03  0.12003356097E+03  0.00000000000E+00 0.  1.
          1   -1    0    0  501    0  0.00000000000E+00 -0.00000000000E+00 -0.47677233187E+03  0.47677233187E+03  0.00000000000E+00 0. -1.
         25    2    1    2    0    0  0.19276434754E+03 -0.60752544052E+02 -0.26645619976E+03  0.35706729341E+03  0.12509668397E+03 0.  0.
         23    2    1    2    0    0 -0.19276434754E+03  0.60752544052E+02 -0.90282571137E+02  0.23973859943E+03  0.92058069242E+02 0.  0.
          5    1    3    3  502    0  0.17776937324E+03 -0.59194687739E+02 -0.27962321817E+03  0.33661933643E+03  0.41800000000E+01 0. -1.
         -5    1    3    3    0  502  0.14994974301E+02 -0.15578563136E+01  0.13167018414E+02  0.20447956976E+02  0.41800000000E+01 0. -1.
        -11    1    4    4    0    0 -0.17207075172E+02  0.41649734958E+02 -0.12440683227E+02  0.46749913981E+02  0.00000000000E+00 0. -1.
         11    1    4    4    0    0 -0.17555727237E+03  0.19102809094E+02 -0.77841887910E+02  0.19298868545E+03  0.00000000000E+00 0.  1.
</event>
<event>
 7    1  0.7281309E-009  0.1911591E+03  0.7561462E-02  0.1157420E+00
          2   -1    0    0  501    0  0.00000000000E+00  0.00000000000E+00  0.99297082491E+03  0.99297082491E+03  0.00000000000E+00 0. -1.
         -2   -1    0    0    0  501 -0.00000000000E+00 -0.00000000000E+00 -0.53088185202E+02  0.53088185202E+02  0.00000000000E+00 0.  1.
         25    2    1    2    0    0 -0.15238237306E+03 -0.96684540549E+02  0.42327611437E+03  0.47684078193E+03  0.12508466858E+03 0.  0.
          5    1    3    3  502    0 -0.32683176748E+02 -0.20066312884E+02  0.10091022412E+02  0.39876660949E+02  0.41800000000E+01 0.  1.
         -5    1    3    3    0  502 -0.11969919631E+03 -0.76618227665E+02  0.41318509196E+03  0.43696412098E+03  0.41800000000E+01 0.  1.
        -11    1    1    2    0    0  0.92345106465E+01 -0.16607541352E+02 -0.22953883274E+01  0.19140413377E+02  0.00000000000E+00 0.  1.
         11    1    1    2    0    0  0.14314786241E+03  0.11329208190E+03  0.51890191366E+03  0.55007781480E+03  0.00000000000E+00 0. -1.
</event>
<event>
 8    1  0.7281309E-009  0.1941606E+03  0.7561462E-02  0.1154761E+00
          2   -1    0    0  501    0  0.00000000000E+00  0.00000000000E+00  0.42257232028E+03  0.42257232028E+03  0.00000000000E+00 0.  1.
         -2   -1    0    0    0  501 -0.00000000000E+00 -0.00000000000E+00 -0.15886255712E+03  0.15886255712E+03  0.00000000000E+00 0. -1.
         25    2    1    2    0    0  0.34141843834E+02  0.17045290225E+03  0.31450516170E+03  0.38050093934E+03  0.12509041018E+03 0.  0.
         23    2    1    2    0    0 -0.34141843834E+02 -0.17045290225E+03 -0.50795398535E+02  0.20093393805E+03  0.87031129857E+02 0.  0.
          5    1    3    3  502    0 -0.32269409359E+02  0.94392823262E+02  0.22232558354E+03  0.24371593579E+03  0.41800000000E+01 0.  1.
         -5    1    3    3    0  502  0.66411253194E+02  0.76060078986E+02  0.92179578162E+02  0.13678500355E+03  0.41800000000E+01 0.  1.
        -11    1    4    4    0    0 -0.17262538781E+01 -0.14794270196E+03 -0.16907008047E+02  0.14891564705E+03  0.00000000000E+00 0.  1.
         11    1    4    4    0    0 -0.32415589956E+02 -0.22510200293E+02 -0.33888390487E+02  0.52018291006E+02  0.00000000000E+00 0. -1.
</event>
<event>
 8    1  0.7281309E-009  0.3730841E+03  0.7561462E-02  0.1053520E+00
         -1   -1    0    0    0  501 -0.00000000000E+00  0.00000000000E+00  0.71598749482E+03  0.71598749482E+03  0.00000000000E+00 0.  1.
          1   -1    0    0  501    0  0.00000000000E+00 -0.00000000000E+00 -0.22950673896E+03  0.22950673896E+03  0.00000000000E+00 0. -1.
         25    2    1    2    0    0 -0.36640875513E+03  0.31369575451E+01  0.40263014519E+03  0.55859147056E+03  0.12509268895E+03 0.  0.
         23    2    1    2    0    0  0.36640875513E+03 -0.31369575451E+01  0.83850610673E+02  0.38690276323E+03  0.91638457763E+02 0.  0.
          5    1    3    3  502    0 -0.19364931204E+03 -0.41105422136E+02  0.27664093752E+03  0.34020198779E+03  0.41800000000E+01 0. -1.
         -5    1    3    3    0  502 -0.17275944309E+03  0.44242379681E+02  0.12598920767E+03  0.21838948277E+03  0.41800000000E+01 0. -1.
        -11    1    4    4    0    0  0.26944845541E+03 -0.24272615531E+02  0.25395318371E+02  0.27172882104E+03  0.00000000000E+00 0. -1.
         11    1    4    4    0    0  0.96960299718E+02  0.21135657986E+02  0.58455292302E+02  0.11517394218E+03  0.00000000000E+00 0.  1.
</event>
<event>
 8    1  0.7281309E-009  0.1105695E+03  0.7561462E-02  0.1259519E+00
         -2   -1    0    0    0  501 -0.00000000000E+00  0.00000000000E+00  0.15386332364E+02  0.15386332364E+02  0.00000000000E+00 0.  1.
          2   -1    0    0  501    0  0.00000000000E+00 -0.00000000000E+00 -0.84598680775E+03  0.84598680775E+03  0.00000000000E+00 0. -1.
         25    2    1    2    0    0  0.13783575848E+02 -0.35088852969E+02 -0.40355112757E+03  0.42417339320E+03  0.12509332665E+03 0.  0.
         23    2    1    2    0    0 -0.13783575848E+02  0.35088852969E+02 -0.42704934782E+03  0.43719974691E+03  0.85739481356E+02 0.  0.
          5    1    3    3  502    0 -0.54066413411E+02 -0.38556553912E+01 -0.20194729225E+03  0.20913685564E+03  0.41800000000E+01 0.  1.
         -5    1    3    3    0  502  0.67849989259E+02 -0.31233197578E+02 -0.20160383532E+03  0.21503653756E+03  0.41800000000E+01 0.  1.
        -11    1    4    4    0    0  0.20773703145E+02  0.50138583926E+02 -0.20986088403E+03  0.21676488412E+03  0.00000000000E+00 0. -1.
         11    1    4    4    0    0 -0.34557278993E+02 -0.15049730957E+02 -0.21718846378E+03  0.22043486279E+03  0.00000000000E+00 0.  1.
</event>
<event>
 8    1  0.7281309E-009  0.1028155E+03  0.7561462E-02  0.1274484E+00
          2   -1    0    0  501    0  0.00000000000E+00  0.00000000000E+00  0.52563739284E+03  0.52563739284E+03  0.00000000000E+00 0. -1.
         -2   -1    0    0    0  501 -0.00000000000E+00 -0.00000000000E+00 -0.23577095706E+02  0.23577095706E+02  0.00000000000E+00 0.  1.
         25    2    1    2    0    0 -0.11306676977E+02  0.20122811009E+02  0.26181816042E+03  0.29108066418E+03  0.12508571249E+03 0.  0.
         23    2    1    2    0    0  0.11306676977E+02 -0.20122811009E+02  0.24024213671E+03  0.25813382436E+03  0.91564286484E+02 0.  0.
          5    1    3    3  502    0  0.53998837008E+02  0.43386739611E+01  0.16042294663E+03  0.16937441570E+03  0.41800000000E+01 0.  1.
         -5    1    3    3    0  502 -0.65305513986E+02  0.15784137048E+02  0.10139521379E+03  0.12170624848E+03  0.41800000000E+01 0.  1.
        -11    1    4    4    0    0 -0.25539188048E+02 -0.35769156668E+02  0.65597321867E+02  0.78960061620E+02  0.00000000000E+00 0.  1.
         11    1    4    4    0    0  0.36845865026E+02  0.15646345659E+02  0.17464481484E+03  0.17917376274E+03  0.00000000000E+00 0. -1.
</event>
<event>
 8    1  0.7281309E-009  0.1653939E+03  0.7561462E-02  0.1182738E+00
          1   -1    0    0  501    0  0.00000000000E+00  0.00000000000E+00  0.51016346338E+03  0.51016346338E+03  0.00000000000E+00 0. -1.
         -1   -1    0    0    0  501 -0.00000000000E+00 -0.00000000000E+00 -0.72731300193E+02  0.72731300193E+02  0.00000000000E+00 0.  1.
         25    2    1    2    0    0 -0.14082220719E+03 -0.42175575037E+02  0.29957322709E+03  0.35637463222E+03  0.12509631060E+03 0.  0.
         23    2    1    2    0    0  0.14082220719E+03  0.42175575037E+02  0.13785893610E+03  0.22652013136E+03  0.10342441917E+03 0.  0.
          5    1    3    3  502    0 -0.14052008901E+03 -0.29850938528E+02  0.30867415032E+03  0.34049108274E+03  0.41800000000E+01 0.  1.
         -5    1    3    3    0  502 -0.30211818395E+00 -0.12324636508E+02 -0.91009232275E+01  0.15883549479E+02  0.41800000000E+01 0.  1.
        -11    1    4    4    0    0  0.10566149345E+02 -0.25256687345E+02  0.34867157059E+01  0.27598930306E+02  0.00000000000E+00 0.  1.
         11    1    4    4    0    0  0.13025605785E+03  0.67432262382E+02  0.13437222039E+03  0.19892120105E+03  0.00000000000E+00 0. -1.
</event>
<event>
 8    1  0.7281309E-009  0.1530128E+03  0.7561462E-02  0.1196819E+00
          1   -1    0    0  501    0  0.00000000000E+00  0.00000000000E+00  0.43486881746E+02  0.43486881746E+02  0.00000000000E+00 0. -1.
         -1   -1    0    0    0  501 -0.00000000000E+00 -0.00000000000E+00 -0.69066669123E+03  0.69066669123E+03  0.00000000000E+00 0.  1.
         25    2    1    2    0    0  0.33429574306E+02 -0.12060002306E+03 -0.44617418803E+03  0.47997628020E+03  0.12507566307E+03 0.  0.
         23    2    1    2    0    0 -0.33429574306E+02  0.12060002306E+03 -0.20100562146E+03  0.25417729278E+03  0.92417175395E+02 0.  0.
          5    1    3    3  502    0  0.76748431024E+02 -0.63670583344E+02 -0.31592709394E+03  0.33131807366E+03  0.41800000000E+01 0.  1.
         -5    1    3    3    0  502 -0.43318856718E+02 -0.56929439712E+02 -0.13024709409E+03  0.14865820654E+03  0.41800000000E+01 0.  1.
        -11    1    4    4    0    0 -0.28011833013E+02  0.21503245278E+02 -0.66293318410E+01  0.35930493830E+02  0.00000000000E+00 0.  1.
         11    1    4    4    0    0 -0.54177412938E+01  0.99096777778E+02 -0.19437628962E+03  0.21824679895E+03  0.00000000000E+00 0. -1.
</event>
<event>
 8    1  0.7281309E-009  0.1165860E+03  0.7561462E-02  0.1248838E+00
         -2   -1    0    0    0  501 -0.00000000000E+00  0.00000000000E+00  0.41567524232E+02  0.41567524232E+02  0.00000000000E+00 0. -1.
          2   -1    0    0  501    0  0.00000000000E+00 -0.00000000000E+00 -0.81659059378E+03  0.81659059378E+03  0.00000000000E+00 0.  1.
         25    2    1    2    0    0  0.96201439438E+02 -0.65182844277E+01 -0.66018591849E+03  0.67881562970E+03  0.12509199481E+03 0.  0.
         23    2    1    2    0    0 -0.96201439438E+02  0.65182844277E+01 -0.11483715105E+03  0.17934248831E+03  0.98381664298E+02 0.  0.
          5    1    3    3  502    0  0.31797452332E+02 -0.41641030567E+02 -0.92463231897E+02  0.10635776913E+03  0.41800000000E+01 0.  1.
         -5    1    3    3    0  502  0.64403987107E+02  0.35122746139E+02 -0.56772268659E+03  0.57245786057E+03  0.41800000000E+01 0.  1.
        -11    1    4    4    0    0 -0.70317818780E+02  0.25754356589E+02 -0.12484007770E+03  0.14557790877E+03  0.00000000000E+00 0.  1.
         11    1    4    4    0    0 -0.25883620659E+02 -0.19236072162E+02  0.10002926642E+02  0.33764579547E+02  0.00000000000E+00 0. -1.
</event>
<event>
 8    1  0.7281309E-009  0.1314127E+03  0.7561462E-02  0.1225374E+00
          2   -1    0    0  501    0  0.00000000000E+00  0.00000000000E+00  0.98856335516E+03  0.98856335516E+03  0.00000000000E+00 0. -1.
         -2   -1    0    0    0  501 -0.00000000000E+00 -0.00000000000E+00 -0.22432513534E+02  0.22432513534E+02  0.00000000000E+00 0.  1.
         25    2    1    2    0    0  0.40533108485E+01  0.90424565730E+02  0.67693450751E+03  0.69432057690E+03  0.12509078556E+03 0.  0.
         23    2    1    2    0    0 -0.40533108485E+01 -0.90424565730E+02  0.28919633412E+03  0.31667529180E+03  0.91954822338E+02 0.  0.
          5    1    3    3  502    0  0.52377718618E+02  0.31922432191E+02  0.15279511634E+03  0.16470059824E+03  0.41800000000E+01 0. -1.
         -5    1    3    3    0  502 -0.48324407769E+02  0.58502133539E+02  0.52413939117E+03  0.52961997865E+03  0.41800000000E+01 0. -1.
        -11    1    4    4    0    0 -0.41872210917E+02 -0.22322223792E+02  0.74961399733E+02  0.88717389344E+02  0.00000000000E+00 0. -1.
         11    1    4    4    0    0  0.37818900069E+02 -0.68102341938E+02  0.21423493439E+03  0.22795790245E+03  0.00000000000E+00 0.  1.
</event>
<event>
 8    1  0.7281309E-009  0.8687383E+02  0.7561462E-02  0.1310604E+00
          2   -1    0    0  501    0  0.00000000000E+00  0.00000000000E+00  0.37078496904E+03  0.37078496904E+03  0.00000000000E+00 0.  1.
         -2   -1    0    0    0  501 -0.00000000000E+00 -0.00000000000E+00 -0.34478171616E+02  0.34478171616E+02  0.00000000000E+00 0. -1.
         25    2    1    2    0    0  0.39651526811E+01  0.11257257795E+02  0.14049685950E+03  0.18849097740E+03  0.12508809993E+03 0.  0.
         23    2    1    2    0    0 -0.39651526811E+01 -0.11257257795E+02  0.19580993793E+03  0.21677216325E+03  0.92229012146E+02 0.  0.
          5    1    3    3  502    0 -0.53485192116E+02 -0.48189762472E+01  0.10737447786E+03  0.12012759551E+03  0.41800000000E+01 0. -1.
         -5    1    3    3    0  502  0.57450344797E+02  0.16076234042E+02  0.33122381637E+02  0.68363381891E+02  0.41800000000E+01 0. -1.
        -11    1    4    4    0    0  0.20387657415E+02  0.14203647719E+02  0.86274180237E+01  0.26302709464E+02  0.00000000000E+00 0. -1.
         11    1    4    4    0    0 -0.24352810096E+02 -0.25460905514E+02  0.18718251990E+03  0.19046945379E+03  0.00000000000E+00 0.  1.
</event>
<event>
 8    1  0.7281309E-009  0.1449554E+03  0.7561462E-02  0.1206812E+00
         -2   -1    0    0    0  501 -0.00000000000E+00  0.00000000000E+00  0.16461789714E+03  0.16461789714E+03  0.00000000000E+00 0. -1.
          2   -1    0    0  501    0  0.00000000000E+00 -0.00000000000E+00 -0.14164285810E+03  0.14164285810E+03  0.00000000000E+00 0.  1.
         25    2    1    2    0    0  0.71837878007E+02  0.78333115167E+02  0.24261451944E+01  0.16416513085E+03  0.12509015292E+03 0.  0.
         23    2    1    2    0    0 -0.71837878007E+02 -0.78333115167E+02  0.20548893850E+02  0.14209562439E+03  0.92044292513E+02 0.  0.
          5    1    3    3  502    0 -0.27165264028E+02 -0.41720880532E+01 -0.18698964140E+02  0.33503455767E+02  0.41800000000E+01 0. -1.
         -5    1    3    3    0  502  0.99003142036E+02  0.82505203220E+02  0.21125109334E+02  0.13066167508E+03  0.41800000000E+01 0. -1.
        -11    1    4    4    0    0 -0.44350493775E+02  0.57358127170E+01 -0.14417172654E+02  0.46986388592E+02  0.00000000000E+00 0. -1.
         11    1    4    4    0    0 -0.27487384233E+02 -0.84068927884E+02  0.34966066503E+02  0.95109235799E+02  0.00000000000E+00 0.  1.
</event>
<event>
 8    1  0.7281309E-009  0.2019190E+03  0.7561462E-02  0.1148130E+00
         -1   -1    0    0    0  501 -0.00000000000E+00  0.00000000000E+00  0.32217969178E+03  0.32217969178E+03  0.00000000000E+00 0.  1.
          1   -1    0    0  501    0  0.00000000000E+00 -0.00000000000E+00 -0.18149931872E+03  0.18149931872E+03  0.00000000000E+00 0. -1.
         25    2    1    2    0    0 -0.15228286963E+02  0.19121011718E+03  0.17759896200E+03  0.28979559737E+03  0.12508751862E+03 0.  0.
         23    2    1    2    0    0  0.15228286963E+02 -0.19121011718E+03 -0.36918588934E+02  0.21388341314E+03  0.87120161679E+02 0.  0.
          5    1    3    3  502    0 -0.28636756158E+01  0.76848070380E+01  0.81883040591E+02  0.82398796312E+02  0.41800000000E+01 0.  1.
         -5    1    3    3    0  502 -0.12364611348E+02  0.18352531014E+03  0.95715921410E+02  0.20739680105E+03  0.41800000000E+01 0.  1.
        -11    1    4    4    0    0 -0.28648650778E+02 -0.22805086915E+02 -0.77601988444E+01  0.37430440376E+02  0.00000000000E+00 0. -1.
         11    1    4    4    0    0  0.43876937742E+02 -0.16840503026E+03 -0.29158390090E+02  0.17645297276E+03  0.00000000000E+00 0.  1.
</event>
<event>
 8    1  0.7281309E-009  0.9331698E+02  0.7561462E-02  0.1295012E+00
         -1   -1    0    0    0  501 -0.00000000000E+00  0.00000000000E+00  0.73661702620E+02  0.73661702620E+02  0.00000000000E+00 0.  1.
          1   -1    0    0  501    0  0.00000000000E+00 -0.00000000000E+00 -0.21234758598E+03  0.21234758598E+03  0.00000000000E+00 0. -1.
         25    2    1    2    0    0  0.26248513588E+02 -0.36142014667E+02 -0.31981216862E+02  0.13661652727E+03  0.12508416207E+03 0.  0.
         23    2    1    2    0    0 -0.26248513588E+02  0.36142014667E+02 -0.10670466650E+03  0.14939276134E+03  0.94536139104E+02 0.  0.
          5    1    3    3  502    0  0.10495375298E+02 -0.70283323153E+02  0.18483078346E+02  0.73545870049E+02  0.41800000000E+01 0.  1.
         -5    1    3    3    0  502  0.15753138290E+02  0.34141308486E+02 -0.50464295208E+02  0.63070657219E+02  0.41800000000E+01 0.  1.
        -11    1    4    4    0    0  0.35414212969E+01 -0.16637482801E+02 -0.82329617110E+02  0.84068503925E+02  0.00000000000E+00 0. -1.
         11    1    4    4    0    0 -0.29789934885E+02  0.52779497468E+02 -0.24375049392E+02  0.65324257411E+02  0.00000000000E+00 0.  1.
</event>
<event>
 8    1  0.7281309E-009  0.1863569E+03  0.7561462E-02  0.1161789E+00
         -2   -1    0    0    0  501 -0.00000000000E+00  0.00000000000E+00  0.33307163338E+02  0.33307163338E+02  0.00000000000E+00 0.  1.
          2   -1    0    0  501    0  0.00000000000E+00 -0.00000000000E+00 -0.11100792539E+04  0.11100792539E+04  0.00000000000E+00 0. -1.
         25    2    1    2    0    0 -0.45581368418E+02  0.14747179758E+03 -0.63933974948E+03  0.66949886225E+03  0.12509124296E+03 0.  0.
         23    2    1    2    0    0  0.45581368418E+02 -0.14747179758E+03 -0.43743234104E+03  0.47388755494E+03  0.96936935760E+02 0.  0.
          5    1    3    3  502    0 -0.86391700529E+02  0.84565120950E+02 -0.44515151687E+03  0.46129397457E+03  0.41800000000E+01 0.  1.
         -5    1    3    3    0  502  0.40810332111E+02  0.62906676628E+02 -0.19418823261E+03  0.20820488768E+03  0.41800000000E+01 0.  1.
        -11    1    4    4    0    0  0.71235201279E+02 -0.10149015408E+03 -0.35541495819E+03  0.37642329601E+03  0.00000000000E+00 0. -1.
         11    1    4    4    0    0 -0.25653832861E+02 -0.45981643496E+02 -0.82017382851E+02  0.97464258930E+02  0.00000000000E+00 0.  1.
</event>
<event>
 8    1  0.7281309E-009  0.1021106E+03  0.7561462E-02  0.1275919E+00
          2   -1    0    0  501    0  0.00000000000E+00  0.00000000000E+00  0.15230494296E+03  0.15230494296E+03  0.00000000000E+00 0.  1.
         -2   -1    0    0    0  501 -0.00000000000E+00 -0.00000000000E+00 -0.82643713485E+02  0.82643713485E+02  0.00000000000E+00 0. -1.
         25    2    1    2    0    0 -0.28403451333E+02 -0.11790960622E+00  0.49157832328E+02  0.13737210249E+03  0.12509129511E+03 0.  0.
         23    2    1    2    0    0  0.28403451333E+02  0.11790960622E+00  0.20503397149E+02  0.97576553959E+02  0.91071535825E+02 0.  0.
          5    1    3    3  502    0 -0.91382148319E+01 -0.53105609215E+02  0.58969353403E+02  0.79991060383E+02  0.41800000000E+01 0.  1.
         -5    1    3    3    0  502 -0.19265236501E+02  0.52987699609E+02 -0.98115210757E+01  0.57381042105E+02  0.41800000000E+01 0.  1.
        -11    1    4    4    0    0  0.60354691009E+02 -0.74190937178E+01  0.42826287207E+01  0.60959597991E+02  0.00000000000E+00 0.  1.
         11    1    4    4    0    0 -0.31951239676E+02  0.75370033240E+01  0.16220768428E+02  0.36616955968E+02  0.00000000000E+00 0. -1.
</event>
<event>
 7    1  0.7281309E-009  0.2124215E+03  0.7561462E-02  0.1139663E+00
         -1   -1    0    0    0  501 -0.00000000000E+00  0.00000000000E+00  0.10274352938E+03  0.10274352938E+03  0.00000000000E+00 0.  1.
          1   -1    0    0  501    0  0.00000000000E+00 -0.00000000000E+00 -0.50634144043E+03  0.50634144043E+03  0.00000000000E+00 0. -1.
         23    2    1    2    0    0  0.10546981667E+03 -0.16845420879E+03 -0.16698087279E+03  0.27574517794E+03  0.93016603856E+02 0.  0.
          5    1    1    2  502    0  0.10754658868E+02  0.73195329524E+02 -0.35277842551E+02  0.82068371049E+02  0.41800000000E+01 0.  1.
         -5    1    1    2    0  502 -0.11622447554E+03  0.95258879261E+02 -0.20133919571E+03  0.25127142082E+03  0.41800000000E+01 0.  1.
        -11    1    3    3    0    0  0.49993394934E+02 -0.56342433185E+02 -0.11506822513E+02  0.76198531997E+02  0.00000000000E+00 0.  1.
         11    1    3    3    0    0  0.55476421737E+02 -0.11211177560E+03 -0.15547405028E+03  0.19954664594E+03  0.00000000000E+00 0. -1.
</event>
<event>
 8    1  0.7281309E-009  0.9561730E+02  0.7561462E-02  0.1289792E+00
         -2   -1    0    0    0  501 -0.00000000000E+00  0.00000000000E+00  0.25980421255E+02  0.25980421255E+02  0.00000000000E+00 0.  1.
          2   -1    0    0  501    0  0.00000000000E+00 -0.00000000000E+00 -0.50991151494E+03  0.50991151494E+03  0.00000000000E+00 0. -1.
         25    2    1    2    0    0  0.31909542096E+02  0.25368572072E+02 -0.28897430619E+03  0.31751566930E+03  0.12509303453E+03 0.  0.
         23    2    1    2    0    0 -0.31909542096E+02 -0.25368572072E+02 -0.19495678750E+03  0.21837626690E+03  0.89544746505E+02 0.  0.
          5    1    3    3  502    0  0.61378666566E+02  0.25464597169E+02 -0.70305157957E+02  0.96830129886E+02  0.41800000000E+01 0.  1.
         -5    1    3    3    0  502 -0.29469124469E+02 -0.96025097113E-01 -0.21866914823E+03  0.22068553941E+03  0.41800000000E+01 0.  1.
        -11    1    4    4    0    0  0.13652217949E+02 -0.43695093674E+02 -0.12314123329E+03  0.13137506462E+03  0.00000000000E+00 0.  1.
         11    1    4    4    0    0 -0.45561760046E+02  0.18326521602E+02 -0.71815554205E+02  0.87001202280E+02  0.00000000000E+00 0. -1.
</event>
<event>
 8    1  0.7281309E-009  0.1177711E+03  0.7561462E-02  0.1246820E+00
         -1   -1    0    0    0  501 -0.00000000000E+00  0.00000000000E+00  0.11964117962E+03  0.11964117962E+03  0.00000000000E+00 0.  1.
          1   -1    0    0  501    0  0.00000000000E+00 -0.00000000000E+00 -0.13299890282E+03  0.13299890282E+03  0.00000000000E+00 0. -1.
         25    2    1    2    0    0  0.59810481311E+02 -0.28921254116E+02 -0.15258401433E+02  0.14244696110E+03  0.12507831666E+03 0.  0.
         23    2    1    2    0    0 -0.59810481311E+02  0.28921254116E+02  0.19006782354E+01  0.11019312134E+03  0.87892996303E+02 0.  0.
          5    1    3    3  502    0 -0.32181697075E+02 -0.20730951028E+02 -0.30017364894E+02  0.48825695616E+02  0.41800000000E+01 0. -1.
         -5    1    3    3    0  502  0.91992178386E+02 -0.81903030877E+01  0.14758963461E+02  0.93621265486E+02  0.41800000000E+01 0. -1.
        -11    1    4    4    0    0 -0.75089920608E+02  0.40589206994E+02  0.15354661126E+02  0.86727997323E+02  0.00000000000E+00 0.  1.
         11    1    4    4    0    0  0.15279439297E+02 -0.11667952878E+02 -0.13453982891E+02  0.23465124019E+02  0.00000000000E+00 0. -1.
</event>
<event>
 8    1  0.7281309E-009  0.1006136E+03  0.7561462E-02  0.1279011E+00
          1   -1    0    0  501    0  0.00000000000E+00  0.00000000000E+00  0.16859297179E+03  0.16859297179E+03  0.00000000000E+00 0. -1.
         -1   -1    0    0    0  501 -0.00000000000E+00 -0.00000000000E+00 -0.12450571877E+03  0.12450571877E+03  0.00000000000E+00 0.  1.
         25    2    1    2    0    0 -0.84663749297E+02  0.16106063565E+02  0.66931427362E+02  0.16598806783E+03  0.12507944262E+03 0.  0.
         23    2    1    2    0    0  0.84663749297E+02 -0.16106063565E+02 -0.22844174345E+02  0.12711062273E+03  0.90597452393E+02 0.  0.
          5    1    3    3  502    0  0.48622120489E+01 -0.15807918376E+02  0.68749831528E+02  0.70834618123E+02  0.41800000000E+01 0.  1.
         -5    1    3    3    0  502 -0.89525961346E+02  0.31913981941E+02 -0.18184041663E+01  0.95153449711E+02  0.41800000000E+01 0.  1.
        -11    1    4    4    0    0  0.38491505164E+02 -0.18687376425E+02 -0.55805839178E+02  0.70321445476E+02  0.00000000000E+00 0.  1.
         11    1    4    4    0    0  0.46172244133E+02  0.25813128603E+01  0.32961664833E+02  0.56789177252E+02  0.00000000000E+00 0. -1.
</event>
<event>
 8    1  0.7281309E-009  0.1499979E+03  0.7561462E-02  0.1200476E+00
         -2   -1    0    0    0  501 -0.00000000000E+00  0.00000000000E+00  0.86791558066E+02  0.86791558066E+02  0.00000000000E+00 0.  1.
          2   -1    0    0  501    0  0.00000000000E+00 -0.00000000000E+00 -0.37399143630E+03  0.37399143630E+03  0.00000000000E+00 0. -1.
         25    2    1    2    0    0  0.12086919323E+03 -0.22912786045E+02 -0.58714725287E+02  0.18500680682E+03  0.12508294036E+03 0.  0.
         23    2    1    2    0    0 -0.12086919323E+03  0.22912786045E+02 -0.22848515295E+03  0.27577618754E+03  0.93341753054E+02 0.  0.
          5    1    3    3  502    0  0.19457351173E+02  0.37721894793E+02 -0.51059790864E+02  0.66528974924E+02  0.41800000000E+01 0. -1.
         -5    1    3    3    0  502  0.10141184206E+03 -0.60634680838E+02 -0.76549344230E+01  0.11847783190E+03  0.41800000000E+01 0. -1.
        -11    1    4    4    0    0 -0.35702255338E+02  0.38530681644E+02 -0.33160752907E+02  0.62120045054E+02  0.00000000000E+00 0.  1.
         11    1    4    4    0    0 -0.85166937893E+02 -0.15617895599E+02 -0.19532440004E+03  0.21365614249E+03  0.00000000000E+00 0. -1.
</event>
<event>
 8    1  0.7281309E-009  0.9668126E+02  0.7561462E-02  0.1287434E+00
         -1   -1    0    0    0  501 -0.00000000000E+00  0.00000000000E+00  0.72829447106E+02  0.72829447106E+02  0.00000000000E+00 0.  1.
          1   -1    0    0  501    0  0.00000000000E+00 -0.00000000000E+00 -0.23815110882E+03  0.23815110882E+03  0.00000000000E+00 0. -1.
         25    2    1    2    0    0 -0.23638956246E+01  0.31222200767E+02 -0.12356693773E+02  0.12954083620E+03  0.12509087312E+03 0.  0.
         23    2    1    2    0    0  0.23638956246E+01 -0.31222200767E+02 -0.15296496794E+03  0.18143971973E+03  0.92421191594E+02 0.  0.
          5    1    3    3  502    0  0.49651222991E+02  0.20950497927E+02 -0.42182945212E+02  0.68564134754E+02  0.41800000000E+01 0. -1.
         -5    1    3    3    0  502 -0.52015118616E+02  0.10271702839E+02  0.29826251439E+02  0.60976701442E+02  0.41800000000E+01 0. -1.
        -11    1    4    4    0    0  0.37018546434E+02  0.33569727428E+01 -0.11066540859E+03  0.11674105835E+03  0.00000000000E+00 0.  1.
         11    1    4    4    0    0 -0.34654650809E+02 -0.34579173509E+02 -0.42299559351E+02  0.64698661382E+02  0.00000000000E+00 0. -1.
</event>
<event>
 8    1  0.7281309E-009  0.1729382E+03  0.7561462E-02  0.1174818E+00
         -2   -1    0    0    0  501 -0.00000000000E+00  0.00000000000E+00  0.46477792548E+02  0.46477792548E+02  0.00000000000E+00 0.  1.
          2   -1    0    0  501    0  0.00000000000E+00 -0.00000000000E+00 -0.10004397461E+04  0.10004397461E+04  0.00000000000E+00 0. -1.
         25    2    1    2    0    0  0.88025663018E+02 -0.12970818922E+03 -0.74218275772E+03  0.76880158965E+03  0.12509159315E+03 0.  0.
         23    2    1    2    0    0 -0.88025663018E+02  0.12970818922E+03 -0.21177919579E+03  0.27811594897E+03  0.89024275340E+02 0.  0.
          5    1    3    3  502    0  0.52439982346E+02 -0.13024752988E+02 -0.88155067982E+02  0.10348132368E+03  0.41800000000E+01 0.  1.
         -5    1    3    3    0  502  0.35585680672E+02 -0.11668343623E+03 -0.65402768974E+03  0.66532026597E+03  0.41800000000E+01 0.  1.
        -11    1    4    4    0    0 -0.12701588151E+02  0.76137338043E+02 -0.50543557137E+02  0.92265246729E+02  0.00000000000E+00 0.  1.
         11    1    4    4    0    0 -0.75324074867E+02  0.53570851175E+02 -0.16123563866E+03  0.18585070224E+03  0.00000000000E+00 0. -1.
</event>
<event>
 8    1  0.7281309E-009  0.9206570E+02  0.7561462E-02  0.1297925E+00
         -2   -1    0    0    0  501 -0.00000000000E+00  0.00000000000E+00  0.16558410183E+03  0.16558410183E+03  0.00000000000E+00 0.  1.
          2   -1    0    0  501    0  0.00000000000E+00 -0.00000000000E+00 -0.72759718799E+02  0.72759718799E+02  0.00000000000E+00 0. -1.
         25    2    1    2    0    0  0.50200561850E+01 -0.18163424539E+02  0.66174944434E+02  0.14276466613E+03  0.12509003025E+03 0.  0.
         23    2    1    2    0    0 -0.50200561850E+01  0.18163424539E+02  0.26649438592E+02  0.95579154499E+02  0.89833575251E+02 0.  0.
          5    1    3    3  502    0  0.30928849547E+02 -0.49296270320E+02  0.80656859914E+02  0.99547563772E+02  0.41800000000E+01 0. -1.
         -5    1    3    3    0  502 -0.25908793362E+02  0.31132845781E+02 -0.14481915480E+02  0.43217102353E+02  0.41800000000E+01 0. -1.
        -11    1    4    4    0    0 -0.27521417831E+01  0.51540276898E+02  0.33363704180E+02  0.61458206806E+02  0.00000000000E+00 0.  1.
         11    1    4    4    0    0 -0.22679144019E+01 -0.33376852359E+02 -0.67142655877E+01  0.34120947694E+02  0.00000000000E+00 0. -1.
</event>
<event>
 8    1  0.7281309E-009  0.1056143E+03  0.7561462E-02  0.1268914E+00
         -1   -1    0    0    0  501 -0.00000000000E+00  0.00000000000E+00  0.98017597995E+02  0.98017597995E+02  0.00000000000E+00 0.  1.
          1   -1    0    0  501    0  0.00000000000E+00 -0.00000000000E+00 -0.13161640743E+03  0.13161640743E+03  0.00000000000E+00 0. -1.
         25    2    1    2    0    0  0.16349833277E+02  0.74151063488E+01 -0.46470941465E+02  0.13463450139E+03  0.12507837428E+03 0.  0.
         23    2    1    2    0    0 -0.16349833277E+02 -0.74151063488E+01  0.12872132031E+02  0.94999504039E+02  0.92395417279E+02 0.  0.
          5    1    3    3  502    0  0.66546060082E+02 -0.10536494591E+02 -0.63881183089E+01  0.67806167022E+02  0.41800000000E+01 0.  1.
         -5    1    3    3    0  502 -0.50196226805E+02  0.17951600939E+02 -0.40082823156E+02  0.66828334364E+02  0.41800000000E+01 0.  1.
        -11    1    4    4    0    0 -0.24529187071E+02  0.37382996709E+02 -0.71024978889E+01  0.45272673188E+02  0.00000000000E+00 0. -1.
         11    1    4    4    0    0  0.81793537935E+01 -0.44798103058E+02  0.19974629920E+02  0.49726830851E+02  0.00000000000E+00 0.  1.
</event>
<event>
 8    1  0.7281309E-009  0.9749217E+02  0.7561462E-02  0.1285660E+00
          3   -1    0    0  501    0  0.00000000000E+00  0.00000000000E+00  0.71019906751E+02  0.71019906751E+02  0.00000000000E+00 0. -1.
         -3   -1    0    0    0  501 -0.00000000000E+00 -0.00000000000E+00 -0.18602845385E+03  0.18602845385E+03  0.00000000000E+00 0.  1.
         25    2    1    2    0    0  0.11055364598E+01  0.31913465325E+02 -0.38880066855E+02  0.13482894207E+03  0.12508993781E+03 0.  0.
         23    2    1    2    0    0 -0.11055364598E+01 -0.31913465325E+02 -0.76128480245E+02  0.12221941853E+03  0.90124077151E+02 0.  0.
          5    1    3    3  502    0  0.61278178733E+02  0.10357045934E+02 -0.33043310299E+02  0.70509689723E+02  0.41800000000E+01 0. -1.
         -5    1    3    3    0  502 -0.60172642273E+02  0.21556419391E+02 -0.58367565557E+01  0.64319252344E+02  0.41800000000E+01 0. -1.
        -11    1    4    4    0    0  0.25302043052E+02 -0.33738714795E+02 -0.84514621902E+02  0.94452186708E+02  0.00000000000E+00 0.  1.
         11    1    4    4    0    0 -0.26407579512E+02  0.18252494705E+01  0.83861416579E+01  0.27767231825E+02  0.00000000000E+00 0. -1.
</event>
<event>
 8    1  0.7281309E-009  0.1841766E+03  0.7561462E-02  0.1163821E+00
         -2   -1    0    0    0  501 -0.00000000000E+00  0.00000000000E+00  0.25839848000E+02  0.25839848000E+02  0.00000000000E+00 0.  1.
          2   -1    0    0  501    0  0.00000000000E+00 -0.00000000000E+00 -0.18068920102E+04  0.18068920102E+04  0.00000000000E+00 0. -1.
         25    2    1    2    0    0  0.37009670520E+02 -0.17421182435E+03 -0.11535880126E+04  0.11739389230E+04  0.12509123359E+03 0.  0.
         23    2    1    2    0    0 -0.37009670520E+02  0.17421182435E+03 -0.62746414957E+03  0.65879293515E+03  0.92614237273E+02 0.  0.
          5    1    3    3  502    0  0.40202688327E+02 -0.43587466714E+02 -0.14202385911E+03  0.15396224329E+03  0.41800000000E+01 0. -1.
         -5    1    3    3    0  502 -0.31930178071E+01 -0.13062435764E+03 -0.10115641535E+04  0.10199766797E+04  0.41800000000E+01 0. -1.
        -11    1    4    4    0    0 -0.50063079477E+01  0.33613130744E+02 -0.34036240387E+02  0.48097519035E+02  0.00000000000E+00 0.  1.
         11    1    4    4    0    0 -0.32003362572E+02  0.14059869361E+03 -0.59342790919E+03  0.61069541611E+03  0.00000000000E+00 0. -1.
</event>
<event>
 8    1  0.7281309E-009  0.1143233E+03  0.7561462E-02  0.1252767E+00
         -1   -1    0    0    0  501 -0.00000000000E+00  0.00000000000E+00  0.29582715438E+02  0.29582715438E+02  0.00000000000E+00 0.  1.
          1   -1    0    0  501    0  0.00000000000E+00 -0.00000000000E+00 -0.83897819086E+03  0.83897819086E+03  0.00000000000E+00 0. -1.
         25    2    1    2    0    0 -0.72748637926E+02  0.29662797856E+02 -0.66219671987E+03  0.67847257688E+03  0.12509314877E+03 0.  0.
         23    2    1    2    0    0  0.72748637926E+02 -0.29662797856E+02 -0.14719875555E+03  0.19008832942E+03  0.91070595968E+02 0.  0.
          5    1    3    3  502    0  0.20694354060E+02  0.46856681547E+02 -0.27550957937E+03  0.28026203028E+03  0.41800000000E+01 0. -1.
         -5    1    3    3    0  502 -0.93442991985E+02 -0.17193883691E+02 -0.38668714050E+03  0.39821054659E+03  0.41800000000E+01 0. -1.
        -11    1    4    4    0    0  0.22570812896E+02  0.22510180591E+01  0.78691064281E+01  0.24008988173E+02  0.00000000000E+00 0.  1.
         11    1    4    4    0    0  0.50177825030E+02 -0.31913815915E+02 -0.15506786198E+03  0.16607934125E+03  0.00000000000E+00 0. -1.
</event>
<event>
 8    1  0.7281309E-009  0.1229748E+03  0.7561462E-02  0.1238269E+00
          1   -1    0    0  501    0  0.00000000000E+00  0.00000000000E+00  0.70732502285E+03  0.70732502285E+03  0.00000000000E+00 0. -1.
         -1   -1    0    0    0  501 -0.00000000000E+00 -0.00000000000E+00 -0.34240582039E+02  0.34240582039E+02  0.00000000000E+00 0.  1.
         25    2    1    2    0    0  0.28914379130E+02  0.10573192344E+03  0.32689528186E+03  0.36677449818E+03  0.12509087199E+03 0.  0.
         23    2    1    2    0    0 -0.28914379130E+02 -0.10573192344E+03  0.34618915895E+03  0.37479110671E+03  0.92769385805E+02 0.  0.
          5    1    3    3  502    0  0.46545161855E+02  0.42617949083E+02  0.45740963673E+02  0.78054146808E+02  0.41800000000E+01 0. -1.
         -5    1    3    3    0  502 -0.17630782725E+02  0.63113974354E+02  0.28115431819E+03  0.28872035137E+03  0.41800000000E+01 0. -1.
        -11    1    4    4    0    0  0.64487920604E+01 -0.53948857188E+02  0.56471583720E+02  0.78365208344E+02  0.00000000000E+00 0.  1.
         11    1    4    4    0    0 -0.35363171190E+02 -0.51783066249E+02  0.28971757523E+03  0.29642589837E+03  0.00000000000E+00 0. -1.
</event>
<event>
 8    1  0.7281309E-009  0.1077848E+03  0.7561462E-02  0.1264728E+00
          2   -1    0    0  501    0  0.00000000000E+00  0.00000000000E+00  0.89408426103E+03  0.89408426103E+03  0.00000000000E+00 0. -1.
         -2   -1    0    0    0  501 -0.00000000000E+00 -0.00000000000E+00 -0.42728828730E+02  0.42728828730E+02  0.00000000000E+00 0.  1.
         25    2    1    2    0    0  0.20898348889E+02  0.70630858293E+02  0.77523853502E+03  0.78871194905E+03  0.12508514405E+03 0.  0.
         23    2    1    2    0    0 -0.20898348889E+02 -0.70630858293E+02  0.76116897281E+02  0.14810114071E+03  0.10351186743E+03 0.  0.
          5    1    3    3  502    0  0.66779797732E+02  0.67761615250E+02  0.59928811097E+03  0.60680712771E+03  0.41800000000E+01 0. -1.
         -5    1    3    3    0  502 -0.45881448843E+02  0.28692430437E+01  0.17595042405E+03  0.18190482134E+03  0.41800000000E+01 0. -1.
        -11    1    4    4    0    0 -0.19688263335E+02 -0.53531413586E+02 -0.12039116911E+02  0.58293912973E+02  0.00000000000E+00 0.  1.
         11    1    4    4    0    0 -0.12100855544E+01 -0.17099444707E+02  0.88156014192E+02  0.89807227741E+02  0.00000000000E+00 0. -1.
</event>
<event>
 8    1  0.7281309E-009  0.1686477E+03  0.7561462E-02  0.1179265E+00
          1   -1    0    0  501    0  0.00000000000E+00  0.00000000000E+00  0.66976611910E+03  0.66976611910E+03  0.00000000000E+00 0. -1.
         -1   -1    0    0    0  501 -0.00000000000E+00 -0.00000000000E+00 -0.48907767550E+02  0.48907767550E+02  0.00000000000E+00 0.  1.
         25    2    1    2    0    0  0.14496496965E+03 -0.33697821444E+01  0.33420494799E+03  0.38518291711E+03  0.12508690784E+03 0.  0.
         23    2    1    2    0    0 -0.14496496965E+03  0.33697821444E+01  0.28665340356E+03  0.33349096954E+03  0.89553643893E+02 0.  0.
          5    1    3    3  502    0  0.13848653844E+03 -0.45496335461E+02  0.22775179871E+03  0.27043814836E+03  0.41800000000E+01 0. -1.
         -5    1    3    3    0  502  0.64784312157E+01  0.42126553316E+02  0.10645314928E+03  0.11474476875E+03  0.41800000000E+01 0. -1.
        -11    1    4    4    0    0 -0.61743487739E+02  0.17619129581E+02  0.20949288968E+03  0.21911175877E+03  0.00000000000E+00 0. -1.
         11    1    4    4    0    0 -0.83221481915E+02 -0.14249347437E+02  0.77160513887E+02  0.11437921078E+03  0.00000000000E+00 0.  1.
</event>
<event>
 8    1  0.7281309E-009  0.1753643E+03  0.7561462E-02  0.1172366E+00
         -2   -1    0    0    0  501 -0.00000000000E+00  0.00000000000E+00  0.91912816977E+02  0.91912816977E+02  0.00000000000E+00 0.  1.
          2   -1    0    0  501    0  0.00000000000E+00 -0.00000000000E+00 -0.51218344746E+03  0.51218344746E+03  0.00000000000E+00 0. -1.
         25    2    1    2    0    0  0.95635948240E+02 -0.14452817244E+03 -0.32179761082E+03  0.38630832854E+03  0.12508315294E+03 0.  0.
         23    2    1    2    0    0 -0.95635948240E+02  0.14452817244E+03 -0.98473019666E+02  0.21778793589E+03  0.87749770336E+02 0.  0.
          5    1    3    3  502    0  0.49956798446E+02 -0.79665193037E+02 -0.28231847681E+03  0.29759606758E+03  0.41800000000E+01 0. -1.
         -5    1    3    3    0  502  0.45679149794E+02 -0.64862979403E+02 -0.39479134009E+02  0.88712260962E+02  0.41800000000E+01 0. -1.
        -11    1    4    4    0    0 -0.63907581578E+02  0.12361772259E+03 -0.11075370074E+03  0.17785359864E+03  0.00000000000E+00 0. -1.
         11    1    4    4    0    0 -0.31728366662E+02  0.20910449852E+02  0.12280681078E+02  0.39934337253E+02  0.00000000000E+00 0.  1.
</event>
<event>
 8    1  0.7281309E-009  0.1343299E+03  0.7561462E-02  0.1221169E+00
          2   -1    0    0  501    0  0.00000000000E+00  0.00000000000E+00  0.35306958195E+03  0.35306958195E+03  0.00000000000E+00 0.  1.
         -2   -1    0    0    0  501 -0.00000000000E+00 -0.00000000000E+00 -0.61747383004E+02  0.61747383004E+02  0.00000000000E+00 0. -1.
         25    2    1    2    0    0  0.83148175777E+02 -0.53301377848E+02  0.17406493919E+03  0.23600671691E+03  0.12508361745E+03 0.  0.
         23    2    1    2    0    0 -0.83148175777E+02  0.53301377848E+02  0.11725725975E+03  0.17881024804E+03  0.92028168654E+02 0.  0.
          5    1    3    3  502    0  0.95667692918E+02 -0.65627636498E+02  0.81857170033E+02  0.14204704441E+03  0.41800000000E+01 0. -1.
         -5    1    3    3    0  502 -0.12519517141E+02  0.12326258650E+02  0.92207769160E+02  0.93959672494E+02  0.41800000000E+01 0. -1.
        -11    1    4    4    0    0 -0.94594287512E+02  0.67547713936E+02  0.95810638701E+02  0.15063350018E+03  0.00000000000E+00 0. -1.
         11    1    4    4    0    0  0.11446111735E+02 -0.14246336088E+02  0.21446621051E+02  0.28176747866E+02  0.00000000000E+00 0.  1.
</event>
<event>
 8    1  0.7281309E-009  0.1099518E+03  0.7561462E-02  0.1260659E+00
          2   -1    0    0  501    0  0.00000000000E+00  0.00000000000E+00  0.99441006583E+03  0.99441006583E+03  0.00000000000E+00 0. -1.
         -2   -1    0    0    0  501 -0.00000000000E+00 -0.00000000000E+00 -0.13184825002E+02  0.13184825002E+02  0.00000000000E+00 0.  1.
         25    2    1    2    0    0  0.32312786560E+02 -0.10964061156E+02  0.48167953474E+03  0.49882580389E+03  0.12509069359E+03 0.  0.
         23    2    1    2    0    0 -0.32312786560E+02  0.10964061156E+02  0.49954570609E+03  0.50876908694E+03  0.90198362228E+02 0.  0.
          5    1    3    3  502    0 -0.20829029884E+02  0.43077884830E+02  0.11978663434E+03  0.12905759495E+03  0.41800000000E+01 0.  1.
         -5    1    3    3    0  502  0.53141816444E+02 -0.54041945986E+02  0.36189290040E+03  0.36976820894E+03  0.41800000000E+01 0.  1.
        -11    1    4    4    0    0 -0.28383783749E+02  0.49590092689E+02  0.27226656060E+03  0.27819758535E+03  0.00000000000E+00 0. -1.
         11    1    4    4    0    0 -0.39290028113E+01 -0.38626031534E+02  0.22727914549E+03  0.23057150160E+03  0.00000000000E+00 0.  1.
</event>
<event>
 8    1  0.7281309E-009  0.2184678E+03  0.7561462E-02  0.1135031E+00
          2   -1    0    0  501    0  0.00000000000E+00  0.00000000000E+00  0.47468385889E+03  0.47468385889E+03  0.00000000000E+00 0. -1.
         -2   -1    0    0    0  501 -0.00000000000E+00 -0.00000000000E+00 -0.17961519763E+03  0.17961519763E+03  0.00000000000E+00 0.  1.
         25    2    1    2    0    0 -0.75422326446E+02 -0.18915956078E+03 -0.49343424097E+02  0.24403387824E+03  0.12509154034E+03 0.  0.
         23    2    1    2    0    0  0.75422326446E+02  0.18915956078E+03  0.34441208536E+03  0.41026517829E+03  0.90708132032E+02 0.  0.
          5    1    3    3  502    0 -0.85860674066E+02 -0.19059455642E+03 -0.69984573191E+02  0.22048504070E+03  0.41800000000E+01 0.  1.
         -5    1    3    3    0  502  0.10438347620E+02  0.14349956389E+01  0.20641149095E+02  0.23548837539E+02  0.41800000000E+01 0.  1.
        -11    1    4    4    0    0  0.51216205845E+02  0.18499669915E+03  0.33005425496E+03  0.38181499401E+03  0.00000000000E+00 0.  1.
         11    1    4    4    0    0  0.24206120601E+02  0.41628616216E+01  0.14357830399E+02  0.28450184273E+02  0.00000000000E+00 0. -1.
</event>
<event>
 8    1  0.7281309E-009  0.8456235E+02  0.7561462E-02  0.1316581E+00
         -1   -1    0    0    0  501 -0.00000000000E+00  0.00000000000E+00  0.11517721721E+03  0.11517721721E+03  0.00000000000E+00 0.  1.
          1   -1    0    0  501    0  0.00000000000E+00 -0.00000000000E+00 -0.18572278030E+03  0.18572278030E+03  0.00000000000E+00 0. -1.
         25    2    1    2    0    0 -0.29329466782E+02  0.28949650000E+02 -0.12964078930E+03  0.18480427702E+03  0.12509031417E+03 0.  0.
         23    2    1    2    0    0  0.29329466782E+02 -0.28949650000E+02  0.59095226202E+02  0.11609572049E+03  0.91036644819E+02 0.  0.
          5    1    3    3  502    0  0.15571384466E+02  0.16976935778E+02  0.18277321570E+02  0.29702142118E+02  0.41800000000E+01 0.  1.
         -5    1    3    3    0  502 -0.44900851248E+02  0.11972714221E+02 -0.14791811087E+03  0.15510213490E+03  0.41800000000E+01 0.  1.
        -11    1    4    4    0    0  0.58060114924E+02  0.29143847125E+00  0.42102911764E+02  0.71719711798E+02  0.00000000000E+00 0.  1.
         11    1    4    4    0    0 -0.28730648142E+02 -0.29241088471E+02  0.16992314438E+02  0.44376008694E+02  0.00000000000E+00 0. -1.
</event>
<event>
 8    1  0.7281309E-009  0.1219123E+03  0.7561462E-02  0.1239975E+00
          2   -1    0    0  501    0  0.00000000000E+00  0.00000000000E+00  0.85607411398E+03  0.85607411398E+03  0.00000000000E+00 0.  1.
         -2   -1    0    0    0  501 -0.00000000000E+00 -0.00000000000E+00 -0.20191896980E+02  0.20191896980E+02  0.00000000000E+00 0. -1.
         25    2    1    2    0    0  0.19990183182E+02 -0.64388691695E+02  0.55154044000E+03  0.56955272171E+03  0.12509170563E+03 0.  0.
         23    2    1    2    0    0 -0.19990183182E+02  0.64388691695E+02  0.28434177700E+03  0.30671328924E+03  0.93151943675E+02 0.  0.
          5    1    3    3  502    0 -0.47662544676E+02 -0.37863906894E+02  0.15868166530E+03  0.17000804956E+03  0.41800000000E+01 0. -1.
         -5    1    3    3    0  502  0.67652727858E+02 -0.26524784800E+02  0.39285877469E+03  0.39954467216E+03  0.41800000000E+01 0. -1.
        -11    1    4    4    0    0  0.34515896984E+02  0.28505642182E+02  0.74053482079E+02  0.86532288707E+02  0.00000000000E+00 0. -1.
         11    1    4    4    0    0 -0.54506080166E+02  0.35883049513E+02  0.21028829492E+03  0.22018100054E+03  0.00000000000E+00 0.  1.
</event>
<event>
 8    1  0.7281309E-009  0.1140556E+03  0.7561462E-02  0.1253239E+00
          2   -1    0    0  501    0  0.00000000000E+00  0.00000000000E+00  0.92224338020E+02  0.92224338020E+02  0.00000000000E+00 0. -1.
         -2   -1    0    0    0  501 -0.00000000000E+00 -0.00000000000E+00 -0.23434712610E+03  0.23434712610E+03  0.00000000000E+00 0.  1.
         25    2    1    2    0    0  0.20209358723E+02  0.70509778179E+02 -0.15163215342E+03  0.20980845259E+03  0.12508888770E+03 0.  0.
         23    2    1    2    0    0 -0.20209358723E+02 -0.70509778179E+02  0.95093653384E+01  0.11676301154E+03  0.90350018459E+02 0.  0.
          5    1    3    3  502    0  0.99293108223E+01 -0.31743932576E+02 -0.10410665272E+02  0.35101607088E+02  0.41800000000E+01 0. -1.
         -5    1    3    3    0  502  0.10280047901E+02  0.10225371075E+03 -0.14122148815E+03  0.17470684550E+03  0.41800000000E+01 0. -1.
        -11    1    4    4    0    0  0.13562090949E+02 -0.50915020626E+02  0.40870401042E+02  0.66683276146E+02  0.00000000000E+00 0. -1.
         11    1    4    4    0    0 -0.33771449673E+02 -0.19594757553E+02 -0.31361035703E+02  0.50079735392E+02  0.00000000000E+00 0.  1.
</event>
<event>
 8    1  0.7281309E-009  0.2348338E+03  0.7561462E-02  0.1123283E+00
         -2   -1    0    0    0  501 -0.00000000000E+00  0.00000000000E+00  0.54356741288E+03  0.54356741288E+03  0.00000000000E+00 0.  1.
          2   -1    0    0  501    0  0.00000000000E+00 -0.00000000000E+00 -0.56652921565E+03  0.56652921565E+03  0.00000000000E+00 0. -1.
         25    2    1    2    0    0  0.31180821482E+02 -0.22889024689E+03 -0.50430228361E+03  0.56862186841E+03  0.12508815783E+03 0.  0.
         23    2    1    2    0    0 -0.31180821482E+02  0.22889024689E+03  0.48134048085E+03  0.54147476012E+03  0.90240060925E+02 0.  0.
          5    1    3    3  502    0  0.17410236158E+02 -0.24969947777E+02 -0.19798134786E+03  0.20035144401E+03  0.41800000000E+01 0. -1.
         -5    1    3    3    0  502  0.13770585325E+02 -0.20392029911E+03 -0.30632093575E+03  0.36827042440E+03  0.41800000000E+01 0. -1.
        -11    1    4    4    0    0  0.84943061575E+01  0.79233797894E+02  0.87783537087E+02  0.11855841324E+03  0.00000000000E+00 0.  1.
         11    1    4    4    0    0 -0.39675127640E+02  0.14965644899E+03  0.39355694376E+03  0.42291634688E+03  0.00000000000E+00 0. -1.
</event>
<event>
 8    1  0.7281309E-009  0.2528953E+03  0.7561462E-02  0.1111489E+00
          2   -1    0    0  501    0  0.00000000000E+00  0.00000000000E+00  0.87780771832E+03  0.87780771832E+03  0.00000000000E+00 0. -1.
         -2   -1    0    0    0  501 -0.00000000000E+00 -0.00000000000E+00 -0.84281524660E+02  0.84281524660E+02  0.00000000000E+00 0.  1.
         25    2    1    2    0    0  0.22957456035E+03 -0.62662839843E+02  0.53680921423E+03  0.60035858980E+03  0.12504076776E+03 0.  0.
         23    2    1    2    0    0 -0.22957456035E+03  0.62662839843E+02  0.25671697943E+03  0.36173065318E+03  0.91183044839E+02 0.  0.
          5    1    3    3  502    0  0.34481729166E+02 -0.61637277474E+02  0.10635994773E+03  0.12774214066E+03  0.41800000000E+01 0. -1.
         -5    1    3    3    0  502  0.19509283119E+03 -0.10255623689E+01  0.43044926651E+03  0.47261644914E+03  0.41800000000E+01 0. -1.
        -11    1    4    4    0    0 -0.48794648275E+02  0.26543124915E+02  0.14630145849E+02  0.57441242570E+02  0.00000000000E+00 0.  1.
         11    1    4    4    0    0 -0.18077991208E+03  0.36119714928E+02  0.24208683358E+03  0.30428941061E+03  0.00000000000E+00 0. -1.
</event>
<event>
 8    1  0.7281309E-009  0.9906526E+02  0.7561462E-02  0.1282274E+00
         -2   -1    0    0    0  501 -0.00000000000E+00  0.00000000000E+00  0.28644500896E+02  0.28644500896E+02  0.00000000000E+00 0.  1.
          2   -1    0    0  501    0  0.00000000000E+00 -0.00000000000E+00 -0.65545913959E+03  0.65545913959E+03  0.00000000000E+00 0. -1.
         25    2    1    2    0    0  0.43705343333E+02  0.65515915507E+02 -0.42666808182E+03  0.45154897798E+03  0.12509330615E+03 0.  0.
         23    2    1    2    0    0 -0.43705343333E+02 -0.65515915507E+02 -0.20014655686E+03  0.23255466251E+03  0.88433786573E+02 0.  0.
          5    1    3    3  502    0  0.17116377442E+02  0.55791730590E+02 -0.41738057034E+03  0.42146138669E+03  0.41800000000E+01 0.  1.
         -5    1    3    3    0  502  0.26588965892E+02  0.97241849173E+01 -0.92875114862E+01  0.30087591281E+02  0.41800000000E+01 0.  1.
        -11    1    4    4    0    0 -0.57883833055E+02 -0.74405705467E+02 -0.19210371401E+03  0.21398734559E+03  0.00000000000E+00 0. -1.
         11    1    4    4    0    0  0.14178489722E+02  0.88897899601E+01 -0.80428428538E+01  0.18567316917E+02  0.00000000000E+00 0.  1.
</event>
<event>
 8    1  0.7281309E-009  0.1794923E+03  0.7561462E-02  0.1168295E+00
          1   -1    0    0  501    0  0.00000000000E+00  0.00000000000E+00  0.34202881509E+03  0.34202881509E+03  0.00000000000E+00 0. -1.
         -1   -1    0    0    0  501 -0.00000000000E+00 -0.00000000000E+00 -0.10317420216E+03  0.10317420216E+03  0.00000000000E+00 0.  1.
         25    2    1    2    0    0  0.37141300977E+02 -0.14716731973E+03  0.14993288245E+03  0.24731547891E+03  0.12508949051E+03 0.  0.
         23    2    1    2    0    0 -0.37141300977E+02  0.14716731973E+03  0.88921730487E+02  0.19788753834E+03  0.90635023274E+02 0.  0.
          5    1    3    3  502    0  0.44413000408E+02 -0.16571945414E+03  0.11405072841E+03  0.20605944078E+03  0.41800000000E+01 0. -1.
         -5    1    3    3    0  502 -0.72716994309E+01  0.18552134409E+02  0.35882154038E+02  0.41256038130E+02  0.41800000000E+01 0. -1.
        -11    1    4    4    0    0 -0.47204768802E+02  0.47974944986E+02  0.68663558139E+02  0.96148685692E+02  0.00000000000E+00 0.  1.
         11    1    4    4    0    0  0.10063467825E+02  0.99192374741E+02  0.20258172349E+02  0.10173885265E+03  0.00000000000E+00 0. -1.
</event>
<event>
 8    1  0.7281309E-009  0.9722863E+02  0.7561462E-02  0.1286234E+00
          2   -1    0    0  501    0  0.00000000000E+00  0.00000000000E+00  0.59006601574E+02  0.59006601574E+02  0.00000000000E+00 0. -1.
         -2   -1    0    0    0  501 -0.00000000000E+00 -0.00000000000E+00 -0.25810908850E+03  0.25810908850E+03  0.00000000000E+00 0.  1.
         25    2    1    2    0    0  0.17857316557E+02 -0.20560641764E+02 -0.44086895328E+02  0.13539839878E+03  0.12508976100E+03 0.  0.
         23    2    1    2    0    0 -0.17857316557E+02  0.20560641764E+02 -0.15501559160E+03  0.18171729130E+03  0.90827950394E+02 0.  0.
          5    1    3    3  502    0  0.47852076822E+02  0.30553188181E+02 -0.49900882926E+02  0.75702635892E+02  0.41800000000E+01 0. -1.
         -5    1    3    3    0  502 -0.29994760264E+02 -0.51113829945E+02  0.58139875983E+01  0.59695762888E+02  0.41800000000E+01 0. -1.
        -11    1    4    4    0    0  0.20320962148E+02 -0.15533663165E+02 -0.99754078959E+01  0.27454415977E+02  0.00000000000E+00 0. -1.
         11    1    4    4    0    0 -0.38178278705E+02  0.36094304929E+02 -0.14504018371E+03  0.15426287532E+03  0.00000000000E+00 0.  1.
</event>
<event>
 8    1  0.7281309E-009  0.2078140E+03  0.7561462E-02  0.1143309E+00
          1   -1    0    0  501    0  0.00000000000E+00  0.00000000000E+00  0.93865267308E+03  0.93865267308E+03  0.00000000000E+00 0. -1.
         -1   -1    0    0    0  501 -0.00000000000E+00 -0.00000000000E+00 -0.70007830989E+02  0.70007830989E+02  0.00000000000E+00 0.  1.
         25    2    1    2    0    0  0.41379577998E+02  0.18349454672E+03  0.17969512175E+03  0.28865315006E+03  0.12509111122E+03 0.  0.
         23    2    1    2    0    0 -0.41379577998E+02 -0.18349454672E+03  0.68894972034E+03  0.72000735400E+03  0.91522426282E+02 0.  0.
          5    1    3    3  502    0  0.76568689431E+02  0.16134259963E+03  0.16807489147E+03  0.24527706823E+03  0.41800000000E+01 0. -1.
         -5    1    3    3    0  502 -0.35189111432E+02  0.22151947092E+02  0.11620230282E+02  0.43376081833E+02  0.41800000000E+01 0. -1.
        -11    1    4    4    0    0 -0.48734686917E+01 -0.13192967736E+03  0.32803560241E+03  0.35360507196E+03  0.00000000000E+00 0.  1.
         11    1    4    4    0    0 -0.36506109307E+02 -0.51564869366E+02  0.36091411793E+03  0.36640228205E+03  0.00000000000E+00 0. -1.
</event>
<event>
 8    1  0.7281309E-009  0.1197869E+03  0.7561462E-02  0.1243449E+00
         -2   -1    0    0    0  501 -0.00000000000E+00  0.00000000000E+00  0.17568566869E+02  0.17568566869E+02  0.00000000000E+00 0.  1.
          2   -1    0    0  501    0  0.00000000000E+00 -0.00000000000E+00 -0.10863059249E+04  0.10863059249E+04  0.00000000000E+00 0. -1.
         25    2    1    2    0    0  0.69876482962E+02 -0.11007689765E+02 -0.78390980317E+03  0.79697305240E+03  0.12509026595E+03 0.  0.
         23    2    1    2    0    0 -0.69876482962E+02  0.11007689765E+02 -0.28482755482E+03  0.30690143933E+03  0.89765613535E+02 0.  0.
          5    1    3    3  502    0  0.87119653086E+02 -0.47422452304E+02 -0.46351770596E+03  0.47403044109E+03  0.41800000000E+01 0.  1.
         -5    1    3    3    0  502 -0.17243170124E+02  0.36414762539E+02 -0.32039209720E+03  0.32294261131E+03  0.41800000000E+01 0.  1.
        -11    1    4    4    0    0 -0.54484728483E+02 -0.25508794512E+02 -0.91165105768E+02  0.10922619075E+03  0.00000000000E+00 0.  1.
         11    1    4    4    0    0 -0.15391754479E+02  0.36516484277E+02 -0.19366244905E+03  0.19767524858E+03  0.00000000000E+00 0. -1.
</event>
<event>
 8    1  0.7281309E-009  0.9940894E+02  0.7561462E-02  0.1281544E+00
          2   -1    0    0  501    0  0.00000000000E+00  0.00000000000E+00  0.39702650264E+03  0.39702650264E+03  0.00000000000E+00 0.  1.
         -2   -1    0    0    0  501 -0.00000000000E+00 -0.00000000000E+00 -0.30718184043E+02  0.30718184043E+02  0.00000000000E+00 0. -1.
         25    2    1    2    0    0  0.97039866778E+01  0.19668408213E+02  0.18811935583E+03  0.22697536525E+03  0.12509160945E+03 0.  0.
         23    2    1    2    0    0 -0.97039866778E+01 -0.19668408213E+02  0.17818896276E+03  0.20076932143E+03  0.89866569628E+02 0.  0.
          5    1    3    3  502    0  0.59700027095E+02  0.21519266283E+02  0.15304310808E+03  0.16573122031E+03  0.41800000000E+01 0.  1.
         -5    1    3    3    0  502 -0.49996040417E+02 -0.18508580702E+01  0.35076247755E+02  0.61244144941E+02  0.41800000000E+01 0.  1.
        -11    1    4    4    0    0  0.35655133337E+02 -0.20139892956E+00  0.37834238374E+02  0.51988062939E+02  0.00000000000E+00 0. -1.
         11    1    4    4    0    0 -0.45359120015E+02 -0.19467009283E+02  0.14035472439E+03  0.14878125849E+03  0.00000000000E+00 0.  1.
</event>
<event>
 8    1  0.7281309E-009  0.1840025E+03  0.7561462E-02  0.1163985E+00
          2   -1    0    0  501    0  0.00000000000E+00  0.00000000000E+00  0.15928973500E+04  0.15928973500E+04  0.00000000000E+00 0. -1.
         -2   -1    0    0    0  501 -0.00000000000E+00 -0.00000000000E+00 -0.26974833109E+02  0.26974833109E+02  0.00000000000E+00 0.  1.
         25    2    1    2    0    0  0.15472004167E+03  0.69719926013E+01  0.11472512687E+04  0.11643960757E+04  0.12508336304E+03 0.  0.
         23    2    1    2    0    0 -0.15472004167E+03 -0.69719926013E+01  0.41867124826E+03  0.45547610743E+03  0.90476352415E+02 0.  0.
          5    1    3    3  502    0  0.40324320755E+02  0.55130029824E+02  0.55938516042E+03  0.56355532215E+03  0.41800000000E+01 0. -1.
         -5    1    3    3    0  502  0.11439572091E+03 -0.48158037223E+02  0.58786610825E+03  0.60084075356E+03  0.41800000000E+01 0. -1.
        -11    1    4    4    0    0 -0.13943564983E+03 -0.34730369166E+02  0.37443491018E+03  0.40106109379E+03  0.00000000000E+00 0. -1.
         11    1    4    4    0    0 -0.15284391837E+02  0.27758376564E+02  0.44236338073E+02  0.54415013640E+02  0.00000000000E+00 0.  1.
</event>
<event>
 8    1  0.7281309E-009  0.1012983E+03  0.7561462E-02  0.1277589E+00
         -4   -1    0    0    0  501 -0.00000000000E+00  0.00000000000E+00  0.76080924037E+02  0.76080924037E+02  0.00000000000E+00 0.  1.
          4   -1    0    0  501    0  0.00000000000E+00 -0.00000000000E+00 -0.16780843706E+03  0.16780843706E+03  0.00000000000E+00 0. -1.
         25    2    1    2    0    0  0.20602469646E+02 -0.18609898931E+02 -0.46316984213E+02  0.13624845407E+03  0.12509031983E+03 0.  0.
         23    2    1    2    0    0 -0.20602469646E+02  0.18609898931E+02 -0.45410528810E+02  0.10764090703E+03  0.93560988906E+02 0.  0.
          5    1    3    3  502    0  0.67090658962E+02  0.16226538766E+02 -0.32403667041E+02  0.76367055187E+02  0.41800000000E+01 0. -1.
         -5    1    3    3    0  502 -0.46488189317E+02 -0.34836437698E+02 -0.13913317173E+02  0.59881398883E+02  0.41800000000E+01 0. -1.
        -11    1    4    4    0    0 -0.39662966304E+02 -0.99261124088E+01  0.10341871834E+02  0.42173841615E+02  0.00000000000E+00 0.  1.
         11    1    4    4    0    0  0.19060496658E+02  0.28536011340E+02 -0.55752400644E+02  0.65467065412E+02  0.00000000000E+00 0. -1.
</event>
<event>
 8    1  0.7281309E-009  0.1104231E+03  0.7561462E-02  0.1259788E+00
          2   -1    0    0  501    0  0.00000000000E+00  0.00000000000E+00  0.35423969039E+02  0.35423969039E+02  0.00000000000E+00 0. -1.
         -2   -1    0    0    0  501 -0.00000000000E+00 -0.00000000000E+00 -0.57804116023E+03  0.57804116023E+03  0.00000000000E+00 0.  1.
         25    2    1    2    0    0 -0.33252858895E+02 -0.91098458388E+02 -0.30157479470E+03  0.34058707222E+03  0.12509002847E+03 0.  0.
         23    2    1    2    0    0  0.33252858895E+02  0.91098458388E+02 -0.24104239650E+03  0.27287805705E+03  0.83404528442E+02 0.  0.
          5    1    3    3  502    0 -0.26030835019E+02 -0.10925197503E+00 -0.94806890370E+00  0.26381575814E+02  0.41800000000E+01 0.  1.
         -5    1    3    3    0  502 -0.72220238755E+01 -0.90989206413E+02 -0.30062672579E+03  0.31420549641E+03  0.41800000000E+01 0.  1.
        -11    1    4    4    0    0  0.23796423131E+02  0.19154263790E+02 -0.16486684151E+03  0.16767298829E+03  0.00000000000E+00 0.  1.
         11    1    4    4    0    0  0.94564357632E+01  0.71944194598E+02 -0.76175554991E+02  0.10520506876E+03  0.00000000000E+00 0. -1.
</event>
<event>
 8    1  0.7281309E-009  0.1212812E+03  0.7561462E-02  0.1240998E+00
          2   -1    0    0  501    0  0.00000000000E+00  0.00000000000E+00  0.62431550033E+02  0.62431550033E+02  0.00000000000E+00 0. -1.
         -2   -1    0    0    0  501 -0.00000000000E+00 -0.00000000000E+00 -0.29418732305E+03  0.29418732305E+03  0.00000000000E+00 0.  1.
         25    2    1    2    0    0 -0.67047009180E+02  0.43238031708E+02 -0.12291184878E+03  0.19266566552E+03  0.12509159554E+03 0.  0.
         23    2    1    2    0    0  0.67047009180E+02 -0.43238031708E+02 -0.10884392424E+03  0.16395320756E+03  0.93106528239E+02 0.  0.
          5    1    3    3  502    0  0.24995408658E+02 -0.14364892778E+02 -0.70909508735E+00  0.29139248692E+02  0.41800000000E+01 0.  1.
         -5    1    3    3    0  502 -0.92042417838E+02  0.57602924486E+02 -0.12220275370E+03  0.16352641683E+03  0.41800000000E+01 0.  1.
        -11    1    4    4    0    0  0.49704273106E+02  0.82998190628E+01 -0.95472811233E+02  0.10795582173E+03  0.00000000000E+00 0.  1.
         11    1    4    4    0    0  0.17342736074E+02 -0.51537850771E+02 -0.13371113002E+02  0.55997385828E+02  0.00000000000E+00 0. -1.
</event>
<event>
 8    1  0.7281309E-009  0.1107287E+03  0.7561462E-02  0.1259226E+00
         -1   -1    0    0    0  501 -0.00000000000E+00  0.00000000000E+00  0.38366459285E+03  0.38366459285E+03  0.00000000000E+00 0.  1.
          1   -1    0    0  501    0  0.00000000000E+00 -0.00000000000E+00 -0.47163004136E+02  0.47163004136E+02  0.00000000000E+00 0. -1.
         25    2    1    2    0    0 -0.43701128683E+02  0.59388682289E+02  0.14913749038E+03  0.20814622736E+03  0.12508419843E+03 0.  0.
         23    2    1    2    0    0  0.43701128683E+02 -0.59388682289E+02  0.18736409834E+03  0.22268136963E+03  0.95104588745E+02 0.  0.
          5    1    3    3  502    0  0.29049291971E+02  0.19436932522E+02  0.11148534671E+03  0.11691069515E+03  0.41800000000E+01 0. -1.
         -5    1    3    3    0  502 -0.72750420653E+02  0.39951749767E+02  0.37652143668E+02  0.91235532209E+02  0.41800000000E+01 0. -1.
        -11    1    4    4    0    0  0.64012844689E+02 -0.44204782455E+02  0.18028405971E+03  0.19635185067E+03  0.00000000000E+00 0. -1.
         11    1    4    4    0    0 -0.20311716007E+02 -0.15183899834E+02  0.70800386268E+01  0.26329518952E+02  0.00000000000E+00 0.  1.
</event>
<event>
 8    1  0.7281309E-009  0.1964891E+03  0.7561462E-02  0.1152735E+00
         -2   -1    0    0    0  501 -0.00000000000E+00  0.00000000000E+00  0.14375886728E+03  0.14375886728E+03  0.00000000000E+00 0. -1.
          2   -1    0    0  501    0  0.00000000000E+00 -0.00000000000E+00 -0.31743486206E+03  0.31743486206E+03  0.00000000000E+00 0.  1.
         25    2    1    2    0    0 -0.57996107736E+02 -0.16700417082E+03 -0.14515387591E+03  0.26070940886E+03  0.12508319868E+03 0.  0.
         23    2    1    2    0    0  0.57996107736E+02  0.16700417082E+03 -0.28522118878E+02  0.20048432048E+03  0.90147156958E+02 0.  0.
          5    1    3    3  502    0  0.25346444916E+01 -0.12802482402E+03 -0.41961796918E+02  0.13481485374E+03  0.41800000000E+01 0.  1.
         -5    1    3    3    0  502 -0.60530752228E+02 -0.38979346799E+02 -0.10319207899E+03  0.12589455512E+03  0.41800000000E+01 0.  1.
        -11    1    4    4    0    0  0.47098829348E+02  0.31183849014E+02 -0.30537363858E+02  0.64212637048E+02  0.00000000000E+00 0.  1.
         11    1    4    4    0    0  0.10897278388E+02  0.13582032181E+03  0.20152449805E+01  0.13627168343E+03  0.00000000000E+00 0. -1.
</event>
<event>
 8    1  0.7281309E-009  0.9776444E+02  0.7561462E-02  0.1285069E+00
         -1   -1    0    0    0  501 -0.00000000000E+00  0.00000000000E+00  0.42381447809E+03  0.42381447809E+03  0.00000000000E+00 0.  1.
          1   -1    0    0  501    0  0.00000000000E+00 -0.00000000000E+00 -0.80092861988E+02  0.80092861988E+02  0.00000000000E+00 0. -1.
         25    2    1    2    0    0  0.84914886640E+02  0.24892606443E+02  0.17785494961E+02  0.15425222107E+03  0.12508894454E+03 0.  0.
         23    2    1    2    0    0 -0.84914886640E+02 -0.24892606443E+02  0.32593612114E+03  0.34965511901E+03  0.90521640263E+02 0.  0.
          5    1    3    3  502    0  0.16724581519E+02 -0.93332288879E+01 -0.48994870084E+02  0.52771114097E+02  0.41800000000E+01 0.  1.
         -5    1    3    3    0  502  0.68190305121E+02  0.34225835331E+02  0.66780365046E+02  0.10148110697E+03  0.41800000000E+01 0.  1.
        -11    1    4    4    0    0 -0.17696866809E+02 -0.26976492659E+02  0.23713058681E+02  0.40040222315E+02  0.00000000000E+00 0. -1.
         11    1    4    4    0    0 -0.67218019831E+02  0.20838862157E+01  0.30222306246E+03  0.30961489669E+03  0.00000000000E+00 0.  1.
</event>
<event>
 8    1  0.7281309E-009  0.1221807E+03  0.7561462E-02  0.1239542E+00
         -3   -1    0    0    0  501 -0.00000000000E+00  0.00000000000E+00  0.30401899749E+03  0.30401899749E+03  0.00000000000E+00 0.  1.
          3   -1    0    0  501    0  0.00000000000E+00 -0.00000000000E+00 -0.84889330471E+02  0.84889330471E+02  0.00000000000E+00 0. -1.
         25    2    1    2    0    0  0.50062416891E+02  0.42981385629E+02  0.23928481609E+03  0.27795412337E+03  0.12509047282E+03 0.  0.
         23    2    1    2    0    0 -0.50062416891E+02 -0.42981385629E+02 -0.20155149075E+02  0.11095420459E+03  0.86896262211E+02 0.  0.
          5    1    3    3  502    0  0.68452034062E+02  0.74882019829E+02  0.19771108902E+03  0.22226143386E+03  0.41800000000E+01 0.  1.
         -5    1    3    3    0  502 -0.18389617171E+02 -0.31900634199E+02  0.41573727074E+02  0.55692689510E+02  0.41800000000E+01 0.  1.
        -11    1    4    4    0    0 -0.73245480943E+02 -0.35557178341E+02 -0.26806005221E+02  0.85719165453E+02  0.00000000000E+00 0. -1.
         11    1    4    4    0    0  0.23183064052E+02 -0.74242072888E+01  0.66508561456E+01  0.25235039136E+02  0.00000000000E+00 0.  1.
</event>
<event>
 8    1  0.7281309E-009  0.1386893E+03  0.7561462E-02  0.1215104E+00
         -2   -1    0    0    0  501 -0.00000000000E+00  0.00000000000E+00  0.82805667925E+02  0.82805667925E+02  0.00000000000E+00 0.  1.
          2   -1    0    0  501    0  0.00000000000E+00 -0.00000000000E+00 -0.27765090982E+03  0.27765090982E+03  0.00000000000E+00 0. -1.
         25    2    1    2    0    0  0.24986615777E+02  0.98357564932E+02 -0.85038633788E+02  0.18214188157E+03  0.12508218993E+03 0.  0.
         23    2    1    2    0    0 -0.24986615777E+02 -0.98357564932E+02 -0.10980660811E+03  0.17831469618E+03  0.97160167458E+02 0.  0.
          5    1    3    3  502    0  0.62859681772E+02  0.10249076867E+03 -0.50236486882E+02  0.13037206092E+03  0.41800000000E+01 0. -1.
         -5    1    3    3    0  502 -0.37873065996E+02 -0.41332037340E+01 -0.34802146906E+02  0.51769820651E+02  0.41800000000E+01 0. -1.
        -11    1    4    4    0    0  0.19429363846E+02 -0.46940937416E+02 -0.96533951654E+02  0.10908600097E+03  0.00000000000E+00 0. -1.
         11    1    4    4    0    0 -0.44415979622E+02 -0.51416627517E+02 -0.13272656456E+02  0.69228695209E+02  0.00000000000E+00 0.  1.
</event>
<event>
 8    1  0.7281309E-009  0.9551653E+02  0.7561462E-02  0.1290017E+00
         -2   -1    0    0    0  501 -0.00000000000E+00  0.00000000000E+00  0.23470346706E+03  0.23470346706E+03  0.00000000000E+00 0.  1.
          2   -1    0    0  501    0  0.00000000000E+00 -0.00000000000E+00 -0.64597509570E+02  0.64597509570E+02  0.00000000000E+00 0. -1.
         25    2    1    2    0    0  0.14209678447E+02  0.21191043993E+02  0.32765960226E+02  0.13180525712E+03  0.12509213543E+03 0.  0.
         23    2    1    2    0    0 -0.14209678447E+02 -0.21191043993E+02  0.13733999727E+03  0.16749571952E+03  0.92420592402E+02 0.  0.
          5    1    3    3  502    0 -0.16230411729E+02 -0.32850211119E+02 -0.26894098103E+02  0.45643483086E+02  0.41800000000E+01 0.  1.
         -5    1    3    3    0  502  0.30440090176E+02  0.54041255113E+02  0.59660058330E+02  0.86161774030E+02  0.41800000000E+01 0.  1.
        -11    1    4    4    0    0  0.35141527815E+02 -0.24004840958E+02  0.40398150985E+02  0.58678530738E+02  0.00000000000E+00 0. -1.
         11    1    4    4    0    0 -0.49351206262E+02  0.28137969648E+01  0.96941846282E+02  0.10881718878E+03  0.00000000000E+00 0.  1.
</event>
<event>
 8    1  0.7281309E-009  0.1021030E+03  0.7561462E-02  0.1275935E+00
          1   -1    0    0  501    0  0.00000000000E+00  0.00000000000E+00  0.21790260827E+02  0.21790260827E+02  0.00000000000E+00 0. -1.
         -1   -1    0    0    0  501 -0.00000000000E+00 -0.00000000000E+00 -0.98934072452E+03  0.98934072452E+03  0.00000000000E+00 0.  1.
         25    2    1    2    0    0  0.83324882114E+02  0.50821978728E+02 -0.57889139710E+03  0.60024026115E+03  0.12508881632E+03 0.  0.
         23    2    1    2    0    0 -0.83324882114E+02 -0.50821978728E+02 -0.38865906660E+03  0.41089072420E+03  0.90826249978E+02 0.  0.
          5    1    3    3  502    0  0.18164012995E+02  0.34614611132E+02 -0.36349471649E+02  0.53543058944E+02  0.41800000000E+01 0.  1.
         -5    1    3    3    0  502  0.65160869118E+02  0.16207367596E+02 -0.54254192545E+03  0.54669720220E+03  0.41800000000E+01 0.  1.
        -11    1    4    4    0    0 -0.19595395408E+02 -0.12813222194E+02 -0.10745028612E+02  0.25760703097E+02  0.00000000000E+00 0. -1.
         11    1    4    4    0    0 -0.63729486706E+02 -0.38008756534E+02 -0.37791403799E+03  0.38513002110E+03  0.00000000000E+00 0.  1.
</event>
<event>
 8    1  0.7281309E-009  0.1539357E+03  0.7561462E-02  0.1195719E+00
          3   -1    0    0  501    0  0.00000000000E+00  0.00000000000E+00  0.68847456659E+02  0.68847456659E+02  0.00000000000E+00 0. -1.
         -3   -1    0    0    0  501 -0.00000000000E+00 -0.00000000000E+00 -0.45123155914E+03  0.45123155914E+03  0.00000000000E+00 0.  1.
         25    2    1    2    0    0  0.13722872701E+03 -0.46902330341E+02 -0.17466775322E+03  0.25920643915E+03  0.12509037523E+03 0.  0.
         23    2    1    2    0    0 -0.13722872701E+03  0.46902330341E+02 -0.20771634926E+03  0.26087257665E+03  0.62264495400E+02 0.  0.
          5    1    3    3  502    0  0.13734253283E+03 -0.49675898742E+02 -0.84270956776E+02  0.16867048585E+03  0.41800000000E+01 0.  1.
         -5    1    3    3    0  502 -0.11380582087E+00  0.27735684010E+01 -0.90396796440E+02  0.90535953301E+02  0.41800000000E+01 0.  1.
        -11    1    4    4    0    0 -0.30264425653E+02  0.39170619311E+02 -0.80299473161E+02  0.94330685714E+02  0.00000000000E+00 0. -1.
         11    1    4    4    0    0 -0.10696430136E+03  0.77317110298E+01 -0.12741687610E+03  0.16654189093E+03  0.00000000000E+00 0.  1.
</event>
<event>
 8    1  0.7281309E-009  0.1250194E+03  0.7561462E-02  0.1235039E+00
          2   -1    0    0  501    0  0.00000000000E+00  0.00000000000E+00  0.11353441132E+04  0.11353441132E+04  0.00000000000E+00 0. -1.
         -2   -1    0    0    0  501 -0.00000000000E+00 -0.00000000000E+00 -0.18855574346E+02  0.18855574346E+02  0.00000000000E+00 0.  1.
         25    2    1    2    0    0  0.25133084443E+02 -0.88956435160E+02  0.72081557683E+03  0.73740563133E+03  0.12508816903E+03 0.  0.
         23    2    1    2    0    0 -0.25133084443E+02  0.88956435160E+02  0.39567296206E+03  0.41679405625E+03  0.92818495613E+02 0.  0.
          5    1    3    3  502    0 -0.15935978355E+02 -0.75766777902E+02  0.19563782799E+03  0.21044284778E+03  0.41800000000E+01 0. -1.
         -5    1    3    3    0  502  0.41069062798E+02 -0.13189657259E+02  0.52517774884E+03  0.52696278355E+03  0.41800000000E+01 0. -1.
        -11    1    4    4    0    0 -0.49326068743E+02  0.15312159599E+02  0.19336756189E+03  0.20014628970E+03  0.00000000000E+00 0.  1.
         11    1    4    4    0    0  0.24192984300E+02  0.73644275561E+02  0.20230540017E+03  0.21664776655E+03  0.00000000000E+00 0. -1.
</event>
<event>
 8    1  0.7281309E-009  0.1738278E+03  0.7561462E-02  0.1173914E+00
         -2   -1    0    0    0  501 -0.00000000000E+00  0.00000000000E+00  0.83180896224E+02  0.83180896224E+02  0.00000000000E+00 0.  1.
          2   -1    0    0  501    0  0.00000000000E+00 -0.00000000000E+00 -0.44123413592E+03  0.44123413592E+03  0.00000000000E+00 0. -1.
         25    2    1    2    0    0 -0.15474463491E+03  0.10955355004E+02 -0.14334290303E+03  0.24548038737E+03  0.12509001119E+03 0.  0.
         23    2    1    2    0    0  0.15474463491E+03 -0.10955355004E+02 -0.21471033667E+03  0.27893464477E+03  0.87396141476E+02 0.  0.
          5    1    3    3  502    0  0.27730057486E+01  0.25101016726E+02 -0.63085278867E+02  0.68080653722E+02  0.41800000000E+01 0.  1.
         -5    1    3    3    0  502 -0.15751764066E+03 -0.14145661722E+02 -0.80257624158E+02  0.17739973365E+03  0.41800000000E+01 0.  1.
        -11    1    4    4    0    0  0.47909480694E+01  0.11282811515E+02 -0.64033251692E+02  0.65195953413E+02  0.00000000000E+00 0. -1.
         11    1    4    4    0    0  0.14995368684E+03 -0.22238166519E+02 -0.15067708498E+03  0.21373869136E+03  0.00000000000E+00 0.  1.
</event>
<event>
 8    1  0.7281309E-009  0.1042255E+03  0.7561462E-02  0.1271653E+00
         -3   -1    0    0    0  501 -0.00000000000E+00  0.00000000000E+00  0.25170621256E+03  0.25170621256E+03  0.00000000000E+00 0.  1.
          3   -1    0    0  501    0  0.00000000000E+00 -0.00000000000E+00 -0.55660861329E+02  0.55660861329E+02  0.00000000000E+00 0. -1.
         25    2    1    2    0    0 -0.43809344589E+02  0.17076207566E+02  0.96062179453E+02  0.16458403271E+03  0.12509638669E+03 0.  0.
         23    2    1    2    0    0  0.43809344589E+02 -0.17076207566E+02  0.99983171776E+02  0.14278304118E+03  0.90440625118E+02 0.  0.
          5    1    3    3  502    0  0.82291885395E+01 -0.33580963629E+02 -0.97624580248E+01  0.36168752384E+02  0.41800000000E+01 0. -1.
         -5    1    3    3    0  502 -0.52038533129E+02  0.50657171196E+02  0.10582463748E+03  0.12841528033E+03  0.41800000000E+01 0. -1.
        -11    1    4    4    0    0 -0.19549497751E+02 -0.30393338942E+02  0.45926966126E+02  0.58439918993E+02  0.00000000000E+00 0. -1.
         11    1    4    4    0    0  0.63358842340E+02  0.13317131376E+02  0.54056205650E+02  0.84343122186E+02  0.00000000000E+00 0.  1.
</event>
<event>
 8    1  0.7281309E-009  0.1040064E+03  0.7561462E-02  0.1272090E+00
          2   -1    0    0  501    0  0.00000000000E+00  0.00000000000E+00  0.27941136301E+03  0.27941136301E+03  0.00000000000E+00 0. -1.
         -2   -1    0    0    0  501 -0.00000000000E+00 -0.00000000000E+00 -0.63901062273E+02  0.63901062273E+02  0.00000000000E+00 0.  1.
         25    2    1    2    0    0 -0.10767546364E+01 -0.58371911754E+02  0.18513672924E+03  0.23093649792E+03  0.12509043959E+03 0.  0.
         23    2    1    2    0    0  0.10767546364E+01  0.58371911754E+02  0.30373571496E+02  0.11237592736E+03  0.91089822274E+02 0.  0.
          5    1    3    3  502    0 -0.12882414505E+02 -0.94838621043E+02  0.15404678890E+03  0.18140619122E+03  0.41800000000E+01 0.  1.
         -5    1    3    3    0  502  0.11805659869E+02  0.36466709288E+02  0.31089940342E+02  0.49530306699E+02  0.41800000000E+01 0.  1.
        -11    1    4    4    0    0 -0.16507801153E+02  0.52627158611E+02 -0.20033845225E+02  0.58681174808E+02  0.00000000000E+00 0.  1.
         11    1    4    4    0    0  0.17584555790E+02  0.57447531430E+01  0.50407416720E+02  0.53694752550E+02  0.00000000000E+00 0. -1.
</event>
<event>
 8    1  0.7281309E-009  0.1253783E+03  0.7561462E-02  0.1234479E+00
          4   -1    0    0  501    0  0.00000000000E+00  0.00000000000E+00  0.71872789020E+03  0.71872789020E+03  0.00000000000E+00 0. -1.
         -4   -1    0    0    0  501 -0.00000000000E+00 -0.00000000000E+00 -0.27580723997E+02  0.27580723997E+02  0.00000000000E+00 0.  1.
         25    2    1    2    0    0 -0.76157829299E+02  0.48987514942E+02  0.34368580726E+03  0.37678413815E+03  0.12508621453E+03 0.  0.
         23    2    1    2    0    0  0.76157829299E+02 -0.48987514942E+02  0.34746135894E+03  0.36952447605E+03  0.87287747458E+02 0.  0.
          5    1    3    3  502    0  0.21568538832E+02  0.29285060436E+01  0.17517199977E+03  0.17656862665E+03  0.41800000000E+01 0. -1.
         -5    1    3    3    0  502 -0.97726368131E+02  0.46059008899E+02  0.16851380749E+03  0.20021551150E+03  0.41800000000E+01 0. -1.
        -11    1    4    4    0    0  0.92765216736E+00 -0.45136857634E+02  0.18530733705E+03  0.19072756912E+03  0.00000000000E+00 0. -1.
         11    1    4    4    0    0  0.75230177132E+02 -0.38506573079E+01  0.16215402189E+03  0.17879690693E+03  0.00000000000E+00 0.  1.
</event>
<event>
 8    1  0.7281309E-009  0.7147929E+02  0.7561462E-02  0.1355134E+00
          2   -1    0    0  501    0  0.00000000000E+00  0.00000000000E+00  0.59439020405E+03  0.59439020405E+03  0.00000000000E+00 0. -1.
         -2   -1    0    0    0  501 -0.00000000000E+00 -0.00000000000E+00 -0.17906659200E+02  0.17906659200E+02  0.00000000000E+00 0.  1.
         25    2    1    2    0    0 -0.60313157735E+01 -0.15243107280E+02  0.40062210175E+03  0.42001727906E+03  0.12509083581E+03 0.  0.
         23    2    1    2    0    0  0.60313157735E+01  0.15243107280E+02  0.17586144310E+03  0.19227958420E+03  0.75996462020E+02 0.  0.
          5    1    3    3  502    0  0.39154227208E+02 -0.11875334455E+02  0.34811748396E+03  0.35053863142E+03  0.41800000000E+01 0. -1.
         -5    1    3    3    0  502 -0.45185542982E+02 -0.33677728245E+01  0.52504617790E+02  0.69478647638E+02  0.41800000000E+01 0. -1.
        -11    1    4    4    0    0 -0.19444524837E+02  0.22596577024E+02  0.24425042495E+02  0.38539298648E+02  0.00000000000E+00 0.  1.
         11    1    4    4    0    0  0.25475840611E+02 -0.73534697443E+01  0.15143640060E+03  0.15374028555E+03  0.00000000000E+00 0. -1.
</event>
<event>
 8    1  0.7281309E-009  0.1302802E+03  0.7561462E-02  0.1227040E+00
          1   -1    0    0  501    0  0.00000000000E+00  0.00000000000E+00  0.23198750440E+03  0.23198750440E+03  0.00000000000E+00 0. -1.
         -1   -1    0    0    0  501 -0.00000000000E+00 -0.00000000000E+00 -0.11776984915E+03  0.11776984915E+03  0.00000000000E+00 0.  1.
         25    2    1    2    0    0  0.11835602244E+03  0.42959648526E+02  0.47068378836E+02  0.18362146550E+03  0.12509089038E+03 0.  0.
         23    2    1    2    0    0 -0.11835602244E+03 -0.42959648526E+02  0.67149276417E+02  0.16613588805E+03  0.85078954656E+02 0.  0.
          5    1    3    3  502    0  0.87582603143E+02  0.98779197968E+01  0.86458237531E+02  0.12353454946E+03  0.41800000000E+01 0. -1.
         -5    1    3    3    0  502  0.30773419300E+02  0.33081728729E+02 -0.39389858695E+02  0.60086916039E+02  0.41800000000E+01 0. -1.
        -11    1    4    4    0    0 -0.10921908778E+02  0.78496863339E+00 -0.18805827955E+02  0.21761512635E+02  0.00000000000E+00 0.  1.
         11    1    4    4    0    0 -0.10743411367E+03 -0.43744617159E+02  0.85955104372E+02  0.14437437542E+03  0.00000000000E+00 0. -1.
</event>
<event>
 8    1  0.7281309E-009  0.1494902E+03  0.7561462E-02  0.1201101E+00
          2   -1    0    0  501    0  0.00000000000E+00  0.00000000000E+00  0.79236619145E+03  0.79236619145E+03  0.00000000000E+00 0. -1.
         -2   -1    0    0    0  501 -0.00000000000E+00 -0.00000000000E+00 -0.34373413035E+02  0.34373413035E+02  0.00000000000E+00 0.  1.
         25    2    1    2    0    0 -0.10852225045E+03  0.34923287758E+02  0.28512018187E+03  0.33157251829E+03  0.12510036732E+03 0.  0.
         23    2    1    2    0    0  0.10852225045E+03 -0.34923287758E+02  0.47287259655E+03  0.49516708620E+03  0.92656547618E+02 0.  0.
          5    1    3    3  502    0 -0.13356330813E+03  0.34110972864E+02  0.20148070441E+03  0.24416114023E+03  0.41800000000E+01 0.  1.
         -5    1    3    3    0  502  0.25041057675E+02  0.81231489441E+00  0.83639477457E+02  0.87411378060E+02  0.41800000000E+01 0.  1.
        -11    1    4    4    0    0  0.64433184225E+02  0.17888062281E+02  0.13859581549E+03  0.15388443090E+03  0.00000000000E+00 0.  1.
         11    1    4    4    0    0  0.44089066228E+02 -0.52811350039E+02  0.33427678106E+03  0.34128265530E+03  0.00000000000E+00 0. -1.
</event>
<event>
 8    1  0.7281309E-009  0.1122170E+03  0.7561462E-02  0.1256519E+00
          3   -1    0    0  501    0  0.00000000000E+00  0.00000000000E+00  0.25733301585E+02  0.25733301585E+02  0.00000000000E+00 0. -1.
         -3   -1    0    0    0  501 -0.00000000000E+00 -0.00000000000E+00 -0.85462304129E+03  0.85462304129E+03  0.00000000000E+00 0.  1.
         25    2    1    2    0    0  0.64320921768E+02 -0.75553052140E+02 -0.40279284416E+03  0.43328329581E+03  0.12508754716E+03 0.  0.
         23    2    1    2    0    0 -0.64320921768E+02  0.75553052140E+02 -0.42609689554E+03  0.44707304706E+03  0.92034234697E+02 0.  0.
          5    1    3    3  502    0  0.32814165472E+02 -0.65598903033E+02 -0.79380672220E+02  0.10816075562E+03  0.41800000000E+01 0.  1.
         -5    1    3    3    0  502  0.31506756297E+02 -0.99541491076E+01 -0.32341217195E+03  0.32512254019E+03  0.41800000000E+01 0.  1.
        -11    1    4    4    0    0 -0.29098924341E+02  0.77096965626E+02 -0.38110921106E+03  0.38991655551E+03  0.00000000000E+00 0.  1.
         11    1    4    4    0    0 -0.35221997427E+02 -0.15439134859E+01 -0.44987684478E+02  0.57156491550E+02  0.00000000000E+00 0. -1.
</event>
<event>
 8    1  0.7281309E-009  0.9202010E+02  0.7561462E-02  0.1298032E+00
          1   -1    0    0  501    0  0.00000000000E+00  0.00000000000E+00  0.30578827504E+03  0.30578827504E+03  0.00000000000E+00 0. -1.
         -1   -1    0    0    0  501 -0.00000000000E+00 -0.00000000000E+00 -0.67085946223E+02  0.67085946223E+02  0.00000000000E+00 0.  1.
         25    2    1    2    0    0  0.21871605441E+02 -0.59275640565E+02  0.42245258170E+02  0.14637163143E+03  0.12509206194E+03 0.  0.
         23    2    1    2    0    0 -0.21871605441E+02  0.59275640565E+02  0.19645707065E+03  0.22650258984E+03  0.93359915946E+02 0.  0.
          5    1    3    3  502    0 -0.37203637065E+02 -0.25793310120E+02 -0.24004782456E+02  0.51411160642E+02  0.41800000000E+01 0.  1.
         -5    1    3    3    0  502  0.59075242506E+02 -0.33482330445E+02  0.66250040626E+02  0.94960470787E+02  0.41800000000E+01 0.  1.
        -11    1    4    4    0    0 -0.26782558033E+02  0.27481852810E+02  0.13409339933E+02  0.40649330205E+02  0.00000000000E+00 0.  1.
         11    1    4    4    0    0  0.49109525917E+01  0.31793787754E+02  0.18304773072E+03  0.18585325963E+03  0.00000000000E+00 0. -1.
</event>
<event>
 8    1  0.7281309E-009  0.1195755E+03  0.7561462E-02  0.1243799E+00
          2   -1    0    0  501    0  0.00000000000E+00  0.00000000000E+00  0.32715036071E+03  0.32715036071E+03  0.00000000000E+00 0. -1.
         -2   -1    0    0    0  501 -0.00000000000E+00 -0.00000000000E+00 -0.69485438114E+02  0.69485438114E+02  0.00000000000E+00 0.  1.
         25    2    1    2    0    0 -0.79909026553E+02 -0.65577950900E+02  0.14566773962E+03  0.21808851778E+03  0.12513029630E+03 0.  0.
         23    2    1    2    0    0  0.79909026553E+02  0.65577950900E+02  0.11199718298E+03  0.17854728105E+03  0.93004528946E+02 0.  0.
          5    1    3    3  502    0 -0.92235469938E+02 -0.65825421897E+02  0.16166255581E+03  0.19746549682E+03  0.41800000000E+01 0. -1.
         -5    1    3    3    0  502  0.12326443385E+02  0.24747099669E+00 -0.15994816195E+02  0.20623020960E+02  0.41800000000E+01 0. -1.
        -11    1    4    4    0    0  0.32792558548E+02  0.55644124046E+02  0.11325609912E+03  0.13037854281E+03  0.00000000000E+00 0. -1.
         11    1    4    4    0    0  0.47116468004E+02  0.99338268544E+01 -0.12589161439E+01  0.48168738234E+02  0.00000000000E+00 0.  1.
</event>
<event>
 8    1  0.7281309E-009  0.1560665E+03  0.7561462E-02  0.1193211E+00
         -4   -1    0    0    0  501 -0.00000000000E+00  0.00000000000E+00  0.14145053069E+03  0.14145053069E+03  0.00000000000E+00 0.  1.
          4   -1    0    0  501    0  0.00000000000E+00 -0.00000000000E+00 -0.21086331830E+03  0.21086331830E+03  0.00000000000E+00 0. -1.
         25    2    1    2    0    0 -0.91121919752E+02 -0.99476884584E+02 -0.22303864718E+02  0.18532315149E+03  0.12509337821E+03 0.  0.
         23    2    1    2    0    0  0.91121919752E+02  0.99476884584E+02 -0.47108922894E+02  0.16699069750E+03  0.86416361924E+02 0.  0.
          5    1    3    3  502    0 -0.93051421924E+02 -0.12178725329E+03 -0.37621287556E+02  0.15787189700E+03  0.41800000000E+01 0. -1.
         -5    1    3    3    0  502  0.19295021720E+01  0.22310368708E+02  0.15317422838E+02  0.27451254487E+02  0.41800000000E+01 0. -1.
        -11    1    4    4    0    0  0.65469561147E+02  0.82265662692E+02 -0.71908581395E+02  0.12737639802E+03  0.00000000000E+00 0. -1.
         11    1    4    4    0    0  0.25652358605E+02  0.17211221892E+02  0.24799658501E+02  0.39614299474E+02  0.00000000000E+00 0.  1.
</event>
<event>
 8    1  0.7281309E-009  0.1266269E+03  0.7561462E-02  0.1232548E+00
         -2   -1    0    0    0  501 -0.00000000000E+00  0.00000000000E+00  0.46837061653E+03  0.46837061653E+03  0.00000000000E+00 0. -1.
          2   -1    0    0  501    0  0.00000000000E+00 -0.00000000000E+00 -0.43393182073E+02  0.43393182073E+02  0.00000000000E+00 0.  1.
         25    2    1    2    0    0 -0.45545296646E+02 -0.57938196272E+02  0.33920362664E+03  0.36896332867E+03  0.12507449358E+03 0.  0.
         23    2    1    2    0    0  0.45545296646E+02  0.57938196272E+02  0.85773807817E+02  0.14280046993E+03  0.87198735490E+02 0.  0.
          5    1    3    3  502    0 -0.71227099798E+02 -0.80606414641E+02  0.28558057269E+03  0.30519572364E+03  0.41800000000E+01 0.  1.
         -5    1    3    3    0  502  0.25681803153E+02  0.22668218368E+02  0.53623053947E+02  0.63767605034E+02  0.41800000000E+01 0.  1.
        -11    1    4    4    0    0 -0.24468254301E+02  0.11156383409E+02  0.36170034960E+02  0.45071407659E+02  0.00000000000E+00 0. -1.
         11    1    4    4    0    0  0.70013550947E+02  0.46781812863E+02  0.49603772857E+02  0.97729062272E+02  0.00000000000E+00 0.  1.
</event>
<event>
 8    1  0.7281309E-009  0.7898041E+02  0.7561462E-02  0.1331970E+00
         -1   -1    0    0    0  501 -0.00000000000E+00  0.00000000000E+00  0.11354236283E+03  0.11354236283E+03  0.00000000000E+00 0.  1.
          1   -1    0    0  501    0  0.00000000000E+00 -0.00000000000E+00 -0.12035686929E+03  0.12035686929E+03  0.00000000000E+00 0. -1.
         25    2    1    2    0    0 -0.13971640510E+02  0.30130509058E+02  0.24267828200E+02  0.13168157260E+03  0.12509218505E+03 0.  0.
         23    2    1    2    0    0  0.13971640510E+02 -0.30130509058E+02 -0.31082334658E+02  0.10221765953E+03  0.91538429507E+02 0.  0.
          5    1    3    3  502    0 -0.36213455098E+02  0.15633046899E+02 -0.43446038169E+02  0.58828879966E+02  0.41800000000E+01 0.  1.
         -5    1    3    3    0  502  0.22241814588E+02  0.14497462159E+02  0.67713866368E+02  0.72852692632E+02  0.41800000000E+01 0.  1.
        -11    1    4    4    0    0  0.49486570469E+02 -0.96371489312E+01  0.56840124110E+00  0.50419424592E+02  0.00000000000E+00 0.  1.
         11    1    4    4    0    0 -0.35514929959E+02 -0.20493360127E+02 -0.31650735899E+02  0.51798234934E+02  0.00000000000E+00 0. -1.
</event>
<event>
 8    1  0.7281309E-009  0.8404368E+02  0.7561462E-02  0.1317953E+00
         -1   -1    0    0    0  501 -0.00000000000E+00  0.00000000000E+00  0.87024149755E+02  0.87024149755E+02  0.00000000000E+00 0.  1.
          1   -1    0    0  501    0  0.00000000000E+00 -0.00000000000E+00 -0.15904017751E+03  0.15904017751E+03  0.00000000000E+00 0. -1.
         25    2    1    2    0    0 -0.46831996084E+01  0.38064221154E+02 -0.14293106855E+02  0.13161960557E+03  0.12509440585E+03 0.  0.
         23    2    1    2    0    0  0.46831996084E+01 -0.38064221154E+02 -0.57722920904E+02  0.11444472170E+03  0.91076020099E+02 0.  0.
          5    1    3    3  502    0  0.29405355019E+02 -0.36522722232E+02  0.47876145465E+01  0.47317838033E+02  0.41800000000E+01 0.  1.
         -5    1    3    3    0  502 -0.34088554628E+02  0.74586943387E+02 -0.19080721402E+02  0.84301767535E+02  0.41800000000E+01 0.  1.
        -11    1    4    4    0    0  0.57903566374E+01 -0.20579502339E+02  0.23257723304E+02  0.31590597332E+02  0.00000000000E+00 0.  1.
         11    1    4    4    0    0 -0.11071570289E+01 -0.17484718815E+02 -0.80980644208E+02  0.82854124370E+02  0.00000000000E+00 0. -1.
</event>
<event>
 8    1  0.7281309E-009  0.1250131E+03  0.7561462E-02  0.1235049E+00
         -2   -1    0    0    0  501 -0.00000000000E+00  0.00000000000E+00  0.15401431085E+03  0.15401431085E+03  0.00000000000E+00 0.  1.
          2   -1    0    0  501    0  0.00000000000E+00 -0.00000000000E+00 -0.14021578690E+03  0.14021578690E+03  0.00000000000E+00 0. -1.
         25    2    1    2    0    0 -0.56074435290E+02 -0.60037432369E+02  0.61854145801E+02  0.16193385838E+03  0.12509118098E+03 0.  0.
         23    2    1    2    0    0  0.56074435290E+02  0.60037432369E+02 -0.48055621849E+02  0.13229623937E+03  0.91891874401E+02 0.  0.
          5    1    3    3  502    0 -0.73005047206E+02  0.76025913114E+01  0.84432995132E+01  0.74002013613E+02  0.41800000000E+01 0.  1.
         -5    1    3    3    0  502  0.16930611916E+02 -0.67640023681E+02  0.53410846288E+02  0.87931844769E+02  0.41800000000E+01 0.  1.
        -11    1    4    4    0    0  0.48023106931E+02  0.75351641377E+02 -0.63084297886E+02  0.10937877901E+03  0.00000000000E+00 0. -1.
         11    1    4    4    0    0  0.80513283583E+01 -0.15314209008E+02  0.15028676037E+02  0.22917460359E+02  0.00000000000E+00 0.  1.
</event>
<event>
 8    1  0.7281309E-009  0.1206627E+03  0.7561462E-02  0.1242008E+00
         -4   -1    0    0    0  501 -0.00000000000E+00  0.00000000000E+00  0.71409587597E+02  0.71409587597E+02  0.00000000000E+00 0.  1.
          4   -1    0    0  501    0  0.00000000000E+00 -0.00000000000E+00 -0.23677916513E+03  0.23677916513E+03  0.00000000000E+00 0. -1.
         25    2    1    2    0    0  0.12609639302E+02  0.55583528139E+02 -0.14874300723E+03  0.20253606513E+03  0.12509134212E+03 0.  0.
         23    2    1    2    0    0 -0.12609639302E+02 -0.55583528139E+02 -0.16626570305E+02  0.10565268761E+03  0.87392882746E+02 0.  0.
          5    1    3    3  502    0  0.68839610500E+02  0.28307001196E+02 -0.74388038065E+02  0.10531491299E+03  0.41800000000E+01 0. -1.
         -5    1    3    3    0  502 -0.56229971198E+02  0.27276526943E+02 -0.74354969168E+02  0.97221152138E+02  0.41800000000E+01 0. -1.
        -11    1    4    4    0    0  0.33928875858E+01  0.23352540136E+02 -0.65013023942E+01  0.24476922801E+02  0.00000000000E+00 0. -1.
         11    1    4    4    0    0 -0.16002526888E+02 -0.78936068275E+02 -0.10125267910E+02  0.81175764806E+02  0.00000000000E+00 0.  1.
</event>
<event>
 8    1  0.7281309E-009  0.1841614E+03  0.7561462E-02  0.1163835E+00
         -2   -1    0    0    0  501 -0.00000000000E+00  0.00000000000E+00  0.39379977334E+02  0.39379977334E+02  0.00000000000E+00 0.  1.
          2   -1    0    0  501    0  0.00000000000E+00 -0.00000000000E+00 -0.10703574195E+04  0.10703574195E+04  0.00000000000E+00 0. -1.
         25    2    1    2    0    0 -0.10824799659E+03 -0.11490944654E+03 -0.73520796593E+03  0.76229926273E+03  0.12509037982E+03 0.  0.
         23    2    1    2    0    0  0.10824799659E+03  0.11490944654E+03 -0.29576947626E+03  0.34743813413E+03  0.91169426283E+02 0.  0.
          5    1    3    3  502    0 -0.98867048994E+02 -0.14105383034E+03 -0.65628991934E+03  0.67853136041E+03  0.41800000000E+01 0. -1.
         -5    1    3    3    0  502 -0.93809475997E+01  0.26144383801E+02 -0.78918046595E+02  0.83767902329E+02  0.41800000000E+01 0.  1.
        -11    1    4    4    0    0  0.96789035150E+02  0.64681839965E+02 -0.13320248650E+03  0.17690325083E+03  0.00000000000E+00 0.  1.
         11    1    4    4    0    0  0.11458961444E+02  0.50227606571E+02 -0.16256698977E+03  0.17053488330E+03  0.00000000000E+00 0. -1.
</event>
<event>
 8    1  0.7281309E-009  0.1716142E+03  0.7561462E-02  0.1176175E+00
          2   -1    0    0  501    0  0.00000000000E+00  0.00000000000E+00  0.19101235325E+04  0.19101235325E+04  0.00000000000E+00 0.  1.
         -2   -1    0    0    0  501 -0.00000000000E+00 -0.00000000000E+00 -0.21940018025E+02  0.21940018025E+02  0.00000000000E+00 0. -1.
         25    2    1    2    0    0  0.62342993546E+02  0.15191562158E+03  0.12461679906E+04  0.12631509632E+04  0.12510271782E+03 0.  0.
         23    2    1    2    0    0 -0.62342993546E+02 -0.15191562158E+03  0.64201552386E+03  0.66891258736E+03  0.91077503903E+02 0.  0.
          5    1    3    3  502    0  0.29138564276E+02  0.10431685047E+03  0.11072050458E+04  0.11124978863E+04  0.41800000000E+01 0. -1.
         -5    1    3    3    0  502  0.33204429269E+02  0.47598771116E+02  0.13896294486E+03  0.15065307690E+03  0.41800000000E+01 0. -1.
        -11    1    4    4    0    0  0.10156872404E+02 -0.53267582777E+02  0.31699989106E+03  0.32160461496E+03  0.00000000000E+00 0.  1.
         11    1    4    4    0    0 -0.72499865949E+02 -0.98648038807E+02  0.32501563280E+03  0.34730797239E+03  0.00000000000E+00 0. -1.
</event>
<event>
 8    1  0.7281309E-009  0.1013760E+03  0.7561462E-02  0.1277429E+00
          1   -1    0    0  501    0  0.00000000000E+00  0.00000000000E+00  0.89034704216E+02  0.89034704216E+02  0.00000000000E+00 0. -1.
         -1   -1    0    0    0  501 -0.00000000000E+00 -0.00000000000E+00 -0.15316742514E+03  0.15316742514E+03  0.00000000000E+00 0.  1.
         25    2    1    2    0    0  0.33345532080E+02 -0.14207850393E+02 -0.14242681889E+02  0.13101238791E+03  0.12509038443E+03 0.  0.
         23    2    1    2    0    0 -0.33345532080E+02  0.14207850393E+02 -0.49890039037E+02  0.11118974145E+03  0.92522186989E+02 0.  0.
          5    1    3    3  502    0  0.77954136401E+02 -0.19925894603E+02  0.74369020804E+01  0.80911486022E+02  0.41800000000E+01 0. -1.
         -5    1    3    3    0  502 -0.44608604320E+02  0.57180442102E+01 -0.21679583970E+02  0.50100901889E+02  0.41800000000E+01 0. -1.
        -11    1    4    4    0    0 -0.28257234595E+02  0.40972489544E+02  0.48876511326E+01  0.50011052179E+02  0.00000000000E+00 0. -1.
         11    1    4    4    0    0 -0.50882974849E+01 -0.26764639152E+02 -0.54777690169E+02  0.61178689267E+02  0.00000000000E+00 0.  1.
</event>
<event>
 8    1  0.7281309E-009  0.1110483E+03  0.7561462E-02  0.1258641E+00
          1   -1    0    0  501    0  0.00000000000E+00  0.00000000000E+00  0.43491579319E+02  0.43491579319E+02  0.00000000000E+00 0. -1.
         -1   -1    0    0    0  501 -0.00000000000E+00 -0.00000000000E+00 -0.42979658646E+03  0.42979658646E+03  0.00000000000E+00 0.  1.
         25    2    1    2    0    0 -0.10954882681E+02 -0.83081071331E+02 -0.20303551592E+03  0.25277206556E+03  0.12509125682E+03 0.  0.
         23    2    1    2    0    0  0.10954882681E+02  0.83081071331E+02 -0.18326949122E+03  0.22051610022E+03  0.89538651859E+02 0.  0.
          5    1    3    3  502    0  0.19672370548E+02 -0.15621792733E+02 -0.16939499932E+03  0.17129851361E+03  0.41800000000E+01 0.  1.
         -5    1    3    3    0  502 -0.30627253229E+02 -0.67459278598E+02 -0.33640516602E+02  0.81473551945E+02  0.41800000000E+01 0.  1.
        -11    1    4    4    0    0 -0.11468046690E+02  0.95909939548E+02 -0.14967981195E+03  0.17814117633E+03  0.00000000000E+00 0.  1.
         11    1    4    4    0    0  0.22422929371E+02 -0.12828868217E+02 -0.33589679267E+02  0.42374923888E+02  0.00000000000E+00 0. -1.
</event>
<event>
 8    1  0.7281309E-009  0.1373557E+03  0.7561462E-02  0.1216932E+00
         -1   -1    0    0    0  501 -0.00000000000E+00  0.00000000000E+00  0.12763349683E+03  0.12763349683E+03  0.00000000000E+00 0.  1.
          1   -1    0    0  501    0  0.00000000000E+00 -0.00000000000E+00 -0.21980389846E+03  0.21980389846E+03  0.00000000000E+00 0. -1.
         25    2    1    2    0    0 -0.10773726770E+03 -0.25067947952E+01  0.21260911047E+02  0.16647504009E+03  0.12509320430E+03 0.  0.
         23    2    1    2    0    0  0.10773726770E+03  0.25067947952E+01 -0.11343131268E+03  0.18096235521E+03  0.90923640685E+02 0.  0.
          5    1    3    3  502    0 -0.45780943014E+02 -0.62784968720E+02  0.21371443008E+01  0.77845274912E+02  0.41800000000E+01 0.  1.
         -5    1    3    3    0  502 -0.61956324685E+02  0.60278173924E+02  0.19123766747E+02  0.88629765174E+02  0.41800000000E+01 0.  1.
        -11    1    4    4    0    0  0.80884460086E+02 -0.85051321265E+01 -0.20881141073E+02  0.83968179738E+02  0.00000000000E+00 0.  1.
         11    1    4    4    0    0  0.26852807612E+02  0.11011926922E+02 -0.92550171604E+02  0.96994175470E+02  0.00000000000E+00 0. -1.
</event>
<event>
 8    1  0.7281309E-009  0.1506140E+03  0.7561462E-02  0.1199721E+00
          2   -1    0    0  501    0  0.00000000000E+00  0.00000000000E+00  0.25656973888E+03  0.25656973888E+03  0.00000000000E+00 0.  1.
         -2   -1    0    0    0  501 -0.00000000000E+00 -0.00000000000E+00 -0.11810862196E+03  0.11810862196E+03  0.00000000000E+00 0. -1.
         25    2    1    2    0    0  0.58696127300E+02 -0.12175910878E+03  0.68500164265E+02  0.19650199102E+03  0.12510093540E+03 0.  0.
         23    2    1    2    0    0 -0.58696127300E+02  0.12175910878E+03  0.69960952654E+02  0.17817636983E+03  0.92637832102E+02 0.  0.
          5    1    3    3  502    0 -0.24685090265E+02 -0.37768466440E+02  0.63451129635E+02  0.77970051883E+02  0.41800000000E+01 0.  1.
         -5    1    3    3    0  502  0.83381217566E+02 -0.83990642343E+02  0.50490346293E+01  0.11853193913E+03  0.41800000000E+01 0.  1.
        -11    1    4    4    0    0 -0.42118992280E+02  0.10808382018E+03  0.91504540063E+02  0.14774708981E+03  0.00000000000E+00 0.  1.
         11    1    4    4    0    0 -0.16577135020E+02  0.13675288605E+02 -0.21543587409E+02  0.30429280017E+02  0.00000000000E+00 0. -1.
</event>
<event>
 8    1  0.7281309E-009  0.1905515E+03  0.7561462E-02  0.1157965E+00
          1   -1    0    0  501    0  0.00000000000E+00  0.00000000000E+00  0.44499396353E+03  0.44499396353E+03  0.00000000000E+00 0. -1.
         -1   -1    0    0    0  501 -0.00000000000E+00 -0.00000000000E+00 -0.94738282350E+02  0.94738282350E+02  0.00000000000E+00 0.  1.
         25    2    1    2    0    0  0.13783429131E+03 -0.99412612870E+02  0.13493946893E+03  0.25047261672E+03  0.12508681782E+03 0.  0.
         23    2    1    2    0    0 -0.13783429131E+03  0.99412612870E+02  0.21531621225E+03  0.28925962916E+03  0.91809053735E+02 0.  0.
          5    1    3    3  502    0  0.35394285559E+02 -0.96709592828E+02  0.39509084168E+02  0.11038089023E+03  0.41800000000E+01 0.  1.
         -5    1    3    3    0  502  0.10244000575E+03 -0.27030200421E+01  0.95430384764E+02  0.14009172649E+03  0.41800000000E+01 0.  1.
        -11    1    4    4    0    0 -0.74243599051E+02  0.26750581524E+02  0.38523160554E+02  0.87816510469E+02  0.00000000000E+00 0.  1.
         11    1    4    4    0    0 -0.63590692258E+02  0.72662031346E+02  0.17679305170E+03  0.20144311869E+03  0.00000000000E+00 0. -1.
</event>
<event>
 8    1  0.7281309E-009  0.7928654E+02  0.7561462E-02  0.1331088E+00
         -1   -1    0    0    0  501 -0.00000000000E+00  0.00000000000E+00  0.34134711174E+02  0.34134711174E+02  0.00000000000E+00 0.  1.
          1   -1    0    0  501    0  0.00000000000E+00 -0.00000000000E+00 -0.67989522117E+03  0.67989522117E+03  0.00000000000E+00 0. -1.
         25    2    1    2    0    0 -0.40352308022E+02  0.31556646333E+02 -0.12945711048E+03  0.18716359718E+03  0.12508772108E+03 0.  0.
         23    2    1    2    0    0  0.40352308022E+02 -0.31556646333E+02 -0.51630339951E+03  0.52686633516E+03  0.91623163497E+02 0.  0.
          5    1    3    3  502    0 -0.28482500486E+02  0.28835322358E+02  0.14034983522E+02  0.43095032335E+02  0.41800000000E+01 0. -1.
         -5    1    3    3    0  502 -0.11869807536E+02  0.27213239749E+01 -0.14349209400E+03  0.14406856484E+03  0.41800000000E+01 0. -1.
        -11    1    4    4    0    0  0.68742839754E+01 -0.60383503883E+02 -0.30387534664E+03  0.30989296478E+03  0.00000000000E+00 0.  1.
         11    1    4    4    0    0  0.33478024047E+02  0.28826857550E+02 -0.21242805287E+03  0.21697337039E+03  0.00000000000E+00 0. -1.
</event>
<event>
 8    1  0.7281309E-009  0.2213814E+03  0.7561462E-02  0.1132857E+00
          2   -1    0    0  501    0  0.00000000000E+00  0.00000000000E+00  0.48229216635E+03  0.48229216635E+03  0.00000000000E+00 0.  1.
         -2   -1    0    0    0  501 -0.00000000000E+00 -0.00000000000E+00 -0.11755101884E+03  0.11755101884E+03  0.00000000000E+00 0. -1.
         25    2    1    2    0    0  0.21008806191E+03  0.16644308428E+02  0.19594845601E+03  0.31377968900E+03  0.12509144277E+03 0.  0.
         23    2    1    2    0    0 -0.21008806191E+03 -0.16644308428E+02  0.16879269149E+03  0.28606349619E+03  0.94484519313E+02 0.  0.
          5    1    3    3  502    0  0.98989930135E+02 -0.39011594038E+02  0.38651436398E+02  0.11327981582E+03  0.41800000000E+01 0.  1.
         -5    1    3    3    0  502  0.11109813178E+03  0.55655902467E+02  0.15729701961E+03  0.20049987318E+03  0.41800000000E+01 0.  1.
        -11    1    4    4    0    0 -0.55612317548E+02 -0.14454501794E+02  0.29456356906E+00  0.57460849740E+02  0.00000000000E+00 0. -1.
         11    1    4    4    0    0 -0.15447574437E+03 -0.21898066342E+01  0.16849812792E+03  0.22860264645E+03  0.00000000000E+00 0.  1.
</event>
<event>
 8    1  0.7281309E-009  0.2595208E+03  0.7561462E-02  0.1107431E+00
          2   -1    0    0  501    0  0.00000000000E+00  0.00000000000E+00  0.15785607819E+03  0.15785607819E+03  0.00000000000E+00 0. -1.
         -2   -1    0    0    0  501 -0.00000000000E+00 -0.00000000000E+00 -0.53254298923E+03  0.53254298923E+03  0.00000000000E+00 0.  1.
         25    2    1    2    0    0  0.15432221769E+03  0.18025684528E+03 -0.41464630744E+02  0.27143241052E+03  0.12509340803E+03 0.  0.
         23    2    1    2    0    0 -0.15432221769E+03 -0.18025684528E+03 -0.33322228030E+03  0.41896665689E+03  0.90488089596E+02 0.  0.
          5    1    3    3  502    0 -0.21234735828E+02  0.30659863545E+02 -0.72067799927E+01  0.38214543255E+02  0.41800000000E+01 0.  1.
         -5    1    3    3    0  502  0.17555695352E+03  0.14959698174E+03 -0.34257850751E+02  0.23321786727E+03  0.41800000000E+01 0.  1.
        -11    1    4    4    0    0 -0.62005856501E+02 -0.18720685474E+02 -0.59191115641E+02  0.87742683318E+02  0.00000000000E+00 0. -1.
         11    1    4    4    0    0 -0.92316361190E+02 -0.16153615981E+03 -0.27403116466E+03  0.33122397358E+03  0.00000000000E+00 0.  1.
</event>
<event>
 8    1  0.7281309E-009  0.1010499E+03  0.7561462E-02  0.1278104E+00
          3   -1    0    0  501    0  0.00000000000E+00  0.00000000000E+00  0.33477884727E+02  0.33477884727E+02  0.00000000000E+00 0. -1.
         -3   -1    0    0    0  501 -0.00000000000E+00 -0.00000000000E+00 -0.62565606923E+03  0.62565606923E+03  0.00000000000E+00 0.  1.
         25    2    1    2    0    0 -0.32412560816E+01 -0.23360738367E+02 -0.53353339948E+03  0.54850834753E+03  0.12508912468E+03 0.  0.
         23    2    1    2    0    0  0.32412560816E+01  0.23360738367E+02 -0.58644785028E+02  0.11062560643E+03  0.90788678530E+02 0.  0.
          5    1    3    3  502    0  0.51836912437E+02 -0.43948352047E+02 -0.30323491368E+03  0.31078514831E+03  0.41800000000E+01 0. -1.
         -5    1    3    3    0  502 -0.55078168518E+02  0.20587613680E+02 -0.23029848580E+03  0.23772319922E+03  0.41800000000E+01 0. -1.
        -11    1    4    4    0    0 -0.32171802784E+02 -0.81956294959E+00  0.63081604465E+01  0.32794656059E+02  0.00000000000E+00 0. -1.
         11    1    4    4    0    0  0.35413058865E+02  0.24180301316E+02 -0.64952945475E+02  0.77830950372E+02  0.00000000000E+00 0.  1.
</event>
<event>
 8    1  0.7281309E-009  0.1432707E+03  0.7561462E-02  0.1208995E+00
          1   -1    0    0  501    0  0.00000000000E+00  0.00000000000E+00  0.45368471405E+02  0.45368471405E+02  0.00000000000E+00 0. -1.
         -1   -1    0    0    0  501 -0.00000000000E+00 -0.00000000000E+00 -0.46896235704E+03  0.46896235704E+03  0.00000000000E+00 0.  1.
         25    2    1    2    0    0  0.62984699412E+02 -0.72421888774E+02 -0.20605957290E+03  0.25945918545E+03  0.12508604637E+03 0.  0.
         23    2    1    2    0    0 -0.62984699412E+02  0.72421888774E+02 -0.21753431273E+03  0.25487164299E+03  0.91795287742E+02 0.  0.
          5    1    3    3  502    0  0.32340440191E+02 -0.10432363790E+03 -0.17060350309E+03  0.20261380299E+03  0.41800000000E+01 0.  1.
         -5    1    3    3    0  502  0.30644259221E+02  0.31901749125E+02 -0.35456069812E+02  0.56845382459E+02  0.41800000000E+01 0.  1.
        -11    1    4    4    0    0 -0.20327249580E+02  0.85741970434E+02 -0.14363315100E+03  0.16850924199E+03  0.00000000000E+00 0.  1.
         11    1    4    4    0    0 -0.42657449832E+02 -0.13320081660E+02 -0.73901161735E+02  0.86362401005E+02  0.00000000000E+00 0. -1.
</event>
<event>
 8    1  0.7281309E-009  0.2754252E+03  0.7561462E-02  0.1098214E+00
         -1   -1    0    0    0  501 -0.00000000000E+00  0.00000000000E+00  0.61005851185E+02  0.61005851185E+02  0.00000000000E+00 0.  1.
          1   -1    0    0  501    0  0.00000000000E+00 -0.00000000000E+00 -0.14223846623E+04  0.14223846623E+04  0.00000000000E+00 0. -1.
         25    2    1    2    0    0 -0.21628392200E+03 -0.14690497596E+03 -0.49350846851E+03  0.57232624182E+03  0.12508761610E+03 0.  0.
         23    2    1    2    0    0  0.21628392200E+03  0.14690497596E+03 -0.86787034257E+03  0.91106427163E+03  0.92083487428E+02 0.  0.
          5    1    3    3  502    0 -0.22774851571E+03 -0.15022621028E+03 -0.44328270650E+03  0.52053273763E+03  0.41800000000E+01 0. -1.
         -5    1    3    3    0  502  0.11464593713E+02  0.33212343136E+01 -0.50225762007E+02  0.51793504183E+02  0.41800000000E+01 0. -1.
        -11    1    4    4    0    0  0.76853936063E+02  0.79133988038E+02 -0.23684056737E+03  0.26127030046E+03  0.00000000000E+00 0.  1.
         11    1    4    4    0    0  0.13942998594E+03  0.67770987927E+02 -0.63102977520E+03  0.64979397118E+03  0.00000000000E+00 0. -1.
</event>
<event>
 8    1  0.7281309E-009  0.1368220E+03  0.7561462E-02  0.1217670E+00
          3   -1    0    0  501    0  0.00000000000E+00  0.00000000000E+00  0.98477857164E+02  0.98477857164E+02  0.00000000000E+00 0.  1.
         -3   -1    0    0    0  501 -0.00000000000E+00 -0.00000000000E+00 -0.33246020005E+03  0.33246020005E+03  0.00000000000E+00 0. -1.
         25    2    1    2    0    0  0.82026029419E+02  0.76402709969E+02 -0.14752934276E+02  0.16861396229E+03  0.12508947045E+03 0.  0.
         23    2    1    2    0    0 -0.82026029419E+02 -0.76402709969E+02 -0.21922940861E+03  0.26232409492E+03  0.90480680733E+02 0.  0.
          5    1    3    3  502    0  0.13989703146E+02  0.89242262097E+02 -0.34033030458E+02  0.96620974434E+02  0.41800000000E+01 0. -1.
         -5    1    3    3    0  502  0.68036326273E+02 -0.12839552128E+02  0.19280096182E+02  0.71992987856E+02  0.41800000000E+01 0. -1.
        -11    1    4    4    0    0 -0.29673062232E+02 -0.41164136686E+02 -0.22115012357E+02  0.55353866558E+02  0.00000000000E+00 0.  1.
         11    1    4    4    0    0 -0.52352967187E+02 -0.35238573283E+02 -0.19711439625E+03  0.20697022836E+03  0.00000000000E+00 0. -1.
</event>
<event>
 8    1  0.7281309E-009  0.2355673E+03  0.7561462E-02  0.1122782E+00
         -1   -1    0    0    0  501 -0.00000000000E+00  0.00000000000E+00  0.40857836297E+03  0.40857836297E+03  0.00000000000E+00 0. -1.
          1   -1    0    0  501    0  0.00000000000E+00 -0.00000000000E+00 -0.19035263847E+03  0.19035263847E+03  0.00000000000E+00 0.  1.
         25    2    1    2    0    0  0.15295530339E+03 -0.15374168022E+03  0.25865098474E+03  0.35997186087E+03  0.12509028595E+03 0.  0.
         23    2    1    2    0    0 -0.15295530339E+03  0.15374168022E+03 -0.40425260242E+02  0.23895914056E+03  0.91844652087E+02 0.  0.
          5    1    3    3  502    0  0.10496312996E+03 -0.15708327282E+03  0.15066780733E+03  0.24168300275E+03  0.41800000000E+01 0.  1.
         -5    1    3    3    0  502  0.47992173437E+02  0.33415926018E+01  0.10798317741E+03  0.11828885813E+03  0.41800000000E+01 0.  1.
        -11    1    4    4    0    0 -0.10756276854E+03  0.15476210008E+03 -0.21222626513E+02  0.18966142642E+03  0.00000000000E+00 0. -1.
         11    1    4    4    0    0 -0.45392534852E+02 -0.10204198533E+01 -0.19202633729E+02  0.49297714137E+02  0.00000000000E+00 0.  1.
</event>
<event>
 8    1  0.7281309E-009  0.1980514E+03  0.7561462E-02  0.1151394E+00
         -2   -1    0    0    0  501 -0.00000000000E+00  0.00000000000E+00  0.25385957821E+02  0.25385957821E+02  0.00000000000E+00 0.  1.
          2   -1    0    0  501    0  0.00000000000E+00 -0.00000000000E+00 -0.18051832965E+04  0.18051832965E+04  0.00000000000E+00 0. -1.
         25    2    1    2    0    0 -0.11204693432E+03 -0.13913001883E+03 -0.11152095243E+04  0.11363325358E+04  0.12509065182E+03 0.  0.
         23    2    1    2    0    0  0.11204693432E+03  0.13913001883E+03 -0.66458781441E+03  0.69423671857E+03  0.91520384113E+02 0.  0.
          5    1    3    3  502    0  0.35629238007E+01  0.19748957377E+02 -0.14251589497E+03  0.14398252832E+03  0.41800000000E+01 0.  1.
         -5    1    3    3    0  502 -0.11560985812E+03 -0.15887897621E+03 -0.97269362932E+03  0.99235000745E+03  0.41800000000E+01 0.  1.
        -11    1    4    4    0    0  0.30042258350E+02  0.46456307140E+02 -0.83819937729E+02  0.10043160718E+03  0.00000000000E+00 0.  1.
         11    1    4    4    0    0  0.82004675970E+02  0.92673711690E+02 -0.58076787669E+03  0.59380511139E+03  0.00000000000E+00 0. -1.
</event>
<event>
 8    1  0.7281309E-009  0.5050636E+03  0.7561462E-02  0.1012466E+00
         -1   -1    0    0    0  501 -0.00000000000E+00  0.00000000000E+00  0.99398243930E+03  0.99398243930E+03  0.00000000000E+00 0.  1.
          1   -1    0    0  501    0  0.00000000000E+00 -0.00000000000E+00 -0.28706289329E+03  0.28706289329E+03  0.00000000000E+00 0. -1.
         25    2    1    2    0    0 -0.35352482905E+03  0.35603834074E+03  0.53184690587E+03  0.74178958253E+03  0.12509016198E+03 0.  0.
         23    2    1    2    0    0  0.35352482905E+03 -0.35603834074E+03  0.17507264013E+03  0.53925575007E+03  0.91669132345E+02 0.  0.
          5    1    3    3  502    0 -0.12952124064E+03  0.79460748143E+02  0.99067878435E+02  0.18144332231E+03  0.41800000000E+01 0. -1.
         -5    1    3    3    0  502 -0.22400358840E+03  0.27657759260E+03  0.43277902744E+03  0.56034626022E+03  0.41800000000E+01 0. -1.
        -11    1    4    4    0    0  0.33913018431E+03 -0.34691480162E+03  0.14790199462E+03  0.50718257217E+03  0.00000000000E+00 0. -1.
         11    1    4    4    0    0  0.14394644732E+02 -0.91235391220E+01  0.27170645511E+02  0.32073177899E+02  0.00000000000E+00 0.  1.
</event>
<event>
 8    1  0.7281309E-009  0.2466379E+03  0.7561462E-02  0.1115448E+00
         -2   -1    0    0    0  501 -0.00000000000E+00  0.00000000000E+00  0.46743543631E+03  0.46743543631E+03  0.00000000000E+00 0. -1.
          2   -1    0    0  501    0  0.00000000000E+00 -0.00000000000E+00 -0.13665652811E+03  0.13665652811E+03  0.00000000000E+00 0.  1.
         25    2    1    2    0    0  0.22313468221E+03 -0.42141442865E+02  0.19903977804E+03  0.32684320895E+03  0.12507862481E+03 0.  0.
         23    2    1    2    0    0 -0.22313468221E+03  0.42141442865E+02  0.13173913016E+03  0.27724875547E+03  0.89144188735E+02 0.  0.
          5    1    3    3  502    0  0.13939857830E+03 -0.86691740581E+02  0.12180238643E+03  0.20445223221E+03  0.41800000000E+01 0.  1.
         -5    1    3    3    0  502  0.83736103908E+02  0.44550297716E+02  0.77237391605E+02  0.12239097674E+03  0.41800000000E+01 0.  1.
        -11    1    4    4    0    0 -0.10096698866E+03  0.48042303336E+02  0.10206048464E+03  0.15138935971E+03  0.00000000000E+00 0. -1.
         11    1    4    4    0    0 -0.12216769355E+03 -0.59008604711E+01  0.29678645520E+02  0.12585939576E+03  0.00000000000E+00 0.  1.
</event>
<event>
 8    1  0.7281309E-009  0.1316079E+03  0.7561462E-02  0.1225089E+00
          1   -1    0    0  501    0  0.00000000000E+00  0.00000000000E+00  0.13873500029E+03  0.13873500029E+03  0.00000000000E+00 0. -1.
         -1   -1    0    0    0  501 -0.00000000000E+00 -0.00000000000E+00 -0.24897730495E+03  0.24897730495E+03  0.00000000000E+00 0.  1.
         25    2    1    2    0    0 -0.87920368191E+02  0.11334587678E+01  0.69288760782E+02  0.16787435342E+03  0.12509832251E+03 0.  0.
         23    2    1    2    0    0  0.87920368191E+02 -0.11334587678E+01 -0.17953106544E+03  0.21983795182E+03  0.91466090605E+02 0.  0.
          5    1    3    3  502    0 -0.11481785413E+03  0.16745795004E+02  0.71599821974E+02  0.13640956046E+03  0.41800000000E+01 0.  1.
         -5    1    3    3    0  502  0.26897485939E+02 -0.15612336236E+02 -0.23110611924E+01  0.31464792966E+02  0.41800000000E+01 0.  1.
        -11    1    4    4    0    0  0.32166260252E+02  0.36355233503E+02 -0.12229806151E+03  0.13157958486E+03  0.00000000000E+00 0.  1.
         11    1    4    4    0    0  0.55754107939E+02 -0.37488692271E+02 -0.57233003930E+02  0.88258366964E+02  0.00000000000E+00 0. -1.
</event>
<event>
 8    1  0.7281309E-009  0.1224065E+03  0.7561462E-02  0.1239179E+00
          2   -1    0    0  501    0  0.00000000000E+00  0.00000000000E+00  0.34902240793E+03  0.34902240793E+03  0.00000000000E+00 0. -1.
         -2   -1    0    0    0  501 -0.00000000000E+00 -0.00000000000E+00 -0.75427833581E+02  0.75427833581E+02  0.00000000000E+00 0.  1.
         25    2    1    2    0    0  0.67495452554E+02  0.54279437460E+02  0.25641694501E+03  0.29815935432E+03  0.12508979748E+03 0.  0.
         23    2    1    2    0    0 -0.67495452554E+02 -0.54279437460E+02  0.17177629331E+02  0.12629088718E+03  0.90290773557E+02 0.  0.
          5    1    3    3  502    0  0.33593992106E+01  0.58797288184E+02  0.21157932704E+03  0.21966267478E+03  0.41800000000E+01 0.  1.
         -5    1    3    3    0  502  0.64136053343E+02 -0.45178507238E+01  0.44837617970E+02  0.78496679540E+02  0.41800000000E+01 0.  1.
        -11    1    4    4    0    0 -0.54268226689E+02 -0.77503604315E+02  0.17527549922E+00  0.94614374338E+02  0.00000000000E+00 0.  1.
         11    1    4    4    0    0 -0.13227225864E+02  0.23224166855E+02  0.17002353832E+02  0.31676512845E+02  0.00000000000E+00 0. -1.
</event>
<event>
 8    1  0.7281309E-009  0.8605571E+02  0.7561462E-02  0.1312695E+00
         -3   -1    0    0    0  501 -0.00000000000E+00  0.00000000000E+00  0.55790975162E+03  0.55790975162E+03  0.00000000000E+00 0.  1.
          3   -1    0    0  501    0  0.00000000000E+00 -0.00000000000E+00 -0.27307113248E+02  0.27307113248E+02  0.00000000000E+00 0. -1.
         25    2    1    2    0    0 -0.21028240483E+02  0.49371269572E+02  0.27145496450E+03  0.30366854373E+03  0.12508827900E+03 0.  0.
         23    2    1    2    0    0  0.21028240483E+02 -0.49371269572E+02  0.25914767387E+03  0.28154832114E+03  0.96084499818E+02 0.  0.
          5    1    3    3  502    0  0.18383224109E+02  0.50410387880E+02  0.35655975462E+02  0.64559825906E+02  0.41800000000E+01 0. -1.
         -5    1    3    3    0  502 -0.39411464592E+02 -0.10391183080E+01  0.23579898904E+03  0.23910871783E+03  0.41800000000E+01 0. -1.
        -11    1    4    4    0    0  0.17806908165E+02  0.91602699534E+01  0.48801355141E+01  0.20610973938E+02  0.00000000000E+00 0. -1.
         11    1    4    4    0    0  0.32213323176E+01 -0.58531539526E+02  0.25426753836E+03  0.26093734720E+03  0.00000000000E+00 0.  1.
</event>
<event>
 8    1  0.7281309E-009  0.9749128E+02  0.7561462E-02  0.1285662E+00
         -3   -1    0    0    0  501 -0.00000000000E+00  0.00000000000E+00  0.36092942191E+03  0.36092942191E+03  0.00000000000E+00 0.  1.
          3   -1    0    0  501    0  0.00000000000E+00 -0.00000000000E+00 -0.38777487828E+02  0.38777487828E+02  0.00000000000E+00 0. -1.
         25    2    1    2    0    0  0.63776479191E+01  0.44097669608E+02  0.21994575530E+03  0.25692260484E+03  0.12509120971E+03 0.  0.
         23    2    1    2    0    0 -0.63776479191E+01 -0.44097669608E+02  0.10220617878E+03  0.14278430490E+03  0.89196277308E+02 0.  0.
          5    1    3    3  502    0  0.14042367953E+02  0.69440316646E+02  0.21887908993E+03  0.23009709707E+03  0.41800000000E+01 0. -1.
         -5    1    3    3    0  502 -0.76647200341E+01 -0.25342647038E+02  0.10666653730E+01  0.26825507770E+02  0.41800000000E+01 0. -1.
        -11    1    4    4    0    0  0.25002183837E+02 -0.57794185034E+02  0.80663410972E+02  0.10233212052E+03  0.00000000000E+00 0.  1.
         11    1    4    4    0    0 -0.31379831757E+02  0.13696515426E+02  0.21542767809E+02  0.40452184376E+02  0.00000000000E+00 0. -1.
</event>
<event>
 8    1  0.7281309E-009  0.1286963E+03  0.7561462E-02  0.1229403E+00
         -1   -1    0    0    0  501 -0.00000000000E+00  0.00000000000E+00  0.21193648938E+03  0.21193648938E+03  0.00000000000E+00 0.  1.
          1   -1    0    0  501    0  0.00000000000E+00 -0.00000000000E+00 -0.10248178181E+03  0.10248178181E+03  0.00000000000E+00 0. -1.
         25    2    1    2    0    0  0.54206359560E+02  0.81269043995E+02  0.73348753227E+02  0.17480416804E+03  0.12503387795E+03 0.  0.
         23    2    1    2    0    0 -0.54206359560E+02 -0.81269043995E+02  0.36105954350E+02  0.13961410315E+03  0.92981024571E+02 0.  0.
          5    1    3    3  502    0 -0.23869312475E+02 -0.18640289672E+02  0.59513587254E+01  0.31146356894E+02  0.41800000000E+01 0. -1.
         -5    1    3    3    0  502  0.78075672035E+02  0.99909333667E+02  0.67397394502E+02  0.14365781115E+03  0.41800000000E+01 0. -1.
        -11    1    4    4    0    0 -0.22968790819E+02 -0.53244023433E+02  0.66175549345E+02  0.87986900809E+02  0.00000000000E+00 0.  1.
         11    1    4    4    0    0 -0.31237568741E+02 -0.28025020562E+02 -0.30069594995E+02  0.51627202341E+02  0.00000000000E+00 0. -1.
</event>
<event>
 8    1  0.7281309E-009  0.1229813E+03  0.7561462E-02  0.1238258E+00
          1   -1    0    0  501    0  0.00000000000E+00  0.00000000000E+00  0.59182230214E+03  0.59182230214E+03  0.00000000000E+00 0. -1.
         -1   -1    0    0    0  501 -0.00000000000E+00 -0.00000000000E+00 -0.38680023281E+02  0.38680023281E+02  0.00000000000E+00 0.  1.
         25    2    1    2    0    0 -0.94702843933E+02  0.75907843586E+01  0.20590644842E+03  0.25897831089E+03  0.12508417708E+03 0.  0.
         23    2    1    2    0    0  0.94702843933E+02 -0.75907843586E+01  0.34723583044E+03  0.37152401453E+03  0.91821145584E+02 0.  0.
          5    1    3    3  502    0 -0.11363935177E+03  0.32799228962E+02  0.18889744334E+03  0.22291121145E+03  0.41800000000E+01 0.  1.
         -5    1    3    3    0  502  0.18936507834E+02 -0.25208444603E+02  0.17009005085E+02  0.36067099443E+02  0.41800000000E+01 0.  1.
        -11    1    4    4    0    0  0.65878895985E+02 -0.10965814920E+02  0.33218578841E+03  0.33883281431E+03  0.00000000000E+00 0. -1.
         11    1    4    4    0    0  0.28823947948E+02  0.33750305612E+01  0.15050042026E+02  0.32691200216E+02  0.00000000000E+00 0.  1.
</event>
<event>
 8    1  0.7281309E-009  0.1644331E+03  0.7561462E-02  0.1183781E+00
          1   -1    0    0  501    0  0.00000000000E+00  0.00000000000E+00  0.33271271346E+03  0.33271271346E+03  0.00000000000E+00 0. -1.
         -1   -1    0    0    0  501 -0.00000000000E+00 -0.00000000000E+00 -0.90350812581E+02  0.90350812581E+02  0.00000000000E+00 0.  1.
         25    2    1    2    0    0  0.10545683846E+03  0.81203225065E+02  0.15466124602E+03  0.23933965572E+03  0.12509301035E+03 0.  0.
         23    2    1    2    0    0 -0.10545683846E+03 -0.81203225065E+02  0.87700654859E+02  0.18372387032E+03  0.91367100888E+02 0.  0.
          5    1    3    3  502    0  0.91205744358E+01  0.84502473608E+02  0.85489729136E+02  0.12062263101E+03  0.41800000000E+01 0. -1.
         -5    1    3    3    0  502  0.96336264026E+02 -0.32992485425E+01  0.69171516884E+02  0.11871702471E+03  0.41800000000E+01 0. -1.
        -11    1    4    4    0    0 -0.76354483401E+02 -0.19106391038E+02  0.83900254659E+02  0.11504048872E+03  0.00000000000E+00 0.  1.
         11    1    4    4    0    0 -0.29102355061E+02 -0.62096834028E+02  0.38004002001E+01  0.68683381600E+02  0.00000000000E+00 0. -1.
</event>
<event>
 8    1  0.7281309E-009  0.1174440E+03  0.7561462E-02  0.1247374E+00
          2   -1    0    0  501    0  0.00000000000E+00  0.00000000000E+00  0.29111443407E+03  0.29111443407E+03  0.00000000000E+00 0. -1.
         -2   -1    0    0    0  501 -0.00000000000E+00 -0.00000000000E+00 -0.13433271346E+03  0.13433271346E+03  0.00000000000E+00 0.  1.
         25    2    1    2    0    0 -0.35791993901E+02 -0.73404504674E+02  0.23430116273E+03  0.27787319341E+03  0.12508872302E+03 0.  0.
         23    2    1    2    0    0  0.35791993901E+02  0.73404504674E+02 -0.77519442127E+02  0.14757395412E+03  0.95391403660E+02 0.  0.
          5    1    3    3  502    0 -0.71771785081E+02 -0.40307648719E+02  0.75894578454E+02  0.11204175613E+03  0.41800000000E+01 0.  1.
         -5    1    3    3    0  502  0.35979791180E+02 -0.33096855956E+02  0.15840658428E+03  0.16583143728E+03  0.41800000000E+01 0.  1.
        -11    1    4    4    0    0  0.92702586040E+01 -0.11314557613E+02 -0.53705619754E+02  0.55661930453E+02  0.00000000000E+00 0.  1.
         11    1    4    4    0    0  0.26521735297E+02  0.84719062288E+02 -0.23813822373E+02  0.91912023665E+02  0.00000000000E+00 0. -1.
</event>
<event>
 8    1  0.7281309E-009  0.1495757E+03  0.7561462E-02  0.1200995E+00
          2   -1    0    0  501    0  0.00000000000E+00  0.00000000000E+00  0.30568760579E+03  0.30568760579E+03  0.00000000000E+00 0. -1.
         -2   -1    0    0    0  501 -0.00000000000E+00 -0.00000000000E+00 -0.94154100747E+02  0.94154100747E+02  0.00000000000E+00 0.  1.
         25    2    1    2    0    0  0.41178612357E+02  0.11984123748E+03  0.14654952031E+03  0.23063634415E+03  0.12513497123E+03 0.  0.
         23    2    1    2    0    0 -0.41178612357E+02 -0.11984123748E+03  0.64983984733E+02  0.16920536238E+03  0.91377984613E+02 0.  0.
          5    1    3    3  502    0  0.61586037501E+02  0.24320051354E+02  0.10544420082E+03  0.12458032268E+03  0.41800000000E+01 0. -1.
         -5    1    3    3    0  502 -0.20407425144E+02  0.95521186123E+02  0.41105319486E+02  0.10605602147E+03  0.41800000000E+01 0. -1.
        -11    1    4    4    0    0  0.29902989419E+01 -0.62921188900E+02 -0.11607689976E+02  0.64052762367E+02  0.00000000000E+00 0.  1.
         11    1    4    4    0    0 -0.44168911299E+02 -0.56920048578E+02  0.76591674710E+02  0.10515260002E+03  0.00000000000E+00 0. -1.
</event>
<event>
 8    1  0.7281309E-009  0.1541832E+03  0.7561462E-02  0.1195425E+00
         -2   -1    0    0    0  501 -0.00000000000E+00  0.00000000000E+00  0.78623915701E+02  0.78623915701E+02  0.00000000000E+00 0.  1.
          2   -1    0    0  501    0  0.00000000000E+00 -0.00000000000E+00 -0.34267315576E+03  0.34267315576E+03  0.00000000000E+00 0. -1.
         25    2    1    2    0    0 -0.74997622659E+02 -0.95892010510E+02 -0.15352627712E+03  0.23245763504E+03  0.12508522390E+03 0.  0.
         23    2    1    2    0    0  0.74997622659E+02  0.95892010510E+02 -0.11052296293E+03  0.18883943642E+03  0.92871342871E+02 0.  0.
          5    1    3    3  502    0  0.34049814727E+02 -0.29179636986E+02 -0.26812712658E+02  0.52414073088E+02  0.41800000000E+01 0.  1.
         -5    1    3    3    0  502 -0.10904743739E+03 -0.66712373523E+02 -0.12671356447E+03  0.18004356195E+03  0.41800000000E+01 0.  1.
        -11    1    4    4    0    0  0.38592390377E+02  0.90806541509E+02 -0.34726502317E+02  0.10459985917E+03  0.00000000000E+00 0.  1.
         11    1    4    4    0    0  0.36405232282E+02  0.50854690008E+01 -0.75796460613E+02  0.84239577242E+02  0.00000000000E+00 0. -1.
</event>
<event>
 8    1  0.7281309E-009  0.1550715E+03  0.7561462E-02  0.1194376E+00
         -3   -1    0    0    0  501 -0.00000000000E+00  0.00000000000E+00  0.11899192196E+03  0.11899192196E+03  0.00000000000E+00 0.  1.
          3   -1    0    0  501    0  0.00000000000E+00 -0.00000000000E+00 -0.20670235327E+03  0.20670235327E+03  0.00000000000E+00 0. -1.
         25    2    1    2    0    0  0.41547633814E+02  0.10458834701E+03 -0.40333379925E+02  0.17302957701E+03  0.12509006666E+03 0.  0.
         23    2    1    2    0    0 -0.41547633814E+02 -0.10458834701E+03 -0.47377051388E+02  0.15266469822E+03  0.91635129056E+02 0.  0.
          5    1    3    3  502    0  0.66701859239E+02  0.11973589637E+03 -0.41740456490E+02  0.14333722829E+03  0.41800000000E+01 0.  1.
         -5    1    3    3    0  502 -0.25154225425E+02 -0.15147549356E+02  0.14070765656E+01  0.29692348723E+02  0.41800000000E+01 0.  1.
        -11    1    4    4    0    0  0.26757706208E+02 -0.46701991128E+02 -0.64161145278E+01  0.54205325776E+02  0.00000000000E+00 0. -1.
         11    1    4    4    0    0 -0.68305340022E+02 -0.57886355885E+02 -0.40960936861E+02  0.98459372442E+02  0.00000000000E+00 0.  1.
</event>
<event>
 8    1  0.7281309E-009  0.1259011E+03  0.7561462E-02  0.1233668E+00
         -2   -1    0    0    0  501 -0.00000000000E+00  0.00000000000E+00  0.45458708345E+02  0.45458708345E+02  0.00000000000E+00 0. -1.
          2   -1    0    0  501    0  0.00000000000E+00 -0.00000000000E+00 -0.52114564689E+03  0.52114564689E+03  0.00000000000E+00 0.  1.
         25    2    1    2    0    0  0.86762970377E+02  0.38438615538E+02 -0.15769558528E+03  0.22253170586E+03  0.12508845791E+03 0.  0.
         23    2    1    2    0    0 -0.86762970377E+02 -0.38438615538E+02 -0.31799135327E+03  0.34407264938E+03  0.90896353630E+02 0.  0.
          5    1    3    3  502    0  0.45715380986E+02 -0.26071416219E+02 -0.66841556822E+01  0.53214332088E+02  0.41800000000E+01 0.  1.
         -5    1    3    3    0  502  0.41047589391E+02  0.64510031757E+02 -0.15101142959E+03  0.16931737377E+03  0.41800000000E+01 0.  1.
        -11    1    4    4    0    0 -0.80008408297E+02 -0.59891722905E+02 -0.29678325452E+03  0.31315916725E+03  0.00000000000E+00 0.  1.
         11    1    4    4    0    0 -0.67545620798E+01  0.21453107367E+02 -0.21208098749E+02  0.30913482125E+02  0.00000000000E+00 0. -1.
</event>
<event>
 8    1  0.7281309E-009  0.1148150E+03  0.7561462E-02  0.1251904E+00
          1   -1    0    0  501    0  0.00000000000E+00  0.00000000000E+00  0.39980467658E+03  0.39980467658E+03  0.00000000000E+00 0. -1.
         -1   -1    0    0    0  501 -0.00000000000E+00 -0.00000000000E+00 -0.35697755552E+02  0.35697755552E+02  0.00000000000E+00 0.  1.
         25    2    1    2    0    0  0.43896468770E+02 -0.28350082031E+01  0.16987204656E+03  0.21549752770E+03  0.12509090694E+03 0.  0.
         23    2    1    2    0    0 -0.43896468770E+02  0.28350082031E+01  0.19423487446E+03  0.22000490443E+03  0.93488150443E+02 0.  0.
          5    1    3    3  502    0 -0.10857071993E+01 -0.56816072626E+02  0.46877874059E+02  0.73785177001E+02  0.41800000000E+01 0.  1.
         -5    1    3    3    0  502  0.44982175969E+02  0.53981064423E+02  0.12299417250E+03  0.14171235070E+03  0.41800000000E+01 0.  1.
        -11    1    4    4    0    0 -0.41890556093E+02  0.44170352450E+02  0.13068667548E+03  0.14416950396E+03  0.00000000000E+00 0.  1.
         11    1    4    4    0    0 -0.20059126772E+01 -0.41335344247E+02  0.63548198985E+02  0.75835400467E+02  0.00000000000E+00 0. -1.
</event>
<event>
 8    1  0.7281309E-009  0.8734948E+02  0.7561462E-02  0.1309400E+00
         -1   -1    0    0    0  501 -0.00000000000E+00  0.00000000000E+00  0.99547284765E+02  0.99547284765E+02  0.00000000000E+00 0.  1.
          1   -1    0    0  501    0  0.00000000000E+00 -0.00000000000E+00 -0.15893684579E+03  0.15893684579E+03  0.00000000000E+00 0. -1.
         25    2    1    2    0    0 -0.38783480303E+02 -0.47642266034E+02 -0.44244291220E+02  0.14621620894E+03  0.12509068149E+03 0.  0.
         23    2    1    2    0    0  0.38783480303E+02  0.47642266034E+02 -0.15145269807E+02  0.11226792161E+03  0.92740299594E+02 0.  0.
          5    1    3    3  502    0 -0.20324816989E+02 -0.14427222947E+02 -0.85980644083E+02  0.89618003239E+02  0.41800000000E+01 0.  1.
         -5    1    3    3    0  502 -0.18458663315E+02 -0.33215043087E+02  0.41736352863E+02  0.56598205704E+02  0.41800000000E+01 0.  1.
        -11    1    4    4    0    0  0.29940021552E+02 -0.24394492545E+02 -0.67688803163E+01  0.39208594693E+02  0.00000000000E+00 0. -1.
         11    1    4    4    0    0  0.88434587509E+01  0.72036758579E+02 -0.83763894912E+01  0.73059326921E+02  0.00000000000E+00 0.  1.
</event>
<event>
 8    1  0.7281309E-009  0.1271655E+03  0.7561462E-02  0.1231723E+00
          2   -1    0    0  501    0  0.00000000000E+00  0.00000000000E+00  0.15506289371E+03  0.15506289371E+03  0.00000000000E+00 0. -1.
         -2   -1    0    0    0  501 -0.00000000000E+00 -0.00000000000E+00 -0.16892477493E+03  0.16892477493E+03  0.00000000000E+00 0.  1.
         25    2    1    2    0    0 -0.10651285964E+03  0.21802861991E+02 -0.56051529254E+02  0.17495417191E+03  0.12508730663E+03 0.  0.
         23    2    1    2    0    0  0.10651285964E+03 -0.21802861991E+02  0.42189648035E+02  0.14903349672E+03  0.92793656484E+02 0.  0.
          5    1    3    3  502    0 -0.27206910902E+02  0.40959273443E+02  0.28823959839E+02  0.57150425568E+02  0.41800000000E+01 0. -1.
         -5    1    3    3    0  502 -0.79305948734E+02 -0.19156411452E+02 -0.84875489094E+02  0.11780374635E+03  0.41800000000E+01 0. -1.
        -11    1    4    4    0    0  0.59042302156E+02  0.17583875201E+02  0.58790532226E+02  0.85155814777E+02  0.00000000000E+00 0. -1.
         11    1    4    4    0    0  0.47470557480E+02 -0.39386737192E+02 -0.16600884192E+02  0.63877681940E+02  0.00000000000E+00 0.  1.
</event>
<event>
 8    1  0.7281309E-009  0.9473794E+02  0.7561462E-02  0.1291767E+00
         -1   -1    0    0    0  501 -0.00000000000E+00  0.00000000000E+00  0.26234816429E+02  0.26234816429E+02  0.00000000000E+00 0.  1.
          1   -1    0    0  501    0  0.00000000000E+00 -0.00000000000E+00 -0.73265323673E+03  0.73265323673E+03  0.00000000000E+00 0. -1.
         25    2    1    2    0    0  0.64093978049E+02 -0.16568707830E+02 -0.54719180112E+03  0.56519792989E+03  0.12508905881E+03 0.  0.
         23    2    1    2    0    0 -0.64093978049E+02  0.16568707830E+02 -0.15922661917E+03  0.19369012326E+03  0.88205371127E+02 0.  0.
          5    1    3    3  502    0  0.73351604128E+02 -0.31261495405E+02 -0.54011535203E+03  0.54598516905E+03  0.41800000000E+01 0.  1.
         -5    1    3    3    0  502 -0.92576260792E+01  0.14692787575E+02 -0.70764490921E+01  0.19212760840E+02  0.41800000000E+01 0.  1.
        -11    1    4    4    0    0  0.27447591320E+01  0.24327020945E+02 -0.43995320628E+01  0.24873550875E+02  0.00000000000E+00 0.  1.
         11    1    4    4    0    0 -0.66838737181E+02 -0.77583131149E+01 -0.15482708711E+03  0.16881657239E+03  0.00000000000E+00 0. -1.
</event>
<event>
 8    1  0.7281309E-009  0.1078239E+03  0.7561462E-02  0.1264654E+00
         -1   -1    0    0    0  501 -0.00000000000E+00  0.00000000000E+00  0.31134378230E+03  0.31134378230E+03  0.00000000000E+00 0.  1.
          1   -1    0    0  501    0  0.00000000000E+00 -0.00000000000E+00 -0.72845392445E+02  0.72845392445E+02  0.00000000000E+00 0. -1.
         25    2    1    2    0    0 -0.59153628956E+02 -0.23055603568E+02  0.23469447032E+03  0.27341810288E+03  0.12508098140E+03 0.  0.
         23    2    1    2    0    0  0.59153628956E+02  0.23055603568E+02  0.38039195342E+01  0.11077107186E+03  0.90692049727E+02 0.  0.
          5    1    3    3  502    0 -0.54129976252E+02 -0.52055719703E+02  0.60007257861E+02  0.96219518180E+02  0.41800000000E+01 0.  1.
         -5    1    3    3    0  502 -0.50236527036E+01  0.29000116134E+02  0.17468721246E+03  0.17719858470E+03  0.41800000000E+01 0.  1.
        -11    1    4    4    0    0 -0.22595616849E+02  0.17840805910E+02  0.11310652284E+01  0.28812073247E+02  0.00000000000E+00 0.  1.
         11    1    4    4    0    0  0.81749245804E+02  0.52147976587E+01  0.26728543058E+01  0.81958998617E+02  0.00000000000E+00 0. -1.
</event>
<event>
 8    1  0.7281309E-009  0.8646692E+02  0.7561462E-02  0.1311640E+00
         -1   -1    0    0    0  501 -0.00000000000E+00  0.00000000000E+00  0.25201268717E+03  0.25201268717E+03  0.00000000000E+00 0.  1.
          1   -1    0    0  501    0  0.00000000000E+00 -0.00000000000E+00 -0.49269871093E+02  0.49269871093E+02  0.00000000000E+00 0. -1.
         25    2    1    2    0    0  0.52401142278E+01 -0.37665401324E+01  0.82671828551E+02  0.15007672695E+03  0.12508695821E+03 0.  0.
         23    2    1    2    0    0 -0.52401142278E+01  0.37665401324E+01  0.12007098753E+03  0.15120583132E+03  0.91676146056E+02 0.  0.
          5    1    3    3  502    0  0.32250471063E+02  0.51669759004E+02  0.55690543779E+02  0.82636347606E+02  0.41800000000E+01 0.  1.
         -5    1    3    3    0  502 -0.27010356835E+02 -0.55436299137E+02  0.26981284773E+02  0.67440379346E+02  0.41800000000E+01 0.  1.
        -11    1    4    4    0    0  0.12048449075E+02  0.21915192395E+02  0.12341057023E+03  0.12591905982E+03  0.00000000000E+00 0.  1.
         11    1    4    4    0    0 -0.17288563303E+02 -0.18148652263E+02 -0.33395826954E+01  0.25286771495E+02  0.00000000000E+00 0. -1.
</event>
<event>
 8    1  0.7281309E-009  0.8619831E+02  0.7561462E-02  0.1312328E+00
          3   -1    0    0  501    0  0.00000000000E+00  0.00000000000E+00  0.27246876551E+02  0.27246876551E+02  0.00000000000E+00 0. -1.
         -3   -1    0    0    0  501 -0.00000000000E+00 -0.00000000000E+00 -0.45559861846E+03  0.45559861846E+03  0.00000000000E+00 0.  1.
         25    2    1    2    0    0 -0.14106080862E+02 -0.15693975747E+02 -0.28587456561E+03  0.31275767753E+03  0.12509122750E+03 0.  0.
         23    2    1    2    0    0  0.14106080862E+02  0.15693975747E+02 -0.14247717630E+03  0.17008781748E+03  0.90470091729E+02 0.  0.
          5    1    3    3  502    0 -0.83427130619E+01 -0.70069712821E+02 -0.18301850012E+03  0.19619533456E+03  0.41800000000E+01 0. -1.
         -5    1    3    3    0  502 -0.57633678002E+01  0.54375737075E+02 -0.10285606549E+03  0.11656234297E+03  0.41800000000E+01 0. -1.
        -11    1    4    4    0    0  0.18742645706E+02  0.28013538245E+02 -0.15079558861E+03  0.15451651898E+03  0.00000000000E+00 0.  1.
         11    1    4    4    0    0 -0.46365648443E+01 -0.12319562499E+02  0.83184123104E+01  0.15571298503E+02  0.00000000000E+00 0. -1.
</event>
<event>
 8    1  0.7281309E-009  0.1086669E+03  0.7561462E-02  0.1263059E+00
          1   -1    0    0  501    0  0.00000000000E+00  0.00000000000E+00  0.10851227488E+03  0.10851227488E+03  0.00000000000E+00 0. -1.
         -1   -1    0    0    0  501 -0.00000000000E+00 -0.00000000000E+00 -0.12090824464E+03  0.12090824464E+03  0.00000000000E+00 0.  1.
         25    2    1    2    0    0 -0.31105857091E+02  0.46311936521E+01  0.10785272000E+02  0.12943054801E+03  0.12508765873E+03 0.  0.
         23    2    1    2    0    0  0.31105857091E+02 -0.46311936521E+01 -0.23181241762E+02  0.99989971512E+02  0.92041306669E+02 0.  0.
          5    1    3    3  502    0  0.69239253626E+00  0.60964773668E+02 -0.87324573820E+01  0.61732578496E+02  0.41800000000E+01 0.  1.
         -5    1    3    3    0  502 -0.31798249628E+02 -0.56333580016E+02  0.19517729382E+02  0.67697969519E+02  0.41800000000E+01 0.  1.
        -11    1    4    4    0    0  0.46448328481E+02 -0.34473374746E+02  0.22491037893E+01  0.57887125104E+02  0.00000000000E+00 0. -1.
         11    1    4    4    0    0 -0.15342471389E+02  0.29842181093E+02 -0.25430345551E+02  0.42102846407E+02  0.00000000000E+00 0.  1.
</event>
<event>
 8    1  0.7281309E-009  0.1070513E+03  0.7561462E-02  0.1266130E+00
         -4   -1    0    0    0  501 -0.00000000000E+00  0.00000000000E+00  0.11005745600E+02  0.11005745600E+02  0.00000000000E+00 0.  1.
          4   -1    0    0  501    0  0.00000000000E+00 -0.00000000000E+00 -0.16466956818E+04  0.16466956818E+04  0.00000000000E+00 0. -1.
         25    2    1    2    0    0  0.57607190447E+02  0.17482478549E+02 -0.12114758168E+04  0.12194036711E+04  0.12508970047E+03 0.  0.
         23    2    1    2    0    0 -0.57607190447E+02 -0.17482478549E+02 -0.42421411939E+03  0.43829775621E+03  0.92320520768E+02 0.  0.
          5    1    3    3  502    0  0.71527061749E+02  0.41849591791E+02 -0.46207517312E+03  0.46946612967E+03  0.41800000000E+01 0.  1.
         -5    1    3    3    0  502 -0.13919871302E+02 -0.24367113242E+02 -0.74940064364E+03  0.74993754148E+03  0.41800000000E+01 0.  1.
        -11    1    4    4    0    0 -0.48244984205E+01 -0.43598234500E+02 -0.26366443183E+03  0.26728826096E+03  0.00000000000E+00 0. -1.
         11    1    4    4    0    0 -0.52782692026E+02  0.26115755951E+02 -0.16054968757E+03  0.17100949524E+03  0.00000000000E+00 0.  1.
</event>
<event>
 8    1  0.7281309E-009  0.2251519E+03  0.7561462E-02  0.1130099E+00
         -2   -1    0    0    0  501 -0.00000000000E+00  0.00000000000E+00  0.39281087475E+02  0.39281087475E+02  0.00000000000E+00 0.  1.
          2   -1    0    0  501    0  0.00000000000E+00 -0.00000000000E+00 -0.13927799818E+04  0.13927799818E+04  0.00000000000E+00 0. -1.
         25    2    1    2    0    0 -0.15716810639E+03 -0.12357449327E+03 -0.58784290413E+03  0.63338761323E+03  0.12509244422E+03 0.  0.
         23    2    1    2    0    0  0.15716810639E+03  0.12357449327E+03 -0.76565599022E+03  0.79867345607E+03  0.10806352308E+03 0.  0.
          5    1    3    3  502    0 -0.81814287701E+02 -0.13400481544E+03 -0.34962473568E+03  0.38328291957E+03  0.41800000000E+01 0. -1.
         -5    1    3    3    0  502 -0.75353818686E+02  0.10430322169E+02 -0.23821816845E+03  0.25010469366E+03  0.41800000000E+01 0. -1.
        -11    1    4    4    0    0  0.40773088772E+02  0.85274422521E+02 -0.22030388346E+03  0.23972478589E+03  0.00000000000E+00 0.  1.
         11    1    4    4    0    0  0.11639501762E+03  0.38300070752E+02 -0.54535210675E+03  0.55894867017E+03  0.00000000000E+00 0. -1.
</event>
<event>
 8    1  0.7281309E-009  0.9574569E+02  0.7561462E-02  0.1289505E+00
          3   -1    0    0  501    0  0.00000000000E+00  0.00000000000E+00  0.24353188365E+03  0.24353188365E+03  0.00000000000E+00 0. -1.
         -3   -1    0    0    0  501 -0.00000000000E+00 -0.00000000000E+00 -0.76162239842E+02  0.76162239842E+02  0.00000000000E+00 0.  1.
         25    2    1    2    0    0 -0.38577737383E+02 -0.15868377676E+02  0.10986607787E+02  0.13232479530E+03  0.12509635753E+03 0.  0.
         23    2    1    2    0    0  0.38577737383E+02  0.15868377676E+02  0.15638303602E+03  0.18736932819E+03  0.94401080295E+02 0.  0.
          5    1    3    3  502    0 -0.41201819369E+02 -0.62725575339E+02  0.30777322323E+02  0.81220709738E+02  0.41800000000E+01 0. -1.
         -5    1    3    3    0  502  0.26240819861E+01  0.46857197663E+02 -0.19790714536E+02  0.51104085560E+02  0.41800000000E+01 0. -1.
        -11    1    4    4    0    0 -0.24446192880E+00 -0.17813161978E+02 -0.45846815396E+01  0.18395320223E+02  0.00000000000E+00 0.  1.
         11    1    4    4    0    0  0.38822199312E+02  0.33681539653E+02  0.16096771756E+03  0.16897400797E+03  0.00000000000E+00 0. -1.
</event>
<event>
 8    1  0.7281309E-009  0.1225611E+03  0.7561462E-02  0.1238931E+00
         -1   -1    0    0    0  501 -0.00000000000E+00  0.00000000000E+00  0.46666775700E+02  0.46666775700E+02  0.00000000000E+00 0.  1.
          1   -1    0    0  501    0  0.00000000000E+00 -0.00000000000E+00 -0.73129377928E+03  0.73129377928E+03  0.00000000000E+00 0. -1.
         25    2    1    2    0    0 -0.76585921353E+02 -0.38233595584E+02 -0.61615164506E+03  0.63452219326E+03  0.12509337654E+03 0.  0.
         23    2    1    2    0    0  0.76585921353E+02  0.38233595584E+02 -0.68475358524E+02  0.14343836172E+03  0.92512040875E+02 0.  0.
          5    1    3    3  502    0  0.34791923041E+02 -0.10406003894E+02 -0.13717107367E+03  0.14195822864E+03  0.41800000000E+01 0.  1.
         -5    1    3    3    0  502 -0.11137784439E+03 -0.27827591689E+02 -0.47898057139E+03  0.49256396462E+03  0.41800000000E+01 0.  1.
        -11    1    4    4    0    0  0.73099692807E+01  0.21094695259E+02  0.19858058184E+02  0.29879161531E+02  0.00000000000E+00 0.  1.
         11    1    4    4    0    0  0.69275952072E+02  0.17138900324E+02 -0.88333416708E+02  0.11355920019E+03  0.00000000000E+00 0. -1.
</event>
<event>
 8    1  0.7281309E-009  0.9880144E+02  0.7561462E-02  0.1282837E+00
         -1   -1    0    0    0  501 -0.00000000000E+00  0.00000000000E+00  0.29900571363E+02  0.29900571363E+02  0.00000000000E+00 0.  1.
          1   -1    0    0  501    0  0.00000000000E+00 -0.00000000000E+00 -0.58583645582E+03  0.58583645582E+03  0.00000000000E+00 0. -1.
         25    2    1    2    0    0 -0.12067362102E+02 -0.31315301863E+02 -0.46593974351E+03  0.48360500313E+03  0.12509070752E+03 0.  0.
         23    2    1    2    0    0  0.12067362102E+02  0.31315301863E+02 -0.89996140948E+02  0.13213202406E+03  0.90737517253E+02 0.  0.
          5    1    3    3  502    0 -0.11347359569E+02  0.34739219097E+02 -0.33373635190E+03  0.33575735419E+03  0.41800000000E+01 0. -1.
         -5    1    3    3    0  502 -0.72000253262E+00 -0.66054520961E+02 -0.13220339161E+03  0.14784764894E+03  0.41800000000E+01 0. -1.
        -11    1    4    4    0    0  0.55763660763E+01 -0.31241797551E+02 -0.43833959494E+02  0.54116187761E+02  0.00000000000E+00 0. -1.
         11    1    4    4    0    0  0.64909960256E+01  0.62557099415E+02 -0.46162181454E+02  0.78015836297E+02  0.00000000000E+00 0.  1.
</event>
<event>
 8    1  0.7281309E-009  0.1065696E+03  0.7561462E-02  0.1267058E+00
          2   -1    0    0  501    0  0.00000000000E+00  0.00000000000E+00  0.72372892761E+03  0.72372892761E+03  0.00000000000E+00 0. -1.
         -2   -1    0    0    0  501 -0.00000000000E+00 -0.00000000000E+00 -0.30079942770E+02  0.30079942770E+02  0.00000000000E+00 0.  1.
         25    2    1    2    0    0 -0.49629732538E+02 -0.13334493441E+01  0.59661880948E+03  0.61160968978E+03  0.12509004906E+03 0.  0.
         23    2    1    2    0    0  0.49629732538E+02  0.13334493441E+01  0.97030175356E+02  0.14219918059E+03  0.91328328532E+02 0.  0.
          5    1    3    3  502    0  0.28190701928E+02  0.23222854584E+02  0.73856618913E+02  0.82500237621E+02  0.41800000000E+01 0.  1.
         -5    1    3    3    0  502 -0.77820434465E+02 -0.24556303928E+02  0.52276219057E+03  0.52910945216E+03  0.41800000000E+01 0.  1.
        -11    1    4    4    0    0  0.84197274659E+01 -0.37264433588E+02  0.69668591392E+02  0.79455915122E+02  0.00000000000E+00 0.  1.
         11    1    4    4    0    0  0.41210005072E+02  0.38597882932E+02  0.27361583964E+02  0.62743265470E+02  0.00000000000E+00 0. -1.
</event>
<event>
 8    1  0.7281309E-009  0.2015880E+03  0.7561462E-02  0.1148406E+00
          2   -1    0    0  501    0  0.00000000000E+00  0.00000000000E+00  0.86566027805E+03  0.86566027805E+03  0.00000000000E+00 0. -1.
         -2   -1    0    0    0  501 -0.00000000000E+00 -0.00000000000E+00 -0.50767931142E+02  0.50767931142E+02  0.00000000000E+00 0.  1.
         25    2    1    2    0    0 -0.16260655224E+03  0.82677452445E+02  0.45906295284E+03  0.50957045301E+03  0.12508716937E+03 0.  0.
         23    2    1    2    0    0  0.16260655224E+03 -0.82677452445E+02  0.35582939407E+03  0.40685775618E+03  0.75114739596E+02 0.  0.
          5    1    3    3  502    0 -0.16870327442E+03  0.45670165064E+02  0.42152783895E+03  0.45634389465E+03  0.41800000000E+01 0. -1.
         -5    1    3    3    0  502  0.60967221753E+01  0.37007287381E+02  0.37535113893E+02  0.53226558367E+02  0.41800000000E+01 0. -1.
        -11    1    4    4    0    0  0.13272092236E+03 -0.40201730123E+02  0.30059320262E+03  0.33103971937E+03  0.00000000000E+00 0. -1.
         11    1    4    4    0    0  0.29885629883E+02 -0.42475722322E+02  0.55236191447E+02  0.75818036811E+02  0.00000000000E+00 0.  1.
</event>
<event>
 8    1  0.7281309E-009  0.7536848E+02  0.7561462E-02  0.1342734E+00
         -2   -1    0    0    0  501 -0.00000000000E+00  0.00000000000E+00  0.98729596698E+02  0.98729596698E+02  0.00000000000E+00 0.  1.
          2   -1    0    0  501    0  0.00000000000E+00 -0.00000000000E+00 -0.21547721290E+03  0.21547721290E+03  0.00000000000E+00 0. -1.
         25    2    1    2    0    0 -0.14085560774E+02 -0.20080124305E+02  0.40005279239E+02  0.13360134148E+03  0.12508909491E+03 0.  0.
         23    2    1    2    0    0  0.14085560774E+02  0.20080124305E+02 -0.15675289544E+03  0.18060546811E+03  0.86285864829E+02 0.  0.
          5    1    3    3  502    0  0.10946570688E+02  0.19368562552E+02  0.72884176786E+02  0.76318701842E+02  0.41800000000E+01 0.  1.
         -5    1    3    3    0  502 -0.25032131462E+02 -0.39448686857E+02 -0.32878897546E+02  0.57282639640E+02  0.41800000000E+01 0.  1.
        -11    1    4    4    0    0 -0.25038361287E+02 -0.14537122764E+02 -0.22882671513E+02  0.36903443332E+02  0.00000000000E+00 0.  1.
         11    1    4    4    0    0  0.39123922061E+02  0.34617247069E+02 -0.13387022392E+03  0.14370202478E+03  0.00000000000E+00 0. -1.
</event>
<event>
 7    1  0.7281309E-009  0.5929323E+02  0.7561462E-02  0.1400822E+00
          1   -1    0    0  501    0  0.00000000000E+00  0.00000000000E+00  0.30424750133E+03  0.30424750133E+03  0.00000000000E+00 0. -1.
         -1   -1    0    0    0  501 -0.00000000000E+00 -0.00000000000E+00 -0.48226708530E+02  0.48226708530E+02  0.00000000000E+00 0.  1.
         25    2    1    2    0    0 -0.32065044890E+00  0.89238883567E+01  0.27639984930E+03  0.30351870965E+03  0.12508793631E+03 0.  0.
          5    1    3    3  502    0 -0.31803071060E+01 -0.32316405148E+02  0.10486616004E+02  0.34378858477E+02  0.41800000000E+01 0.  1.
         -5    1    3    3    0  502  0.28596566571E+01  0.41240293504E+02  0.26591323330E+03  0.26913985117E+03  0.41800000000E+01 0.  1.
        -11    1    1    2    0    0  0.19954507194E+02 -0.13555284793E+02 -0.13490090536E+02  0.27638933515E+02  0.00000000000E+00 0.  1.
         11    1    1    2    0    0 -0.19633856745E+02  0.46313964358E+01 -0.68889659689E+01  0.21316566697E+02  0.00000000000E+00 0. -1.
</event>
<event>
 8    1  0.7281309E-009  0.1415953E+03  0.7561462E-02  0.1211198E+00
          2   -1    0    0  501    0  0.00000000000E+00  0.00000000000E+00  0.17462862822E+03  0.17462862822E+03  0.00000000000E+00 0. -1.
         -2   -1    0    0    0  501 -0.00000000000E+00 -0.00000000000E+00 -0.23402150421E+03  0.23402150421E+03  0.00000000000E+00 0.  1.
         25    2    1    2    0    0  0.12040927820E+03 -0.82979074665E+01 -0.15333813850E+03  0.23178965850E+03  0.12508641623E+03 0.  0.
         23    2    1    2    0    0 -0.12040927820E+03  0.82979074665E+01  0.93945262502E+02  0.17686047393E+03  0.88806899214E+02 0.  0.
          5    1    3    3  502    0  0.66254544207E+02 -0.40388113401E+02 -0.14961688471E+03  0.16859284956E+03  0.41800000000E+01 0.  1.
         -5    1    3    3    0  502  0.54154733989E+02  0.32090205934E+02 -0.37212537879E+01  0.63196808939E+02  0.41800000000E+01 0.  1.
        -11    1    4    4    0    0 -0.11510437356E+03  0.30900554059E+02  0.96706958797E+02  0.15347995613E+03  0.00000000000E+00 0. -1.
         11    1    4    4    0    0 -0.53049046363E+01 -0.22602646593E+02 -0.27616962943E+01  0.23380517800E+02  0.00000000000E+00 0.  1.
</event>
<event>
 8    1  0.7281309E-009  0.2403624E+03  0.7561462E-02  0.1119552E+00
          2   -1    0    0  501    0  0.00000000000E+00  0.00000000000E+00  0.55092993594E+03  0.55092993594E+03  0.00000000000E+00 0. -1.
         -2   -1    0    0    0  501 -0.00000000000E+00 -0.00000000000E+00 -0.12222884191E+03  0.12222884191E+03  0.00000000000E+00 0.  1.
         25    2    1    2    0    0  0.18666967180E+03 -0.12033332650E+03  0.32115932719E+03  0.41001936122E+03  0.12508751857E+03 0.  0.
         23    2    1    2    0    0 -0.18666967180E+03  0.12033332650E+03  0.10754176685E+03  0.26313941663E+03  0.91386241479E+02 0.  0.
          5    1    3    3  502    0  0.25123917291E+02  0.20613766295E+02  0.84672573162E+02  0.90791275059E+02  0.41800000000E+01 0. -1.
         -5    1    3    3    0  502  0.16154575451E+03 -0.14094709279E+03  0.23648675403E+03  0.31922808616E+03  0.41800000000E+01 0. -1.
        -11    1    4    4    0    0 -0.18911876811E+03  0.10169072356E+03  0.11418482560E+03  0.24319762768E+03  0.00000000000E+00 0. -1.
         11    1    4    4    0    0  0.24490963179E+01  0.18642602934E+02 -0.66430587489E+01  0.19941788949E+02  0.00000000000E+00 0.  1.
</event>
<event>
 8    1  0.7281309E-009  0.1686431E+03  0.7561462E-02  0.1179270E+00
          2   -1    0    0  501    0  0.00000000000E+00  0.00000000000E+00  0.12156831464E+04  0.12156831464E+04  0.00000000000E+00 0. -1.
         -2   -1    0    0    0  501 -0.00000000000E+00 -0.00000000000E+00 -0.32056158568E+02  0.32056158568E+02  0.00000000000E+00 0.  1.
         25    2    1    2    0    0  0.54653929750E+02 -0.15523963521E+03  0.64176655975E+03  0.67423844205E+03  0.12508702226E+03 0.  0.
         23    2    1    2    0    0 -0.54653929750E+02  0.15523963521E+03  0.54186042812E+03  0.57350086296E+03  0.90576596758E+02 0.  0.
          5    1    3    3  502    0  0.52881957965E+02 -0.10227245463E+03  0.21276630439E+03  0.24195687454E+03  0.41800000000E+01 0. -1.
         -5    1    3    3    0  502  0.17719717850E+01 -0.52967180583E+02  0.42900025536E+03  0.43228156751E+03  0.41800000000E+01 0. -1.
        -11    1    4    4    0    0 -0.38916446875E+01  0.67011730910E+02  0.10264379296E+03  0.12264365133E+03  0.00000000000E+00 0.  1.
         11    1    4    4    0    0 -0.50762285063E+02  0.88227904299E+02  0.43921663516E+03  0.45085721163E+03  0.00000000000E+00 0. -1.
</event>
<event>
 8    1  0.7281309E-009  0.1065372E+03  0.7561462E-02  0.1267120E+00
          1   -1    0    0  501    0  0.00000000000E+00  0.00000000000E+00  0.25453491817E+03  0.25453491817E+03  0.00000000000E+00 0. -1.
         -1   -1    0    0    0  501 -0.00000000000E+00 -0.00000000000E+00 -0.75754615501E+02  0.75754615501E+02  0.00000000000E+00 0.  1.
         25    2    1    2    0    0 -0.47449064614E+02 -0.41250518928E+02  0.16807222076E+03  0.21874325778E+03  0.12508925768E+03 0.  0.
         23    2    1    2    0    0  0.47449064614E+02  0.41250518928E+02  0.10708081904E+02  0.11154627589E+03  0.91514422919E+02 0.  0.
          5    1    3    3  502    0  0.46945569179E+01 -0.57730475133E+02  0.15023861153E+03  0.16107128676E+03  0.41800000000E+01 0.  1.
         -5    1    3    3    0  502 -0.52143621532E+02  0.16479956205E+02  0.17833609232E+02  0.57671971020E+02  0.41800000000E+01 0.  1.
        -11    1    4    4    0    0 -0.21281630006E+02  0.17122313045E+02 -0.18581238659E+02  0.33035493183E+02  0.00000000000E+00 0. -1.
         11    1    4    4    0    0  0.68730694621E+02  0.24128205883E+02  0.29289320562E+02  0.78510782707E+02  0.00000000000E+00 0.  1.
</event>
<event>
 8    1  0.7281309E-009  0.1156143E+03  0.7561462E-02  0.1250513E+00
          1   -1    0    0  501    0  0.00000000000E+00  0.00000000000E+00  0.23603349129E+03  0.23603349129E+03  0.00000000000E+00 0. -1.
         -1   -1    0    0    0  501 -0.00000000000E+00 -0.00000000000E+00 -0.83299281164E+02  0.83299281164E+02  0.00000000000E+00 0.  1.
         25    2    1    2    0    0 -0.80491740064E+02 -0.35253946663E+02  0.75461785492E+02  0.17048294654E+03  0.12509273767E+03 0.  0.
         23    2    1    2    0    0  0.80491740064E+02  0.35253946663E+02  0.77272424637E+02  0.14884982592E+03  0.91997185239E+02 0.  0.
          5    1    3    3  502    0 -0.31831194863E+02  0.15424050185E+02 -0.28031634790E+02  0.45325172250E+02  0.41800000000E+01 0.  1.
         -5    1    3    3    0  502 -0.48660545201E+02 -0.50677996847E+02  0.10349342028E+03  0.12515777429E+03  0.41800000000E+01 0.  1.
        -11    1    4    4    0    0  0.53737029456E+02  0.65582539140E+02  0.39596772594E+02  0.93576931851E+02  0.00000000000E+00 0. -1.
         11    1    4    4    0    0  0.26754710608E+02 -0.30328592477E+02  0.37675652042E+02  0.55272894064E+02  0.00000000000E+00 0.  1.
</event>
<event>
 8    1  0.7281309E-009  0.1068139E+03  0.7561462E-02  0.1266586E+00
          1   -1    0    0  501    0  0.00000000000E+00  0.00000000000E+00  0.19253539837E+03  0.19253539837E+03  0.00000000000E+00 0. -1.
         -1   -1    0    0    0  501 -0.00000000000E+00 -0.00000000000E+00 -0.67716848067E+02  0.67716848067E+02  0.00000000000E+00 0.  1.
         25    2    1    2    0    0 -0.34737818119E+02  0.54544097654E+01  0.60013280805E+02  0.14312668111E+03  0.12508871404E+03 0.  0.
         23    2    1    2    0    0  0.34737818119E+02 -0.54544097654E+01  0.64805269502E+02  0.11712556533E+03  0.91006639896E+02 0.  0.
          5    1    3    3  502    0  0.29264573432E+02 -0.34776527581E+02  0.48403641190E+02  0.66529745296E+02  0.41800000000E+01 0.  1.
         -5    1    3    3    0  502 -0.64002391551E+02  0.40230937347E+02  0.11609639615E+02  0.76596935814E+02  0.41800000000E+01 0.  1.
        -11    1    4    4    0    0  0.60731894862E+02 -0.18091928341E+02  0.25431649404E+02  0.68282133213E+02  0.00000000000E+00 0. -1.
         11    1    4    4    0    0 -0.25994076743E+02  0.12637518576E+02  0.39373620097E+02  0.48843432118E+02  0.00000000000E+00 0.  1.
</event>
<event>
 8    1  0.7281309E-009  0.1613405E+03  0.7561462E-02  0.1187192E+00
         -2   -1    0    0    0  501 -0.00000000000E+00  0.00000000000E+00  0.17972066194E+02  0.17972066194E+02  0.00000000000E+00 0.  1.
          2   -1    0    0  501    0  0.00000000000E+00 -0.00000000000E+00 -0.15641470543E+04  0.15641470543E+04  0.00000000000E+00 0. -1.
         25    2    1    2    0    0 -0.34277497850E+02  0.12186821145E+03 -0.88841891061E+03  0.90607020212E+03  0.12509293593E+03 0.  0.
         23    2    1    2    0    0  0.34277497850E+02 -0.12186821145E+03 -0.65775607754E+03  0.67604891841E+03  0.91500135153E+02 0.  0.
          5    1    3    3  502    0 -0.90621927999E+01 -0.19994097009E+02 -0.43094144535E+02  0.48543433611E+02  0.41800000000E+01 0.  1.
         -5    1    3    3    0  502 -0.25215305050E+02  0.14186230846E+03 -0.84532476608E+03  0.85752676851E+03  0.41800000000E+01 0.  1.
        -11    1    4    4    0    0  0.65962221703E+02 -0.84420041542E+02 -0.45532994147E+03  0.46776395084E+03  0.00000000000E+00 0.  1.
         11    1    4    4    0    0 -0.31684723853E+02 -0.37448169907E+02 -0.20242613607E+03  0.20828496757E+03  0.00000000000E+00 0. -1.
</event>
<event>
 8    1  0.7281309E-009  0.1546177E+03  0.7561462E-02  0.1194911E+00
         -1   -1    0    0    0  501 -0.00000000000E+00  0.00000000000E+00  0.21092647424E+02  0.21092647424E+02  0.00000000000E+00 0.  1.
          1   -1    0    0  501    0  0.00000000000E+00 -0.00000000000E+00 -0.12371357609E+04  0.12371357609E+04  0.00000000000E+00 0. -1.
         25    2    1    2    0    0 -0.10475987770E+03  0.46396851086E+02 -0.77925261618E+03  0.79750174243E+03  0.12508832710E+03 0.  0.
         23    2    1    2    0    0  0.10475987770E+03 -0.46396851086E+02 -0.43679049725E+03  0.46072666585E+03  0.91410187477E+02 0.  0.
          5    1    3    3  502    0  0.15550824493E+02 -0.22255545099E+02 -0.78243621357E+02  0.82925714426E+02  0.41800000000E+01 0.  1.
         -5    1    3    3    0  502 -0.12031070220E+03  0.68652396185E+02 -0.70100899483E+03  0.71457602800E+03  0.41800000000E+01 0.  1.
        -11    1    4    4    0    0  0.54585462293E+02 -0.69142810116E+02 -0.31442109262E+03  0.32652859656E+03  0.00000000000E+00 0. -1.
         11    1    4    4    0    0  0.50174415410E+02  0.22745959030E+02 -0.12236940462E+03  0.13419806929E+03  0.00000000000E+00 0.  1.
</event>
<event>
 8    1  0.7281309E-009  0.1175955E+03  0.7561462E-02  0.1247117E+00
          1   -1    0    0  501    0  0.00000000000E+00  0.00000000000E+00  0.32507937751E+03  0.32507937751E+03  0.00000000000E+00 0. -1.
         -1   -1    0    0    0  501 -0.00000000000E+00 -0.00000000000E+00 -0.49673764083E+02  0.49673764083E+02  0.00000000000E+00 0.  1.
         25    2    1    2    0    0 -0.62547537412E+02 -0.52787231341E+01  0.12240983038E+03  0.18593455580E+03  0.12508970027E+03 0.  0.
         23    2    1    2    0    0  0.62547537412E+02  0.52787231341E+01  0.15299578304E+03  0.18881858579E+03  0.91130068338E+02 0.  0.
          5    1    3    3  502    0  0.27760398013E+02 -0.18390886665E+02  0.45969945346E+00  0.33564089944E+02  0.41800000000E+01 0.  1.
         -5    1    3    3    0  502 -0.90307935425E+02  0.13112163531E+02  0.12195013093E+03  0.15237046586E+03  0.41800000000E+01 0.  1.
        -11    1    4    4    0    0  0.56026970381E+02 -0.37233103452E+02  0.10080480302E+03  0.12118966009E+03  0.00000000000E+00 0.  1.
         11    1    4    4    0    0  0.65205670311E+01  0.42511826586E+02  0.52190980028E+02  0.67628925693E+02  0.00000000000E+00 0. -1.
</event>
<event>
 8    1  0.7281309E-009  0.1415544E+03  0.7561462E-02  0.1211253E+00
          2   -1    0    0  501    0  0.00000000000E+00  0.00000000000E+00  0.11541776198E+04  0.11541776198E+04  0.00000000000E+00 0. -1.
         -2   -1    0    0    0  501 -0.00000000000E+00 -0.00000000000E+00 -0.24867979138E+02  0.24867979138E+02  0.00000000000E+00 0.  1.
         25    2    1    2    0    0  0.12878825740E+03 -0.11499423254E+02  0.53552044166E+03  0.56493297451E+03  0.12509384583E+03 0.  0.
         23    2    1    2    0    0 -0.12878825740E+03  0.11499423254E+02  0.59378919904E+03  0.61411262448E+03  0.88487573484E+02 0.  0.
          5    1    3    3  502    0  0.10428287463E+03 -0.14586048741E+02  0.18035561722E+03  0.20888583442E+03  0.41800000000E+01 0.  1.
         -5    1    3    3    0  502  0.24505382775E+02  0.30866254872E+01  0.35516482444E+03  0.35604714008E+03  0.41800000000E+01 0.  1.
        -11    1    4    4    0    0 -0.65536550581E+02 -0.34883299428E+02  0.35808829790E+03  0.36570358644E+03  0.00000000000E+00 0. -1.
         11    1    4    4    0    0 -0.63251706823E+02  0.46382722682E+02  0.23570090115E+03  0.24840903804E+03  0.00000000000E+00 0.  1.
</event>
<event>
 8    1  0.7281309E-009  0.9751081E+02  0.7561462E-02  0.1285619E+00
         -2   -1    0    0    0  501 -0.00000000000E+00  0.00000000000E+00  0.27504229265E+02  0.27504229265E+02  0.00000000000E+00 0.  1.
          2   -1    0    0  501    0  0.00000000000E+00 -0.00000000000E+00 -0.50232287320E+03  0.50232287320E+03  0.00000000000E+00 0. -1.
         25    2    1    2    0    0  0.80952836239E+01 -0.12735751868E+02 -0.36456411651E+03  0.38573139747E+03  0.12511587809E+03 0.  0.
         23    2    1    2    0    0 -0.80952836239E+01  0.12735751868E+02 -0.11025452742E+03  0.14409570499E+03  0.91541129495E+02 0.  0.
          5    1    3    3  502    0 -0.42284349192E+02  0.14780292769E+02 -0.27904231722E+03  0.28264555620E+03  0.41800000000E+01 0. -1.
         -5    1    3    3    0  502  0.50379632815E+02 -0.27516044637E+02 -0.85521799293E+02  0.10308584127E+03  0.41800000000E+01 0. -1.
        -11    1    4    4    0    0  0.50048663036E+01  0.51405855137E+02 -0.67275608749E+02  0.84815200063E+02  0.00000000000E+00 0.  1.
         11    1    4    4    0    0 -0.13100149927E+02 -0.38670103270E+02 -0.42978918667E+02  0.59280504930E+02  0.00000000000E+00 0. -1.
</event>
<event>
 8    1  0.7281309E-009  0.1252957E+03  0.7561462E-02  0.1234608E+00
          1   -1    0    0  501    0  0.00000000000E+00  0.00000000000E+00  0.12830243288E+04  0.12830243288E+04  0.00000000000E+00 0. -1.
         -1   -1    0    0    0  501 -0.00000000000E+00 -0.00000000000E+00 -0.17416348447E+02  0.17416348447E+02  0.00000000000E+00 0.  1.
         25    2    1    2    0    0  0.39053153525E+02  0.57729921965E+02  0.10176315692E+04  0.10276571412E+04  0.12508915374E+03 0.  0.
         23    2    1    2    0    0 -0.39053153525E+02 -0.57729921965E+02  0.24797641107E+03  0.27278353603E+03  0.89781202909E+02 0.  0.
          5    1    3    3  502    0  0.48728847867E+01  0.90541752901E+02  0.78370019972E+03  0.78893917982E+03  0.41800000000E+01 0. -1.
         -5    1    3    3    0  502  0.34180268738E+02 -0.32811830936E+02  0.23393136953E+03  0.23871796135E+03  0.41800000000E+01 0. -1.
        -11    1    4    4    0    0  0.27154645539E+02 -0.30036540029E+02  0.11082440143E+03  0.11798989983E+03  0.00000000000E+00 0. -1.
         11    1    4    4    0    0 -0.66207799064E+02 -0.27693381936E+02  0.13715200964E+03  0.15479363620E+03  0.00000000000E+00 0.  1.
</event>
<event>
 8    1  0.7281309E-009  0.7648207E+02  0.7561462E-02  0.1339342E+00
         -2   -1    0    0    0  501 -0.00000000000E+00  0.00000000000E+00  0.25950164898E+02  0.25950164898E+02  0.00000000000E+00 0.  1.
          2   -1    0    0  501    0  0.00000000000E+00 -0.00000000000E+00 -0.16301819128E+04  0.16301819128E+04  0.00000000000E+00 0. -1.
         25    2    1    2    0    0 -0.54093230341E+02  0.17320737373E+02 -0.15005840543E+04  0.15068597290E+04  0.12509058019E+03 0.  0.
         23    2    1    2    0    0  0.54093230341E+02 -0.17320737373E+02 -0.10364769358E+03  0.14927234871E+03  0.91177322798E+02 0.  0.
          5    1    3    3  502    0 -0.29329972678E+02 -0.12268771088E+02 -0.13759332779E+04  0.13763068799E+04  0.41800000000E+01 0. -1.
         -5    1    3    3    0  502 -0.24763257662E+02  0.29589508461E+02 -0.12465077639E+03  0.13055284905E+03  0.41800000000E+01 0. -1.
        -11    1    4    4    0    0  0.21046469411E+01 -0.28775346771E+02  0.40506042919E+01  0.29135159441E+02  0.00000000000E+00 0.  1.
         11    1    4    4    0    0  0.51988583400E+02  0.11454609398E+02 -0.10769829787E+03  0.12013718927E+03  0.00000000000E+00 0. -1.
</event>
<event>
 8    1  0.7281309E-009  0.1042111E+03  0.7561462E-02  0.1271682E+00
         -2   -1    0    0    0  501 -0.00000000000E+00  0.00000000000E+00  0.20218737695E+02  0.20218737695E+02  0.00000000000E+00 0.  1.
          2   -1    0    0  501    0  0.00000000000E+00 -0.00000000000E+00 -0.73078529938E+03  0.73078529938E+03  0.00000000000E+00 0. -1.
         25    2    1    2    0    0  0.76959225687E+00  0.47363593111E+02 -0.48022237415E+03  0.49850075815E+03  0.12508227301E+03 0.  0.
         23    2    1    2    0    0 -0.76959225687E+00 -0.47363593111E+02 -0.23034418754E+03  0.25250327892E+03  0.91954113070E+02 0.  0.
          5    1    3    3  502    0  0.36154184935E+02  0.68103877435E+02 -0.40883768825E+03  0.41606608964E+03  0.41800000000E+01 0. -1.
         -5    1    3    3    0  502 -0.35384592679E+02 -0.20740284324E+02 -0.71384685898E+02  0.82434668518E+02  0.41800000000E+01 0. -1.
        -11    1    4    4    0    0 -0.38625962184E+02 -0.24910296604E+02 -0.54788154471E+02  0.71513842729E+02  0.00000000000E+00 0.  1.
         11    1    4    4    0    0  0.37856369927E+02 -0.22453296507E+02 -0.17555603307E+03  0.18098943619E+03  0.00000000000E+00 0. -1.
</event>
<event>
 8    1  0.7281309E-009  0.1151672E+03  0.7561462E-02  0.1251290E+00
         -1   -1    0    0    0  501 -0.00000000000E+00  0.00000000000E+00  0.25233406799E+02  0.25233406799E+02  0.00000000000E+00 0.  1.
          1   -1    0    0  501    0  0.00000000000E+00 -0.00000000000E+00 -0.58583239061E+03  0.58583239061E+03  0.00000000000E+00 0. -1.
         25    2    1    2    0    0  0.25839201414E+01  0.54626587244E+02 -0.30543893012E+03  0.33456137557E+03  0.12509050050E+03 0.  0.
         23    2    1    2    0    0 -0.25839201414E+01 -0.54626587244E+02 -0.25516005369E+03  0.27650442184E+03  0.91418278363E+02 0.  0.
          5    1    3    3  502    0  0.54882167165E+02  0.47491621836E+02 -0.23779433899E+03  0.24865865453E+03  0.41800000000E+01 0. -1.
         -5    1    3    3    0  502 -0.52298247023E+02  0.71349654073E+01 -0.67644591128E+02  0.85902721039E+02  0.41800000000E+01 0. -1.
        -11    1    4    4    0    0  0.29332390461E+02 -0.64849657569E+02 -0.14798175624E+03  0.16420860938E+03  0.00000000000E+00 0.  1.
         11    1    4    4    0    0 -0.31916310602E+02  0.10223070325E+02 -0.10717829746E+03  0.11229581245E+03  0.00000000000E+00 0. -1.
</event>
<event>
 8    1  0.7281309E-009  0.9314774E+02  0.7561462E-02  0.1295403E+00
         -2   -1    0    0    0  501 -0.00000000000E+00  0.00000000000E+00  0.12325275040E+03  0.12325275040E+03  0.00000000000E+00 0.  1.
          2   -1    0    0  501    0  0.00000000000E+00 -0.00000000000E+00 -0.12883322723E+03  0.12883322723E+03  0.00000000000E+00 0. -1.
         25    2    1    2    0    0  0.49066334545E+02  0.33029288404E+02 -0.27745756258E+02  0.14112198389E+03  0.12508856170E+03 0.  0.
         23    2    1    2    0    0 -0.49066334545E+02 -0.33029288404E+02  0.22165279426E+02  0.11096399374E+03  0.91231952822E+02 0.  0.
          5    1    3    3  502    0  0.35339212735E+02  0.46645464381E+02  0.39697210270E+02  0.70837844456E+02  0.41800000000E+01 0. -1.
         -5    1    3    3    0  502  0.13727121810E+02 -0.13616175977E+02 -0.67442966528E+02  0.70284139431E+02  0.41800000000E+01 0. -1.
        -11    1    4    4    0    0 -0.61046023923E+02  0.11161955192E+02  0.57492395621E+01  0.62323832008E+02  0.00000000000E+00 0.  1.
         11    1    4    4    0    0  0.11979689379E+02 -0.44191243596E+02  0.16416039864E+02  0.48640161728E+02  0.00000000000E+00 0. -1.
</event>
<event>
 8    1  0.7281309E-009  0.1947769E+03  0.7561462E-02  0.1154222E+00
         -3   -1    0    0    0  501 -0.00000000000E+00  0.00000000000E+00  0.43131831036E+02  0.43131831036E+02  0.00000000000E+00 0.  1.
          3   -1    0    0  501    0  0.00000000000E+00 -0.00000000000E+00 -0.91819049965E+03  0.91819049965E+03  0.00000000000E+00 0. -1.
         25    2    1    2    0    0 -0.46055018526E+02  0.15844165137E+03 -0.42753843978E+03  0.47503874327E+03  0.12509144052E+03 0.  0.
         23    2    1    2    0    0  0.46055018526E+02 -0.15844165137E+03 -0.44752022883E+03  0.48628358742E+03  0.94723548072E+02 0.  0.
          5    1    3    3  502    0 -0.70962671179E+02  0.44980299590E+02 -0.12248686004E+03  0.14859149146E+03  0.41800000000E+01 0.  1.
         -5    1    3    3    0  502  0.24907652653E+02  0.11346135178E+03 -0.30505157974E+03  0.32644725180E+03  0.41800000000E+01 0.  1.
        -11    1    4    4    0    0  0.39901954991E+02 -0.10682924213E+02 -0.77860443877E+02  0.88139319277E+02  0.00000000000E+00 0. -1.
         11    1    4    4    0    0  0.61530635349E+01 -0.14775872716E+03 -0.36965978495E+03  0.39814426814E+03  0.00000000000E+00 0.  1.
</event>
<event>
 8    1  0.7281309E-009  0.8868866E+02  0.7561462E-02  0.1306059E+00
         -1   -1    0    0    0  501 -0.00000000000E+00  0.00000000000E+00  0.15021348288E+02  0.15021348288E+02  0.00000000000E+00 0.  1.
          1   -1    0    0  501    0  0.00000000000E+00 -0.00000000000E+00 -0.81324536033E+03  0.81324536033E+03  0.00000000000E+00 0. -1.
         25    2    1    2    0    0  0.15081848239E+02 -0.70708279097E+01 -0.50680297836E+03  0.52226734441E+03  0.12504583727E+03 0.  0.
         23    2    1    2    0    0 -0.15081848239E+02  0.70708279097E+01 -0.29142103368E+03  0.30599936420E+03  0.91825558887E+02 0.  0.
          5    1    3    3  502    0 -0.10308103388E+01  0.42961001226E+02 -0.69657664331E+02  0.81953479464E+02  0.41800000000E+01 0. -1.
         -5    1    3    3    0  502  0.16112658578E+02 -0.50031829136E+02 -0.43714531402E+03  0.44031386495E+03  0.41800000000E+01 0. -1.
        -11    1    4    4    0    0  0.17444720744E+02 -0.28410397622E+02 -0.51868656359E+02  0.61658953019E+02  0.00000000000E+00 0.  1.
         11    1    4    4    0    0 -0.32526568984E+02  0.35481225532E+02 -0.23955237733E+03  0.24434041118E+03  0.00000000000E+00 0. -1.
</event>
<event>
 8    1  0.7281309E-009  0.8812726E+02  0.7561462E-02  0.1307451E+00
          4   -1    0    0  501    0  0.00000000000E+00  0.00000000000E+00  0.27901608215E+03  0.27901608215E+03  0.00000000000E+00 0. -1.
         -4   -1    0    0    0  501 -0.00000000000E+00 -0.00000000000E+00 -0.73701180526E+02  0.73701180526E+02  0.00000000000E+00 0.  1.
         25    2    1    2    0    0  0.14032506948E+02 -0.42651047211E+02  0.21327682974E+03  0.25130331553E+03  0.12510126782E+03 0.  0.
         23    2    1    2    0    0 -0.14032506948E+02  0.42651047211E+02 -0.79619281121E+01  0.10141394715E+03  0.90583515601E+02 0.  0.
          5    1    3    3  502    0 -0.47956567918E+02 -0.43420351871E+02  0.14587636709E+03  0.15963253502E+03  0.41800000000E+01 0. -1.
         -5    1    3    3    0  502  0.61989074866E+02  0.76930465927E+00  0.67400462651E+02  0.91670780503E+02  0.41800000000E+01 0. -1.
        -11    1    4    4    0    0  0.47885604780E+01  0.15742481815E+02  0.40020315984E+02  0.43271026526E+02  0.00000000000E+00 0. -1.
         11    1    4    4    0    0 -0.18821067426E+02  0.26908565396E+02 -0.47982244096E+02  0.58142920628E+02  0.00000000000E+00 0.  1.
</event>
<event>
 8    1  0.7281309E-009  0.1356022E+03  0.7561462E-02  0.1219372E+00
         -2   -1    0    0    0  501 -0.00000000000E+00  0.00000000000E+00  0.23009340916E+03  0.23009340916E+03  0.00000000000E+00 0.  1.
          2   -1    0    0  501    0  0.00000000000E+00 -0.00000000000E+00 -0.19492742163E+03  0.19492742163E+03  0.00000000000E+00 0. -1.
         25    2    1    2    0    0 -0.55033593615E+02  0.87255658614E+02  0.17147695002E+03  0.23599690155E+03  0.12509175339E+03 0.  0.
         23    2    1    2    0    0  0.55033593615E+02 -0.87255658614E+02 -0.13631096250E+03  0.18902392924E+03  0.80666727595E+02 0.  0.
          5    1    3    3  502    0  0.32654603167E+01  0.86750231942E+02  0.47767634908E+02  0.99174015336E+02  0.41800000000E+01 0.  1.
         -5    1    3    3    0  502 -0.58299053932E+02  0.50542667213E+00  0.12370931512E+03  0.13682288621E+03  0.41800000000E+01 0.  1.
        -11    1    4    4    0    0  0.67336170691E+02 -0.42970200712E+02 -0.59855033126E+02  0.99815945736E+02  0.00000000000E+00 0.  1.
         11    1    4    4    0    0 -0.12302577076E+02 -0.44285457903E+02 -0.76455929372E+02  0.89207983502E+02  0.00000000000E+00 0. -1.
</event>
<event>
 8    1  0.7281309E-009  0.1073404E+03  0.7561462E-02  0.1265576E+00
         -2   -1    0    0    0  501 -0.00000000000E+00  0.00000000000E+00  0.17294067588E+04  0.17294067588E+04  0.00000000000E+00 0.  1.
          2   -1    0    0  501    0  0.00000000000E+00 -0.00000000000E+00 -0.16571794928E+02  0.16571794928E+02  0.00000000000E+00 0. -1.
         25    2    1    2    0    0  0.63695702594E+02  0.53352473013E+02  0.14231851663E+04  0.14310861192E+04  0.12509130246E+03 0.  0.
         23    2    1    2    0    0 -0.63695702594E+02 -0.53352473013E+02  0.28964979752E+03  0.31489243452E+03  0.91414502189E+02 0.  0.
          5    1    3    3  502    0  0.29119267667E+01 -0.19511551431E+02  0.41498288580E+02  0.46138490567E+02  0.41800000000E+01 0. -1.
         -5    1    3    3    0  502  0.60783775827E+02  0.72864024444E+02  0.13816868777E+04  0.13849476286E+04  0.41800000000E+01 0. -1.
        -11    1    4    4    0    0 -0.41517815229E+01 -0.37753846692E+02  0.21409634110E+03  0.21743926394E+03  0.00000000000E+00 0.  1.
         11    1    4    4    0    0 -0.59543921071E+02 -0.15598626321E+02  0.75553456415E+02  0.97453170579E+02  0.00000000000E+00 0. -1.
</event>
<event>
 8    1  0.7281309E-009  0.9299880E+02  0.7561462E-02  0.1295748E+00
         -1   -1    0    0    0  501 -0.00000000000E+00  0.00000000000E+00  0.57234338302E+02  0.57234338302E+02  0.00000000000E+00 0.  1.
          1   -1    0    0  501    0  0.00000000000E+00 -0.00000000000E+00 -0.42329922759E+03  0.42329922759E+03  0.00000000000E+00 0. -1.
         25    2    1    2    0    0  0.77324622557E+01 -0.61655821788E+02 -0.53649574189E+02  0.14962670304E+03  0.12509453273E+03 0.  0.
         23    2    1    2    0    0 -0.77324622557E+01  0.61655821788E+02 -0.31241531510E+03  0.33090686285E+03  0.89636998169E+02 0.  0.
          5    1    3    3  502    0 -0.16045160119E+02 -0.57924305167E+02 -0.88502719934E+02  0.10706482209E+03  0.41800000000E+01 0.  1.
         -5    1    3    3    0  502  0.23777622375E+02 -0.37315166208E+01  0.34853145745E+02  0.42561880955E+02  0.41800000000E+01 0.  1.
        -11    1    4    4    0    0  0.24679786625E+02  0.64225440249E+02 -0.26225588976E+03  0.27113124268E+03  0.00000000000E+00 0. -1.
         11    1    4    4    0    0 -0.32412248881E+02 -0.25696184609E+01 -0.50159425338E+02  0.59775620171E+02  0.00000000000E+00 0.  1.
</event>
<event>
 8    1  0.7281309E-009  0.1094849E+03  0.7561462E-02  0.1261527E+00
         -2   -1    0    0    0  501 -0.00000000000E+00  0.00000000000E+00  0.45040817427E+02  0.45040817427E+02  0.00000000000E+00 0.  1.
          2   -1    0    0  501    0  0.00000000000E+00 -0.00000000000E+00 -0.38303255723E+03  0.38303255723E+03  0.00000000000E+00 0. -1.
         25    2    1    2    0    0  0.56548110798E+02  0.46166742075E+02 -0.17204962905E+03  0.22489344969E+03  0.12508769703E+03 0.  0.
         23    2    1    2    0    0 -0.56548110798E+02 -0.46166742075E+02 -0.16594211075E+03  0.20317992496E+03  0.91740072373E+02 0.  0.
          5    1    3    3  502    0  0.24442271236E+02  0.87229135429E+02 -0.12583216154E+03  0.15510497081E+03  0.41800000000E+01 0.  1.
         -5    1    3    3    0  502  0.32105839562E+02 -0.41062393354E+02 -0.46217467505E+02  0.69788478881E+02  0.41800000000E+01 0.  1.
        -11    1    4    4    0    0 -0.25808849181E+02 -0.34564943108E+02 -0.16474857167E+03  0.17030244818E+03  0.00000000000E+00 0. -1.
         11    1    4    4    0    0 -0.30739261618E+02 -0.11601798967E+02 -0.11935390781E+01  0.32877476783E+02  0.00000000000E+00 0.  1.
</event>
<event>
 8    1  0.7281309E-009  0.1005207E+03  0.7561462E-02  0.1279205E+00
         -2   -1    0    0    0  501 -0.00000000000E+00  0.00000000000E+00  0.67073288848E+02  0.67073288848E+02  0.00000000000E+00 0. -1.
          2   -1    0    0  501    0  0.00000000000E+00 -0.00000000000E+00 -0.19218147629E+03  0.19218147629E+03  0.00000000000E+00 0.  1.
         25    2    1    2    0    0 -0.14750190579E+02  0.17547839978E+02 -0.10058366281E+03  0.16214275991E+03  0.12509079325E+03 0.  0.
         23    2    1    2    0    0  0.14750190579E+02 -0.17547839978E+02 -0.24524524631E+02  0.97112005229E+02  0.91125158114E+02 0.  0.
          5    1    3    3  502    0 -0.24070431013E+02  0.64505202891E+02 -0.26612548279E+02  0.73932448729E+02  0.41800000000E+01 0. -1.
         -5    1    3    3    0  502  0.93202404341E+01 -0.46957362913E+02 -0.73971114530E+02  0.88210311179E+02  0.41800000000E+01 0. -1.
        -11    1    4    4    0    0 -0.26316531058E+01  0.31687108653E+02 -0.31111437007E+02  0.44485053282E+02  0.00000000000E+00 0.  1.
         11    1    4    4    0    0  0.17381843684E+02 -0.49234948631E+02  0.65869123755E+01  0.52626951947E+02  0.00000000000E+00 0. -1.
</event>
<event>
 8    1  0.7281309E-009  0.8570664E+02  0.7561462E-02  0.1313595E+00
          1   -1    0    0  501    0  0.00000000000E+00  0.00000000000E+00  0.24827048799E+03  0.24827048799E+03  0.00000000000E+00 0. -1.
         -1   -1    0    0    0  501 -0.00000000000E+00 -0.00000000000E+00 -0.52169178899E+02  0.52169178899E+02  0.00000000000E+00 0.  1.
         25    2    1    2    0    0 -0.21716455950E+02 -0.80931419099E+01  0.78538900504E+02  0.14950389278E+03  0.12508377856E+03 0.  0.
         23    2    1    2    0    0  0.21716455950E+02  0.80931419099E+01  0.11756240859E+03  0.15093577411E+03  0.91780088193E+02 0.  0.
          5    1    3    3  502    0  0.88049301987E+01 -0.41259657037E+02  0.92815454046E+02  0.10203953648E+03  0.41800000000E+01 0. -1.
         -5    1    3    3    0  502 -0.30521386149E+02  0.33166515127E+02 -0.14276553542E+02  0.47464356302E+02  0.41800000000E+01 0. -1.
        -11    1    4    4    0    0  0.52274573840E+02  0.55517839893E+00  0.10452317924E+03  0.11686759299E+03  0.00000000000E+00 0. -1.
         11    1    4    4    0    0 -0.30558117890E+02  0.75379635110E+01  0.13039229348E+02  0.34068181120E+02  0.00000000000E+00 0.  1.
</event>
<event>
 8    1  0.7281309E-009  0.1292173E+03  0.7561462E-02  0.1228622E+00
          1   -1    0    0  501    0  0.00000000000E+00  0.00000000000E+00  0.46126293782E+03  0.46126293782E+03  0.00000000000E+00 0. -1.
         -1   -1    0    0    0  501 -0.00000000000E+00 -0.00000000000E+00 -0.47634275251E+02  0.47634275251E+02  0.00000000000E+00 0.  1.
         25    2    1    2    0    0  0.69260508384E+02 -0.83509377896E+02  0.22757223733E+03  0.28143632537E+03  0.12508576184E+03 0.  0.
         23    2    1    2    0    0 -0.69260508384E+02  0.83509377896E+02  0.18605642524E+03  0.22746088771E+03  0.73147985917E+02 0.  0.
          5    1    3    3  502    0  0.53118922478E+02 -0.10793039096E+03  0.12035359299E+03  0.17021471430E+03  0.41800000000E+01 0.  1.
         -5    1    3    3    0  502  0.16141585906E+02  0.24421013067E+02  0.10721864434E+03  0.11122161107E+03  0.41800000000E+01 0.  1.
        -11    1    4    4    0    0 -0.30072344771E+02  0.35510965157E+02  0.20802507299E+02  0.50971745863E+02  0.00000000000E+00 0.  1.
         11    1    4    4    0    0 -0.39188163613E+02  0.47998412739E+02  0.16525391794E+03  0.17648914184E+03  0.00000000000E+00 0. -1.
</event>
<event>
 8    1  0.7281309E-009  0.1117965E+03  0.7561462E-02  0.1257279E+00
         -2   -1    0    0    0  501 -0.00000000000E+00  0.00000000000E+00  0.13016339026E+03  0.13016339026E+03  0.00000000000E+00 0.  1.
          2   -1    0    0  501    0  0.00000000000E+00 -0.00000000000E+00 -0.10189551532E+03  0.10189551532E+03  0.00000000000E+00 0. -1.
         25    2    1    2    0    0  0.32527257254E+02  0.14117964401E+02  0.28463683379E+02  0.13309868349E+03  0.12509092250E+03 0.  0.
         23    2    1    2    0    0 -0.32527257254E+02 -0.14117964401E+02 -0.19580843240E+00  0.98960222087E+02  0.92389110999E+02 0.  0.
          5    1    3    3  502    0  0.37903620349E+02 -0.51422972279E+02  0.16717974947E+02  0.66166227033E+02  0.41800000000E+01 0.  1.
         -5    1    3    3    0  502 -0.53763630941E+01  0.65540936680E+02  0.11745708432E+02  0.66932456458E+02  0.41800000000E+01 0.  1.
        -11    1    4    4    0    0  0.26818314352E+02 -0.20827926489E+02  0.15322670015E+02  0.37253304859E+02  0.00000000000E+00 0.  1.
         11    1    4    4    0    0 -0.59345571606E+02  0.67099620879E+01 -0.15518478448E+02  0.61706917228E+02  0.00000000000E+00 0. -1.
</event>
<event>
 8    1  0.7281309E-009  0.1665204E+03  0.7561462E-02  0.1181526E+00
         -2   -1    0    0    0  501 -0.00000000000E+00  0.00000000000E+00  0.40907443878E+02  0.40907443878E+02  0.00000000000E+00 0.  1.
          2   -1    0    0  501    0  0.00000000000E+00 -0.00000000000E+00 -0.81231623535E+03  0.81231623535E+03  0.00000000000E+00 0. -1.
         25    2    1    2    0    0 -0.50466320126E+02  0.12072165738E+03 -0.55803064688E+03  0.58665684788E+03  0.12508991275E+03 0.  0.
         23    2    1    2    0    0  0.50466320126E+02 -0.12072165738E+03 -0.21337814459E+03  0.26656683135E+03  0.91690102844E+02 0.  0.
          5    1    3    3  502    0 -0.89537782734E+02  0.57583285536E+02 -0.31831711823E+03  0.33567262246E+03  0.41800000000E+01 0.  1.
         -5    1    3    3    0  502  0.39071462609E+02  0.63138371847E+02 -0.23971352865E+03  0.25098422542E+03  0.41800000000E+01 0.  1.
        -11    1    4    4    0    0  0.49082992355E+02 -0.13197016079E+03 -0.16514945593E+03  0.21702443704E+03  0.00000000000E+00 0.  1.
         11    1    4    4    0    0  0.13833277713E+01  0.11248503406E+02 -0.48228688654E+02  0.49542394310E+02  0.00000000000E+00 0. -1.
</event>
<event>
 8    1  0.7281309E-009  0.1618873E+03  0.7561462E-02  0.1186582E+00
         -1   -1    0    0    0  501 -0.00000000000E+00  0.00000000000E+00  0.28796918921E+03  0.28796918921E+03  0.00000000000E+00 0.  1.
          1   -1    0    0  501    0  0.00000000000E+00 -0.00000000000E+00 -0.10582170730E+03  0.10582170730E+03  0.00000000000E+00 0. -1.
         25    2    1    2    0    0 -0.36944189056E+02  0.12264460434E+03  0.96404674608E+02  0.20334261644E+03  0.12509111197E+03 0.  0.
         23    2    1    2    0    0  0.36944189056E+02 -0.12264460434E+03  0.85742807309E+02  0.19044828007E+03  0.11185770558E+03 0.  0.
          5    1    3    3  502    0 -0.79822205782E+02  0.10281597442E+03  0.59151147706E+02  0.14303509991E+03  0.41800000000E+01 0. -1.
         -5    1    3    3    0  502  0.42878016726E+02  0.19828629919E+02  0.37253526902E+02  0.60307516525E+02  0.41800000000E+01 0. -1.
        -11    1    4    4    0    0  0.21858083707E+02  0.68520437403E+00 -0.18202484986E+02  0.28453045321E+02  0.00000000000E+00 0. -1.
         11    1    4    4    0    0  0.15086105349E+02 -0.12332980871E+03  0.10394529229E+03  0.16199523475E+03  0.00000000000E+00 0.  1.
</event>
<event>
 8    1  0.7281309E-009  0.1463225E+03  0.7561462E-02  0.1205066E+00
          1   -1    0    0  501    0  0.00000000000E+00  0.00000000000E+00  0.24595511147E+03  0.24595511147E+03  0.00000000000E+00 0. -1.
         -1   -1    0    0    0  501 -0.00000000000E+00 -0.00000000000E+00 -0.97374015880E+02  0.97374015880E+02  0.00000000000E+00 0.  1.
         25    2    1    2    0    0 -0.71976317933E+02  0.83269220522E+02  0.85441940970E+02  0.18724976693E+03  0.12509115281E+03 0.  0.
         23    2    1    2    0    0  0.71976317933E+02 -0.83269220522E+02  0.63139154616E+02  0.15607936041E+03  0.90883774524E+02 0.  0.
          5    1    3    3  502    0 -0.27061318698E+02  0.10418014037E+03  0.28039578731E+02  0.11130816229E+03  0.41800000000E+01 0.  1.
         -5    1    3    3    0  502 -0.44914999235E+02 -0.20910919847E+02  0.57402362239E+02  0.75941604643E+02  0.41800000000E+01 0.  1.
        -11    1    4    4    0    0  0.10377139760E+02  0.15588954894E+02 -0.71383882506E+01  0.20041385459E+02  0.00000000000E+00 0.  1.
         11    1    4    4    0    0  0.61599178172E+02 -0.98858175416E+02  0.70277542866E+02  0.13603797495E+03  0.00000000000E+00 0. -1.
</event>
<event>
 8    1  0.7281309E-009  0.1067419E+03  0.7561462E-02  0.1266725E+00
         -2   -1    0    0    0  501 -0.00000000000E+00  0.00000000000E+00  0.59424397221E+02  0.59424397221E+02  0.00000000000E+00 0. -1.
          2   -1    0    0  501    0  0.00000000000E+00 -0.00000000000E+00 -0.24650171695E+03  0.24650171695E+03  0.00000000000E+00 0.  1.
         25    2    1    2    0    0  0.92934511991E+01  0.19516372646E+02 -0.42481876528E+02  0.13386179738E+03  0.12508802472E+03 0.  0.
         23    2    1    2    0    0 -0.92934511991E+01 -0.19516372646E+02 -0.14459544320E+03  0.17206431678E+03  0.90725023450E+02 0.  0.
          5    1    3    3  502    0  0.32631517935E+01 -0.52073832098E+02 -0.31425596141E+02  0.61052212424E+02  0.41800000000E+01 0. -1.
         -5    1    3    3    0  502  0.60302994056E+01  0.71590204744E+02 -0.11056280387E+02  0.72809584961E+02  0.41800000000E+01 0. -1.
        -11    1    4    4    0    0 -0.37246461207E+02  0.18819238236E+02 -0.93210781271E+02  0.10212596313E+03  0.00000000000E+00 0.  1.
         11    1    4    4    0    0  0.27953010008E+02 -0.38335610883E+02 -0.51384661927E+02  0.69938353652E+02  0.00000000000E+00 0. -1.
</event>
<event>
 8    1  0.7281309E-009  0.1149823E+03  0.7561462E-02  0.1251612E+00
          2   -1    0    0  501    0  0.00000000000E+00  0.00000000000E+00  0.17943210525E+02  0.17943210525E+02  0.00000000000E+00 0. -1.
         -2   -1    0    0    0  501 -0.00000000000E+00 -0.00000000000E+00 -0.80405813222E+03  0.80405813222E+03  0.00000000000E+00 0.  1.
         25    2    1    2    0    0  0.39622672993E+02 -0.28081701630E+02 -0.43475644717E+03  0.45499411158E+03  0.12509170652E+03 0.  0.
         23    2    1    2    0    0 -0.39622672993E+02  0.28081701630E+02 -0.35135847453E+03  0.36700723116E+03  0.94249625578E+02 0.  0.
          5    1    3    3  502    0  0.26326785085E+02 -0.74623215238E+02 -0.19729333627E+03  0.21261198649E+03  0.41800000000E+01 0.  1.
         -5    1    3    3    0  502  0.13295887909E+02  0.46541513608E+02 -0.23746311090E+03  0.24238212509E+03  0.41800000000E+01 0.  1.
        -11    1    4    4    0    0  0.28750455190E+02  0.15348684801E+02 -0.70546372731E+02  0.77710755397E+02  0.00000000000E+00 0.  1.
         11    1    4    4    0    0 -0.68373128184E+02  0.12733016828E+02 -0.28081210179E+03  0.28929647576E+03  0.00000000000E+00 0. -1.
</event>
<event>
 8    1  0.7281309E-009  0.1527498E+03  0.7561462E-02  0.1197134E+00
          1   -1    0    0  501    0  0.00000000000E+00  0.00000000000E+00  0.18717007305E+03  0.18717007305E+03  0.00000000000E+00 0. -1.
         -1   -1    0    0    0  501 -0.00000000000E+00 -0.00000000000E+00 -0.21481725666E+03  0.21481725666E+03  0.00000000000E+00 0.  1.
         25    2    1    2    0    0  0.13464952369E+03 -0.53991607467E+01 -0.11546140217E+03  0.21709683023E+03  0.12506019805E+03 0.  0.
         23    2    1    2    0    0 -0.13464952369E+03  0.53991607467E+01  0.87814218562E+02  0.18489049948E+03  0.91178476902E+02 0.  0.
          5    1    3    3  502    0  0.34983369127E+01 -0.34935680816E+02  0.60066691542E+01  0.35864921993E+02  0.41800000000E+01 0. -1.
         -5    1    3    3    0  502  0.13115118677E+03  0.29536520069E+02 -0.12146807133E+03  0.18123190823E+03  0.41800000000E+01 0. -1.
        -11    1    4    4    0    0 -0.38295787004E+02 -0.54341080753E+01 -0.16872736966E+02  0.42199361198E+02  0.00000000000E+00 0.  1.
         11    1    4    4    0    0 -0.96353736683E+02  0.10833268822E+02  0.10468695553E+03  0.14269113828E+03  0.00000000000E+00 0. -1.
</event>
<event>
 8    1  0.7281309E-009  0.1112087E+03  0.7561462E-02  0.1258348E+00
          1   -1    0    0  501    0  0.00000000000E+00  0.00000000000E+00  0.43515807780E+03  0.43515807780E+03  0.00000000000E+00 0. -1.
         -1   -1    0    0    0  501 -0.00000000000E+00 -0.00000000000E+00 -0.56202487404E+02  0.56202487404E+02  0.00000000000E+00 0.  1.
         25    2    1    2    0    0 -0.50018045287E+02  0.52231772144E+02  0.33948210799E+03  0.36895520933E+03  0.12509948828E+03 0.  0.
         23    2    1    2    0    0  0.50018045287E+02 -0.52231772144E+02  0.39473482400E+02  0.12240535587E+03  0.90525976702E+02 0.  0.
          5    1    3    3  502    0  0.43797068689E+01  0.64983678617E+02  0.27890685345E+03  0.28644120797E+03  0.41800000000E+01 0. -1.
         -5    1    3    3    0  502 -0.54397752156E+02 -0.12751906473E+02  0.60575254542E+02  0.82514001364E+02  0.41800000000E+01 0. -1.
        -11    1    4    4    0    0 -0.16857276355E+02 -0.22043448449E+02 -0.14508001524E+02  0.31313950466E+02  0.00000000000E+00 0.  1.
         11    1    4    4    0    0  0.66875321642E+02 -0.30188323696E+02  0.53981483924E+02  0.91091405406E+02  0.00000000000E+00 0. -1.
</event>
<event>
 8    1  0.7281309E-009  0.1257552E+03  0.7561462E-02  0.1233894E+00
          2   -1    0    0  501    0  0.00000000000E+00  0.00000000000E+00  0.40894579980E+03  0.40894579980E+03  0.00000000000E+00 0. -1.
         -2   -1    0    0    0  501 -0.00000000000E+00 -0.00000000000E+00 -0.53783229508E+02  0.53783229508E+02  0.00000000000E+00 0.  1.
         25    2    1    2    0    0 -0.10745837823E+02 -0.94183527147E+02  0.24550109627E+03  0.29137802249E+03  0.12507739166E+03 0.  0.
         23    2    1    2    0    0  0.10745837823E+02  0.94183527147E+02  0.10966147403E+03  0.17135100682E+03  0.91375701562E+02 0.  0.
          5    1    3    3  502    0 -0.15877036925E+02  0.28942854517E+02  0.60589308736E+02  0.69125291047E+02  0.41800000000E+01 0. -1.
         -5    1    3    3    0  502  0.51311991019E+01 -0.12312638166E+03  0.18491178753E+03  0.22225273144E+03  0.41800000000E+01 0. -1.
        -11    1    4    4    0    0  0.81128364950E+01  0.48681673622E+02 -0.33782753778E+01  0.49468537548E+02  0.00000000000E+00 0.  1.
         11    1    4    4    0    0  0.26330013280E+01  0.45501853526E+02  0.11303974941E+03  0.12188246927E+03  0.00000000000E+00 0. -1.
</event>
<event>
 8    1  0.7281309E-009  0.1063213E+03  0.7561462E-02  0.1267538E+00
         -1   -1    0    0    0  501 -0.00000000000E+00  0.00000000000E+00  0.18512902641E+03  0.18512902641E+03  0.00000000000E+00 0.  1.
          1   -1    0    0  501    0  0.00000000000E+00 -0.00000000000E+00 -0.90890363487E+02  0.90890363487E+02  0.00000000000E+00 0. -1.
         25    2    1    2    0    0 -0.67676648388E+02  0.24944530339E+01  0.21462500378E+02  0.14382321629E+03  0.12505249933E+03 0.  0.
         23    2    1    2    0    0  0.67676648388E+02 -0.24944530339E+01  0.72776162546E+02  0.13219617360E+03  0.87138438405E+02 0.  0.
          5    1    3    3  502    0 -0.12674080231E+01 -0.49313505982E+02 -0.15315305427E+02  0.51821416187E+02  0.41800000000E+01 0.  1.
         -5    1    3    3    0  502 -0.66409240364E+02  0.51807959016E+02  0.36777805805E+02  0.92001800107E+02  0.41800000000E+01 0.  1.
        -11    1    4    4    0    0  0.37862544841E+02 -0.21409929452E+02 -0.78302140767E+01  0.44195810135E+02  0.00000000000E+00 0. -1.
         11    1    4    4    0    0  0.29814103546E+02  0.18915476419E+02  0.80606376623E+02  0.88000363469E+02  0.00000000000E+00 0.  1.
</event>
<event>
 8    1  0.7281309E-009  0.6360611E+02  0.7561462E-02  0.1383293E+00
          1   -1    0    0  501    0  0.00000000000E+00  0.00000000000E+00  0.61777833542E+03  0.61777833542E+03  0.00000000000E+00 0. -1.
         -1   -1    0    0    0  501 -0.00000000000E+00 -0.00000000000E+00 -0.19714560646E+02  0.19714560646E+02  0.00000000000E+00 0.  1.
         25    2    1    2    0    0 -0.18807206148E+02  0.20364713601E+02  0.34052364000E+03  0.36382837513E+03  0.12508518932E+03 0.  0.
         23    2    1    2    0    0  0.18807206148E+02 -0.20364713601E+02  0.25754013478E+03  0.27366452094E+03  0.88300149706E+02 0.  0.
          5    1    3    3  502    0 -0.20216892225E+02  0.29458320798E+01 -0.18941368446E+01  0.20939455873E+02  0.41800000000E+01 0. -1.
         -5    1    3    3    0  502  0.14096860771E+01  0.17418881521E+02  0.34241777684E+03  0.34288891925E+03  0.41800000000E+01 0. -1.
        -11    1    4    4    0    0  0.28398322265E+02 -0.49856790821E+02  0.20268383690E+03  0.21064876462E+03  0.00000000000E+00 0. -1.
         11    1    4    4    0    0 -0.95911161173E+01  0.29492077220E+02  0.54856297880E+02  0.63015756317E+02  0.00000000000E+00 0.  1.
</event>
<event>
 8    1  0.7281309E-009  0.1091085E+03  0.7561462E-02  0.1262230E+00
          1   -1    0    0  501    0  0.00000000000E+00  0.00000000000E+00  0.15432892418E+03  0.15432892418E+03  0.00000000000E+00 0. -1.
         -1   -1    0    0    0  501 -0.00000000000E+00 -0.00000000000E+00 -0.20082063958E+03  0.20082063958E+03  0.00000000000E+00 0.  1.
         25    2    1    2    0    0  0.80920974218E+02 -0.50810793348E+02 -0.12568371137E+03  0.20142805644E+03  0.12508767257E+03 0.  0.
         23    2    1    2    0    0 -0.80920974218E+02  0.50810793348E+02  0.79191995967E+02  0.15372150732E+03  0.90713774021E+02 0.  0.
          5    1    3    3  502    0  0.44522235177E+02 -0.56292386057E+02 -0.14336358664E+03  0.16037971358E+03  0.41800000000E+01 0. -1.
         -5    1    3    3    0  502  0.36398739041E+02  0.54815927087E+01  0.17679875271E+02  0.41048342865E+02  0.41800000000E+01 0. -1.
        -11    1    4    4    0    0 -0.72310936886E+02  0.16856269604E+02  0.90362250598E+02  0.11695444306E+03  0.00000000000E+00 0. -1.
         11    1    4    4    0    0 -0.86100373323E+01  0.33954523744E+02 -0.11170254630E+02  0.36767064257E+02  0.00000000000E+00 0.  1.
</event>
<event>
 8    1  0.7281309E-009  0.1145985E+03  0.7561462E-02  0.1252284E+00
          1   -1    0    0  501    0  0.00000000000E+00  0.00000000000E+00  0.59199285407E+02  0.59199285407E+02  0.00000000000E+00 0. -1.
         -1   -1    0    0    0  501 -0.00000000000E+00 -0.00000000000E+00 -0.34346966361E+03  0.34346966361E+03  0.00000000000E+00 0.  1.
         25    2    1    2    0    0 -0.15593491588E+02  0.76083905953E+02 -0.22633980700E+03  0.27002051998E+03  0.12509778278E+03 0.  0.
         23    2    1    2    0    0  0.15593491588E+02 -0.76083905953E+02 -0.57930571205E+02  0.13264842903E+03  0.90596561300E+02 0.  0.
          5    1    3    3  502    0 -0.34265153598E+02  0.83222271664E+02 -0.23195666256E+03  0.24884013534E+03  0.41800000000E+01 0.  1.
         -5    1    3    3    0  502  0.18671662011E+02 -0.71383657118E+01  0.56168555597E+01  0.21180384644E+02  0.41800000000E+01 0.  1.
        -11    1    4    4    0    0 -0.49932838679E+01 -0.92322405349E+02 -0.39194391564E+02  0.10042190868E+03  0.00000000000E+00 0. -1.
         11    1    4    4    0    0  0.20586775456E+02  0.16238499396E+02 -0.18736179641E+02  0.32226520350E+02  0.00000000000E+00 0.  1.
</event>
<event>
 8    1  0.7281309E-009  0.2695524E+03  0.7561462E-02  0.1101536E+00
         -2   -1    0    0    0  501 -0.00000000000E+00  0.00000000000E+00  0.15794240239E+04  0.15794240239E+04  0.00000000000E+00 0.  1.
          2   -1    0    0  501    0  0.00000000000E+00 -0.00000000000E+00 -0.49096582149E+02  0.49096582149E+02  0.00000000000E+00 0. -1.
         25    2    1    2    0    0  0.99957997528E+02 -0.23635093821E+03  0.80245706935E+03  0.85172562585E+03  0.12508327752E+03 0.  0.
         23    2    1    2    0    0 -0.99957997528E+02  0.23635093821E+03  0.72787037242E+03  0.77679498021E+03  0.88101049840E+02 0.  0.
          5    1    3    3  502    0 -0.61274642279E+01 -0.93284967975E+02  0.16339248887E+03  0.18829288060E+03  0.41800000000E+01 0. -1.
         -5    1    3    3    0  502  0.10608546176E+03 -0.14306597024E+03  0.63906458048E+03  0.66343274525E+03  0.41800000000E+01 0. -1.
        -11    1    4    4    0    0  0.15233868079E+01  0.85776924538E+02  0.17552814001E+03  0.19537177234E+03  0.00000000000E+00 0.  1.
         11    1    4    4    0    0 -0.10148138434E+03  0.15057401367E+03  0.55234223240E+03  0.58142320787E+03  0.00000000000E+00 0. -1.
</event>
<event>
 8    1  0.7281309E-009  0.1782672E+03  0.7561462E-02  0.1169491E+00
         -1   -1    0    0    0  501 -0.00000000000E+00  0.00000000000E+00  0.24081375455E+03  0.24081375455E+03  0.00000000000E+00 0.  1.
          1   -1    0    0  501    0  0.00000000000E+00 -0.00000000000E+00 -0.13754504121E+03  0.13754504121E+03  0.00000000000E+00 0. -1.
         25    2    1    2    0    0  0.50964428256E+02  0.13367007541E+03  0.82446632652E+02  0.20714728774E+03  0.12508992595E+03 0.  0.
         23    2    1    2    0    0 -0.50964428256E+02 -0.13367007541E+03  0.20822080693E+02  0.17121150802E+03  0.91731997835E+02 0.  0.
          5    1    3    3  502    0  0.10424110429E+02 -0.23435397203E+02  0.21665462544E+02  0.33834074356E+02  0.41800000000E+01 0.  1.
         -5    1    3    3    0  502  0.40540317828E+02  0.15710547261E+03  0.60781170108E+02  0.17331321338E+03  0.41800000000E+01 0.  1.
        -11    1    4    4    0    0  0.25531187974E+02 -0.29766219715E+02  0.15216135840E+02  0.42064238795E+02  0.00000000000E+00 0. -1.
         11    1    4    4    0    0 -0.76495616231E+02 -0.10390385569E+03  0.56059448523E+01  0.12914726922E+03  0.00000000000E+00 0.  1.
</event>
<event>
 8    1  0.7281309E-009  0.1042068E+03  0.7561462E-02  0.1271690E+00
          1   -1    0    0  501    0  0.00000000000E+00  0.00000000000E+00  0.49890183767E+02  0.49890183767E+02  0.00000000000E+00 0. -1.
         -1   -1    0    0    0  501 -0.00000000000E+00 -0.00000000000E+00 -0.40334910748E+03  0.40334910748E+03  0.00000000000E+00 0.  1.
         25    2    1    2    0    0  0.66119442095E+01 -0.83905267522E+02 -0.25017964602E+03  0.29209758774E+03  0.12508930313E+03 0.  0.
         23    2    1    2    0    0 -0.66119442095E+01  0.83905267522E+02 -0.10327927770E+03  0.16114170351E+03  0.90643409493E+02 0.  0.
          5    1    3    3  502    0  0.84921047570E+01 -0.19414583854E+02 -0.21945450488E+03  0.22051483855E+03  0.41800000000E+01 0. -1.
         -5    1    3    3    0  502 -0.18801605475E+01 -0.64490683668E+02 -0.30725141143E+02  0.71582749192E+02  0.41800000000E+01 0. -1.
        -11    1    4    4    0    0 -0.47249815475E+02  0.36393806902E+02 -0.63090995834E+02  0.86818938018E+02  0.00000000000E+00 0. -1.
         11    1    4    4    0    0  0.40637871266E+02  0.47511460620E+02 -0.40188281862E+02  0.74322765492E+02  0.00000000000E+00 0.  1.
</event>
<event>
 8    1  0.7281309E-009  0.3361850E+03  0.7561462E-02  0.1068433E+00
         -1   -1    0    0    0  501 -0.00000000000E+00  0.00000000000E+00  0.80341109595E+03  0.80341109595E+03  0.00000000000E+00 0.  1.
          1   -1    0    0  501    0  0.00000000000E+00 -0.00000000000E+00 -0.15116117210E+03  0.15116117210E+03  0.00000000000E+00 0. -1.
         25    2    1    2    0    0  0.13382943296E+03 -0.29514643067E+03  0.23856128918E+03  0.42140383235E+03  0.12509184049E+03 0.  0.
         23    2    1    2    0    0 -0.13382943296E+03  0.29514643067E+03  0.41368863467E+03  0.53316843570E+03  0.90047552493E+02 0.  0.
          5    1    3    3  502    0  0.54945755833E+02 -0.25075213716E+03  0.17407437159E+03  0.31018547616E+03  0.41800000000E+01 0.  1.
         -5    1    3    3    0  502  0.78883677124E+02 -0.44394293511E+02  0.64486917593E+02  0.11121835619E+03  0.41800000000E+01 0.  1.
        -11    1    4    4    0    0 -0.70191054854E+02  0.12495260775E+03  0.11587776792E+03  0.18430299906E+03  0.00000000000E+00 0. -1.
         11    1    4    4    0    0 -0.63638378103E+02  0.17019382293E+03  0.29781086675E+03  0.34886543664E+03  0.00000000000E+00 0.  1.
</event>
<event>
 8    1  0.7281309E-009  0.1038785E+03  0.7561462E-02  0.1272345E+00
         -2   -1    0    0    0  501 -0.00000000000E+00  0.00000000000E+00  0.64061390188E+02  0.64061390188E+02  0.00000000000E+00 0.  1.
          2   -1    0    0  501    0  0.00000000000E+00 -0.00000000000E+00 -0.66224320933E+03  0.66224320933E+03  0.00000000000E+00 0. -1.
         25    2    1    2    0    0 -0.64450235364E+02 -0.21206098052E+02 -0.59549224170E+03  0.61226055884E+03  0.12509376704E+03 0.  0.
         23    2    1    2    0    0  0.64450235364E+02  0.21206098052E+02 -0.26895774419E+01  0.11404404068E+03  0.91625749407E+02 0.  0.
          5    1    3    3  502    0 -0.46635985267E+02  0.46442834159E+02 -0.37938549043E+03  0.38507489494E+03  0.41800000000E+01 0.  1.
         -5    1    3    3    0  502 -0.17814250096E+02 -0.67648932211E+02 -0.21610675127E+03  0.22718566389E+03  0.41800000000E+01 0.  1.
        -11    1    4    4    0    0  0.53091711930E+02  0.70187004871E+01  0.40528170614E+02  0.67160439587E+02  0.00000000000E+00 0.  1.
         11    1    4    4    0    0  0.11358523434E+02  0.14187397565E+02 -0.43217748056E+02  0.46883601091E+02  0.00000000000E+00 0. -1.
</event>
<event>
 7    1  0.7281309E-009  0.9284879E+02  0.7561462E-02  0.1296096E+00
          4   -1    0    0  501    0  0.00000000000E+00  0.00000000000E+00  0.48742319187E+02  0.48742319187E+02  0.00000000000E+00 0. -1.
         -4   -1    0    0    0  501 -0.00000000000E+00 -0.00000000000E+00 -0.37931512427E+03  0.37931512427E+03  0.00000000000E+00 0.  1.
         23    2    1    2    0    0 -0.22549407035E+02 -0.49160251351E+02 -0.50101842118E+02  0.11617764924E+03  0.89787780509E+02 0.  0.
          5    1    1    2  502    0 -0.16961786436E+02  0.62344363917E+02 -0.25452125043E+03  0.26262722866E+03  0.41800000000E+01 0.  1.
         -5    1    1    2    0  502  0.39511193471E+02 -0.13184112566E+02 -0.25949712535E+02  0.49252565561E+02  0.41800000000E+01 0.  1.
        -11    1    3    3    0    0  0.10555690678E+02 -0.44408254135E+02 -0.65113190342E+02  0.79518822913E+02  0.00000000000E+00 0.  1.
         11    1    3    3    0    0 -0.33105097713E+02 -0.47519972160E+01  0.15011348224E+02  0.36658826326E+02  0.00000000000E+00 0. -1.
</event>
<event>
 8    1  0.7281309E-009  0.7718089E+02  0.7561462E-02  0.1337248E+00
          2   -1    0    0  501    0  0.00000000000E+00  0.00000000000E+00  0.21504675647E+03  0.21504675647E+03  0.00000000000E+00 0. -1.
         -2   -1    0    0    0  501 -0.00000000000E+00 -0.00000000000E+00 -0.91079904581E+02  0.91079904581E+02  0.00000000000E+00 0.  1.
         25    2    1    2    0    0 -0.11788520414E+02  0.42347891936E+02  0.15238008914E+03  0.20198288820E+03  0.12508030378E+03 0.  0.
         23    2    1    2    0    0  0.11788520414E+02 -0.42347891936E+02 -0.28413237248E+02  0.10414377285E+03  0.90034994354E+02 0.  0.
          5    1    3    3  502    0  0.21180895038E+02  0.58500676806E+02  0.15279516937E+03  0.16502968122E+03  0.41800000000E+01 0.  1.
         -5    1    3    3    0  502 -0.32969415452E+02 -0.16152784869E+02 -0.41508023064E+00  0.36953206977E+02  0.41800000000E+01 0.  1.
        -11    1    4    4    0    0 -0.11433243455E+02 -0.18643474991E+02 -0.56553456325E+02  0.60634904452E+02  0.00000000000E+00 0.  1.
         11    1    4    4    0    0  0.23221763869E+02 -0.23704416946E+02  0.28140219077E+02  0.43508868402E+02  0.00000000000E+00 0. -1.
</event>
<event>
 8    1  0.7281309E-009  0.1282620E+03  0.7561462E-02  0.1230058E+00
          1   -1    0    0  501    0  0.00000000000E+00  0.00000000000E+00  0.69465191344E+03  0.69465191344E+03  0.00000000000E+00 0. -1.
         -1   -1    0    0    0  501 -0.00000000000E+00 -0.00000000000E+00 -0.32554454902E+02  0.32554454902E+02  0.00000000000E+00 0.  1.
         25    2    1    2    0    0  0.87540668388E+02 -0.42506267252E+02  0.36278061592E+03  0.39588782768E+03  0.12508895009E+03 0.  0.
         23    2    1    2    0    0 -0.87540668388E+02  0.42506267252E+02  0.29931684262E+03  0.33131854067E+03  0.10349517737E+03 0.  0.
          5    1    3    3  502    0 -0.13962441581E+02 -0.49960504416E+02  0.17086354190E+03  0.17861361686E+03  0.41800000000E+01 0.  1.
         -5    1    3    3    0  502  0.10150310997E+03  0.74542371638E+01  0.19191707402E+03  0.21727421081E+03  0.41800000000E+01 0.  1.
        -11    1    4    4    0    0 -0.66559940066E+02  0.46588319008E+02  0.29910564024E+03  0.30994335145E+03  0.00000000000E+00 0. -1.
         11    1    4    4    0    0 -0.20980728322E+02 -0.40820517560E+01  0.21120237968E+00  0.21375189213E+02  0.00000000000E+00 0.  1.
</event>
<event>
 8    1  0.7281309E-009  0.9508550E+02  0.7561462E-02  0.1290984E+00
          1   -1    0    0  501    0  0.00000000000E+00  0.00000000000E+00  0.64960988388E+03  0.64960988388E+03  0.00000000000E+00 0. -1.
         -1   -1    0    0    0  501 -0.00000000000E+00 -0.00000000000E+00 -0.16692677734E+02  0.16692677734E+02  0.00000000000E+00 0.  1.
         25    2    1    2    0    0 -0.10269291621E+02  0.26688501874E+02  0.53268075239E+03  0.54791778084E+03  0.12508947244E+03 0.  0.
         23    2    1    2    0    0  0.10269291621E+02 -0.26688501874E+02  0.10023645376E+03  0.11838478078E+03  0.56123748749E+02 0.  0.
          5    1    3    3  502    0 -0.60249119659E+02  0.43375150669E+02  0.34591728723E+03  0.35381860059E+03  0.41800000000E+01 0.  1.
         -5    1    3    3    0  502  0.49979828039E+02 -0.16686648795E+02  0.18676346515E+03  0.19409918025E+03  0.41800000000E+01 0.  1.
        -11    1    4    4    0    0  0.33458602680E+02 -0.12196380404E+02  0.58546595927E+02  0.68526882921E+02  0.00000000000E+00 0.  1.
         11    1    4    4    0    0 -0.23189311059E+02 -0.14492121470E+02  0.41689857835E+02  0.49857897854E+02  0.00000000000E+00 0. -1.
</event>
<event>
 8    1  0.7281309E-009  0.2334318E+03  0.7561462E-02  0.1124247E+00
         -1   -1    0    0    0  501 -0.00000000000E+00  0.00000000000E+00  0.17827049875E+03  0.17827049875E+03  0.00000000000E+00 0.  1.
          1   -1    0    0  501    0  0.00000000000E+00 -0.00000000000E+00 -0.39266639021E+03  0.39266639021E+03  0.00000000000E+00 0. -1.
         25    2    1    2    0    0 -0.16743654016E+03 -0.15018716952E+03 -0.15908162037E+02  0.25786148154E+03  0.12509313800E+03 0.  0.
         23    2    1    2    0    0  0.16743654016E+03  0.15018716952E+03 -0.19848772942E+03  0.31307540742E+03  0.89597160283E+02 0.  0.
          5    1    3    3  502    0 -0.72466052247E+02 -0.11312734330E+02  0.35910652744E+02  0.81770129429E+02  0.41800000000E+01 0.  1.
         -5    1    3    3    0  502 -0.94970487915E+02 -0.13887443519E+03 -0.51818814781E+02  0.17609135211E+03  0.41800000000E+01 0.  1.
        -11    1    4    4    0    0  0.90977056920E+02  0.75538628724E+02 -0.16115476475E+03  0.19988438537E+03  0.00000000000E+00 0. -1.
         11    1    4    4    0    0  0.76459483242E+02  0.74648540791E+02 -0.37332964670E+02  0.11319102204E+03  0.00000000000E+00 0.  1.
</event>
<event>
 8    1  0.7281309E-009  0.6486080E+02  0.7561462E-02  0.1378496E+00
         -1   -1    0    0    0  501 -0.00000000000E+00  0.00000000000E+00  0.48774719334E+02  0.48774719334E+02  0.00000000000E+00 0.  1.
          1   -1    0    0  501    0  0.00000000000E+00 -0.00000000000E+00 -0.28685641032E+03  0.28685641032E+03  0.00000000000E+00 0. -1.
         25    2    1    2    0    0  0.10192365858E+02  0.31584605575E+02 -0.84444401455E+02  0.15452802523E+03  0.12508629827E+03 0.  0.
         23    2    1    2    0    0 -0.10192365858E+02 -0.31584605575E+02 -0.15363728953E+03  0.18110310442E+03  0.89958023906E+02 0.  0.
          5    1    3    3  502    0  0.37295918665E+02  0.39162329006E+02  0.10642491373E+02  0.55275750424E+02  0.41800000000E+01 0.  1.
         -5    1    3    3    0  502 -0.27103552807E+02 -0.75777234310E+01 -0.95086892828E+02  0.99252274810E+02  0.41800000000E+01 0.  1.
        -11    1    4    4    0    0 -0.19134569636E+02 -0.61987019723E+01  0.45671094283E+01  0.20625570291E+02  0.00000000000E+00 0.  1.
         11    1    4    4    0    0  0.89422037782E+01 -0.25385903603E+02 -0.15820439896E+03  0.16047753413E+03  0.00000000000E+00 0. -1.
</event>
<event>
 8    1  0.7281309E-009  0.9786881E+02  0.7561462E-02  0.1284842E+00
         -1   -1    0    0    0  501 -0.00000000000E+00  0.00000000000E+00  0.18538842147E+02  0.18538842147E+02  0.00000000000E+00 0.  1.
          1   -1    0    0  501    0  0.00000000000E+00 -0.00000000000E+00 -0.86145158119E+03  0.86145158119E+03  0.00000000000E+00 0. -1.
         25    2    1    2    0    0  0.23912995853E+02 -0.59821610817E+02 -0.52589944741E+03  0.54439928096E+03  0.12509952772E+03 0.  0.
         23    2    1    2    0    0 -0.23912995853E+02  0.59821610817E+02 -0.31701329163E+03  0.33559114237E+03  0.89294631841E+02 0.  0.
          5    1    3    3  502    0 -0.20861808450E+01 -0.77990302191E+02 -0.49050588304E+03  0.49668937283E+03  0.41800000000E+01 0.  1.
         -5    1    3    3    0  502  0.25999176698E+02  0.18168691374E+02 -0.35393564369E+02  0.47709908132E+02  0.41800000000E+01 0.  1.
        -11    1    4    4    0    0  0.18150356394E+02  0.11218978872E+02 -0.13283910581E+02  0.25134900128E+02  0.00000000000E+00 0.  1.
         11    1    4    4    0    0 -0.42063352246E+02  0.48602631945E+02 -0.30372938105E+03  0.31045624224E+03  0.00000000000E+00 0. -1.
</event>
<event>
 8    1  0.7281309E-009  0.8016974E+02  0.7561462E-02  0.1328570E+00
          1   -1    0    0  501    0  0.00000000000E+00  0.00000000000E+00  0.35321940138E+02  0.35321940138E+02  0.00000000000E+00 0. -1.
         -1   -1    0    0    0  501 -0.00000000000E+00 -0.00000000000E+00 -0.39732026132E+03  0.39732026132E+03  0.00000000000E+00 0.  1.
         25    2    1    2    0    0  0.32648742160E+02 -0.37447235768E+02 -0.19536685473E+03  0.23724136332E+03  0.12508805184E+03 0.  0.
         23    2    1    2    0    0 -0.32648742160E+02  0.37447235768E+02 -0.16663146645E+03  0.19540083813E+03  0.89147103713E+02 0.  0.
          5    1    3    3  502    0  0.30567663720E+02 -0.55115563046E+02 -0.20643103604E+03  0.21587809615E+03  0.41800000000E+01 0.  1.
         -5    1    3    3    0  502  0.20810784399E+01  0.17668327279E+02  0.11064181312E+02  0.21363267175E+02  0.41800000000E+01 0.  1.
        -11    1    4    4    0    0 -0.15315986969E+02  0.53272790084E+02 -0.16233805403E+03  0.17154070481E+03  0.00000000000E+00 0.  1.
         11    1    4    4    0    0 -0.17332755191E+02 -0.15825554316E+02 -0.42934124172E+01  0.23860133321E+02  0.00000000000E+00 0. -1.
</event>
<event>
 8    1  0.7281309E-009  0.1457980E+03  0.7561462E-02  0.1205734E+00
         -2   -1    0    0    0  501 -0.00000000000E+00  0.00000000000E+00  0.12798927311E+03  0.12798927311E+03  0.00000000000E+00 0.  1.
          2   -1    0    0  501    0  0.00000000000E+00 -0.00000000000E+00 -0.21509940299E+03  0.21509940299E+03  0.00000000000E+00 0. -1.
         25    2    1    2    0    0 -0.99819763988E+02 -0.75433689097E+02 -0.53587650928E+02  0.18485987076E+03  0.12508920318E+03 0.  0.
         23    2    1    2    0    0  0.99819763988E+02  0.75433689097E+02 -0.33522478944E+02  0.15822880534E+03  0.90875582588E+02 0.  0.
          5    1    3    3  502    0 -0.36807264970E+02  0.25396471850E+02 -0.48027603684E+02  0.65756206191E+02  0.41800000000E+01 0. -1.
         -5    1    3    3    0  502 -0.63012499017E+02 -0.10083016095E+03 -0.55600472447E+01  0.11910366457E+03  0.41800000000E+01 0. -1.
        -11    1    4    4    0    0  0.72093115864E+02  0.39129924145E+02  0.23345884172E+02  0.85285395153E+02  0.00000000000E+00 0.  1.
         11    1    4    4    0    0  0.27726648124E+02  0.36303764952E+02 -0.56868363116E+02  0.72943410185E+02  0.00000000000E+00 0. -1.
</event>
<event>
 8    1  0.7281309E-009  0.1664192E+03  0.7561462E-02  0.1181634E+00
         -2   -1    0    0    0  501 -0.00000000000E+00  0.00000000000E+00  0.51068879373E+02  0.51068879373E+02  0.00000000000E+00 0.  1.
          2   -1    0    0  501    0  0.00000000000E+00 -0.00000000000E+00 -0.72274658531E+03  0.72274658531E+03  0.00000000000E+00 0. -1.
         25    2    1    2    0    0 -0.79808644612E+02  0.11090318895E+03 -0.52192941433E+03  0.55382958477E+03  0.12509179965E+03 0.  0.
         23    2    1    2    0    0  0.79808644612E+02 -0.11090318895E+03 -0.14974829160E+03  0.21998587992E+03  0.85441789832E+02 0.  0.
          5    1    3    3  502    0 -0.10938271562E+03  0.89808291086E+02 -0.46576515838E+03  0.48681080800E+03  0.41800000000E+01 0. -1.
         -5    1    3    3    0  502  0.29574071012E+02  0.21094897868E+02 -0.56164255950E+02  0.67018776762E+02  0.41800000000E+01 0. -1.
        -11    1    4    4    0    0 -0.32183597075E+01 -0.53842103903E+02 -0.24482114211E+02  0.59234313604E+02  0.00000000000E+00 0. -1.
         11    1    4    4    0    0  0.83027004319E+02 -0.57061085050E+02 -0.12526617739E+03  0.16075156631E+03  0.00000000000E+00 0.  1.
</event>
<event>
 8    1  0.7281309E-009  0.1253626E+03  0.7561462E-02  0.1234504E+00
          1   -1    0    0  501    0  0.00000000000E+00  0.00000000000E+00  0.18219543974E+02  0.18219543974E+02  0.00000000000E+00 0. -1.
         -1   -1    0    0    0  501 -0.00000000000E+00 -0.00000000000E+00 -0.95577764751E+03  0.95577764751E+03  0.00000000000E+00 0.  1.
         25    2    1    2    0    0  0.67848580024E+02 -0.31064790097E+02 -0.52922106699E+03  0.54889975184E+03  0.12509016278E+03 0.  0.
         23    2    1    2    0    0 -0.67848580024E+02  0.31064790097E+02 -0.40833703654E+03  0.42509743964E+03  0.91652860208E+02 0.  0.
          5    1    3    3  502    0 -0.33463205751E+02 -0.15987782611E+02 -0.21961560483E+03  0.22276418388E+03  0.41800000000E+01 0. -1.
         -5    1    3    3    0  502  0.10131178577E+03 -0.15077007486E+02 -0.30960546216E+03  0.32613556796E+03  0.41800000000E+01 0. -1.
        -11    1    4    4    0    0 -0.71765282794E+02 -0.74745092931E+01 -0.32886040800E+03  0.33668277659E+03  0.00000000000E+00 0.  1.
         11    1    4    4    0    0  0.39167027700E+01  0.38539299390E+02 -0.79476628539E+02  0.88414663048E+02  0.00000000000E+00 0. -1.
</event>
<event>
 8    1  0.7281309E-009  0.9679830E+02  0.7561462E-02  0.1287176E+00
         -1   -1    0    0    0  501 -0.00000000000E+00  0.00000000000E+00  0.36924566048E+02  0.36924566048E+02  0.00000000000E+00 0.  1.
          1   -1    0    0  501    0  0.00000000000E+00 -0.00000000000E+00 -0.49188957844E+03  0.49188957844E+03  0.00000000000E+00 0. -1.
         25    2    1    2    0    0  0.54089930805E+01 -0.69150156171E+02 -0.32813490482E+03  0.35795465339E+03  0.12509203342E+03 0.  0.
         23    2    1    2    0    0 -0.54089930805E+01  0.69150156171E+02 -0.12683010758E+03  0.17085949109E+03  0.91082864492E+02 0.  0.
          5    1    3    3  502    0 -0.16186218575E+02 -0.30117876399E+02 -0.88817252219E+01  0.35572989662E+02  0.41800000000E+01 0. -1.
         -5    1    3    3    0  502  0.21595211655E+02 -0.39032279771E+02 -0.31925317959E+03  0.32238166373E+03  0.41800000000E+01 0. -1.
        -11    1    4    4    0    0 -0.59435011560E+01  0.91649056927E+02 -0.98421019083E+02  0.13461638771E+03  0.00000000000E+00 0. -1.
         11    1    4    4    0    0  0.53450807550E+00 -0.22498900756E+02 -0.28409088495E+02  0.36243103389E+02  0.00000000000E+00 0.  1.
</event>
<event>
 8    1  0.7281309E-009  0.1254306E+03  0.7561462E-02  0.1234398E+00
         -2   -1    0    0    0  501 -0.00000000000E+00  0.00000000000E+00  0.40396974984E+02  0.40396974984E+02  0.00000000000E+00 0.  1.
          2   -1    0    0  501    0  0.00000000000E+00 -0.00000000000E+00 -0.44577942074E+03  0.44577942074E+03  0.00000000000E+00 0. -1.
         25    2    1    2    0    0 -0.36393299258E+02 -0.69215878317E+02 -0.20756786235E+03  0.25464266921E+03  0.12507262473E+03 0.  0.
         23    2    1    2    0    0  0.36393299258E+02  0.69215878317E+02 -0.19781458341E+03  0.23153372652E+03  0.91443682481E+02 0.  0.
          5    1    3    3  502    0  0.36887496115E+02 -0.28811006773E+02 -0.13786517220E+03  0.14565383478E+03  0.41800000000E+01 0. -1.
         -5    1    3    3    0  502 -0.73280795373E+02 -0.40404871544E+02 -0.69702690149E+02  0.10898883442E+03  0.41800000000E+01 0. -1.
        -11    1    4    4    0    0  0.59668135209E+02  0.15660488307E+02 -0.94333537083E+02  0.11271359045E+03  0.00000000000E+00 0.  1.
         11    1    4    4    0    0 -0.23274835951E+02  0.53555390009E+02 -0.10348104633E+03  0.11882013607E+03  0.00000000000E+00 0. -1.
</event>
<event>
 8    1  0.7281309E-009  0.1499651E+03  0.7561462E-02  0.1200516E+00
          2   -1    0    0  501    0  0.00000000000E+00  0.00000000000E+00  0.62722536916E+03  0.62722536916E+03  0.00000000000E+00 0.  1.
         -2   -1    0    0    0  501 -0.00000000000E+00 -0.00000000000E+00 -0.51780668650E+02  0.51780668650E+02  0.00000000000E+00 0. -1.
         25    2    1    2    0    0  0.12450790717E+03  0.64543916235E+02  0.35835500723E+03  0.40464056110E+03  0.12509011318E+03 0.  0.
         23    2    1    2    0    0 -0.12450790717E+03 -0.64543916235E+02  0.21708969329E+03  0.27436547671E+03  0.92088782209E+02 0.  0.
          5    1    3    3  502    0  0.14935243970E+02  0.35818860716E+02  0.23046499382E+03  0.23374695308E+03  0.41800000000E+01 0.  1.
         -5    1    3    3    0  502  0.10957266320E+03  0.28725055520E+02  0.12789001340E+03  0.17089360802E+03  0.41800000000E+01 0.  1.
        -11    1    4    4    0    0 -0.44849596983E+02 -0.48923214175E+02  0.16517084134E+03  0.17800666859E+03  0.00000000000E+00 0.  1.
         11    1    4    4    0    0 -0.79658310186E+02 -0.15620702061E+02  0.51918851949E+02  0.96358808120E+02  0.00000000000E+00 0. -1.
</event>
<event>
 8    1  0.7281309E-009  0.9757752E+02  0.7561462E-02  0.1285474E+00
         -1   -1    0    0    0  501 -0.00000000000E+00  0.00000000000E+00  0.31726149396E+03  0.31726149396E+03  0.00000000000E+00 0.  1.
          1   -1    0    0  501    0  0.00000000000E+00 -0.00000000000E+00 -0.50998137583E+02  0.50998137583E+02  0.00000000000E+00 0. -1.
         25    2    1    2    0    0 -0.14943962729E+02 -0.35528594186E+02  0.22740494293E+03  0.26238495939E+03  0.12508899160E+03 0.  0.
         23    2    1    2    0    0  0.14943962729E+02  0.35528594186E+02  0.38858413446E+02  0.10587467215E+03  0.90630386079E+02 0.  0.
          5    1    3    3  502    0 -0.54524194122E+02 -0.61256304054E+02  0.16190956123E+03  0.18154173335E+03  0.41800000000E+01 0. -1.
         -5    1    3    3    0  502  0.39580231393E+02  0.25727709869E+02  0.65495381702E+02  0.80843226040E+02  0.41800000000E+01 0. -1.
        -11    1    4    4    0    0  0.37033284391E+01  0.48410924570E+02  0.60959840552E+02  0.77932242489E+02  0.00000000000E+00 0.  1.
         11    1    4    4    0    0  0.11240634290E+02 -0.12882330384E+02 -0.22101427106E+02  0.27942429663E+02  0.00000000000E+00 0. -1.
</event>
<event>
 8    1  0.7281309E-009  0.1252282E+03  0.7561462E-02  0.1234713E+00
         -2   -1    0    0    0  501 -0.00000000000E+00  0.00000000000E+00  0.38468219494E+02  0.38468219494E+02  0.00000000000E+00 0.  1.
          2   -1    0    0  501    0  0.00000000000E+00 -0.00000000000E+00 -0.48338518756E+03  0.48338518756E+03  0.00000000000E+00 0. -1.
         25    2    1    2    0    0  0.66041126257E+02 -0.49781726254E+02 -0.23033382005E+03  0.27484764996E+03  0.12509161203E+03 0.  0.
         23    2    1    2    0    0 -0.66041126257E+02  0.49781726254E+02 -0.21458314801E+03  0.24700575709E+03  0.90145804125E+02 0.  0.
          5    1    3    3  502    0  0.77050184789E+02 -0.81696211768E+02 -0.19930978301E+03  0.22880748239E+03  0.41800000000E+01 0.  1.
         -5    1    3    3    0  502 -0.11009058532E+02  0.31914485514E+02 -0.31024037047E+02  0.46040167572E+02  0.41800000000E+01 0.  1.
        -11    1    4    4    0    0 -0.89800692131E+01 -0.15155806081E+02 -0.22620146076E+01  0.17761103882E+02  0.00000000000E+00 0.  1.
         11    1    4    4    0    0 -0.57061057044E+02  0.64937532335E+02 -0.21232113340E+03  0.22924465321E+03  0.00000000000E+00 0. -1.
</event>
<event>
 8    1  0.7281309E-009  0.1992541E+03  0.7561462E-02  0.1150370E+00
          1   -1    0    0  501    0  0.00000000000E+00  0.00000000000E+00  0.25190285706E+03  0.25190285706E+03  0.00000000000E+00 0.  1.
         -1   -1    0    0    0  501 -0.00000000000E+00 -0.00000000000E+00 -0.21882026428E+03  0.21882026428E+03  0.00000000000E+00 0. -1.
         25    2    1    2    0    0  0.18740559420E+03  0.26009992245E+02  0.10327227619E+03  0.24921933799E+03  0.12509092279E+03 0.  0.
         23    2    1    2    0    0 -0.18740559420E+03 -0.26009992245E+02 -0.70189683406E+02  0.22150378335E+03  0.91323370204E+02 0.  0.
          5    1    3    3  502    0  0.16247856561E+03  0.32445486682E+02  0.13092093390E+03  0.21121022045E+03  0.41800000000E+01 0. -1.
         -5    1    3    3    0  502  0.24927028596E+02 -0.64354944366E+01 -0.27648657710E+02  0.38009117544E+02  0.41800000000E+01 0. -1.
        -11    1    4    4    0    0 -0.14518924218E+03  0.17288112432E+02 -0.67305952317E+02  0.16096237478E+03  0.00000000000E+00 0.  1.
         11    1    4    4    0    0 -0.42216352022E+02 -0.43298104677E+02 -0.28837310887E+01  0.60541408570E+02  0.00000000000E+00 0. -1.
</event>
<event>
 8    1  0.7281309E-009  0.1741632E+03  0.7561462E-02  0.1173575E+00
          1   -1    0    0  501    0  0.00000000000E+00  0.00000000000E+00  0.21052884616E+03  0.21052884616E+03  0.00000000000E+00 0. -1.
         -1   -1    0    0    0  501 -0.00000000000E+00 -0.00000000000E+00 -0.19219585194E+03  0.19219585194E+03  0.00000000000E+00 0.  1.
         25    2    1    2    0    0 -0.12035475717E+03  0.10551726100E+03  0.64006319267E+02  0.21298421076E+03  0.12508519170E+03 0.  0.
         23    2    1    2    0    0  0.12035475717E+03 -0.10551726100E+03 -0.45673325041E+02  0.18974048734E+03  0.91083697635E+02 0.  0.
          5    1    3    3  502    0 -0.11711809762E+03  0.81934186259E+02  0.96484040414E+02  0.17250073079E+03  0.41800000000E+01 0. -1.
         -5    1    3    3    0  502 -0.32366595471E+01  0.23583074742E+02 -0.32477721147E+02  0.40483479967E+02  0.41800000000E+01 0. -1.
        -11    1    4    4    0    0  0.84579956364E+02 -0.17801202258E+02 -0.38854264995E+02  0.94764475036E+02  0.00000000000E+00 0. -1.
         11    1    4    4    0    0  0.35774800805E+02 -0.87716058743E+02 -0.68190600456E+01  0.94976012308E+02  0.00000000000E+00 0.  1.
</event>
<event>
 8    1  0.7281309E-009  0.1298163E+03  0.7561462E-02  0.1227729E+00
          2   -1    0    0  501    0  0.00000000000E+00  0.00000000000E+00  0.39005642024E+03  0.39005642024E+03  0.00000000000E+00 0. -1.
         -2   -1    0    0    0  501 -0.00000000000E+00 -0.00000000000E+00 -0.61886332024E+02  0.61886332024E+02  0.00000000000E+00 0.  1.
         25    2    1    2    0    0  0.87065836532E+02  0.28288128647E+02  0.29112639034E+03  0.32982199185E+03  0.12508914039E+03 0.  0.
         23    2    1    2    0    0 -0.87065836532E+02 -0.28288128647E+02  0.37043697880E+02  0.12212076042E+03  0.71837082755E+02 0.  0.
          5    1    3    3  502    0  0.72907298973E+02 -0.40033330949E+02  0.13280318349E+03  0.15675554145E+03  0.41800000000E+01 0.  1.
         -5    1    3    3    0  502  0.14158537559E+02  0.68321459596E+02  0.15832320685E+03  0.17306645040E+03  0.41800000000E+01 0.  1.
        -11    1    4    4    0    0 -0.63345184294E+02  0.72160147035E+01 -0.26660341397E+01  0.63810586735E+02  0.00000000000E+00 0. -1.
         11    1    4    4    0    0 -0.23720652238E+02 -0.35504143351E+02  0.39709732020E+02  0.58310173681E+02  0.00000000000E+00 0.  1.
</event>
<event>
 7    1  0.7281309E-009  0.8126182E+02  0.7561462E-02  0.1325508E+00
         -2   -1    0    0    0  501 -0.00000000000E+00  0.00000000000E+00  0.47499829512E+03  0.47499829512E+03  0.00000000000E+00 0.  1.
          2   -1    0    0  501    0  0.00000000000E+00 -0.00000000000E+00 -0.30573452141E+02  0.30573452141E+02  0.00000000000E+00 0. -1.
         23    2    1    2    0    0 -0.21250965277E+02 -0.46868088797E+02  0.21967074699E+03  0.24301008079E+03  0.90279792930E+02 0.  0.
          5    1    1    2  502    0 -0.16892698352E+02  0.18546596790E+02 -0.66553089899E+01  0.26288876885E+02  0.41800000000E+01 0.  1.
         -5    1    1    2    0  502  0.38143663629E+02  0.28321492007E+02  0.23140940498E+03  0.23627278958E+03  0.41800000000E+01 0.  1.
        -11    1    3    3    0    0  0.19369675093E+01 -0.61792957874E+02  0.82494729062E+02  0.10308977548E+03  0.00000000000E+00 0. -1.
         11    1    3    3    0    0 -0.23187932786E+02  0.14924869078E+02  0.13717601792E+03  0.13992030531E+03  0.00000000000E+00 0.  1.
</event>
<event>
 8    1  0.7281309E-009  0.1089401E+03  0.7561462E-02  0.1262545E+00
         -2   -1    0    0    0  501 -0.00000000000E+00  0.00000000000E+00  0.50244339063E+02  0.50244339063E+02  0.00000000000E+00 0.  1.
          2   -1    0    0  501    0  0.00000000000E+00 -0.00000000000E+00 -0.43717931197E+03  0.43717931197E+03  0.00000000000E+00 0. -1.
         25    2    1    2    0    0 -0.24189768127E+02 -0.58636446341E+02 -0.33888012816E+03  0.36675739015E+03  0.12509142355E+03 0.  0.
         23    2    1    2    0    0  0.24189768127E+02  0.58636446341E+02 -0.48054844755E+02  0.12066626089E+03  0.90706673908E+02 0.  0.
          5    1    3    3  502    0 -0.51748962518E+02 -0.75108981880E+02 -0.31068455003E+03  0.32382352649E+03  0.41800000000E+01 0. -1.
         -5    1    3    3    0  502  0.27559194392E+02  0.16472535539E+02 -0.28195578125E+02  0.42933863656E+02  0.41800000000E+01 0. -1.
        -11    1    4    4    0    0 -0.19390384540E+02 -0.20331269999E+01  0.13630999016E+02  0.23789173003E+02  0.00000000000E+00 0.  1.
         11    1    4    4    0    0  0.43580152667E+02  0.60669573341E+02 -0.61685843770E+02  0.96877087887E+02  0.00000000000E+00 0. -1.
</event>
<event>
 8    1  0.7281309E-009  0.1023255E+03  0.7561462E-02  0.1275480E+00
         -2   -1    0    0    0  501 -0.00000000000E+00  0.00000000000E+00  0.39806347572E+02  0.39806347572E+02  0.00000000000E+00 0.  1.
          2   -1    0    0  501    0  0.00000000000E+00 -0.00000000000E+00 -0.59486377600E+03  0.59486377600E+03  0.00000000000E+00 0. -1.
         25    2    1    2    0    0  0.14604353885E+02  0.45743078036E+02 -0.96422175891E+02  0.16505897408E+03  0.12506603288E+03 0.  0.
         23    2    1    2    0    0 -0.14604353885E+02 -0.45743078036E+02 -0.45863525254E+03  0.46961114949E+03  0.88784123108E+02 0.  0.
          5    1    3    3  502    0 -0.33868440011E+02  0.44251060174E+02  0.12878694015E+01  0.55895961955E+02  0.41800000000E+01 0.  1.
         -5    1    3    3    0  502  0.48472793895E+02  0.14920178625E+01 -0.97710045293E+02  0.10916301213E+03  0.41800000000E+01 0.  1.
        -11    1    4    4    0    0 -0.49078511239E+02 -0.43442425015E+02 -0.27032080062E+03  0.27815333865E+03  0.00000000000E+00 0.  1.
         11    1    4    4    0    0  0.34474157355E+02 -0.23006530209E+01 -0.18831445192E+03  0.19145781084E+03  0.00000000000E+00 0. -1.
</event>
<event>
 8    1  0.7281309E-009  0.2036901E+03  0.7561462E-02  0.1146663E+00
          1   -1    0    0  501    0  0.00000000000E+00  0.00000000000E+00  0.65035390253E+03  0.65035390253E+03  0.00000000000E+00 0. -1.
         -1   -1    0    0    0  501 -0.00000000000E+00 -0.00000000000E+00 -0.78071205445E+02  0.78071205445E+02  0.00000000000E+00 0.  1.
         25    2    1    2    0    0  0.40131506850E+02  0.19137896462E+03  0.33115899020E+03  0.40441294528E+03  0.12508839904E+03 0.  0.
         23    2    1    2    0    0 -0.40131506850E+02 -0.19137896462E+03  0.24112370688E+03  0.32401216270E+03  0.92772806447E+02 0.  0.
          5    1    3    3  502    0  0.46022097191E+02  0.17277066002E+03  0.18653987185E+03  0.25842277489E+03  0.41800000000E+01 0.  1.
         -5    1    3    3    0  502 -0.58905903413E+01  0.18608304594E+02  0.14461911836E+03  0.14599017038E+03  0.41800000000E+01 0.  1.
        -11    1    4    4    0    0 -0.58205005452E+02 -0.10246375344E+03  0.92197237219E+02  0.14962277226E+03  0.00000000000E+00 0.  1.
         11    1    4    4    0    0  0.18073498602E+02 -0.88915211176E+02  0.14892646966E+03  0.17438939043E+03  0.00000000000E+00 0. -1.
</event>
<event>
 8    1  0.7281309E-009  0.8875106E+02  0.7561462E-02  0.1305905E+00
         -1   -1    0    0    0  501 -0.00000000000E+00  0.00000000000E+00  0.88622993345E+02  0.88622993345E+02  0.00000000000E+00 0.  1.
          1   -1    0    0  501    0  0.00000000000E+00 -0.00000000000E+00 -0.19347906492E+03  0.19347906492E+03  0.00000000000E+00 0. -1.
         25    2    1    2    0    0  0.16639589959E+02 -0.62085926823E+02 -0.95524205385E+02  0.17000525788E+03  0.12508147596E+03 0.  0.
         23    2    1    2    0    0 -0.16639589959E+02  0.62085926823E+02 -0.93318661857E+01  0.11209680038E+03  0.91362304404E+02 0.  0.
          5    1    3    3  502    0  0.52800096790E+02 -0.34809009996E+02  0.90474260262E+00  0.63386184276E+02  0.41800000000E+01 0.  1.
         -5    1    3    3    0  502 -0.36160506831E+02 -0.27276916827E+02 -0.96428947988E+02  0.10661907360E+03  0.41800000000E+01 0.  1.
        -11    1    4    4    0    0 -0.22183668031E+02  0.38758435054E+02  0.38260017505E+02  0.58806125146E+02  0.00000000000E+00 0.  1.
         11    1    4    4    0    0  0.55440780719E+01  0.23327491768E+02 -0.47591883691E+02  0.53290675236E+02  0.00000000000E+00 0. -1.
</event>
<event>
 7    1  0.7281309E-009  0.8985823E+02  0.7561462E-02  0.1303195E+00
         -1   -1    0    0    0  501 -0.00000000000E+00  0.00000000000E+00  0.38594839926E+02  0.38594839926E+02  0.00000000000E+00 0.  1.
          1   -1    0    0  501    0  0.00000000000E+00 -0.00000000000E+00 -0.38616745340E+03  0.38616745340E+03  0.00000000000E+00 0. -1.
         25    2    1    2    0    0  0.61796836409E+02  0.27290267045E+01 -0.30346083565E+03  0.33401027371E+03  0.12509231628E+03 0.  0.
          5    1    3    3  502    0  0.83718860664E+02  0.11935429161E+01 -0.29985333337E+03  0.31135151534E+03  0.41800000000E+01 0.  1.
         -5    1    3    3    0  502 -0.21922024255E+02  0.15354837885E+01 -0.36075022817E+01  0.22658758364E+02  0.41800000000E+01 0.  1.
        -11    1    1    2    0    0 -0.32790074580E+02  0.18426796050E+02 -0.39519251860E+02  0.54557374123E+02  0.00000000000E+00 0. -1.
         11    1    1    2    0    0 -0.29006761829E+02 -0.21155822754E+02 -0.45925259721E+01  0.36194645502E+02  0.00000000000E+00 0.  1.
</event>
<event>
 8    1  0.7281309E-009  0.1245394E+03  0.7561462E-02  0.1235791E+00
          2   -1    0    0  501    0  0.00000000000E+00  0.00000000000E+00  0.21105307029E+03  0.21105307029E+03  0.00000000000E+00 0.  1.
         -2   -1    0    0    0  501 -0.00000000000E+00 -0.00000000000E+00 -0.10262205372E+03  0.10262205372E+03  0.00000000000E+00 0. -1.
         25    2    1    2    0    0  0.85347367076E+02 -0.17147560292E+02  0.85115444773E+01  0.15263632343E+03  0.12508872431E+03 0.  0.
         23    2    1    2    0    0 -0.85347367076E+02  0.17147560292E+02  0.99919472086E+02  0.16103880058E+03  0.91495259438E+02 0.  0.
          5    1    3    3  502    0  0.11573415138E+03 -0.38979345519E+01  0.19413997329E+02  0.11749026930E+03  0.41800000000E+01 0.  1.
         -5    1    3    3    0  502 -0.30386784299E+02 -0.13249625740E+02 -0.10902452852E+02  0.35146054124E+02  0.41800000000E+01 0.  1.
        -11    1    4    4    0    0 -0.84216505984E+01  0.21146466834E+02  0.77558057574E+02  0.80829138019E+02  0.00000000000E+00 0.  1.
         11    1    4    4    0    0 -0.76925716478E+02 -0.39989065420E+01  0.22361414513E+02  0.80209662561E+02  0.00000000000E+00 0. -1.
</event>
<event>
 8    1  0.7281309E-009  0.1001858E+03  0.7561462E-02  0.1279906E+00
          2   -1    0    0  501    0  0.00000000000E+00  0.00000000000E+00  0.70325596024E+02  0.70325596024E+02  0.00000000000E+00 0. -1.
         -2   -1    0    0    0  501 -0.00000000000E+00 -0.00000000000E+00 -0.24160233731E+03  0.24160233731E+03  0.00000000000E+00 0.  1.
         25    2    1    2    0    0  0.32179420469E+02  0.11783475775E+02 -0.20027290717E+02  0.13123666804E+03  0.12509038837E+03 0.  0.
         23    2    1    2    0    0 -0.32179420469E+02 -0.11783475775E+02 -0.15124945057E+03  0.18069126529E+03  0.92728483501E+02 0.  0.
          5    1    3    3  502    0  0.35495020630E+02  0.65077994435E+02 -0.56226679113E+00  0.74248436974E+02  0.41800000000E+01 0. -1.
         -5    1    3    3    0  502 -0.33156001612E+01 -0.53294518660E+02 -0.19465023926E+02  0.56988231066E+02  0.41800000000E+01 0. -1.
        -11    1    4    4    0    0 -0.28942662913E+02  0.23408345047E+02 -0.13802702488E+03  0.14295834341E+03  0.00000000000E+00 0.  1.
         11    1    4    4    0    0 -0.32367575554E+01 -0.35191820822E+02 -0.13222425685E+02  0.37732921875E+02  0.00000000000E+00 0. -1.
</event>
<event>
 8    1  0.7281309E-009  0.9029186E+02  0.7561462E-02  0.1302146E+00
          2   -1    0    0  501    0  0.00000000000E+00  0.00000000000E+00  0.71264181531E+02  0.71264181531E+02  0.00000000000E+00 0. -1.
         -2   -1    0    0    0  501 -0.00000000000E+00 -0.00000000000E+00 -0.20927732948E+03  0.20927732948E+03  0.00000000000E+00 0.  1.
         25    2    1    2    0    0 -0.34430653691E+02 -0.16190276547E+02 -0.12504026624E+03  0.18091853372E+03  0.12509537439E+03 0.  0.
         23    2    1    2    0    0  0.34430653691E+02  0.16190276547E+02 -0.12972881708E+02  0.99622977291E+02  0.91152876950E+02 0.  0.
          5    1    3    3  502    0  0.25943954933E+02  0.77246841478E+01  0.11467471153E+02  0.29694020230E+02  0.41800000000E+01 0.  1.
         -5    1    3    3    0  502 -0.60374608624E+02 -0.23914960695E+02 -0.13650773739E+03  0.15122451349E+03  0.41800000000E+01 0.  1.
        -11    1    4    4    0    0 -0.12200468068E+01 -0.29858902775E+02 -0.26381626586E+02  0.39862674402E+02  0.00000000000E+00 0.  1.
         11    1    4    4    0    0  0.35650700498E+02  0.46049179323E+02  0.13408744878E+02  0.59760302890E+02  0.00000000000E+00 0. -1.
</event>
<event>
 8    1  0.7281309E-009  0.8319715E+02  0.7561462E-02  0.1320216E+00
          1   -1    0    0  501    0  0.00000000000E+00  0.00000000000E+00  0.17990561243E+03  0.17990561243E+03  0.00000000000E+00 0. -1.
         -1   -1    0    0    0  501 -0.00000000000E+00 -0.00000000000E+00 -0.85964819999E+02  0.85964819999E+02  0.00000000000E+00 0.  1.
         25    2    1    2    0    0 -0.16003603547E+02 -0.48945982043E+02  0.18180339238E+02  0.13649605243E+03  0.12509525615E+03 0.  0.
         23    2    1    2    0    0  0.16003603547E+02  0.48945982043E+02  0.75760453188E+02  0.12937437999E+03  0.91357864719E+02 0.  0.
          5    1    3    3  502    0  0.36421082339E+02 -0.29283760268E+02  0.52720625346E+02  0.70575991605E+02  0.41800000000E+01 0.  1.
         -5    1    3    3    0  502 -0.52424685886E+02 -0.19662221775E+02 -0.34540286107E+02  0.65920060829E+02  0.41800000000E+01 0.  1.
        -11    1    4    4    0    0  0.27714692841E+02  0.28423896531E+02 -0.95671339410E+01  0.40835672458E+02  0.00000000000E+00 0.  1.
         11    1    4    4    0    0 -0.11711089294E+02  0.20522085513E+02  0.85327587129E+02  0.88538707532E+02  0.00000000000E+00 0. -1.
</event>
<event>
 8    1  0.7281309E-009  0.1207596E+03  0.7561462E-02  0.1241849E+00
          1   -1    0    0  501    0  0.00000000000E+00  0.00000000000E+00  0.21876155398E+03  0.21876155398E+03  0.00000000000E+00 0.  1.
         -1   -1    0    0    0  501 -0.00000000000E+00 -0.00000000000E+00 -0.86562066533E+02  0.86562066533E+02  0.00000000000E+00 0. -1.
         25    2    1    2    0    0  0.67635956165E+02 -0.47865799315E+02  0.46533492088E+02  0.15710266840E+03  0.12510046052E+03 0.  0.
         23    2    1    2    0    0 -0.67635956165E+02  0.47865799315E+02  0.85665995364E+02  0.14822095211E+03  0.88119410876E+02 0.  0.
          5    1    3    3  502    0  0.89397307959E+02 -0.35622275272E+02 -0.83262405882E+01  0.96683110460E+02  0.41800000000E+01 0. -1.
         -5    1    3    3    0  502 -0.21761351794E+02 -0.12243524043E+02  0.54859732676E+02  0.60419557945E+02  0.41800000000E+01 0. -1.
        -11    1    4    4    0    0 -0.59382311805E+01 -0.24253071645E+02  0.10228133342E+02  0.26983120380E+02  0.00000000000E+00 0. -1.
         11    1    4    4    0    0 -0.61697724984E+02  0.72118870960E+02  0.75437862022E+02  0.12123783173E+03  0.00000000000E+00 0.  1.
</event>
<event>
 8    1  0.7281309E-009  0.1006498E+03  0.7561462E-02  0.1278935E+00
          3   -1    0    0  501    0  0.00000000000E+00  0.00000000000E+00  0.22368745626E+03  0.22368745626E+03  0.00000000000E+00 0. -1.
         -3   -1    0    0    0  501 -0.00000000000E+00 -0.00000000000E+00 -0.57335710525E+02  0.57335710525E+02  0.00000000000E+00 0.  1.
         25    2    1    2    0    0 -0.18074243422E+02 -0.18100060414E+02  0.91931888436E+02  0.15733069341E+03  0.12508870658E+03 0.  0.
         23    2    1    2    0    0  0.18074243422E+02  0.18100060414E+02  0.74419857303E+02  0.12369247338E+03  0.95431768026E+02 0.  0.
          5    1    3    3  502    0 -0.71768282036E+02 -0.16303005312E+02  0.50429212972E+02  0.89314344926E+02  0.41800000000E+01 0. -1.
         -5    1    3    3    0  502  0.53694038614E+02 -0.17970551019E+01  0.41502675464E+02  0.68016348479E+02  0.41800000000E+01 0. -1.
        -11    1    4    4    0    0  0.44346464648E+02  0.16705712392E+02  0.28889379137E+01  0.47476686022E+02  0.00000000000E+00 0.  1.
         11    1    4    4    0    0 -0.26272221226E+02  0.13943480218E+01  0.71530919389E+02  0.76215787362E+02  0.00000000000E+00 0. -1.
</event>
<event>
 8    1  0.7281309E-009  0.1544579E+03  0.7561462E-02  0.1195100E+00
          1   -1    0    0  501    0  0.00000000000E+00  0.00000000000E+00  0.17558717561E+03  0.17558717561E+03  0.00000000000E+00 0. -1.
         -1   -1    0    0    0  501 -0.00000000000E+00 -0.00000000000E+00 -0.18710771631E+03  0.18710771631E+03  0.00000000000E+00 0.  1.
         25    2    1    2    0    0  0.13209951514E+03  0.23767690442E+02  0.40104623422E+02  0.18780733776E+03  0.12509208723E+03 0.  0.
         23    2    1    2    0    0 -0.13209951514E+03 -0.23767690442E+02 -0.51625164123E+02  0.17488755417E+03  0.99525444103E+02 0.  0.
          5    1    3    3  502    0  0.13866355592E+03  0.78689501900E+01 -0.53244542894E+01  0.13905151683E+03  0.41800000000E+01 0.  1.
         -5    1    3    3    0  502 -0.65640407847E+01  0.15898740253E+02  0.45429077711E+02  0.48755820932E+02  0.41800000000E+01 0.  1.
        -11    1    4    4    0    0 -0.56522943111E+02  0.25540925601E+02  0.13655503566E+02  0.63511060108E+02  0.00000000000E+00 0. -1.
         11    1    4    4    0    0 -0.75576572028E+02 -0.49308616043E+02 -0.65280667689E+02  0.11137649406E+03  0.00000000000E+00 0.  1.
</event>
<event>
 8    1  0.7281309E-009  0.1187590E+03  0.7561462E-02  0.1245158E+00
          3   -1    0    0  501    0  0.00000000000E+00  0.00000000000E+00  0.24760689106E+03  0.24760689106E+03  0.00000000000E+00 0. -1.
         -3   -1    0    0    0  501 -0.00000000000E+00 -0.00000000000E+00 -0.77325359019E+02  0.77325359019E+02  0.00000000000E+00 0.  1.
         25    2    1    2    0    0 -0.85190356720E+02 -0.16437691243E+02  0.84745941152E+02  0.17423341767E+03  0.12509122559E+03 0.  0.
         23    2    1    2    0    0  0.85190356720E+02  0.16437691243E+02  0.85535590891E+02  0.15069883241E+03  0.88691635515E+02 0.  0.
          5    1    3    3  502    0 -0.34643307072E+02  0.51013189734E+02  0.12316170902E+02  0.63021145003E+02  0.41800000000E+01 0.  1.
         -5    1    3    3    0  502 -0.50547049648E+02 -0.67450880977E+02  0.72429770250E+02  0.11121227266E+03  0.41800000000E+01 0.  1.
        -11    1    4    4    0    0  0.56952377356E+02  0.24431988244E+02  0.18313103031E+01  0.61998782516E+02  0.00000000000E+00 0.  1.
         11    1    4    4    0    0  0.28237979363E+02 -0.79942970005E+01  0.83704280588E+02  0.88700049897E+02  0.00000000000E+00 0. -1.
</event>
<event>
 8    1  0.7281309E-009  0.1119466E+03  0.7561462E-02  0.1257007E+00
          1   -1    0    0  501    0  0.00000000000E+00  0.00000000000E+00  0.44245326370E+03  0.44245326370E+03  0.00000000000E+00 0. -1.
         -1   -1    0    0    0  501 -0.00000000000E+00 -0.00000000000E+00 -0.32238675202E+02  0.32238675202E+02  0.00000000000E+00 0.  1.
         25    2    1    2    0    0  0.47878270741E+02  0.40698664202E+01  0.26239210888E+03  0.29463044070E+03  0.12509430506E+03 0.  0.
         23    2    1    2    0    0 -0.47878270741E+02 -0.40698664202E+01  0.14782247961E+03  0.18006149820E+03  0.90894251932E+02 0.  0.
          5    1    3    3  502    0  0.29947744137E+02  0.61682123346E+02  0.99834867009E+02  0.12118591003E+03  0.41800000000E+01 0.  1.
         -5    1    3    3    0  502  0.17930526604E+02 -0.57612256926E+02  0.16255724187E+03  0.17344453067E+03  0.41800000000E+01 0.  1.
        -11    1    4    4    0    0 -0.51355792686E+02 -0.35923176997E+02  0.60764102686E+02  0.87293575154E+02  0.00000000000E+00 0.  1.
         11    1    4    4    0    0  0.34775219452E+01  0.31853310577E+02  0.87058376927E+02  0.92767923048E+02  0.00000000000E+00 0. -1.
</event>
<event>
 8    1  0.7281309E-009  0.1164430E+03  0.7561462E-02  0.1249083E+00
          4   -1    0    0  501    0  0.00000000000E+00  0.00000000000E+00  0.49694166074E+02  0.49694166074E+02  0.00000000000E+00 0.  1.
         -4   -1    0    0    0  501 -0.00000000000E+00 -0.00000000000E+00 -0.36823352932E+03  0.36823352932E+03  0.00000000000E+00 0. -1.
         25    2    1    2    0    0 -0.68171293610E+02  0.39363835481E+02 -0.18238420197E+03  0.23475246574E+03  0.12509151141E+03 0.  0.
         23    2    1    2    0    0  0.68171293610E+02 -0.39363835481E+02 -0.13615516127E+03  0.18317522965E+03  0.93904738970E+02 0.  0.
          5    1    3    3  502    0 -0.58770519544E+02 -0.16214905967E+02 -0.22414413577E+02  0.65090517581E+02  0.41800000000E+01 0. -1.
         -5    1    3    3    0  502 -0.94007740653E+01  0.55578741448E+02 -0.15996978840E+03  0.16966194816E+03  0.41800000000E+01 0. -1.
        -11    1    4    4    0    0  0.77892563201E+02 -0.33648957888E+01 -0.11867208267E+03  0.14199167980E+03  0.00000000000E+00 0. -1.
         11    1    4    4    0    0 -0.97212695911E+01 -0.35998939693E+02 -0.17483078601E+02  0.41183549857E+02  0.00000000000E+00 0.  1.
</event>
<event>
 8    1  0.7281309E-009  0.1004345E+03  0.7561462E-02  0.1279385E+00
         -1   -1    0    0    0  501 -0.00000000000E+00  0.00000000000E+00  0.24893737846E+02  0.24893737846E+02  0.00000000000E+00 0.  1.
          1   -1    0    0  501    0  0.00000000000E+00 -0.00000000000E+00 -0.61488365003E+03  0.61488365003E+03  0.00000000000E+00 0. -1.
         25    2    1    2    0    0  0.62839777588E+01 -0.49775396395E+01 -0.47878683751E+03  0.49492267389E+03  0.12508938039E+03 0.  0.
         23    2    1    2    0    0 -0.62839777588E+01  0.49775396395E+01 -0.11120307468E+03  0.14485471398E+03  0.92479727878E+02 0.  0.
          5    1    3    3  502    0  0.40627669402E+02 -0.41625360881E+02 -0.12957826363E+03  0.14209601329E+03  0.41800000000E+01 0.  1.
         -5    1    3    3    0  502 -0.34343691643E+02  0.36647821241E+02 -0.34920857388E+03  0.35282666060E+03  0.41800000000E+01 0.  1.
        -11    1    4    4    0    0 -0.41940108613E+02  0.27341368603E+02 -0.51676499118E+02  0.71951259257E+02  0.00000000000E+00 0.  1.
         11    1    4    4    0    0  0.35656130854E+02 -0.22363828964E+02 -0.59526575558E+02  0.72903454726E+02  0.00000000000E+00 0. -1.
</event>
<event>
 8    1  0.7281309E-009  0.1621971E+03  0.7561462E-02  0.1186238E+00
         -2   -1    0    0    0  501 -0.00000000000E+00  0.00000000000E+00  0.35513509488E+02  0.35513509488E+02  0.00000000000E+00 0.  1.
          2   -1    0    0  501    0  0.00000000000E+00 -0.00000000000E+00 -0.79033277367E+03  0.79033277367E+03  0.00000000000E+00 0. -1.
         25    2    1    2    0    0  0.88605066667E+02 -0.82448567376E+02 -0.30283443483E+03  0.34929377994E+03  0.12509526643E+03 0.  0.
         23    2    1    2    0    0 -0.88605066667E+02  0.82448567376E+02 -0.45198482935E+03  0.47655250322E+03  0.90351415374E+02 0.  0.
          5    1    3    3  502    0  0.97150214862E+00 -0.86035911336E+02 -0.15624169733E+03  0.17841542041E+03  0.41800000000E+01 0.  1.
         -5    1    3    3    0  502  0.87633564519E+02  0.35873439600E+01 -0.14659273750E+03  0.17087835953E+03  0.41800000000E+01 0.  1.
        -11    1    4    4    0    0 -0.39778937067E+02  0.92414422977E+02 -0.32151623124E+03  0.33689089681E+03  0.00000000000E+00 0. -1.
         11    1    4    4    0    0 -0.48826129600E+02 -0.99658556009E+01 -0.13046859812E+03  0.13966160641E+03  0.00000000000E+00 0.  1.
</event>
<event>
 8    1  0.7281309E-009  0.1241685E+03  0.7561462E-02  0.1236374E+00
          1   -1    0    0  501    0  0.00000000000E+00  0.00000000000E+00  0.18446626887E+03  0.18446626887E+03  0.00000000000E+00 0. -1.
         -1   -1    0    0    0  501 -0.00000000000E+00 -0.00000000000E+00 -0.27645212081E+03  0.27645212081E+03  0.00000000000E+00 0.  1.
         25    2    1    2    0    0  0.68551743809E+02  0.15636596450E+02 -0.23627287255E+03  0.27643080954E+03  0.12508108344E+03 0.  0.
         23    2    1    2    0    0 -0.68551743809E+02 -0.15636596450E+02  0.14428702061E+03  0.18448758014E+03  0.90956463111E+02 0.  0.
          5    1    3    3  502    0  0.99863490533E+02 -0.22486072794E+01 -0.12915292088E+03  0.16332704108E+03  0.41800000000E+01 0.  1.
         -5    1    3    3    0  502 -0.31311746725E+02  0.17885203729E+02 -0.10711995167E+03  0.11310376846E+03  0.41800000000E+01 0.  1.
        -11    1    4    4    0    0 -0.69653172919E+02  0.23041853648E+02  0.11299785253E+03  0.13472567014E+03  0.00000000000E+00 0. -1.
         11    1    4    4    0    0  0.11014291104E+01 -0.38678450097E+02  0.31289168077E+02  0.49761910001E+02  0.00000000000E+00 0.  1.
</event>
<event>
 8    1  0.7281309E-009  0.9810132E+02  0.7561462E-02  0.1284340E+00
          2   -1    0    0  501    0  0.00000000000E+00  0.00000000000E+00  0.68823473697E+03  0.68823473697E+03  0.00000000000E+00 0.  1.
         -2   -1    0    0    0  501 -0.00000000000E+00 -0.00000000000E+00 -0.18166354688E+02  0.18166354688E+02  0.00000000000E+00 0. -1.
         25    2    1    2    0    0 -0.76369729873E+01  0.45245044357E+02  0.38609994202E+03  0.40844214386E+03  0.12508549978E+03 0.  0.
         23    2    1    2    0    0  0.76369729873E+01 -0.45245044357E+02  0.28396844027E+03  0.29795894781E+03  0.77691840725E+02 0.  0.
          5    1    3    3  502    0 -0.36139546945E+02 -0.15495409301E+02  0.28040623796E+03  0.28318069364E+03  0.41800000000E+01 0.  1.
         -5    1    3    3    0  502  0.28502573958E+02  0.60740453658E+02  0.10569370406E+03  0.12526145022E+03  0.41800000000E+01 0.  1.
        -11    1    4    4    0    0  0.24860186864E+02  0.13449259046E+02  0.72279299401E+02  0.77609333084E+02  0.00000000000E+00 0.  1.
         11    1    4    4    0    0 -0.17223213877E+02 -0.58694303403E+02  0.21168914087E+03  0.22034961472E+03  0.00000000000E+00 0. -1.
</event>
<event>
 8    1  0.7281309E-009  0.1917155E+03  0.7561462E-02  0.1156923E+00
          2   -1    0    0  501    0  0.00000000000E+00  0.00000000000E+00  0.42628814608E+03  0.42628814608E+03  0.00000000000E+00 0. -1.
         -2   -1    0    0    0  501 -0.00000000000E+00 -0.00000000000E+00 -0.11007290934E+03  0.11007290934E+03  0.00000000000E+00 0.  1.
         25    2    1    2    0    0  0.14738319366E+03 -0.67101141656E+02  0.27997790411E+03  0.34678449144E+03  0.12508991857E+03 0.  0.
         23    2    1    2    0    0 -0.14738319366E+03  0.67101141656E+02  0.36237332631E+02  0.18957656398E+03  0.91661116891E+02 0.  0.
          5    1    3    3  502    0  0.82179394056E+02 -0.95916790655E+02  0.13351291304E+03  0.18383866265E+03  0.41800000000E+01 0.  1.
         -5    1    3    3    0  502  0.65203799601E+02  0.28815649000E+02  0.14646499107E+03  0.16294582879E+03  0.41800000000E+01 0.  1.
        -11    1    4    4    0    0 -0.30842583662E+02  0.61699950674E+02  0.72184037457E+01  0.69355996372E+02  0.00000000000E+00 0. -1.
         11    1    4    4    0    0 -0.11654061000E+03  0.54011909818E+01  0.29018928885E+02  0.12022056761E+03  0.00000000000E+00 0.  1.
</event>
<event>
 8    1  0.7281309E-009  0.1118364E+03  0.7561462E-02  0.1257206E+00
          2   -1    0    0  501    0  0.00000000000E+00  0.00000000000E+00  0.69206505130E+03  0.69206505130E+03  0.00000000000E+00 0. -1.
         -2   -1    0    0    0  501 -0.00000000000E+00 -0.00000000000E+00 -0.30530398600E+02  0.30530398600E+02  0.00000000000E+00 0.  1.
         25    2    1    2    0    0 -0.68712269592E+02 -0.36007284326E+02  0.21721455199E+03  0.26239021998E+03  0.12509422619E+03 0.  0.
         23    2    1    2    0    0  0.68712269592E+02  0.36007284326E+02  0.44432010071E+03  0.46020522992E+03  0.91381624176E+02 0.  0.
          5    1    3    3  502    0 -0.84308640534E+02 -0.52494813396E+02  0.21768620432E+03  0.23930818676E+03  0.41800000000E+01 0. -1.
         -5    1    3    3    0  502  0.15596370943E+02  0.16487529070E+02 -0.47165232566E+00  0.23082033215E+02  0.41800000000E+01 0. -1.
        -11    1    4    4    0    0  0.11556285224E+02 -0.18758902456E+02  0.24343694005E+02  0.32833817739E+02  0.00000000000E+00 0.  1.
         11    1    4    4    0    0  0.57155984368E+02  0.54766186782E+02  0.41997640671E+03  0.42737141219E+03  0.00000000000E+00 0. -1.
</event>
<event>
 8    1  0.7281309E-009  0.1038620E+03  0.7561462E-02  0.1272378E+00
          2   -1    0    0  501    0  0.00000000000E+00  0.00000000000E+00  0.23144491878E+03  0.23144491878E+03  0.00000000000E+00 0. -1.
         -2   -1    0    0    0  501 -0.00000000000E+00 -0.00000000000E+00 -0.61869047205E+02  0.61869047205E+02  0.00000000000E+00 0.  1.
         25    2    1    2    0    0 -0.13122603584E+02  0.60290723666E+02  0.10868057190E+03  0.17682775118E+03  0.12509761307E+03 0.  0.
         23    2    1    2    0    0  0.13122603584E+02 -0.60290723666E+02  0.60895299673E+02  0.11648621480E+03  0.77805055300E+02 0.  0.
          5    1    3    3  502    0 -0.44537839597E+02  0.52904117898E+01 -0.63048629077E+01  0.45484407319E+02  0.41800000000E+01 0.  1.
         -5    1    3    3    0  502  0.31415236013E+02  0.55000311876E+02  0.11498543481E+03  0.13134334386E+03  0.41800000000E+01 0.  1.
        -11    1    4    4    0    0  0.44341915067E+02 -0.21130113750E+02  0.27532720871E+02  0.56309305248E+02  0.00000000000E+00 0.  1.
         11    1    4    4    0    0 -0.31219311483E+02 -0.39160609916E+02  0.33362578802E+02  0.60176909548E+02  0.00000000000E+00 0. -1.
</event>
<event>
 8    1  0.7281309E-009  0.1056996E+03  0.7561462E-02  0.1268747E+00
          2   -1    0    0  501    0  0.00000000000E+00  0.00000000000E+00  0.32841694084E+03  0.32841694084E+03  0.00000000000E+00 0.  1.
         -2   -1    0    0    0  501 -0.00000000000E+00 -0.00000000000E+00 -0.37098924196E+02  0.37098924196E+02  0.00000000000E+00 0. -1.
         25    2    1    2    0    0 -0.14513315347E+02 -0.18631815820E+02  0.15229952761E+03  0.19849536420E+03  0.12508989813E+03 0.  0.
         23    2    1    2    0    0  0.14513315347E+02  0.18631815820E+02  0.13901848903E+03  0.16702050084E+03  0.89509365565E+02 0.  0.
          5    1    3    3  502    0 -0.16948120554E+02  0.49668733292E+02  0.36829068086E+02  0.64250093488E+02  0.41800000000E+01 0.  1.
         -5    1    3    3    0  502  0.24348052063E+01 -0.68300549111E+02  0.11547045953E+03  0.13424527071E+03  0.41800000000E+01 0.  1.
        -11    1    4    4    0    0  0.47657937401E+02 -0.72783963377E+01  0.55578613820E+02  0.73574699216E+02  0.00000000000E+00 0.  1.
         11    1    4    4    0    0 -0.33144622053E+02  0.25910212157E+02  0.83439875214E+02  0.93445801622E+02  0.00000000000E+00 0. -1.
</event>
<event>
 8    1  0.7281309E-009  0.2054468E+03  0.7561462E-02  0.1145223E+00
         -2   -1    0    0    0  501 -0.00000000000E+00  0.00000000000E+00  0.21568937724E+03  0.21568937724E+03  0.00000000000E+00 0.  1.
          2   -1    0    0  501    0  0.00000000000E+00 -0.00000000000E+00 -0.22621320497E+03  0.22621320497E+03  0.00000000000E+00 0. -1.
         25    2    1    2    0    0  0.18534517625E+03 -0.27766066250E+02 -0.45328436826E+02  0.22983849465E+03  0.12508907884E+03 0.  0.
         23    2    1    2    0    0 -0.18534517625E+03  0.27766066250E+02  0.34804609094E+02  0.21206408756E+03  0.92930229878E+02 0.  0.
          5    1    3    3  502    0  0.98651768904E+02 -0.69911216399E+02 -0.54942075328E+02  0.13287533152E+03  0.41800000000E+01 0. -1.
         -5    1    3    3    0  502  0.86693407344E+02  0.42145150149E+02  0.96136385019E+01  0.96963163125E+02  0.41800000000E+01 0. -1.
        -11    1    4    4    0    0 -0.11090988536E+03 -0.72847573394E+01 -0.20371895188E+02  0.11300037378E+03  0.00000000000E+00 0. -1.
         11    1    4    4    0    0 -0.74435290887E+02  0.35050823589E+02  0.55176504281E+02  0.99063713782E+02  0.00000000000E+00 0.  1.
</event>
<event>
 8    1  0.7281309E-009  0.8866736E+02  0.7561462E-02  0.1306111E+00
         -1   -1    0    0    0  501 -0.00000000000E+00  0.00000000000E+00  0.11542027818E+03  0.11542027818E+03  0.00000000000E+00 0.  1.
          1   -1    0    0  501    0  0.00000000000E+00 -0.00000000000E+00 -0.14784064878E+03  0.14784064878E+03  0.00000000000E+00 0. -1.
         25    2    1    2    0    0 -0.61322906972E+02 -0.31091077717E+02 -0.32941759465E+01  0.14277176693E+03  0.12508305962E+03 0.  0.
         23    2    1    2    0    0  0.61322906972E+02  0.31091077717E+02 -0.29126194649E+02  0.12048916003E+03  0.94562933735E+02 0.  0.
          5    1    3    3  502    0 -0.66961422185E+02  0.65448292979E+01 -0.48861510296E+02  0.83256149562E+02  0.41800000000E+01 0.  1.
         -5    1    3    3    0  502  0.56385152129E+01 -0.37635907015E+02  0.45567334349E+02  0.59515617365E+02  0.41800000000E+01 0.  1.
        -11    1    4    4    0    0  0.14304764241E+02 -0.15699848692E+01  0.33003902904E+02  0.36004843277E+02  0.00000000000E+00 0.  1.
         11    1    4    4    0    0  0.47018142731E+02  0.32661062586E+02 -0.62130097553E+02  0.84484316752E+02  0.00000000000E+00 0. -1.
</event>
<event>
 7    1  0.7281309E-009  0.9800232E+02  0.7561462E-02  0.1284554E+00
         -1   -1    0    0    0  501 -0.00000000000E+00  0.00000000000E+00  0.42280713382E+02  0.42280713382E+02  0.00000000000E+00 0.  1.
          1   -1    0    0  501    0  0.00000000000E+00 -0.00000000000E+00 -0.49674173641E+03  0.49674173641E+03  0.00000000000E+00 0. -1.
         23    2    1    2    0    0  0.48982556247E+02 -0.84481896864E+02 -0.22352976576E+03  0.26086990936E+03  0.92472005034E+02 0.  0.
          5    1    1    2  502    0 -0.28887845692E+02  0.52798852884E+02 -0.23266788522E+03  0.24036231757E+03  0.41800000000E+01 0. -1.
         -5    1    1    2    0  502 -0.20094710555E+02  0.31683043979E+02  0.17366279411E+01  0.37790222872E+02  0.41800000000E+01 0. -1.
        -11    1    3    3    0    0  0.38159620116E+02 -0.59322822525E+02 -0.22255387270E+03  0.23346430162E+03  0.00000000000E+00 0. -1.
         11    1    3    3    0    0  0.10822936131E+02 -0.25159074339E+02 -0.97589306012E+00  0.27405607736E+02  0.00000000000E+00 0.  1.
</event>
<event>
 8    1  0.7281309E-009  0.1138207E+03  0.7561462E-02  0.1253654E+00
          1   -1    0    0  501    0  0.00000000000E+00  0.00000000000E+00  0.10580783944E+04  0.10580783944E+04  0.00000000000E+00 0. -1.
         -1   -1    0    0    0  501 -0.00000000000E+00 -0.00000000000E+00 -0.13792615388E+02  0.13792615388E+02  0.00000000000E+00 0.  1.
         25    2    1    2    0    0 -0.40407510270E+02  0.31867945046E+02  0.65286385060E+03  0.66673240829E+03  0.12511020760E+03 0.  0.
         23    2    1    2    0    0  0.40407510270E+02 -0.31867945046E+02  0.39142192846E+03  0.40513860154E+03  0.90982567398E+02 0.  0.
          5    1    3    3  502    0  0.40661473545E+02  0.19546928524E+02  0.35059293782E+03  0.35350858306E+03  0.41800000000E+01 0.  1.
         -5    1    3    3    0  502 -0.81068983815E+02  0.12321016522E+02  0.30227091277E+03  0.31322382523E+03  0.41800000000E+01 0.  1.
        -11    1    4    4    0    0 -0.27308220498E+02 -0.93189000679E+01  0.17192773260E+03  0.17433222893E+03  0.00000000000E+00 0.  1.
         11    1    4    4    0    0  0.67715730768E+02 -0.22549044978E+02  0.21949419586E+03  0.23080637261E+03  0.00000000000E+00 0. -1.
</event>
<event>
 8    1  0.7281309E-009  0.1668033E+03  0.7561462E-02  0.1181223E+00
         -2   -1    0    0    0  501 -0.00000000000E+00  0.00000000000E+00  0.35925851040E+02  0.35925851040E+02  0.00000000000E+00 0. -1.
          2   -1    0    0  501    0  0.00000000000E+00 -0.00000000000E+00 -0.15137221620E+04  0.15137221620E+04  0.00000000000E+00 0.  1.
         25    2    1    2    0    0 -0.11348167730E+03 -0.95660107454E+02 -0.12471424481E+04  0.12621585494E+04  0.12510383945E+03 0.  0.
         23    2    1    2    0    0  0.11348167730E+03  0.95660107454E+02 -0.23065386288E+03  0.28748946369E+03  0.86139654238E+02 0.  0.
          5    1    3    3  502    0 -0.99359625180E+02 -0.11781342167E+03 -0.11784928974E+04  0.11885349465E+04  0.41800000000E+01 0. -1.
         -5    1    3    3    0  502 -0.14122052120E+02  0.22153314221E+02 -0.68649550708E+02  0.73623602869E+02  0.41800000000E+01 0. -1.
        -11    1    4    4    0    0  0.47001539296E+02  0.63437537241E+02 -0.53013975775E+02  0.95099671160E+02  0.00000000000E+00 0. -1.
         11    1    4    4    0    0  0.66480138004E+02  0.32222570214E+02 -0.17763988710E+03  0.19238979253E+03  0.00000000000E+00 0.  1.
</event>
<event>
 7    1  0.7281309E-009  0.1569938E+03  0.7561462E-02  0.1192133E+00
         -1   -1    0    0    0  501 -0.00000000000E+00  0.00000000000E+00  0.10892152841E+03  0.10892152841E+03  0.00000000000E+00 0.  1.
          1   -1    0    0  501    0  0.00000000000E+00 -0.00000000000E+00 -0.45920547839E+03  0.45920547839E+03  0.00000000000E+00 0. -1.
         23    2    1    2    0    0  0.10623570339E+03  0.84846271955E+02 -0.34491134524E+03  0.38319218521E+03  0.96889112882E+02 0.  0.
          5    1    1    2  502    0 -0.45703708041E+02  0.14091127852E+01 -0.52222582748E+02  0.69537652221E+02  0.41800000000E+01 0. -1.
         -5    1    1    2    0  502 -0.60531995352E+02 -0.86255384740E+02  0.46849978005E+02  0.11539716936E+03  0.41800000000E+01 0. -1.
        -11    1    3    3    0    0  0.57903452529E+02 -0.74956430184E+01 -0.84611125961E+02  0.10280095873E+03  0.00000000000E+00 0.  1.
         11    1    3    3    0    0  0.48332250864E+02  0.92341914974E+02 -0.26030021928E+03  0.28039122648E+03  0.00000000000E+00 0. -1.
</event>
<event>
 7    1  0.7281309E-009  0.1059388E+03  0.7561462E-02  0.1268281E+00
          1   -1    0    0  501    0  0.00000000000E+00  0.00000000000E+00  0.57928705494E+03  0.57928705494E+03  0.00000000000E+00 0. -1.
         -1   -1    0    0    0  501 -0.00000000000E+00 -0.00000000000E+00 -0.22098332012E+02  0.22098332012E+02  0.00000000000E+00 0.  1.
         23    2    1    2    0    0  0.28680152083E+01  0.27706215715E+02  0.25756101901E+03  0.27542996161E+03  0.93531413654E+02 0.  0.
          5    1    1    2  502    0 -0.57594493195E+02 -0.13825074425E+02  0.83003293884E+02  0.10205526701E+03  0.41800000000E+01 0.  1.
         -5    1    1    2    0  502  0.54726477986E+02 -0.13881141290E+02  0.21662441003E+03  0.22390015833E+03  0.41800000000E+01 0.  1.
        -11    1    3    3    0    0 -0.28779850577E+02  0.49640459529E+02  0.17839881000E+03  0.18739954758E+03  0.00000000000E+00 0. -1.
         11    1    3    3    0    0  0.31647865786E+02 -0.21934243814E+02  0.79162209006E+02  0.88030414035E+02  0.00000000000E+00 0.  1.
</event>
<event>
 8    1  0.7281309E-009  0.1928707E+03  0.7561462E-02  0.1155897E+00
          1   -1    0    0  501    0  0.00000000000E+00  0.00000000000E+00  0.20241402440E+03  0.20241402440E+03  0.00000000000E+00 0. -1.
         -1   -1    0    0    0  501 -0.00000000000E+00 -0.00000000000E+00 -0.21965433473E+03  0.21965433473E+03  0.00000000000E+00 0.  1.
         25    2    1    2    0    0 -0.15356816179E+03 -0.94257477247E+02 -0.18342831057E+02  0.22011589548E+03  0.12508755198E+03 0.  0.
         23    2    1    2    0    0  0.15356816179E+03  0.94257477247E+02  0.11025207267E+01  0.20195246364E+03  0.91191719383E+02 0.  0.
          5    1    3    3  502    0 -0.14787720335E+03 -0.68653378348E+02  0.29174800270E+02  0.16567919302E+03  0.41800000000E+01 0.  1.
         -5    1    3    3    0  502 -0.56909584447E+01 -0.25604098899E+02 -0.47517631327E+02  0.54436702466E+02  0.41800000000E+01 0.  1.
        -11    1    4    4    0    0  0.70165241362E+01  0.38749700952E+02 -0.19411158715E+02  0.43904031905E+02  0.00000000000E+00 0.  1.
         11    1    4    4    0    0  0.14655163766E+03  0.55507776295E+02  0.20513679442E+02  0.15804843173E+03  0.00000000000E+00 0. -1.
</event>
<event>
 8    1  0.7281309E-009  0.1035524E+03  0.7561462E-02  0.1272998E+00
         -2   -1    0    0    0  501 -0.00000000000E+00  0.00000000000E+00  0.44546308185E+03  0.44546308185E+03  0.00000000000E+00 0. -1.
          2   -1    0    0  501    0  0.00000000000E+00 -0.00000000000E+00 -0.30775854977E+02  0.30775854977E+02  0.00000000000E+00 0.  1.
         25    2    1    2    0    0 -0.40412801194E+02  0.10679292404E+02  0.22306501152E+03  0.25913797576E+03  0.12508896567E+03 0.  0.
         23    2    1    2    0    0  0.40412801194E+02 -0.10679292404E+02  0.19162221535E+03  0.21710096106E+03  0.93094103416E+02 0.  0.
          5    1    3    3  502    0 -0.12890032262E+02 -0.45219380565E+02  0.17233057458E+03  0.17867916679E+03  0.41800000000E+01 0. -1.
         -5    1    3    3    0  502 -0.27522768933E+02  0.55898672969E+02  0.50734436936E+02  0.80458808969E+02  0.41800000000E+01 0. -1.
        -11    1    4    4    0    0  0.67126999387E+02  0.34796520081E+01  0.98948770395E+02  0.11962023737E+03  0.00000000000E+00 0.  1.
         11    1    4    4    0    0 -0.26714198193E+02 -0.14158944412E+02  0.92673444960E+02  0.97480723698E+02  0.00000000000E+00 0. -1.
</event>
<event>
 8    1  0.7281309E-009  0.7230545E+02  0.7561462E-02  0.1352424E+00
          1   -1    0    0  501    0  0.00000000000E+00  0.00000000000E+00  0.10890769993E+03  0.10890769993E+03  0.00000000000E+00 0. -1.
         -1   -1    0    0    0  501 -0.00000000000E+00 -0.00000000000E+00 -0.15022883481E+03  0.15022883481E+03  0.00000000000E+00 0.  1.
         25    2    1    2    0    0  0.93676948955E+01 -0.67211827169E+02 -0.32364642932E+02  0.14594578391E+03  0.12509004081E+03 0.  0.
         23    2    1    2    0    0 -0.93676948955E+01  0.67211827169E+02 -0.89564919406E+01  0.11319075083E+03  0.90148454820E+02 0.  0.
          5    1    3    3  502    0  0.77800760707E+01  0.10233163794E+00  0.43521163680E+02  0.44408379204E+02  0.41800000000E+01 0.  1.
         -5    1    3    3    0  502  0.15876188248E+01 -0.67314158807E+02 -0.75885806613E+02  0.10153740471E+03  0.41800000000E+01 0.  1.
        -11    1    4    4    0    0 -0.50435202526E+01  0.57047713973E+02 -0.46679362813E+02  0.73883974438E+02  0.00000000000E+00 0.  1.
         11    1    4    4    0    0 -0.43241746429E+01  0.10164113195E+02  0.37722870873E+02  0.39306776391E+02  0.00000000000E+00 0. -1.
</event>
<event>
 8    1  0.7281309E-009  0.2274518E+03  0.7561462E-02  0.1128446E+00
          1   -1    0    0  501    0  0.00000000000E+00  0.00000000000E+00  0.12537018411E+03  0.12537018411E+03  0.00000000000E+00 0.  1.
         -1   -1    0    0    0  501 -0.00000000000E+00 -0.00000000000E+00 -0.52038495630E+03  0.52038495630E+03  0.00000000000E+00 0. -1.
         25    2    1    2    0    0 -0.86111959481E+02  0.18651004471E+03 -0.69897901682E+02  0.25046824068E+03  0.12508939439E+03 0.  0.
         23    2    1    2    0    0  0.86111959481E+02 -0.18651004471E+03 -0.32511687051E+03  0.39528689973E+03  0.91375528834E+02 0.  0.
          5    1    3    3  502    0  0.28714631290E+02  0.68521392519E+02 -0.93495334628E+01  0.74997316345E+02  0.41800000000E+01 0.  1.
         -5    1    3    3    0  502 -0.11482659077E+03  0.11798865219E+03 -0.60548368219E+02  0.17547092433E+03  0.41800000000E+01 0.  1.
        -11    1    4    4    0    0  0.60291324843E+02 -0.17903903603E+03 -0.23654925102E+03  0.30273019082E+03  0.00000000000E+00 0.  1.
         11    1    4    4    0    0  0.25820634638E+02 -0.74710086766E+01 -0.88567619485E+02  0.92556708914E+02  0.00000000000E+00 0. -1.
</event>
<event>
 8    1  0.7281309E-009  0.1284470E+03  0.7561462E-02  0.1229779E+00
          2   -1    0    0  501    0  0.00000000000E+00  0.00000000000E+00  0.53963202784E+03  0.53963202784E+03  0.00000000000E+00 0. -1.
         -2   -1    0    0    0  501 -0.00000000000E+00 -0.00000000000E+00 -0.43604391273E+02  0.43604391273E+02  0.00000000000E+00 0.  1.
         25    2    1    2    0    0 -0.65637237341E+02  0.66646179395E+02  0.37862864791E+03  0.40958104540E+03  0.12508804731E+03 0.  0.
         23    2    1    2    0    0  0.65637237341E+02 -0.66646179395E+02  0.11739898866E+03  0.17365537372E+03  0.87313836982E+02 0.  0.
          5    1    3    3  502    0 -0.62794148128E+02 -0.13600622732E+02  0.24772306374E+03  0.25595364948E+03  0.41800000000E+01 0.  1.
         -5    1    3    3    0  502 -0.28430892121E+01  0.80246802127E+02  0.13090558417E+03  0.15362739592E+03  0.41800000000E+01 0.  1.
        -11    1    4    4    0    0  0.10357078013E+02  0.12076057284E+02  0.59035248130E+02  0.61141317832E+02  0.00000000000E+00 0. -1.
         11    1    4    4    0    0  0.55280159327E+02 -0.78722236679E+02  0.58363740531E+02  0.11251405589E+03  0.00000000000E+00 0.  1.
</event>
<event>
 8    1  0.7281309E-009  0.1347790E+03  0.7561462E-02  0.1220532E+00
          1   -1    0    0  501    0  0.00000000000E+00  0.00000000000E+00  0.30090617455E+02  0.30090617455E+02  0.00000000000E+00 0. -1.
         -1   -1    0    0    0  501 -0.00000000000E+00 -0.00000000000E+00 -0.74512403994E+03  0.74512403994E+03  0.00000000000E+00 0.  1.
         25    2    1    2    0    0 -0.88880532245E+02 -0.15269917893E+02 -0.25814606606E+03  0.30070026916E+03  0.12509332935E+03 0.  0.
         23    2    1    2    0    0  0.88880532245E+02  0.15269917893E+02 -0.45688735642E+03  0.47451438823E+03  0.91021584115E+02 0.  0.
          5    1    3    3  502    0 -0.28669052673E+02 -0.62505856166E+02 -0.73298577921E+02  0.10059349165E+03  0.41800000000E+01 0.  1.
         -5    1    3    3    0  502 -0.60211479572E+02  0.47235938273E+02 -0.18484748814E+03  0.20010677752E+03  0.41800000000E+01 0.  1.
        -11    1    4    4    0    0  0.37151743000E+02 -0.35611075555E+02 -0.25084193690E+03  0.25606654998E+03  0.00000000000E+00 0.  1.
         11    1    4    4    0    0  0.51728789246E+02  0.50880993448E+02 -0.20604541952E+03  0.21844783825E+03  0.00000000000E+00 0. -1.
</event>
<event>
 8    1  0.7281309E-009  0.1187097E+03  0.7561462E-02  0.1245241E+00
          2   -1    0    0  501    0  0.00000000000E+00  0.00000000000E+00  0.74252094586E+03  0.74252094586E+03  0.00000000000E+00 0.  1.
         -2   -1    0    0    0  501 -0.00000000000E+00 -0.00000000000E+00 -0.20641791750E+02  0.20641791750E+02  0.00000000000E+00 0. -1.
         25    2    1    2    0    0  0.17762586272E+01  0.66303855208E+02  0.38486220538E+03  0.41007988485E+03  0.12508892245E+03 0.  0.
         23    2    1    2    0    0 -0.17762586272E+01 -0.66303855208E+02  0.33701694873E+03  0.35308285276E+03  0.81778486593E+02 0.  0.
          5    1    3    3  502    0  0.51152201785E+02 -0.42949323863E+01  0.10055586592E+03  0.11297764718E+03  0.41800000000E+01 0.  1.
         -5    1    3    3    0  502 -0.49375943158E+02  0.70598787594E+02  0.28430633946E+03  0.29710223767E+03  0.41800000000E+01 0.  1.
        -11    1    4    4    0    0  0.36265877203E+02 -0.29767359550E+02  0.21655430506E+03  0.22157860137E+03  0.00000000000E+00 0.  1.
         11    1    4    4    0    0 -0.38042135830E+02 -0.36536495658E+02  0.12046264367E+03  0.13150425139E+03  0.00000000000E+00 0. -1.
</event>
<event>
 8    1  0.7281309E-009  0.1230122E+03  0.7561462E-02  0.1238209E+00
         -2   -1    0    0    0  501 -0.00000000000E+00  0.00000000000E+00  0.85949728671E+03  0.85949728671E+03  0.00000000000E+00 0.  1.
          2   -1    0    0  501    0  0.00000000000E+00 -0.00000000000E+00 -0.18043650527E+02  0.18043650527E+02  0.00000000000E+00 0. -1.
         25    2    1    2    0    0  0.59059970455E+02  0.20673489714E+02  0.50681400229E+03  0.52575773414E+03  0.12508112887E+03 0.  0.
         23    2    1    2    0    0 -0.59059970455E+02 -0.20673489714E+02  0.33463963389E+03  0.35178320310E+03  0.88613002009E+02 0.  0.
          5    1    3    3  502    0  0.28728591634E+02 -0.52180927835E+02  0.25157608729E+03  0.25856562282E+03  0.41800000000E+01 0.  1.
         -5    1    3    3    0  502  0.30331378821E+02  0.72854417548E+02  0.25523791500E+03  0.26719211132E+03  0.41800000000E+01 0.  1.
        -11    1    4    4    0    0 -0.22625156911E+02 -0.53597778659E+02  0.20709693285E+03  0.21511336360E+03  0.00000000000E+00 0. -1.
         11    1    4    4    0    0 -0.36434813544E+02  0.32924288946E+02  0.12754270104E+03  0.13666983950E+03  0.00000000000E+00 0.  1.
</event>
<event>
 8    1  0.7281309E-009  0.1253490E+03  0.7561462E-02  0.1234525E+00
         -2   -1    0    0    0  501 -0.00000000000E+00  0.00000000000E+00  0.14363974614E+03  0.14363974614E+03  0.00000000000E+00 0.  1.
          2   -1    0    0  501    0  0.00000000000E+00 -0.00000000000E+00 -0.26432174936E+03  0.26432174936E+03  0.00000000000E+00 0. -1.
         25    2    1    2    0    0 -0.20374040173E+02  0.91050953977E+02 -0.20028300533E+03  0.25390446604E+03  0.12509523541E+03 0.  0.
         23    2    1    2    0    0  0.20374040173E+02 -0.91050953977E+02  0.79601002108E+02  0.15405702945E+03  0.93230204625E+02 0.  0.
          5    1    3    3  502    0 -0.51420824775E+02  0.92432854771E+02 -0.89032483224E+02  0.13831915750E+03  0.41800000000E+01 0.  1.
         -5    1    3    3    0  502  0.31046784602E+02 -0.13819007947E+01 -0.11125052210E+03  0.11558530855E+03  0.41800000000E+01 0.  1.
        -11    1    4    4    0    0  0.21725304886E+02 -0.10106833661E+03  0.36258184561E+02  0.10955114553E+03  0.00000000000E+00 0. -1.
         11    1    4    4    0    0 -0.13512647133E+01  0.10017382638E+02  0.43342817547E+02  0.44505883927E+02  0.00000000000E+00 0.  1.
</event>
<event>
 8    1  0.7281309E-009  0.3181986E+03  0.7561462E-02  0.1076481E+00
          1   -1    0    0  501    0  0.00000000000E+00  0.00000000000E+00  0.11429857650E+04  0.11429857650E+04  0.00000000000E+00 0. -1.
         -1   -1    0    0    0  501 -0.00000000000E+00 -0.00000000000E+00 -0.23987771316E+03  0.23987771316E+03  0.00000000000E+00 0.  1.
         25    2    1    2    0    0 -0.29824167140E+03  0.10114958773E+03 -0.78476077162E+02  0.34782951008E+03  0.12509012648E+03 0.  0.
         23    2    1    2    0    0  0.29824167140E+03 -0.10114958773E+03  0.98158412903E+03  0.10350339681E+04  0.92782428896E+02 0.  0.
          5    1    3    3  502    0 -0.66198883789E+02  0.46252333177E+02  0.29450343313E+02  0.86060244366E+02  0.41800000000E+01 0. -1.
         -5    1    3    3    0  502 -0.23204278761E+03  0.54897254550E+02 -0.10792642047E+03  0.26176926572E+03  0.41800000000E+01 0. -1.
        -11    1    4    4    0    0  0.13346044411E+03 -0.26134416279E+02  0.55886239839E+03  0.57517117295E+03  0.00000000000E+00 0.  1.
         11    1    4    4    0    0  0.16478122729E+03 -0.75015171448E+02  0.42272173064E+03  0.45986279516E+03  0.00000000000E+00 0. -1.
</event>
<event>
 8    1  0.7281309E-009  0.9728813E+02  0.7561462E-02  0.1286104E+00
         -1   -1    0    0    0  501 -0.00000000000E+00  0.00000000000E+00  0.72498482327E+03  0.72498482327E+03  0.00000000000E+00 0.  1.
          1   -1    0    0  501    0  0.00000000000E+00 -0.00000000000E+00 -0.17791748978E+02  0.17791748978E+02  0.00000000000E+00 0. -1.
         25    2    1    2    0    0  0.16742229660E+02 -0.32783333679E+02  0.42941790660E+03  0.44878059351E+03  0.12509689596E+03 0.  0.
         23    2    1    2    0    0 -0.16742229660E+02  0.32783333679E+02  0.27777516769E+03  0.29399597874E+03  0.88991811464E+02 0.  0.
          5    1    3    3  502    0 -0.48918225669E+02 -0.60281862163E+00  0.25373208319E+03  0.25843915848E+03  0.41800000000E+01 0.  1.
         -5    1    3    3    0  502  0.65660455329E+02 -0.32180515057E+02  0.17568582341E+03  0.19034143503E+03  0.41800000000E+01 0.  1.
        -11    1    4    4    0    0 -0.38193109456E+02  0.33454152466E+02  0.26320179785E+03  0.26805424884E+03  0.00000000000E+00 0.  1.
         11    1    4    4    0    0  0.21450879796E+02 -0.67081878715E+00  0.14573369842E+02  0.25941729904E+02  0.00000000000E+00 0. -1.
</event>
<event>
 8    1  0.7281309E-009  0.2234205E+03  0.7561462E-02  0.1131358E+00
          2   -1    0    0  501    0  0.00000000000E+00  0.00000000000E+00  0.16383437296E+04  0.16383437296E+04  0.00000000000E+00 0. -1.
         -2   -1    0    0    0  501 -0.00000000000E+00 -0.00000000000E+00 -0.10947615381E+03  0.10947615381E+03  0.00000000000E+00 0.  1.
         25    2    1    2    0    0 -0.16357835313E+03  0.12240617138E+03  0.15068834506E+04  0.15258070246E+04  0.12509274201E+03 0.  0.
         23    2    1    2    0    0  0.16357835313E+03 -0.12240617138E+03  0.21984125139E+02  0.22201285880E+03  0.84055096863E+02 0.  0.
          5    1    3    3  502    0 -0.15725166221E+03  0.68605202710E+02  0.13223903646E+04  0.13334798491E+04  0.41800000000E+01 0. -1.
         -5    1    3    3    0  502 -0.63266909190E+01  0.53800968669E+02  0.18449308599E+03  0.19232717547E+03  0.41800000000E+01 0. -1.
        -11    1    4    4    0    0  0.57525968284E+02 -0.95486556015E+02  0.92644953820E+01  0.11186040533E+03  0.00000000000E+00 0.  1.
         11    1    4    4    0    0  0.10605238485E+03 -0.26919615364E+02  0.12719629757E+02  0.11015245346E+03  0.00000000000E+00 0. -1.
</event>
<event>
 8    1  0.7281309E-009  0.9905572E+02  0.7561462E-02  0.1282294E+00
          2   -1    0    0  501    0  0.00000000000E+00  0.00000000000E+00  0.18674288409E+03  0.18674288409E+03  0.00000000000E+00 0. -1.
         -2   -1    0    0    0  501 -0.00000000000E+00 -0.00000000000E+00 -0.80465189307E+02  0.80465189307E+02  0.00000000000E+00 0.  1.
         25    2    1    2    0    0  0.24326790174E+02  0.49304443172E+02  0.68669859257E+02  0.15292581688E+03  0.12509210631E+03 0.  0.
         23    2    1    2    0    0 -0.24326790174E+02 -0.49304443172E+02  0.37607835529E+02  0.11428225652E+03  0.92862069897E+02 0.  0.
          5    1    3    3  502    0  0.62252992216E+02  0.37416367006E+02 -0.82725481954E+00  0.72756967435E+02  0.41800000000E+01 0. -1.
         -5    1    3    3    0  502 -0.37926202042E+02  0.11888076167E+02  0.69497114077E+02  0.80168849445E+02  0.41800000000E+01 0. -1.
        -11    1    4    4    0    0 -0.46106319335E+02 -0.23902834751E+02 -0.13071262867E+02  0.53553674987E+02  0.00000000000E+00 0.  1.
         11    1    4    4    0    0  0.21779529161E+02 -0.25401608421E+02  0.50679098396E+02  0.60728581534E+02  0.00000000000E+00 0. -1.
</event>
<event>
 8    1  0.7281309E-009  0.1293267E+03  0.7561462E-02  0.1228458E+00
         -2   -1    0    0    0  501 -0.00000000000E+00  0.00000000000E+00  0.22877782743E+02  0.22877782743E+02  0.00000000000E+00 0.  1.
          2   -1    0    0  501    0  0.00000000000E+00 -0.00000000000E+00 -0.95040135070E+03  0.95040135070E+03  0.00000000000E+00 0. -1.
         25    2    1    2    0    0 -0.65033336600E+01  0.96465424579E+02 -0.41501800354E+03  0.44411267047E+03  0.12509296273E+03 0.  0.
         23    2    1    2    0    0  0.65033336600E+01 -0.96465424579E+02 -0.51250556442E+03  0.52916646297E+03  0.89483632498E+02 0.  0.
          5    1    3    3  502    0  0.37088823798E+01 -0.15386682464E+02 -0.25033535026E+01  0.16560343732E+02  0.41800000000E+01 0. -1.
         -5    1    3    3    0  502 -0.10212216040E+02  0.11185210704E+03 -0.41251465004E+03  0.42755232674E+03  0.41800000000E+01 0. -1.
        -11    1    4    4    0    0  0.38207372323E+02 -0.12601789831E+02 -0.12049838765E+03  0.12703727733E+03  0.00000000000E+00 0.  1.
         11    1    4    4    0    0 -0.31704038663E+02 -0.83863634749E+02 -0.39200717677E+03  0.40212918563E+03  0.00000000000E+00 0. -1.
</event>
<event>
 7    1  0.7281309E-009  0.6884986E+02  0.7561462E-02  0.1364048E+00
          1   -1    0    0  501    0  0.00000000000E+00  0.00000000000E+00  0.45616231016E+03  0.45616231016E+03  0.00000000000E+00 0. -1.
         -1   -1    0    0    0  501 -0.00000000000E+00 -0.00000000000E+00 -0.52469193060E+02  0.52469193060E+02  0.00000000000E+00 0.  1.
         23    2    1    2    0    0  0.15187054328E+02 -0.48919258941E+02  0.27121668046E+02  0.10841868674E+03  0.91625794633E+02 0.  0.
          5    1    1    2  502    0  0.22824998004E+02  0.26934818319E+01  0.50775313917E+01  0.23905838268E+02  0.41800000000E+01 0.  1.
         -5    1    1    2    0  502 -0.38012052331E+02  0.46225777109E+02  0.37149391766E+03  0.37630697821E+03  0.41800000000E+01 0.  1.
        -11    1    3    3    0    0  0.19175609015E+02 -0.35518729765E+02 -0.29564687366E+02  0.50033537595E+02  0.00000000000E+00 0.  1.
         11    1    3    3    0    0 -0.39885546871E+01 -0.13400529176E+02  0.56686355412E+02  0.58385149145E+02  0.00000000000E+00 0. -1.
</event>
<event>
 8    1  0.7281309E-009  0.1497480E+03  0.7561462E-02  0.1200783E+00
          1   -1    0    0  501    0  0.00000000000E+00  0.00000000000E+00  0.25973855585E+03  0.25973855585E+03  0.00000000000E+00 0. -1.
         -1   -1    0    0    0  501 -0.00000000000E+00 -0.00000000000E+00 -0.15622306724E+03  0.15622306724E+03  0.00000000000E+00 0.  1.
         25    2    1    2    0    0 -0.95540899517E+02  0.83579637212E+02  0.17005226809E+03  0.24633116375E+03  0.12509056366E+03 0.  0.
         23    2    1    2    0    0  0.95540899517E+02 -0.83579637212E+02 -0.66536779476E+02  0.16963045933E+03  0.90739905630E+02 0.  0.
          5    1    3    3  502    0 -0.99088485938E+02  0.25914874377E+02  0.15610296686E+03  0.18675041479E+03  0.41800000000E+01 0. -1.
         -5    1    3    3    0  502  0.35475864213E+01  0.57664762836E+02  0.13949301223E+02  0.59580748963E+02  0.41800000000E+01 0. -1.
        -11    1    4    4    0    0  0.45026062533E+02 -0.75501411642E+02 -0.77637329423E+02  0.11728326559E+03  0.00000000000E+00 0.  1.
         11    1    4    4    0    0  0.50514836984E+02 -0.80782255706E+01  0.11100549947E+02  0.52347193745E+02  0.00000000000E+00 0. -1.
</event>
<event>
 8    1  0.7281309E-009  0.1549085E+03  0.7561462E-02  0.1194568E+00
         -2   -1    0    0    0  501 -0.00000000000E+00  0.00000000000E+00  0.10657295944E+03  0.10657295944E+03  0.00000000000E+00 0.  1.
          2   -1    0    0  501    0  0.00000000000E+00 -0.00000000000E+00 -0.27849095721E+03  0.27849095721E+03  0.00000000000E+00 0. -1.
         25    2    1    2    0    0 -0.10053364480E+03 -0.86705639373E+02 -0.82940348184E+02  0.20037833695E+03  0.12508994734E+03 0.  0.
         23    2    1    2    0    0  0.10053364480E+03  0.86705639373E+02 -0.88977649586E+02  0.18468557970E+03  0.92557331357E+02 0.  0.
          5    1    3    3  502    0 -0.23913908220E+02 -0.96380621990E+02 -0.21712468919E+02  0.10173496453E+03  0.41800000000E+01 0.  1.
         -5    1    3    3    0  502 -0.76619736581E+02  0.96749826165E+01 -0.61227879265E+02  0.98643372416E+02  0.41800000000E+01 0.  1.
        -11    1    4    4    0    0  0.26043158407E+02  0.17255839357E+02  0.18751692153E+02  0.36436740391E+02  0.00000000000E+00 0.  1.
         11    1    4    4    0    0  0.74490486394E+02  0.69449800016E+02 -0.10772934174E+03  0.14824883931E+03  0.00000000000E+00 0. -1.
</event>
<event>
 8    1  0.7281309E-009  0.1521744E+03  0.7561462E-02  0.1197826E+00
         -1   -1    0    0    0  501 -0.00000000000E+00  0.00000000000E+00  0.18953014986E+03  0.18953014986E+03  0.00000000000E+00 0.  1.
          1   -1    0    0  501    0  0.00000000000E+00 -0.00000000000E+00 -0.22351834163E+03  0.22351834163E+03  0.00000000000E+00 0. -1.
         25    2    1    2    0    0 -0.12221855762E+03  0.32212426057E+02 -0.13896628704E+03  0.22568654225E+03  0.12509104765E+03 0.  0.
         23    2    1    2    0    0  0.12221855762E+03 -0.32212426057E+02  0.10497809528E+03  0.18736194924E+03  0.90050448721E+02 0.  0.
          5    1    3    3  502    0 -0.10234391834E+03 -0.95958379540E+01 -0.14607435605E+03  0.17866602257E+03  0.41800000000E+01 0. -1.
         -5    1    3    3    0  502 -0.19874639275E+02  0.41808264011E+02  0.71080690079E+01  0.47020519680E+02  0.41800000000E+01 0. -1.
        -11    1    4    4    0    0  0.94735078751E+02  0.19230059946E+02  0.60838770267E+02  0.11421859008E+03  0.00000000000E+00 0. -1.
         11    1    4    4    0    0  0.27483478868E+02 -0.51442486004E+02  0.44139325009E+02  0.73143359160E+02  0.00000000000E+00 0.  1.
</event>
<event>
 8    1  0.7281309E-009  0.1323659E+03  0.7561462E-02  0.1223987E+00
          2   -1    0    0  501    0  0.00000000000E+00  0.00000000000E+00  0.72628612516E+02  0.72628612516E+02  0.00000000000E+00 0. -1.
         -2   -1    0    0    0  501 -0.00000000000E+00 -0.00000000000E+00 -0.25914695562E+03  0.25914695562E+03  0.00000000000E+00 0.  1.
         25    2    1    2    0    0 -0.80708927591E+02 -0.16392269567E+02 -0.11909665205E+03  0.19136844325E+03  0.12512086576E+03 0.  0.
         23    2    1    2    0    0  0.80708927591E+02  0.16392269567E+02 -0.67421691052E+02  0.14040712489E+03  0.91574225633E+02 0.  0.
          5    1    3    3  502    0 -0.36163798075E+02 -0.66439652512E+02 -0.34156578492E+02  0.83103501559E+02  0.41800000000E+01 0.  1.
         -5    1    3    3    0  502 -0.44545129516E+02  0.50047382944E+02 -0.84940073562E+02  0.10826494169E+03  0.41800000000E+01 0.  1.
        -11    1    4    4    0    0  0.80437282532E+02 -0.22045159999E+02 -0.36349008758E+02  0.90980195307E+02  0.00000000000E+00 0. -1.
         11    1    4    4    0    0  0.27164505889E+00  0.38437429566E+02 -0.31072682295E+02  0.49426929580E+02  0.00000000000E+00 0.  1.
</event>
<event>
 8    1  0.7281309E-009  0.9382751E+02  0.7561462E-02  0.1293839E+00
         -1   -1    0    0    0  501 -0.00000000000E+00  0.00000000000E+00  0.21354748285E+03  0.21354748285E+03  0.00000000000E+00 0.  1.
          1   -1    0    0  501    0  0.00000000000E+00 -0.00000000000E+00 -0.18650326057E+03  0.18650326057E+03  0.00000000000E+00 0. -1.
         25    2    1    2    0    0  0.16742672773E+02 -0.62086332455E+02 -0.14220280500E+03  0.20000934328E+03  0.12508824836E+03 0.  0.
         23    2    1    2    0    0 -0.16742672773E+02  0.62086332455E+02  0.16924702728E+03  0.20004140014E+03  0.85070416464E+02 0.  0.
          5    1    3    3  502    0 -0.16340904261E+02 -0.10763794372E+02  0.18991350540E+02  0.27586739871E+02  0.41800000000E+01 0. -1.
         -5    1    3    3    0  502  0.33083577035E+02 -0.51322538083E+02 -0.16119415554E+03  0.17242260341E+03  0.41800000000E+01 0. -1.
        -11    1    4    4    0    0 -0.50433256375E+02  0.24840243532E+02  0.95456275882E+02  0.11078109790E+03  0.00000000000E+00 0. -1.
         11    1    4    4    0    0  0.33690583602E+02  0.37246088923E+02  0.73790751398E+02  0.89260302236E+02  0.00000000000E+00 0.  1.
</event>
<event>
 8    1  0.7281309E-009  0.1784475E+03  0.7561462E-02  0.1169314E+00
         -2   -1    0    0    0  501 -0.00000000000E+00  0.00000000000E+00  0.33386533971E+03  0.33386533971E+03  0.00000000000E+00 0.  1.
          2   -1    0    0  501    0  0.00000000000E+00 -0.00000000000E+00 -0.10257108151E+03  0.10257108151E+03  0.00000000000E+00 0. -1.
         25    2    1    2    0    0  0.32344062711E+02 -0.14186370569E+03  0.91499686330E+02  0.21258315662E+03  0.12509179227E+03 0.  0.
         23    2    1    2    0    0 -0.32344062711E+02  0.14186370569E+03  0.13979457187E+03  0.22385326460E+03  0.96934577746E+02 0.  0.
          5    1    3    3  502    0  0.70529285367E+02 -0.63708646771E+02  0.80850038911E+02  0.12484940112E+03  0.41800000000E+01 0. -1.
         -5    1    3    3    0  502 -0.38185222656E+02 -0.78155058917E+02  0.10649647419E+02  0.87733755498E+02  0.41800000000E+01 0. -1.
        -11    1    4    4    0    0 -0.67087422046E+02  0.90115173655E+02  0.94479115251E+02  0.14679158674E+03  0.00000000000E+00 0.  1.
         11    1    4    4    0    0  0.34743359335E+02  0.51748532034E+02  0.45315456622E+02  0.77061677858E+02  0.00000000000E+00 0. -1.
</event>
<event>
 8    1  0.7281309E-009  0.1103402E+03  0.7561462E-02  0.1259941E+00
          1   -1    0    0  501    0  0.00000000000E+00  0.00000000000E+00  0.12252531017E+03  0.12252531017E+03  0.00000000000E+00 0. -1.
         -1   -1    0    0    0  501 -0.00000000000E+00 -0.00000000000E+00 -0.13729425663E+03  0.13729425663E+03  0.00000000000E+00 0.  1.
         25    2    1    2    0    0 -0.55970444514E+02 -0.44447896549E+02 -0.16918937366E+02  0.14505465251E+03  0.12508515342E+03 0.  0.
         23    2    1    2    0    0  0.55970444514E+02  0.44447896549E+02  0.21499909083E+01  0.11476491428E+03  0.89766680469E+02 0.  0.
          5    1    3    3  502    0  0.39270478914E+02 -0.10004542704E+02  0.58699843661E+01  0.41160545494E+02  0.41800000000E+01 0.  1.
         -5    1    3    3    0  502 -0.95240923428E+02 -0.34443353845E+02 -0.22788921732E+02  0.10389410702E+03  0.41800000000E+01 0.  1.
        -11    1    4    4    0    0  0.64170471438E+01  0.24216714811E+02 -0.39616541092E+02  0.46873213015E+02  0.00000000000E+00 0.  1.
         11    1    4    4    0    0  0.49553397370E+02  0.20231181738E+02  0.41766532000E+02  0.67891701266E+02  0.00000000000E+00 0. -1.
</event>
<event>
 8    1  0.7281309E-009  0.8645651E+02  0.7561462E-02  0.1311667E+00
         -1   -1    0    0    0  501 -0.00000000000E+00  0.00000000000E+00  0.18026864595E+03  0.18026864595E+03  0.00000000000E+00 0.  1.
          1   -1    0    0  501    0  0.00000000000E+00 -0.00000000000E+00 -0.88732388095E+02  0.88732388095E+02  0.00000000000E+00 0. -1.
         25    2    1    2    0    0 -0.26924742291E+02  0.27028244539E+02 -0.14408530806E+01  0.13078561098E+03  0.12508929703E+03 0.  0.
         23    2    1    2    0    0  0.26924742291E+02 -0.27028244539E+02  0.92977110938E+02  0.13821542307E+03  0.94885679978E+02 0.  0.
          5    1    3    3  502    0 -0.32138529540E+02 -0.94613908859E+01  0.54233770532E+02  0.63884092422E+02  0.41800000000E+01 0.  1.
         -5    1    3    3    0  502  0.52137872487E+01  0.36489635425E+02 -0.55674623612E+02  0.66901518558E+02  0.41800000000E+01 0.  1.
        -11    1    4    4    0    0  0.53068378602E+02  0.12633472033E+02  0.54139378881E+02  0.76856553192E+02  0.00000000000E+00 0. -1.
         11    1    4    4    0    0 -0.26143636311E+02 -0.39661716572E+02  0.38837732057E+02  0.61358869875E+02  0.00000000000E+00 0.  1.
</event>
<event>
 8    1  0.7281309E-009  0.1025252E+03  0.7561462E-02  0.1275074E+00
         -2   -1    0    0    0  501 -0.00000000000E+00  0.00000000000E+00  0.20130856339E+03  0.20130856339E+03  0.00000000000E+00 0.  1.
          2   -1    0    0  501    0  0.00000000000E+00 -0.00000000000E+00 -0.89568961678E+02  0.89568961678E+02  0.00000000000E+00 0. -1.
         25    2    1    2    0    0  0.17356866842E+02  0.29198561028E+02 -0.15307442430E+02  0.13052468562E+03  0.12509420038E+03 0.  0.
         23    2    1    2    0    0 -0.17356866842E+02 -0.29198561028E+02  0.12704704414E+03  0.16035283944E+03  0.91751102996E+02 0.  0.
          5    1    3    3  502    0 -0.46233311315E+02 -0.12246935715E+02  0.12446964290E+02  0.49597437732E+02  0.41800000000E+01 0.  1.
         -5    1    3    3    0  502  0.63590178157E+02  0.41445496743E+02 -0.27754406720E+02  0.80927247887E+02  0.41800000000E+01 0.  1.
        -11    1    4    4    0    0  0.98162128087E+01  0.21424375546E+02  0.87462731154E+02  0.90581958702E+02  0.00000000000E+00 0.  1.
         11    1    4    4    0    0 -0.27173079650E+02 -0.50622936574E+02  0.39584312984E+02  0.69770880742E+02  0.00000000000E+00 0. -1.
</event>
<event>
 8    1  0.7281309E-009  0.1460610E+03  0.7561462E-02  0.1205398E+00
          3   -1    0    0  501    0  0.00000000000E+00  0.00000000000E+00  0.14713858642E+03  0.14713858642E+03  0.00000000000E+00 0. -1.
         -3   -1    0    0    0  501 -0.00000000000E+00 -0.00000000000E+00 -0.20340863228E+03  0.20340863228E+03  0.00000000000E+00 0.  1.
         25    2    1    2    0    0 -0.46160383619E+02 -0.10985842637E+03 -0.91487447613E+02  0.19549063350E+03  0.12508788853E+03 0.  0.
         23    2    1    2    0    0  0.46160383619E+02  0.10985842637E+03  0.35217401750E+02  0.15505658520E+03  0.92750333523E+02 0.  0.
          5    1    3    3  502    0 -0.87563830968E+02 -0.60093302711E+02 -0.69521332604E+02  0.12700125043E+03  0.41800000000E+01 0.  1.
         -5    1    3    3    0  502  0.41403447349E+02 -0.49765123655E+02 -0.21966115009E+02  0.68489383070E+02  0.41800000000E+01 0.  1.
        -11    1    4    4    0    0  0.37410235008E+02  0.10377058544E+03  0.61783254084E+02  0.12643192069E+03  0.00000000000E+00 0. -1.
         11    1    4    4    0    0  0.87501486107E+01  0.60878409295E+01 -0.26565852334E+02  0.28624664507E+02  0.00000000000E+00 0.  1.
</event>
<event>
 8    1  0.7281309E-009  0.8757165E+02  0.7561462E-02  0.1308841E+00
         -4   -1    0    0    0  501 -0.00000000000E+00  0.00000000000E+00  0.16113182177E+03  0.16113182177E+03  0.00000000000E+00 0.  1.
          4   -1    0    0  501    0  0.00000000000E+00 -0.00000000000E+00 -0.12024333867E+03  0.12024333867E+03  0.00000000000E+00 0. -1.
         25    2    1    2    0    0 -0.83576591349E+02 -0.25019499905E+02  0.29748978826E+02  0.15539206971E+03  0.12510264422E+03 0.  0.
         23    2    1    2    0    0  0.83576591349E+02  0.25019499905E+02  0.11139504282E+02  0.12598309073E+03  0.90203262671E+02 0.  0.
          5    1    3    3  502    0 -0.54238105381E+02 -0.13057159074E+02  0.78926590715E+02  0.96742651402E+02  0.41800000000E+01 0.  1.
         -5    1    3    3    0  502 -0.29338485968E+02 -0.11962340831E+02 -0.49177611889E+02  0.58649418311E+02  0.41800000000E+01 0. -1.
        -11    1    4    4    0    0  0.70853888560E+02  0.21248591899E+02  0.47071976999E+02  0.87678658751E+02  0.00000000000E+00 0.  1.
         11    1    4    4    0    0  0.12722702788E+02  0.37709080060E+01 -0.35932472717E+02  0.38304431976E+02  0.00000000000E+00 0. -1.
</event>
<event>
 8    1  0.7281309E-009  0.2516803E+03  0.7561462E-02  0.1112248E+00
         -1   -1    0    0    0  501 -0.00000000000E+00  0.00000000000E+00  0.33557157184E+03  0.33557157184E+03  0.00000000000E+00 0.  1.
          1   -1    0    0  501    0  0.00000000000E+00 -0.00000000000E+00 -0.23231881688E+03  0.23231881688E+03  0.00000000000E+00 0. -1.
         25    2    1    2    0    0  0.16091648778E+03 -0.18204288241E+03  0.13771396678E+03  0.30601684797E+03  0.12508975784E+03 0.  0.
         23    2    1    2    0    0 -0.16091648778E+03  0.18204288241E+03 -0.34461211823E+02  0.26187354075E+03  0.91413615768E+02 0.  0.
          5    1    3    3  502    0  0.78467217334E+02 -0.10641398565E+03  0.49884226873E+01  0.13237596949E+03  0.41800000000E+01 0.  1.
         -5    1    3    3    0  502  0.82449270445E+02 -0.75628896765E+02  0.13272554409E+03  0.17364087848E+03  0.41800000000E+01 0.  1.
        -11    1    4    4    0    0 -0.14655311091E+03  0.10385186953E+03 -0.31189658512E+02  0.18230693876E+03  0.00000000000E+00 0. -1.
         11    1    4    4    0    0 -0.14363376867E+02  0.78191012882E+02 -0.32715533109E+01  0.79566601986E+02  0.00000000000E+00 0.  1.
</event>
<event>
 8    1  0.7281309E-009  0.1229358E+03  0.7561462E-02  0.1238331E+00
          1   -1    0    0  501    0  0.00000000000E+00  0.00000000000E+00  0.54652233936E+02  0.54652233936E+02  0.00000000000E+00 0. -1.
         -1   -1    0    0    0  501 -0.00000000000E+00 -0.00000000000E+00 -0.38141041673E+03  0.38141041673E+03  0.00000000000E+00 0.  1.
         25    2    1    2    0    0  0.66770021365E+02  0.69501990202E+02 -0.17051036859E+03  0.23240211139E+03  0.12509273836E+03 0.  0.
         23    2    1    2    0    0 -0.66770021365E+02 -0.69501990202E+02 -0.15624781421E+03  0.20366053927E+03  0.88178644904E+02 0.  0.
          5    1    3    3  502    0  0.17887063749E+02  0.76662483327E+02 -0.16455649340E+03  0.18246477830E+03  0.41800000000E+01 0.  1.
         -5    1    3    3    0  502  0.48882957616E+02 -0.71604931247E+01 -0.59538751886E+01  0.49937333097E+02  0.41800000000E+01 0.  1.
        -11    1    4    4    0    0 -0.64963299804E+02 -0.20069857916E+02 -0.13219868595E+03  0.14865908006E+03  0.00000000000E+00 0.  1.
         11    1    4    4    0    0 -0.18067215609E+01 -0.49432132286E+02 -0.24049128256E+02  0.55001459208E+02  0.00000000000E+00 0. -1.
</event>
<event>
 8    1  0.7281309E-009  0.1271040E+03  0.7561462E-02  0.1231817E+00
         -1   -1    0    0    0  501 -0.00000000000E+00  0.00000000000E+00  0.30697368068E+03  0.30697368068E+03  0.00000000000E+00 0.  1.
          1   -1    0    0  501    0  0.00000000000E+00 -0.00000000000E+00 -0.72903037905E+02  0.72903037905E+02  0.00000000000E+00 0. -1.
         25    2    1    2    0    0 -0.34075894025E+02 -0.10414463603E+03  0.12398355075E+03  0.20744793480E+03  0.12512175282E+03 0.  0.
         23    2    1    2    0    0  0.34075894025E+02  0.10414463603E+03  0.11008709203E+03  0.17242878379E+03  0.74868190045E+02 0.  0.
          5    1    3    3  502    0 -0.50088194876E+02 -0.10199316427E+03  0.38040875997E+02  0.11990001448E+03  0.41800000000E+01 0. -1.
         -5    1    3    3    0  502  0.16012300851E+02 -0.21514717537E+01  0.85942674753E+02  0.87547920323E+02  0.41800000000E+01 0. -1.
        -11    1    4    4    0    0  0.11847703234E+02  0.10061215391E+03  0.11050857662E+03  0.14991770774E+03  0.00000000000E+00 0. -1.
         11    1    4    4    0    0  0.22228190790E+02  0.35324821153E+01 -0.42148459158E+00  0.22511076051E+02  0.00000000000E+00 0.  1.
</event>
<event>
 8    1  0.7281309E-009  0.1394318E+03  0.7561462E-02  0.1214096E+00
         -2   -1    0    0    0  501 -0.00000000000E+00  0.00000000000E+00  0.26212858714E+03  0.26212858714E+03  0.00000000000E+00 0.  1.
          2   -1    0    0  501    0  0.00000000000E+00 -0.00000000000E+00 -0.12473998149E+03  0.12473998149E+03  0.00000000000E+00 0. -1.
         25    2    1    2    0    0  0.86897882047E+02  0.56146678779E+02 -0.31266687989E+02  0.16531375611E+03  0.12508933103E+03 0.  0.
         23    2    1    2    0    0 -0.86897882047E+02 -0.56146678779E+02  0.16865529364E+03  0.22155481253E+03  0.99690698873E+02 0.  0.
          5    1    3    3  502    0  0.44740778750E+02  0.76234376117E+02 -0.63062979470E+02  0.10866383559E+03  0.41800000000E+01 0.  1.
         -5    1    3    3    0  502  0.42157103297E+02 -0.20087697338E+02  0.31796291481E+02  0.56649920518E+02  0.41800000000E+01 0.  1.
        -11    1    4    4    0    0  0.10668469618E+02 -0.43872245386E+02  0.47905762658E+02  0.65829721669E+02  0.00000000000E+00 0.  1.
         11    1    4    4    0    0 -0.97566351665E+02 -0.12274433393E+02  0.12074953098E+03  0.15572509086E+03  0.00000000000E+00 0. -1.
</event>
<event>
 8    1  0.7281309E-009  0.9133112E+02  0.7561462E-02  0.1299660E+00
          1   -1    0    0  501    0  0.00000000000E+00  0.00000000000E+00  0.53618366081E+03  0.53618366081E+03  0.00000000000E+00 0. -1.
         -1   -1    0    0    0  501 -0.00000000000E+00 -0.00000000000E+00 -0.38417062039E+02  0.38417062039E+02  0.00000000000E+00 0.  1.
         25    2    1    2    0    0  0.73802059472E+02 -0.23934342039E+02  0.16834625420E+03  0.22362403197E+03  0.12509056582E+03 0.  0.
         23    2    1    2    0    0 -0.73802059472E+02  0.23934342039E+02  0.32942034457E+03  0.35097669088E+03  0.92990738337E+02 0.  0.
          5    1    3    3  502    0  0.17013953821E+02 -0.23359034091E+02 -0.14151967036E+02  0.32447953237E+02  0.41800000000E+01 0.  1.
         -5    1    3    3    0  502  0.56788105651E+02 -0.57530794759E+00  0.18249822124E+03  0.19117607873E+03  0.41800000000E+01 0.  1.
        -11    1    4    4    0    0 -0.11294334501E+02  0.31585582012E+02  0.29989520685E+02  0.44995359025E+02  0.00000000000E+00 0.  1.
         11    1    4    4    0    0 -0.62507724971E+02 -0.76512399738E+01  0.29943082388E+03  0.30598133186E+03  0.00000000000E+00 0. -1.
</event>
<event>
 8    1  0.7281309E-009  0.7608691E+02  0.7561462E-02  0.1340538E+00
          1   -1    0    0  501    0  0.00000000000E+00  0.00000000000E+00  0.14597655363E+03  0.14597655363E+03  0.00000000000E+00 0. -1.
         -1   -1    0    0    0  501 -0.00000000000E+00 -0.00000000000E+00 -0.18023154327E+03  0.18023154327E+03  0.00000000000E+00 0.  1.
         25    2    1    2    0    0 -0.35539100082E+02  0.99724566940E+01 -0.13227007888E+03  0.18575774646E+03  0.12509232221E+03 0.  0.
         23    2    1    2    0    0  0.35539100082E+02 -0.99724566940E+01  0.98015089234E+02  0.14045035044E+03  0.93578126146E+02 0.  0.
          5    1    3    3  502    0  0.83685435000E+01  0.29173227232E+02  0.12587776953E+02  0.33121507152E+02  0.41800000000E+01 0. -1.
         -5    1    3    3    0  502 -0.43907643582E+02 -0.19200770538E+02 -0.14485785583E+03  0.15263623931E+03  0.41800000000E+01 0. -1.
        -11    1    4    4    0    0  0.47541313032E+02 -0.25388614365E+02  0.16116893130E+02  0.56253999220E+02  0.00000000000E+00 0.  1.
         11    1    4    4    0    0 -0.12002212950E+02  0.15416157671E+02  0.81898196104E+02  0.84196351216E+02  0.00000000000E+00 0. -1.
</event>
<event>
 8    1  0.7281309E-009  0.2529211E+03  0.7561462E-02  0.1111473E+00
         -2   -1    0    0    0  501 -0.00000000000E+00  0.00000000000E+00  0.63781115408E+02  0.63781115408E+02  0.00000000000E+00 0.  1.
          2   -1    0    0  501    0  0.00000000000E+00 -0.00000000000E+00 -0.10666914516E+04  0.10666914516E+04  0.00000000000E+00 0. -1.
         25    2    1    2    0    0 -0.20154651482E+03 -0.13036059316E+03 -0.53992957606E+03  0.60397557730E+03  0.12509064306E+03 0.  0.
         23    2    1    2    0    0  0.20154651482E+03  0.13036059316E+03 -0.46298076011E+03  0.52649698968E+03  0.72339574429E+02 0.  0.
          5    1    3    3  502    0 -0.19162566309E+03 -0.75480036728E+02 -0.47818011027E+03  0.52066430735E+03  0.41800000000E+01 0.  1.
         -5    1    3    3    0  502 -0.99208517346E+01 -0.54880556437E+02 -0.61749465795E+02  0.83311269945E+02  0.41800000000E+01 0.  1.
        -11    1    4    4    0    0  0.69365822512E+02  0.70202047717E+02 -0.12994238845E+03  0.16317159420E+03  0.00000000000E+00 0.  1.
         11    1    4    4    0    0  0.13218069231E+03  0.60158545448E+02 -0.33303837165E+03  0.36332539548E+03  0.00000000000E+00 0. -1.
</event>
<event>
 8    1  0.7281309E-009  0.7874513E+02  0.7561462E-02  0.1332651E+00
         -4   -1    0    0    0  501 -0.00000000000E+00  0.00000000000E+00  0.32035299828E+03  0.32035299828E+03  0.00000000000E+00 0. -1.
          4   -1    0    0  501    0  0.00000000000E+00 -0.00000000000E+00 -0.53098483397E+02  0.53098483397E+02  0.00000000000E+00 0.  1.
         25    2    1    2    0    0 -0.59721705080E+02  0.19011926001E+02  0.96531421278E+02  0.16998025419E+03  0.12508731403E+03 0.  0.
         23    2    1    2    0    0  0.59721705080E+02 -0.19011926001E+02  0.17072309360E+03  0.20347122748E+03  0.91247083995E+02 0.  0.
          5    1    3    3  502    0 -0.70888029520E+02 -0.80105489409E+00  0.30698474589E+00  0.71016343597E+02  0.41800000000E+01 0.  1.
         -5    1    3    3    0  502  0.11166324441E+02  0.19812980895E+02  0.96224436532E+02  0.98963910590E+02  0.41800000000E+01 0.  1.
        -11    1    4    4    0    0  0.15694714745E+02 -0.93743841599E+01 -0.74093670790E+01  0.19725665257E+02  0.00000000000E+00 0.  1.
         11    1    4    4    0    0  0.44026990334E+02 -0.96375418412E+01  0.17813246068E+03  0.18374556223E+03  0.00000000000E+00 0. -1.
</event>
<event>
 8    1  0.7281309E-009  0.1553497E+03  0.7561462E-02  0.1194049E+00
          3   -1    0    0  501    0  0.00000000000E+00  0.00000000000E+00  0.47367995357E+02  0.47367995357E+02  0.00000000000E+00 0. -1.
         -3   -1    0    0    0  501 -0.00000000000E+00 -0.00000000000E+00 -0.58059201685E+03  0.58059201685E+03  0.00000000000E+00 0.  1.
         25    2    1    2    0    0  0.45431920902E+02  0.10405339565E+03 -0.38734818866E+03  0.42258410033E+03  0.12509010357E+03 0.  0.
         23    2    1    2    0    0 -0.45431920902E+02 -0.10405339565E+03 -0.14587583283E+03  0.20537591188E+03  0.89489317754E+02 0.  0.
          5    1    3    3  502    0  0.27071750766E+02 -0.24864709606E+02 -0.63182855932E+02  0.73216659013E+02  0.41800000000E+01 0.  1.
         -5    1    3    3    0  502  0.18360170136E+02  0.12891810525E+03 -0.32416533273E+03  0.34936744132E+03  0.41800000000E+01 0.  1.
        -11    1    4    4    0    0  0.25068029797E+02 -0.12927437594E+02 -0.19074272231E+02  0.34049267566E+02  0.00000000000E+00 0.  1.
         11    1    4    4    0    0 -0.70499950699E+02 -0.91125958053E+02 -0.12680156060E+03  0.17132664431E+03  0.00000000000E+00 0. -1.
</event>
<event>
 8    1  0.7281309E-009  0.1227616E+03  0.7561462E-02  0.1238610E+00
          4   -1    0    0  501    0  0.00000000000E+00  0.00000000000E+00  0.60237684173E+03  0.60237684173E+03  0.00000000000E+00 0. -1.
         -4   -1    0    0    0  501 -0.00000000000E+00 -0.00000000000E+00 -0.26816422285E+02  0.26816422285E+02  0.00000000000E+00 0.  1.
         25    2    1    2    0    0 -0.10415445647E+02  0.64434424701E+02  0.31246755694E+03  0.34285086702E+03  0.12510182365E+03 0.  0.
         23    2    1    2    0    0  0.10415445647E+02 -0.64434424701E+02  0.26309286250E+03  0.28634239700E+03  0.92270458018E+02 0.  0.
          5    1    3    3  502    0 -0.43713160275E+02  0.84414463633E+02  0.16673766915E+03  0.19197803199E+03  0.41800000000E+01 0.  1.
         -5    1    3    3    0  502  0.33297714628E+02 -0.19980038932E+02  0.14572988779E+03  0.15087283503E+03  0.41800000000E+01 0.  1.
        -11    1    4    4    0    0 -0.74922618779E+01 -0.84262984194E+02  0.17658581386E+03  0.19580330475E+03  0.00000000000E+00 0.  1.
         11    1    4    4    0    0  0.17907707525E+02  0.19828559492E+02  0.86507048643E+02  0.90539092249E+02  0.00000000000E+00 0. -1.
</event>
<event>
 8    1  0.7281309E-009  0.9530370E+02  0.7561462E-02  0.1290494E+00
         -2   -1    0    0    0  501 -0.00000000000E+00  0.00000000000E+00  0.23322786488E+02  0.23322786488E+02  0.00000000000E+00 0.  1.
          2   -1    0    0  501    0  0.00000000000E+00 -0.00000000000E+00 -0.82812565001E+03  0.82812565001E+03  0.00000000000E+00 0. -1.
         25    2    1    2    0    0  0.45668673316E+02 -0.53228792782E+02 -0.59591537237E+03  0.61292747836E+03  0.12508409409E+03 0.  0.
         23    2    1    2    0    0 -0.45668673316E+02  0.53228792782E+02 -0.20888749115E+03  0.23852095814E+03  0.91319939823E+02 0.  0.
          5    1    3    3  502    0 -0.20937253812E+02 -0.31783474679E+02 -0.52334300979E+02  0.64845272139E+02  0.41800000000E+01 0.  1.
         -5    1    3    3    0  502  0.66605927128E+02 -0.21445318103E+02 -0.54358107140E+03  0.54808220622E+03  0.41800000000E+01 0.  1.
        -11    1    4    4    0    0 -0.34370172945E+01  0.36714385200E+02 -0.15691568498E+02  0.40074736312E+02  0.00000000000E+00 0.  1.
         11    1    4    4    0    0 -0.42231656022E+02  0.16514407582E+02 -0.19319592266E+03  0.19844622183E+03  0.00000000000E+00 0. -1.
</event>
<event>
 8    1  0.7281309E-009  0.1221407E+03  0.7561462E-02  0.1239607E+00
         -2   -1    0    0    0  501 -0.00000000000E+00  0.00000000000E+00  0.10647050299E+02  0.10647050299E+02  0.00000000000E+00 0.  1.
          2   -1    0    0  501    0  0.00000000000E+00 -0.00000000000E+00 -0.16868918536E+04  0.16868918536E+04  0.00000000000E+00 0. -1.
         25    2    1    2    0    0  0.25859061173E+02 -0.52808055151E+02 -0.12476828115E+04  0.12553154966E+04  0.12508883371E+03 0.  0.
         23    2    1    2    0    0 -0.25859061173E+02  0.52808055151E+02 -0.42856199183E+03  0.44222340726E+03  0.91862829031E+02 0.  0.
          5    1    3    3  502    0  0.17748558981E+02 -0.93947409016E+02 -0.82205971508E+03  0.82761148769E+03  0.41800000000E+01 0. -1.
         -5    1    3    3    0  502  0.81105021915E+01  0.41139353865E+02 -0.42562309639E+03  0.42770400894E+03  0.41800000000E+01 0. -1.
        -11    1    4    4    0    0  0.14226913346E+02  0.63402712245E+02 -0.21226085780E+03  0.22198419029E+03  0.00000000000E+00 0. -1.
         11    1    4    4    0    0 -0.40085974519E+02 -0.10594657094E+02 -0.21630113403E+03  0.22023921698E+03  0.00000000000E+00 0.  1.
</event>
<event>
 8    1  0.7281309E-009  0.6809107E+02  0.7561462E-02  0.1366707E+00
          2   -1    0    0  501    0  0.00000000000E+00  0.00000000000E+00  0.44402526327E+03  0.44402526327E+03  0.00000000000E+00 0.  1.
         -2   -1    0    0    0  501 -0.00000000000E+00 -0.00000000000E+00 -0.56201873797E+02  0.56201873797E+02  0.00000000000E+00 0. -1.
         25    2    1    2    0    0 -0.55494759278E+02  0.21482645969E+02  0.36353148667E+03  0.38902949635E+03  0.12509050661E+03 0.  0.
         23    2    1    2    0    0  0.55494759278E+02 -0.21482645969E+02  0.24291902802E+02  0.11119764072E+03  0.90739442217E+02 0.  0.
          5    1    3    3  502    0 -0.52110469870E+02  0.21863916071E+01  0.42596912301E+02  0.67470369169E+02  0.41800000000E+01 0. -1.
         -5    1    3    3    0  502 -0.33842894080E+01  0.19296254362E+02  0.32093457437E+03  0.32155912718E+03  0.41800000000E+01 0. -1.
        -11    1    4    4    0    0  0.22701010443E+02 -0.21156944806E+02  0.56987440840E+02  0.64888524426E+02  0.00000000000E+00 0.  1.
         11    1    4    4    0    0  0.32793748835E+02 -0.32570116288E+00 -0.32695538039E+02  0.46309116290E+02  0.00000000000E+00 0. -1.
</event>
<event>
 8    1  0.7281309E-009  0.1188956E+03  0.7561462E-02  0.1244930E+00
         -3   -1    0    0    0  501 -0.00000000000E+00  0.00000000000E+00  0.55487274595E+03  0.55487274595E+03  0.00000000000E+00 0.  1.
          3   -1    0    0  501    0  0.00000000000E+00 -0.00000000000E+00 -0.28008720628E+02  0.28008720628E+02  0.00000000000E+00 0. -1.
         25    2    1    2    0    0 -0.34584112520E+02 -0.45392460605E+02  0.24551777816E+03  0.28139428996E+03  0.12508889123E+03 0.  0.
         23    2    1    2    0    0  0.34584112520E+02  0.45392460605E+02  0.28134624716E+03  0.30148717661E+03  0.92099242968E+02 0.  0.
          5    1    3    3  502    0 -0.56761828670E+02 -0.74928933876E+02  0.20938227240E+03  0.22955317189E+03  0.41800000000E+01 0. -1.
         -5    1    3    3    0  502  0.22177716150E+02  0.29536473271E+02  0.36135505759E+02  0.51841118076E+02  0.41800000000E+01 0. -1.
        -11    1    4    4    0    0  0.61257984882E+02  0.97843063342E+01  0.13591425451E+03  0.14940200113E+03  0.00000000000E+00 0. -1.
         11    1    4    4    0    0 -0.26673872362E+02  0.35608154271E+02  0.14543199264E+03  0.15208517548E+03  0.00000000000E+00 0.  1.
</event>
<event>
 8    1  0.7281309E-009  0.7599918E+02  0.7561462E-02  0.1340805E+00
          2   -1    0    0  501    0  0.00000000000E+00  0.00000000000E+00  0.38132479782E+03  0.38132479782E+03  0.00000000000E+00 0.  1.
         -2   -1    0    0    0  501 -0.00000000000E+00 -0.00000000000E+00 -0.37980676656E+02  0.37980676656E+02  0.00000000000E+00 0. -1.
         25    2    1    2    0    0  0.53387637747E+02 -0.30839041234E+01  0.20083368675E+03  0.24257234444E+03  0.12508965675E+03 0.  0.
         23    2    1    2    0    0 -0.53387637747E+02  0.30839041234E+01  0.14251043442E+03  0.17673313003E+03  0.89808824762E+02 0.  0.
          5    1    3    3  502    0 -0.19760730824E+01 -0.32084715794E+01 -0.16930680138E+02  0.17841510155E+02  0.41800000000E+01 0. -1.
         -5    1    3    3    0  502  0.55363710830E+02  0.12456745607E+00  0.21776436689E+03  0.22473083429E+03  0.41800000000E+01 0. -1.
        -11    1    4    4    0    0  0.18093515900E+02  0.66557102270E+01  0.78109003640E+02  0.80453031303E+02  0.00000000000E+00 0.  1.
         11    1    4    4    0    0 -0.71481153647E+02 -0.35718061036E+01  0.64401430777E+02  0.96280098731E+02  0.00000000000E+00 0. -1.
</event>
<event>
 8    1  0.7281309E-009  0.8432711E+02  0.7561462E-02  0.1317202E+00
         -2   -1    0    0    0  501 -0.00000000000E+00  0.00000000000E+00  0.10056262725E+03  0.10056262725E+03  0.00000000000E+00 0.  1.
          2   -1    0    0  501    0  0.00000000000E+00 -0.00000000000E+00 -0.19674569245E+03  0.19674569245E+03  0.00000000000E+00 0. -1.
         25    2    1    2    0    0 -0.93774046811E+01 -0.20684297093E+02  0.37303537077E+02  0.13249591714E+03  0.12509131991E+03 0.  0.
         23    2    1    2    0    0  0.93774046811E+01  0.20684297093E+02 -0.13348660228E+03  0.16481240256E+03  0.93961051422E+02 0.  0.
          5    1    3    3  502    0  0.33807125975E+02  0.18175486415E+02  0.58857092539E+02  0.70391049255E+02  0.41800000000E+01 0. -1.
         -5    1    3    3    0  502 -0.43184530656E+02 -0.38859783508E+02 -0.21553555462E+02  0.62104867887E+02  0.41800000000E+01 0. -1.
        -11    1    4    4    0    0  0.38573984676E+02  0.57348695603E+01 -0.14858049738E+02  0.41732513280E+02  0.00000000000E+00 0.  1.
         11    1    4    4    0    0 -0.29196579995E+02  0.14949427532E+02 -0.11862855254E+03  0.12307988928E+03  0.00000000000E+00 0. -1.
</event>
<event>
 8    1  0.7281309E-009  0.9011052E+02  0.7561462E-02  0.1302584E+00
          3   -1    0    0  501    0  0.00000000000E+00  0.00000000000E+00  0.64948407000E+02  0.64948407000E+02  0.00000000000E+00 0. -1.
         -3   -1    0    0    0  501 -0.00000000000E+00 -0.00000000000E+00 -0.19784551304E+03  0.19784551304E+03  0.00000000000E+00 0.  1.
         25    2    1    2    0    0  0.28068799407E+02  0.99044117428E+01 -0.57033185914E+02  0.14066343464E+03  0.12508981844E+03 0.  0.
         23    2    1    2    0    0 -0.28068799407E+02 -0.99044117428E+01 -0.75863920124E+02  0.12213048540E+03  0.90964642666E+02 0.  0.
          5    1    3    3  502    0  0.52259547105E+02  0.23414037159E+02 -0.84016847393E+02  0.10176237244E+03  0.41800000000E+01 0. -1.
         -5    1    3    3    0  502 -0.24190747698E+02 -0.13509625416E+02  0.26983661478E+02  0.38901062194E+02  0.41800000000E+01 0. -1.
        -11    1    4    4    0    0  0.32494645280E+02 -0.10709462893E+02 -0.19433858287E+02  0.39348054784E+02  0.00000000000E+00 0. -1.
         11    1    4    4    0    0 -0.60563444688E+02  0.80505114993E+00 -0.56430061837E+02  0.82782430616E+02  0.00000000000E+00 0.  1.
</event>
<event>
 8    1  0.7281309E-009  0.1182274E+03  0.7561462E-02  0.1246050E+00
          1   -1    0    0  501    0  0.00000000000E+00  0.00000000000E+00  0.73392578052E+02  0.73392578052E+02  0.00000000000E+00 0. -1.
         -1   -1    0    0    0  501 -0.00000000000E+00 -0.00000000000E+00 -0.21179675365E+03  0.21179675365E+03  0.00000000000E+00 0.  1.
         25    2    1    2    0    0  0.59326676310E+02  0.88057935146E+01 -0.11139365720E+03  0.17791284597E+03  0.12508891788E+03 0.  0.
         23    2    1    2    0    0 -0.59326676310E+02 -0.88057935146E+01 -0.27010518405E+02  0.10727648574E+03  0.84743611947E+02 0.  0.
          5    1    3    3  502    0  0.85337482676E+02 -0.28699188618E+02 -0.89861249812E+02  0.12727390147E+03  0.41800000000E+01 0.  1.
         -5    1    3    3    0  502 -0.26010806366E+02  0.37504982132E+02 -0.21532407384E+02  0.50638944502E+02  0.41800000000E+01 0.  1.
        -11    1    4    4    0    0 -0.58062099857E+02 -0.39209125098E+02 -0.60404839320E+01  0.70321052160E+02  0.00000000000E+00 0.  1.
         11    1    4    4    0    0 -0.12645764538E+01  0.30403331584E+02 -0.20970034473E+02  0.36955433576E+02  0.00000000000E+00 0. -1.
</event>
<event>
 8    1  0.7281309E-009  0.6918368E+02  0.7561462E-02  0.1362891E+00
         -2   -1    0    0    0  501 -0.00000000000E+00  0.00000000000E+00  0.58119230893E+02  0.58119230893E+02  0.00000000000E+00 0. -1.
          2   -1    0    0  501    0  0.00000000000E+00 -0.00000000000E+00 -0.28145626331E+03  0.28145626331E+03  0.00000000000E+00 0.  1.
         25    2    1    2    0    0  0.53864198246E+01 -0.10708050739E+01 -0.21440455990E+03  0.24828991680E+03  0.12509359432E+03 0.  0.
         23    2    1    2    0    0 -0.53864198246E+01  0.10708050739E+01 -0.89324725225E+01  0.91285577401E+02  0.90681351082E+02 0.  0.
          5    1    3    3  502    0  0.28015012900E+02  0.34746847539E+02 -0.19667654872E+02  0.48953788514E+02  0.41800000000E+01 0.  1.
         -5    1    3    3    0  502 -0.22628593075E+02 -0.35817652613E+02 -0.19473690502E+03  0.19933612829E+03  0.41800000000E+01 0.  1.
        -11    1    4    4    0    0  0.17525743390E+02 -0.14926988383E+02  0.33397816846E+02  0.40563294166E+02  0.00000000000E+00 0. -1.
         11    1    4    4    0    0 -0.22912163214E+02  0.15997793457E+02 -0.42330289368E+02  0.50722283235E+02  0.00000000000E+00 0.  1.
</event>
<event>
 8    1  0.7281309E-009  0.9563987E+02  0.7561462E-02  0.1289741E+00
          1   -1    0    0  501    0  0.00000000000E+00  0.00000000000E+00  0.10824158828E+03  0.10824158828E+03  0.00000000000E+00 0. -1.
         -1   -1    0    0    0  501 -0.00000000000E+00 -0.00000000000E+00 -0.13040824904E+03  0.13040824904E+03  0.00000000000E+00 0.  1.
         25    2    1    2    0    0  0.13361654076E+02 -0.45157263804E+02  0.38630611623E+00  0.13366443224E+03  0.12509324098E+03 0.  0.
         23    2    1    2    0    0 -0.13361654076E+02  0.45157263804E+02 -0.22552966876E+02  0.10498540509E+03  0.91080111402E+02 0.  0.
          5    1    3    3  502    0  0.63829607889E+02 -0.64047979826E+01 -0.18965882308E+02  0.67025497926E+02  0.41800000000E+01 0. -1.
         -5    1    3    3    0  502 -0.50467953813E+02 -0.38752465821E+02  0.19352188425E+02  0.66638934311E+02  0.41800000000E+01 0. -1.
        -11    1    4    4    0    0 -0.28794635652E+02  0.28352808627E+02  0.28242111334E+02  0.49301416328E+02  0.00000000000E+00 0. -1.
         11    1    4    4    0    0  0.15432981576E+02  0.16804455177E+02 -0.50795078209E+02  0.55683988762E+02  0.00000000000E+00 0.  1.
</event>
<event>
 8    1  0.7281309E-009  0.9809670E+02  0.7561462E-02  0.1284350E+00
          3   -1    0    0  501    0  0.00000000000E+00  0.00000000000E+00  0.44451832584E+02  0.44451832584E+02  0.00000000000E+00 0. -1.
         -3   -1    0    0    0  501 -0.00000000000E+00 -0.00000000000E+00 -0.46409229260E+03  0.46409229260E+03  0.00000000000E+00 0.  1.
         25    2    1    2    0    0  0.61309033033E+02 -0.65749271467E+02 -0.18406767051E+03  0.24001881716E+03  0.12508541495E+03 0.  0.
         23    2    1    2    0    0 -0.61309033033E+02  0.65749271467E+02 -0.23557278951E+03  0.26852530803E+03  0.92355496124E+02 0.  0.
          5    1    3    3  502    0 -0.14055860625E+01  0.12934416075E+01 -0.13642953292E+03  0.13650691747E+03  0.41800000000E+01 0.  1.
         -5    1    3    3    0  502  0.62714619095E+02 -0.67042713075E+02 -0.47638137585E+02  0.10351189969E+03  0.41800000000E+01 0.  1.
        -11    1    4    4    0    0 -0.58589919472E+02  0.33811941019E+02 -0.61171305717E+02  0.91202821570E+02  0.00000000000E+00 0. -1.
         11    1    4    4    0    0 -0.27191135608E+01  0.31937330448E+02 -0.17440148379E+03  0.17732248646E+03  0.00000000000E+00 0.  1.
</event>
<event>
 8    1  0.7281309E-009  0.2147038E+03  0.7561462E-02  0.1137894E+00
          2   -1    0    0  501    0  0.00000000000E+00  0.00000000000E+00  0.46937689356E+03  0.46937689356E+03  0.00000000000E+00 0.  1.
         -2   -1    0    0    0  501 -0.00000000000E+00 -0.00000000000E+00 -0.11910568288E+03  0.11910568288E+03  0.00000000000E+00 0. -1.
         25    2    1    2    0    0  0.47536515980E+02  0.19621021941E+03  0.19979992151E+03  0.31034901757E+03  0.12505332271E+03 0.  0.
         23    2    1    2    0    0 -0.47536515980E+02 -0.19621021941E+03  0.15047128917E+03  0.27813355887E+03  0.11814608394E+03 0.  0.
          5    1    3    3  502    0  0.51533350331E+02  0.27919297269E+02  0.15631548012E+02  0.60802886852E+02  0.41800000000E+01 0.  1.
         -5    1    3    3    0  502 -0.39968343514E+01  0.16829092214E+03  0.18416837350E+03  0.24954613072E+03  0.41800000000E+01 0.  1.
        -11    1    4    4    0    0 -0.60731137412E+01 -0.47111771762E+02 -0.16676888210E+02  0.50344019997E+02  0.00000000000E+00 0. -1.
         11    1    4    4    0    0 -0.41463402238E+02 -0.14909844765E+03  0.16714817738E+03  0.22778953887E+03  0.00000000000E+00 0.  1.
</event>
<event>
 8    1  0.7281309E-009  0.1290844E+03  0.7561462E-02  0.1228821E+00
          2   -1    0    0  501    0  0.00000000000E+00  0.00000000000E+00  0.46103566936E+03  0.46103566936E+03  0.00000000000E+00 0. -1.
         -2   -1    0    0    0  501 -0.00000000000E+00 -0.00000000000E+00 -0.41107386787E+02  0.41107386787E+02  0.00000000000E+00 0.  1.
         25    2    1    2    0    0 -0.53731062382E+02 -0.62667511343E+02  0.26416406332E+03  0.30371706393E+03  0.12508860272E+03 0.  0.
         23    2    1    2    0    0  0.53731062382E+02  0.62667511343E+02  0.15576421925E+03  0.19842599221E+03  0.91083139739E+02 0.  0.
          5    1    3    3  502    0 -0.75892451380E+02 -0.87389727556E+02  0.19314204975E+03  0.22520646625E+03  0.41800000000E+01 0. -1.
         -5    1    3    3    0  502  0.22161388998E+02  0.24722216213E+02  0.71022013568E+02  0.78510597680E+02  0.41800000000E+01 0. -1.
        -11    1    4    4    0    0  0.29746085329E+01  0.57822590908E+02  0.35792372075E+02  0.68069040055E+02  0.00000000000E+00 0.  1.
         11    1    4    4    0    0  0.50756453849E+02  0.48449204346E+01  0.11997184718E+03  0.13035695216E+03  0.00000000000E+00 0. -1.
</event>
<event>
 8    1  0.7281309E-009  0.1265513E+03  0.7561462E-02  0.1232665E+00
         -1   -1    0    0    0  501 -0.00000000000E+00  0.00000000000E+00  0.59994425003E+02  0.59994425003E+02  0.00000000000E+00 0.  1.
          1   -1    0    0  501    0  0.00000000000E+00 -0.00000000000E+00 -0.34509234929E+03  0.34509234929E+03  0.00000000000E+00 0. -1.
         25    2    1    2    0    0 -0.12594413889E+00  0.79991859408E+02 -0.85955201516E+02  0.17156367999E+03  0.12508831356E+03 0.  0.
         23    2    1    2    0    0  0.12594413889E+00 -0.79991859408E+02 -0.19914272278E+03  0.23352309431E+03  0.92067899441E+02 0.  0.
          5    1    3    3  502    0 -0.12784952571E+02 -0.28252865844E+02 -0.45538446837E+02  0.55253072141E+02  0.41800000000E+01 0. -1.
         -5    1    3    3    0  502  0.12659008432E+02  0.10824472525E+03 -0.40416754679E+02  0.11631060785E+03  0.41800000000E+01 0. -1.
        -11    1    4    4    0    0  0.16620921833E+02  0.11222458085E+02 -0.89838949354E+01  0.21975190016E+02  0.00000000000E+00 0.  1.
         11    1    4    4    0    0 -0.16494977694E+02 -0.91214317493E+02 -0.19015882784E+03  0.21154790429E+03  0.00000000000E+00 0. -1.
</event>
<event>
 8    1  0.7281309E-009  0.1030328E+03  0.7561462E-02  0.1274045E+00
         -1   -1    0    0    0  501 -0.00000000000E+00  0.00000000000E+00  0.66533048958E+03  0.66533048958E+03  0.00000000000E+00 0.  1.
          1   -1    0    0  501    0  0.00000000000E+00 -0.00000000000E+00 -0.23397621798E+02  0.23397621798E+02  0.00000000000E+00 0. -1.
         25    2    1    2    0    0 -0.40712024777E+02  0.17941572512E+02  0.23387139012E+03  0.26892894637E+03  0.12509029577E+03 0.  0.
         23    2    1    2    0    0  0.40712024777E+02 -0.17941572512E+02  0.40806147766E+03  0.41979916501E+03  0.87964767954E+02 0.  0.
          5    1    3    3  502    0 -0.51732352198E+02 -0.37352476325E+02  0.17926124576E+03  0.19032474979E+03  0.41800000000E+01 0. -1.
         -5    1    3    3    0  502  0.11020327421E+02  0.55294048837E+02  0.54610144358E+02  0.78604196581E+02  0.41800000000E+01 0. -1.
        -11    1    4    4    0    0  0.53569368407E+02 -0.35173400989E+02  0.37448695395E+03  0.37993068321E+03  0.00000000000E+00 0.  1.
         11    1    4    4    0    0 -0.12857343629E+02  0.17231828477E+02  0.33574523717E+02  0.39868481796E+02  0.00000000000E+00 0. -1.
</event>
<event>
 8    1  0.7281309E-009  0.7675510E+02  0.7561462E-02  0.1338521E+00
         -3   -1    0    0    0  501 -0.00000000000E+00  0.00000000000E+00  0.38736381251E+03  0.38736381251E+03  0.00000000000E+00 0.  1.
          3   -1    0    0  501    0  0.00000000000E+00 -0.00000000000E+00 -0.42399856129E+02  0.42399856129E+02  0.00000000000E+00 0. -1.
         25    2    1    2    0    0  0.53576367594E+02 -0.40483784070E+02  0.19116886444E+03  0.23811880395E+03  0.12508263719E+03 0.  0.
         23    2    1    2    0    0 -0.53576367594E+02  0.40483784070E+02  0.15379509195E+03  0.19164486469E+03  0.92549769960E+02 0.  0.
          5    1    3    3  502    0  0.18651349834E+02  0.16294919099E+01 -0.15265851596E+02  0.24516254189E+02  0.41800000000E+01 0.  1.
         -5    1    3    3    0  502  0.34925017760E+02 -0.42113275980E+02  0.20643471603E+03  0.21360254976E+03  0.41800000000E+01 0.  1.
        -11    1    4    4    0    0 -0.45835888820E+02  0.85861905832E+01  0.15175475718E+03  0.15875817365E+03  0.00000000000E+00 0.  1.
         11    1    4    4    0    0 -0.77404787740E+01  0.31897593487E+02  0.20403347622E+01  0.32886691044E+02  0.00000000000E+00 0. -1.
</event>
<event>
 8    1  0.7281309E-009  0.1236235E+03  0.7561462E-02  0.1237236E+00
          1   -1    0    0  501    0  0.00000000000E+00  0.00000000000E+00  0.25648570278E+02  0.25648570278E+02  0.00000000000E+00 0. -1.
         -1   -1    0    0    0  501 -0.00000000000E+00 -0.00000000000E+00 -0.72297355518E+03  0.72297355518E+03  0.00000000000E+00 0.  1.
         25    2    1    2    0    0  0.67535316243E+02 -0.35268282259E+02 -0.32847865734E+03  0.35965800315E+03  0.12510307843E+03 0.  0.
         23    2    1    2    0    0 -0.67535316243E+02  0.35268282259E+02 -0.36884632757E+03  0.38896412231E+03  0.97162772755E+02 0.  0.
          5    1    3    3  502    0  0.81367999313E+02  0.22754097669E+02 -0.16181699137E+03  0.18259439030E+03  0.41800000000E+01 0. -1.
         -5    1    3    3    0  502 -0.13832683070E+02 -0.58022379928E+02 -0.16666166596E+03  0.17706361285E+03  0.41800000000E+01 0. -1.
        -11    1    4    4    0    0  0.81454378527E+01 -0.11351610729E+02 -0.56867547101E+01  0.15084641298E+02  0.00000000000E+00 0. -1.
         11    1    4    4    0    0 -0.75680754096E+02  0.46619892988E+02 -0.36315957286E+03  0.37387948101E+03  0.00000000000E+00 0.  1.
</event>
<event>
 8    1  0.7281309E-009  0.1021946E+03  0.7561462E-02  0.1275748E+00
         -3   -1    0    0    0  501 -0.00000000000E+00  0.00000000000E+00  0.39748438226E+03  0.39748438226E+03  0.00000000000E+00 0.  1.
          3   -1    0    0  501    0  0.00000000000E+00 -0.00000000000E+00 -0.33984143000E+02  0.33984143000E+02  0.00000000000E+00 0. -1.
         25    2    1    2    0    0  0.76790581032E+01 -0.27039242785E+02  0.26582539495E+03  0.29512831641E+03  0.12508994349E+03 0.  0.
         23    2    1    2    0    0 -0.76790581032E+01  0.27039242785E+02  0.97674844303E+02  0.13634020884E+03  0.90874577052E+02 0.  0.
          5    1    3    3  502    0 -0.42971575852E+02  0.29294997293E+02  0.11567803875E+03  0.12690009553E+03  0.41800000000E+01 0. -1.
         -5    1    3    3    0  502  0.50650633955E+02 -0.56334240078E+02  0.15014735621E+03  0.16822822088E+03  0.41800000000E+01 0. -1.
        -11    1    4    4    0    0 -0.52178187297E+01 -0.24345811188E+02 -0.11522512742E+01  0.24925325228E+02  0.00000000000E+00 0. -1.
         11    1    4    4    0    0 -0.24612393735E+01  0.51385053973E+02  0.98827095578E+02  0.11141488362E+03  0.00000000000E+00 0.  1.
</event>
<event>
 8    1  0.7281309E-009  0.1004596E+03  0.7561462E-02  0.1279332E+00
         -3   -1    0    0    0  501 -0.00000000000E+00  0.00000000000E+00  0.54046286345E+03  0.54046286345E+03  0.00000000000E+00 0.  1.
          3   -1    0    0  501    0  0.00000000000E+00 -0.00000000000E+00 -0.42448474475E+02  0.42448474475E+02  0.00000000000E+00 0. -1.
         25    2    1    2    0    0  0.48567789615E+02 -0.36219202892E+02  0.42856910550E+03  0.45054382943E+03  0.12509038014E+03 0.  0.
         23    2    1    2    0    0 -0.48567789615E+02  0.36219202892E+02  0.69445283472E+02  0.13236750849E+03  0.95014993879E+02 0.  0.
          5    1    3    3  502    0  0.49723547711E+02  0.94472478602E+01  0.38133135941E+03  0.38469827106E+03  0.41800000000E+01 0.  1.
         -5    1    3    3    0  502 -0.11557580957E+01 -0.45666450752E+02  0.47237746089E+02  0.65845558367E+02  0.41800000000E+01 0.  1.
        -11    1    4    4    0    0 -0.71214963565E+02  0.14084624185E+02  0.69786549991E+02  0.10069811435E+03  0.00000000000E+00 0.  1.
         11    1    4    4    0    0  0.22647173951E+02  0.22134578707E+02 -0.34126651980E+00  0.31669394142E+02  0.00000000000E+00 0. -1.
</event>
<event>
 8    1  0.7281309E-009  0.1034372E+03  0.7561462E-02  0.1273230E+00
         -1   -1    0    0    0  501 -0.00000000000E+00  0.00000000000E+00  0.16294403504E+03  0.16294403504E+03  0.00000000000E+00 0.  1.
          1   -1    0    0  501    0  0.00000000000E+00 -0.00000000000E+00 -0.96591593702E+02  0.96591593702E+02  0.00000000000E+00 0. -1.
         25    2    1    2    0    0  0.31010908344E+02  0.52489946076E+02  0.41979296137E+02  0.14535729608E+03  0.12509840664E+03 0.  0.
         23    2    1    2    0    0 -0.31010908344E+02 -0.52489946076E+02  0.24373145203E+02  0.11417833267E+03  0.93411833127E+02 0.  0.
          5    1    3    3  502    0  0.20700522321E+02  0.91720623246E+02  0.12296475738E+02  0.94920282704E+02  0.41800000000E+01 0.  1.
         -5    1    3    3    0  502  0.10310386023E+02 -0.39230677170E+02  0.29682820399E+02  0.50437013373E+02  0.41800000000E+01 0.  1.
        -11    1    4    4    0    0 -0.38460264018E+02 -0.31532475271E+02  0.56393380265E+02  0.75191104811E+02  0.00000000000E+00 0.  1.
         11    1    4    4    0    0  0.74493556746E+01 -0.20957470805E+02 -0.32020235061E+02  0.38987227856E+02  0.00000000000E+00 0. -1.
</event>
<event>
 8    1  0.7281309E-009  0.1316475E+03  0.7561462E-02  0.1225031E+00
         -2   -1    0    0    0  501 -0.00000000000E+00  0.00000000000E+00  0.35285058710E+02  0.35285058710E+02  0.00000000000E+00 0.  1.
          2   -1    0    0  501    0  0.00000000000E+00 -0.00000000000E+00 -0.62375094381E+03  0.62375094381E+03  0.00000000000E+00 0. -1.
         25    2    1    2    0    0  0.78538881354E+02  0.62353134930E+02 -0.29009027127E+03  0.33144458924E+03  0.12508749311E+03 0.  0.
         23    2    1    2    0    0 -0.78538881354E+02 -0.62353134930E+02 -0.29837561384E+03  0.32759141328E+03  0.90729586159E+02 0.  0.
          5    1    3    3  502    0  0.30497259826E+02  0.95956797137E+02 -0.16717855457E+03  0.19520228298E+03  0.41800000000E+01 0. -1.
         -5    1    3    3    0  502  0.48041621528E+02 -0.33603662207E+02 -0.12291171670E+03  0.13624230626E+03  0.41800000000E+01 0. -1.
        -11    1    4    4    0    0 -0.34493793898E+02 -0.44296016460E+02 -0.51555901982E+02  0.76223158692E+02  0.00000000000E+00 0.  1.
         11    1    4    4    0    0 -0.44045087456E+02 -0.18057118470E+02 -0.24681971185E+03  0.25136825459E+03  0.00000000000E+00 0. -1.
</event>
<event>
 8    1  0.7281309E-009  0.1554760E+03  0.7561462E-02  0.1193901E+00
         -2   -1    0    0    0  501 -0.00000000000E+00  0.00000000000E+00  0.35894614499E+03  0.35894614499E+03  0.00000000000E+00 0. -1.
          2   -1    0    0  501    0  0.00000000000E+00 -0.00000000000E+00 -0.11643662856E+03  0.11643662856E+03  0.00000000000E+00 0.  1.
         25    2    1    2    0    0 -0.86514227316E+02  0.83168638215E+02  0.27132165661E+03  0.32197032488E+03  0.12509082639E+03 0.  0.
         23    2    1    2    0    0  0.86514227316E+02 -0.83168638215E+02 -0.28812140176E+02  0.15341244868E+03  0.91123575862E+02 0.  0.
          5    1    3    3  502    0 -0.29180183215E+02  0.10693912831E+03  0.18140328868E+03  0.21263133776E+03  0.41800000000E+01 0. -1.
         -5    1    3    3    0  502 -0.57334044101E+02 -0.23770490092E+02  0.89918367926E+02  0.10933898711E+03  0.41800000000E+01 0. -1.
        -11    1    4    4    0    0 -0.10796210422E+02 -0.17473718452E+01  0.15540392282E+02  0.19003032919E+02  0.00000000000E+00 0. -1.
         11    1    4    4    0    0  0.97310437738E+02 -0.81421266369E+02 -0.44352532458E+02  0.13440941576E+03  0.00000000000E+00 0.  1.
</event>
<event>
 8    1  0.7281309E-009  0.7405445E+02  0.7561462E-02  0.1346824E+00
          1   -1    0    0  501    0  0.00000000000E+00  0.00000000000E+00  0.34463667141E+03  0.34463667141E+03  0.00000000000E+00 0. -1.
         -1   -1    0    0    0  501 -0.00000000000E+00 -0.00000000000E+00 -0.40513925549E+02  0.40513925549E+02  0.00000000000E+00 0.  1.
         25    2    1    2    0    0 -0.33947329767E+02  0.24196510322E+02  0.18691199547E+03  0.22873628000E+03  0.12508516869E+03 0.  0.
         23    2    1    2    0    0  0.33947329767E+02 -0.24196510322E+02  0.11721075039E+03  0.15641431696E+03  0.94811319119E+02 0.  0.
          5    1    3    3  502    0 -0.14945105172E+02  0.28505352246E+01 -0.16764685436E+02  0.23021919933E+02  0.41800000000E+01 0. -1.
         -5    1    3    3    0  502 -0.19002224595E+02  0.21345975097E+02  0.20367668091E+03  0.20571436006E+03  0.41800000000E+01 0. -1.
        -11    1    4    4    0    0  0.59064107295E+02  0.11129050350E+02  0.64307119427E+02  0.88021759476E+02  0.00000000000E+00 0. -1.
         11    1    4    4    0    0 -0.25116777528E+02 -0.35325560672E+02  0.52903630964E+02  0.68392557485E+02  0.00000000000E+00 0.  1.
</event>
<event>
 8    1  0.7281309E-009  0.1488758E+03  0.7561462E-02  0.1201861E+00
          1   -1    0    0  501    0  0.00000000000E+00  0.00000000000E+00  0.19900880439E+03  0.19900880439E+03  0.00000000000E+00 0. -1.
         -1   -1    0    0    0  501 -0.00000000000E+00 -0.00000000000E+00 -0.11590675398E+03  0.11590675398E+03  0.00000000000E+00 0.  1.
         25    2    1    2    0    0 -0.75597122014E+02  0.74726901916E+02  0.42364576386E+02  0.16953294332E+03  0.12509047450E+03 0.  0.
         23    2    1    2    0    0  0.75597122014E+02 -0.74726901916E+02  0.40737474028E+02  0.14538261505E+03  0.90429686727E+02 0.  0.
          5    1    3    3  502    0 -0.75076852511E+02 -0.12131591231E+02  0.29250719213E+02  0.81589130791E+02  0.41800000000E+01 0. -1.
         -5    1    3    3    0  502 -0.52026950318E+00  0.86858493148E+02  0.13113857172E+02  0.87943812529E+02  0.41800000000E+01 0. -1.
        -11    1    4    4    0    0  0.93122595800E+02 -0.54644609090E+02  0.16249788121E+02  0.10918748447E+03  0.00000000000E+00 0. -1.
         11    1    4    4    0    0 -0.17525473785E+02 -0.20082292826E+02  0.24487685906E+02  0.36195130578E+02  0.00000000000E+00 0.  1.
</event>
<event>
 8    1  0.7281309E-009  0.1029833E+03  0.7561462E-02  0.1274145E+00
          2   -1    0    0  501    0  0.00000000000E+00  0.00000000000E+00  0.26077618621E+03  0.26077618621E+03  0.00000000000E+00 0. -1.
         -2   -1    0    0    0  501 -0.00000000000E+00 -0.00000000000E+00 -0.64468384711E+02  0.64468384711E+02  0.00000000000E+00 0.  1.
         25    2    1    2    0    0 -0.65714711399E+01 -0.17221356442E+02  0.42043491237E+02  0.13325475381E+03  0.12509762151E+03 0.  0.
         23    2    1    2    0    0  0.65714711399E+01  0.17221356442E+02  0.15426431026E+03  0.19198981711E+03  0.11279562537E+03 0.  0.
          5    1    3    3  502    0 -0.52380280464E+02  0.27294401109E+02  0.53072555496E+01  0.59450125944E+02  0.41800000000E+01 0.  1.
         -5    1    3    3    0  502  0.45808809324E+02 -0.44515757551E+02  0.36736235687E+02  0.73804627866E+02  0.41800000000E+01 0.  1.
        -11    1    4    4    0    0 -0.25694082442E+01 -0.32290742135E+02  0.13375920547E+03  0.13762564781E+03  0.00000000000E+00 0. -1.
         11    1    4    4    0    0  0.91408793841E+01  0.49512098577E+02  0.20505104789E+02  0.54364169301E+02  0.00000000000E+00 0.  1.
</event>
<event>
 8    1  0.7281309E-009  0.1175974E+03  0.7561462E-02  0.1247114E+00
         -1   -1    0    0    0  501 -0.00000000000E+00  0.00000000000E+00  0.31437087086E+02  0.31437087086E+02  0.00000000000E+00 0.  1.
          1   -1    0    0  501    0  0.00000000000E+00 -0.00000000000E+00 -0.48248317877E+03  0.48248317877E+03  0.00000000000E+00 0. -1.
         25    2    1    2    0    0  0.53875344343E+02 -0.13849098727E+02 -0.20609085329E+03  0.24741535634E+03  0.12508624418E+03 0.  0.
         23    2    1    2    0    0 -0.53875344343E+02  0.13849098727E+02 -0.24495523840E+03  0.26650490952E+03  0.89036215736E+02 0.  0.
          5    1    3    3  502    0 -0.28965419629E+02  0.30076887718E+02 -0.49985881564E+02  0.65266189293E+02  0.41800000000E+01 0.  1.
         -5    1    3    3    0  502  0.82840763972E+02 -0.43925986445E+02 -0.15610497172E+03  0.18214916705E+03  0.41800000000E+01 0.  1.
        -11    1    4    4    0    0  0.15820404272E+02  0.24197718369E+02 -0.11607978391E+03  0.11962579571E+03  0.00000000000E+00 0. -1.
         11    1    4    4    0    0 -0.69695748615E+02 -0.10348619642E+02 -0.12887545449E+03  0.14687911381E+03  0.00000000000E+00 0.  1.
</event>
<event>
 8    1  0.7281309E-009  0.9738093E+02  0.7561462E-02  0.1285902E+00
         -1   -1    0    0    0  501 -0.00000000000E+00  0.00000000000E+00  0.35437356203E+02  0.35437356203E+02  0.00000000000E+00 0.  1.
          1   -1    0    0  501    0  0.00000000000E+00 -0.00000000000E+00 -0.34729311019E+03  0.34729311019E+03  0.00000000000E+00 0. -1.
         25    2    1    2    0    0  0.12572372728E+02 -0.21140275397E+02 -0.17197835771E+03  0.21407998458E+03  0.12509479796E+03 0.  0.
         23    2    1    2    0    0 -0.12572372728E+02  0.21140275397E+02 -0.13987739627E+03  0.16865048181E+03  0.90952312929E+02 0.  0.
          5    1    3    3  502    0  0.45337561984E+02 -0.57711165027E+02 -0.73452455793E+02  0.10391731693E+03  0.41800000000E+01 0.  1.
         -5    1    3    3    0  502 -0.32765189256E+02  0.36570889630E+02 -0.98525901921E+02  0.11016266765E+03  0.41800000000E+01 0.  1.
        -11    1    4    4    0    0 -0.40663381674E+02  0.11227479845E+02 -0.13091333312E+03  0.13754223970E+03  0.00000000000E+00 0. -1.
         11    1    4    4    0    0  0.28091008946E+02  0.99127955525E+01 -0.89640631574E+01  0.31108242116E+02  0.00000000000E+00 0.  1.
</event>
<event>
 8    1  0.7281309E-009  0.1237992E+03  0.7561462E-02  0.1236958E+00
         -2   -1    0    0    0  501 -0.00000000000E+00  0.00000000000E+00  0.10855507344E+03  0.10855507344E+03  0.00000000000E+00 0.  1.
          2   -1    0    0  501    0  0.00000000000E+00 -0.00000000000E+00 -0.24822444316E+03  0.24822444316E+03  0.00000000000E+00 0. -1.
         25    2    1    2    0    0  0.42290501732E+02 -0.52896542783E+02 -0.18592570841E+03  0.23409953444E+03  0.12509073588E+03 0.  0.
         23    2    1    2    0    0 -0.42290501732E+02  0.52896542783E+02  0.46256338689E+02  0.12267998216E+03  0.91237044985E+02 0.  0.
          5    1    3    3  502    0  0.79597189438E+02 -0.12155660034E+02 -0.14241955156E+03  0.16365901657E+03  0.41800000000E+01 0.  1.
         -5    1    3    3    0  502 -0.37306687706E+02 -0.40740882749E+02 -0.43506156846E+02  0.70440517873E+02  0.41800000000E+01 0.  1.
        -11    1    4    4    0    0 -0.30515049510E+02  0.78046823550E+02  0.24224147302E+02  0.87231211303E+02  0.00000000000E+00 0. -1.
         11    1    4    4    0    0 -0.11775452223E+02 -0.25150280766E+02  0.22032191387E+02  0.35448770853E+02  0.00000000000E+00 0.  1.
</event>
<event>
 8    1  0.7281309E-009  0.1346754E+03  0.7561462E-02  0.1220679E+00
         -2   -1    0    0    0  501 -0.00000000000E+00  0.00000000000E+00  0.27556597502E+02  0.27556597502E+02  0.00000000000E+00 0.  1.
          2   -1    0    0  501    0  0.00000000000E+00 -0.00000000000E+00 -0.80555917238E+03  0.80555917238E+03  0.00000000000E+00 0. -1.
         25    2    1    2    0    0 -0.93121025249E+02 -0.37937058304E+02 -0.37122828173E+03  0.40443607453E+03  0.12508938999E+03 0.  0.
         23    2    1    2    0    0  0.93121025249E+02  0.37937058304E+02 -0.40677429314E+03  0.42867969535E+03  0.90499778480E+02 0.  0.
          5    1    3    3  502    0 -0.60950050932E+02 -0.72994686044E+02 -0.14664440835E+03  0.17482902448E+03  0.41800000000E+01 0.  1.
         -5    1    3    3    0  502 -0.32170974317E+02  0.35057627740E+02 -0.22458387338E+03  0.22960705005E+03  0.41800000000E+01 0.  1.
        -11    1    4    4    0    0 -0.11093320725E+02 -0.67739971709E+01 -0.11154539933E+02  0.17128122008E+02  0.00000000000E+00 0.  1.
         11    1    4    4    0    0  0.10421434597E+03  0.44711055475E+02 -0.39561975321E+03  0.41155157334E+03  0.00000000000E+00 0. -1.
</event>
<event>
 8    1  0.7281309E-009  0.1189035E+03  0.7561462E-02  0.1244917E+00
          2   -1    0    0  501    0  0.00000000000E+00  0.00000000000E+00  0.11974106421E+03  0.11974106421E+03  0.00000000000E+00 0. -1.
         -2   -1    0    0    0  501 -0.00000000000E+00 -0.00000000000E+00 -0.14941601538E+03  0.14941601538E+03  0.00000000000E+00 0.  1.
         25    2    1    2    0    0 -0.64698713889E+02  0.43951428576E+02 -0.31007811108E+02  0.15075364479E+03  0.12509006921E+03 0.  0.
         23    2    1    2    0    0  0.64698713889E+02 -0.43951428576E+02  0.13328599404E+01  0.11840343481E+03  0.88881635929E+02 0.  0.
          5    1    3    3  502    0 -0.10015155172E+03  0.23193271125E+02 -0.73200656912E+01  0.10314706442E+03  0.41800000000E+01 0.  1.
         -5    1    3    3    0  502  0.35452837832E+02  0.20758157451E+02 -0.23687745417E+02  0.47606580365E+02  0.41800000000E+01 0.  1.
        -11    1    4    4    0    0  0.51405864848E+02 -0.40471179836E+01 -0.35411754181E+02  0.62553452654E+02  0.00000000000E+00 0.  1.
         11    1    4    4    0    0  0.13292849041E+02 -0.39904310592E+02  0.36744614121E+02  0.55849982152E+02  0.00000000000E+00 0. -1.
</event>
<event>
 8    1  0.7281309E-009  0.1562119E+03  0.7561462E-02  0.1193041E+00
          2   -1    0    0  501    0  0.00000000000E+00  0.00000000000E+00  0.43069195443E+03  0.43069195443E+03  0.00000000000E+00 0. -1.
         -2   -1    0    0    0  501 -0.00000000000E+00 -0.00000000000E+00 -0.78594735886E+02  0.78594735886E+02  0.00000000000E+00 0.  1.
         25    2    1    2    0    0  0.53607713025E+02  0.13712785406E+03  0.17590479680E+03  0.26128091876E+03  0.12508951082E+03 0.  0.
         23    2    1    2    0    0 -0.53607713025E+02 -0.13712785406E+03  0.17619242175E+03  0.24800577156E+03  0.93729707077E+02 0.  0.
          5    1    3    3  502    0  0.57546391018E+02  0.53864612368E+02  0.15469215894E+02  0.80434772488E+02  0.41800000000E+01 0. -1.
         -5    1    3    3    0  502 -0.39386779930E+01  0.83263241695E+02  0.16043558091E+03  0.18084614628E+03  0.41800000000E+01 0. -1.
        -11    1    4    4    0    0 -0.53087365129E+02 -0.10280638696E+03  0.17945922624E+03  0.21352525710E+03  0.00000000000E+00 0. -1.
         11    1    4    4    0    0 -0.52034789679E+00 -0.34321467098E+02 -0.32668044919E+01  0.34480514458E+02  0.00000000000E+00 0.  1.
</event>
<event>
 8    1  0.7281309E-009  0.1071470E+03  0.7561462E-02  0.1265946E+00
          1   -1    0    0  501    0  0.00000000000E+00  0.00000000000E+00  0.64023600483E+03  0.64023600483E+03  0.00000000000E+00 0. -1.
         -1   -1    0    0    0  501 -0.00000000000E+00 -0.00000000000E+00 -0.18685428632E+02  0.18685428632E+02  0.00000000000E+00 0.  1.
         25    2    1    2    0    0 -0.39872185333E+01 -0.11808296498E+01  0.32455181649E+03  0.34784840942E+03  0.12508933642E+03 0.  0.
         23    2    1    2    0    0  0.39872185333E+01  0.11808296498E+01  0.29699875971E+03  0.31107302404E+03  0.92416831485E+02 0.  0.
          5    1    3    3  502    0  0.56709275866E+02  0.16228822201E+02  0.12082431466E+03  0.13451878699E+03  0.41800000000E+01 0. -1.
         -5    1    3    3    0  502 -0.60696494399E+02 -0.17409651850E+02  0.20372750182E+03  0.21332962244E+03  0.41800000000E+01 0. -1.
        -11    1    4    4    0    0 -0.35485839310E+02 -0.25965931737E+02  0.12408942135E+03  0.13164975843E+03  0.00000000000E+00 0.  1.
         11    1    4    4    0    0  0.39473057844E+02  0.27146761387E+02  0.17290933836E+03  0.17942326561E+03  0.00000000000E+00 0. -1.
</event>
<event>
 8    1  0.7281309E-009  0.7177539E+02  0.7561462E-02  0.1354158E+00
          1   -1    0    0  501    0  0.00000000000E+00  0.00000000000E+00  0.14893614493E+02  0.14893614493E+02  0.00000000000E+00 0. -1.
         -1   -1    0    0    0  501 -0.00000000000E+00 -0.00000000000E+00 -0.10383672978E+04  0.10383672978E+04  0.00000000000E+00 0.  1.
         25    2    1    2    0    0 -0.26550582123E+02 -0.14323097414E+02 -0.79650218459E+03  0.80682934974E+03  0.12509110687E+03 0.  0.
         23    2    1    2    0    0  0.26550582123E+02  0.14323097414E+02 -0.22697149869E+03  0.24643156253E+03  0.91117337864E+02 0.  0.
          5    1    3    3  502    0 -0.42905929718E+02 -0.45127573888E+01 -0.78017361902E+03  0.78137675420E+03  0.41800000000E+01 0. -1.
         -5    1    3    3    0  502  0.16355347595E+02 -0.98103400256E+01 -0.16328565567E+02  0.25452595542E+02  0.41800000000E+01 0. -1.
        -11    1    4    4    0    0 -0.17235352381E+02  0.29645856070E+02 -0.16767140861E+03  0.17114214974E+03  0.00000000000E+00 0.  1.
         11    1    4    4    0    0  0.43785934504E+02 -0.15322758656E+02 -0.59300090086E+02  0.75289412784E+02  0.00000000000E+00 0. -1.
</event>
<event>
 8    1  0.7281309E-009  0.1450335E+03  0.7561462E-02  0.1206712E+00
          1   -1    0    0  501    0  0.00000000000E+00  0.00000000000E+00  0.35212961371E+03  0.35212961371E+03  0.00000000000E+00 0. -1.
         -1   -1    0    0    0  501 -0.00000000000E+00 -0.00000000000E+00 -0.77134864498E+02  0.77134864498E+02  0.00000000000E+00 0.  1.
         25    2    1    2    0    0  0.66219847435E+02 -0.95443399042E+02  0.20051394587E+03  0.26333914147E+03  0.12508856992E+03 0.  0.
         23    2    1    2    0    0 -0.66219847435E+02  0.95443399042E+02  0.74480803336E+02  0.16592533674E+03  0.92137487974E+02 0.  0.
          5    1    3    3  502    0  0.48985367195E+02 -0.12466365084E+03  0.13973149323E+03  0.19360515138E+03  0.41800000000E+01 0.  1.
         -5    1    3    3    0  502  0.17234480241E+02  0.29220251802E+02  0.60782452639E+02  0.69733990087E+02  0.41800000000E+01 0.  1.
        -11    1    4    4    0    0 -0.63874587374E+02  0.64253530268E+02  0.92787212873E+02  0.12968402344E+03  0.00000000000E+00 0. -1.
         11    1    4    4    0    0 -0.23452600616E+01  0.31189868774E+02 -0.18306409537E+02  0.36241313291E+02  0.00000000000E+00 0.  1.
</event>
<event>
 8    1  0.7281309E-009  0.1278810E+03  0.7561462E-02  0.1230634E+00
          2   -1    0    0  501    0  0.00000000000E+00  0.00000000000E+00  0.28049621732E+03  0.28049621732E+03  0.00000000000E+00 0.  1.
         -2   -1    0    0    0  501 -0.00000000000E+00 -0.00000000000E+00 -0.85937886348E+02  0.85937886348E+02  0.00000000000E+00 0. -1.
         25    2    1    2    0    0 -0.50830272845E+02  0.57200908748E+02  0.20137551787E+03  0.24910858474E+03  0.12508927689E+03 0.  0.
         23    2    1    2    0    0  0.50830272845E+02 -0.57200908748E+02 -0.68171869009E+01  0.11732551893E+03  0.88674363579E+02 0.  0.
          5    1    3    3  502    0 -0.71170379459E+02 -0.11889115094E+02  0.79195648274E+02  0.10721938759E+03  0.41800000000E+01 0.  1.
         -5    1    3    3    0  502  0.20340106613E+02  0.69090023842E+02  0.12217986960E+03  0.14188919715E+03  0.41800000000E+01 0.  1.
        -11    1    4    4    0    0  0.16174289097E+02 -0.71900051910E+02  0.12919869219E+02  0.74820773272E+02  0.00000000000E+00 0. -1.
         11    1    4    4    0    0  0.34655983748E+02  0.14699143162E+02 -0.19737056120E+02  0.42504745659E+02  0.00000000000E+00 0.  1.
</event>
<event>
 8    1  0.7281309E-009  0.1330285E+03  0.7561462E-02  0.1223030E+00
          3   -1    0    0  501    0  0.00000000000E+00  0.00000000000E+00  0.12982949543E+03  0.12982949543E+03  0.00000000000E+00 0. -1.
         -3   -1    0    0    0  501 -0.00000000000E+00 -0.00000000000E+00 -0.28060905405E+03  0.28060905405E+03  0.00000000000E+00 0.  1.
         25    2    1    2    0    0  0.11386101084E+03 -0.69478121449E+01 -0.19463214688E+03  0.25794955263E+03  0.12507476652E+03 0.  0.
         23    2    1    2    0    0 -0.11386101084E+03  0.69478121449E+01  0.43852588260E+02  0.15248899685E+03  0.91198918748E+02 0.  0.
          5    1    3    3  502    0  0.11264324739E+03 -0.24023088764E+02 -0.20665253868E+03  0.23661858363E+03  0.41800000000E+01 0.  1.
         -5    1    3    3    0  502  0.12177634490E+01  0.17075276619E+02  0.12020391799E+02  0.21330968999E+02  0.41800000000E+01 0.  1.
        -11    1    4    4    0    0 -0.99894805806E+02  0.31664868658E+02  0.57208273108E+01  0.10494934016E+03  0.00000000000E+00 0.  1.
         11    1    4    4    0    0 -0.13966205034E+02 -0.24717056513E+02  0.38131760949E+02  0.47539656696E+02  0.00000000000E+00 0. -1.
</event>
<event>
 8    1  0.7281309E-009  0.1586044E+03  0.7561462E-02  0.1190281E+00
         -2   -1    0    0    0  501 -0.00000000000E+00  0.00000000000E+00  0.39655341403E+03  0.39655341403E+03  0.00000000000E+00 0.  1.
          2   -1    0    0  501    0  0.00000000000E+00 -0.00000000000E+00 -0.85931021671E+02  0.85931021671E+02  0.00000000000E+00 0. -1.
         25    2    1    2    0    0  0.11985587316E+03 -0.52259260599E+02  0.63551463304E+02  0.19175231667E+03  0.12503480240E+03 0.  0.
         23    2    1    2    0    0 -0.11985587316E+03  0.52259260599E+02  0.24707092905E+03  0.29073211903E+03  0.79904070000E+02 0.  0.
          5    1    3    3  502    0  0.14071145289E+03 -0.59231083691E+02  0.37228167469E+02  0.15719873760E+03  0.41800000000E+01 0. -1.
         -5    1    3    3    0  502 -0.20855579728E+02  0.69718230921E+01  0.26323295836E+02  0.34553579072E+02  0.41800000000E+01 0. -1.
        -11    1    4    4    0    0 -0.25556475440E+02  0.39347918822E+02  0.13909456763E+03  0.14679472367E+03  0.00000000000E+00 0.  1.
         11    1    4    4    0    0 -0.94299397721E+02  0.12911341777E+02  0.10797636142E+03  0.14393739536E+03  0.00000000000E+00 0. -1.
</event>
<event>
 8    1  0.7281309E-009  0.1133641E+03  0.7561462E-02  0.1254464E+00
         -2   -1    0    0    0  501 -0.00000000000E+00  0.00000000000E+00  0.88133347260E+02  0.88133347260E+02  0.00000000000E+00 0.  1.
          2   -1    0    0  501    0  0.00000000000E+00 -0.00000000000E+00 -0.16760025876E+03  0.16760025876E+03  0.00000000000E+00 0. -1.
         25    2    1    2    0    0 -0.53367667816E+02 -0.56875472231E+01 -0.50061458654E+02  0.14503936250E+03  0.12509920412E+03 0.  0.
         23    2    1    2    0    0  0.53367667816E+02  0.56875472231E+01 -0.29405452848E+02  0.11069424352E+03  0.92239247230E+02 0.  0.
          5    1    3    3  502    0 -0.11781546765E+01  0.54133988757E+02 -0.73746289324E+01  0.54806334844E+02  0.41800000000E+01 0. -1.
         -5    1    3    3    0  502 -0.52189513140E+02 -0.59821535980E+02 -0.42686829721E+02  0.90233027658E+02  0.41800000000E+01 0. -1.
        -11    1    4    4    0    0  0.35733363494E+02  0.40432062533E+02  0.10444744219E+02  0.54961055567E+02  0.00000000000E+00 0.  1.
         11    1    4    4    0    0  0.17634304323E+02 -0.34744515310E+02 -0.39850197067E+02  0.55733187952E+02  0.00000000000E+00 0. -1.
</event>
<event>
 8    1  0.7281309E-009  0.1231190E+03  0.7561462E-02  0.1238039E+00
         -2   -1    0    0    0  501 -0.00000000000E+00  0.00000000000E+00  0.76800306048E+02  0.76800306048E+02  0.00000000000E+00 0.  1.
          2   -1    0    0  501    0  0.00000000000E+00 -0.00000000000E+00 -0.34580917453E+03  0.34580917453E+03  0.00000000000E+00 0. -1.
         25    2    1    2    0    0  0.89999230615E+02  0.55343511846E+02 -0.66498260992E+02  0.17672623850E+03  0.12508948335E+03 0.  0.
         23    2    1    2    0    0 -0.89999230615E+02 -0.55343511846E+02 -0.20251060749E+03  0.24588324208E+03  0.91023385870E+02 0.  0.
          5    1    3    3  502    0  0.49667113976E+02  0.38097631021E+02  0.30820210609E+02  0.69897135006E+02  0.41800000000E+01 0.  1.
         -5    1    3    3    0  502  0.40332116639E+02  0.17245880826E+02 -0.97318471602E+02  0.10682910349E+03  0.41800000000E+01 0.  1.
        -11    1    4    4    0    0 -0.37884707396E+02 -0.74771424543E+02 -0.12359813809E+03  0.14934027160E+03  0.00000000000E+00 0. -1.
         11    1    4    4    0    0 -0.52114523219E+02  0.19427912696E+02 -0.78912469398E+02  0.96542970477E+02  0.00000000000E+00 0.  1.
</event>
<event>
 8    1  0.7281309E-009  0.1053467E+03  0.7561462E-02  0.1269438E+00
         -1   -1    0    0    0  501 -0.00000000000E+00  0.00000000000E+00  0.33446269226E+02  0.33446269226E+02  0.00000000000E+00 0. -1.
          1   -1    0    0  501    0  0.00000000000E+00 -0.00000000000E+00 -0.44741474045E+03  0.44741474045E+03  0.00000000000E+00 0.  1.
         25    2    1    2    0    0  0.37499782558E+02 -0.29382619449E+01 -0.31031328887E+03  0.33668674146E+03  0.12509499412E+03 0.  0.
         23    2    1    2    0    0 -0.37499782558E+02  0.29382619449E+01 -0.10365518236E+03  0.14417426822E+03  0.92881406702E+02 0.  0.
          5    1    3    3  502    0  0.68791614893E+02  0.23391432991E+02 -0.26794339227E+03  0.27765190307E+03  0.41800000000E+01 0. -1.
         -5    1    3    3    0  502 -0.31291832335E+02 -0.26329694935E+02 -0.42369896599E+02  0.59034838393E+02  0.41800000000E+01 0. -1.
        -11    1    4    4    0    0 -0.48032791409E+02  0.37332107594E+02 -0.82296569085E+02  0.10234041524E+03  0.00000000000E+00 0. -1.
         11    1    4    4    0    0  0.10533008851E+02 -0.34393845649E+02 -0.21358613272E+02  0.41833852977E+02  0.00000000000E+00 0.  1.
</event>
<event>
 8    1  0.7281309E-009  0.1608234E+03  0.7561462E-02  0.1187770E+00
          2   -1    0    0  501    0  0.00000000000E+00  0.00000000000E+00  0.27489884249E+03  0.27489884249E+03  0.00000000000E+00 0. -1.
         -2   -1    0    0    0  501 -0.00000000000E+00 -0.00000000000E+00 -0.12910240769E+03  0.12910240769E+03  0.00000000000E+00 0.  1.
         25    2    1    2    0    0  0.48289395061E+02  0.11517440997E+03  0.17217090592E+03  0.24675101726E+03  0.12508490432E+03 0.  0.
         23    2    1    2    0    0 -0.48289395061E+02 -0.11517440997E+03 -0.26374471114E+02  0.15725023292E+03  0.91842324882E+02 0.  0.
          5    1    3    3  502    0  0.82327136893E+02  0.10064437914E+03  0.16270835479E+03  0.20832313756E+03  0.41800000000E+01 0. -1.
         -5    1    3    3    0  502 -0.34037741832E+02  0.14530030822E+02  0.94625511208E+01  0.38427879703E+02  0.41800000000E+01 0. -1.
        -11    1    4    4    0    0 -0.74759157895E+02 -0.95736090512E+02 -0.26879225615E+02  0.12440588204E+03  0.00000000000E+00 0.  1.
         11    1    4    4    0    0  0.26469762834E+02 -0.19438319454E+02  0.50475450122E+00  0.32844350881E+02  0.00000000000E+00 0. -1.
</event>
<event>
 8    1  0.7281309E-009  0.1086569E+03  0.7561462E-02  0.1263078E+00
          2   -1    0    0  501    0  0.00000000000E+00  0.00000000000E+00  0.42801307667E+03  0.42801307667E+03  0.00000000000E+00 0.  1.
         -2   -1    0    0    0  501 -0.00000000000E+00 -0.00000000000E+00 -0.42369742203E+02  0.42369742203E+02  0.00000000000E+00 0. -1.
         25    2    1    2    0    0  0.18092743722E+02 -0.12534168706E+02  0.34448268079E+03  0.36715217562E+03  0.12509176608E+03 0.  0.
         23    2    1    2    0    0 -0.18092743722E+02  0.12534168706E+02  0.41160653679E+02  0.10323064325E+03  0.92075585983E+02 0.  0.
          5    1    3    3  502    0 -0.26418721375E+02  0.43464302940E+02  0.98375093618E+02  0.11082520432E+03  0.41800000000E+01 0.  1.
         -5    1    3    3    0  502  0.44511465097E+02 -0.55998471646E+02  0.24610758717E+03  0.25632697130E+03  0.41800000000E+01 0.  1.
        -11    1    4    4    0    0 -0.34050112524E+01 -0.39963989724E+02  0.15844718450E+02  0.43125047004E+02  0.00000000000E+00 0.  1.
         11    1    4    4    0    0 -0.14687732470E+02  0.52498158431E+02  0.25315935229E+02  0.60105596247E+02  0.00000000000E+00 0. -1.
</event>
<event>
 8    1  0.7281309E-009  0.1183130E+03  0.7561462E-02  0.1245906E+00
          1   -1    0    0  501    0  0.00000000000E+00  0.00000000000E+00  0.98575146885E+02  0.98575146885E+02  0.00000000000E+00 0. -1.
         -1   -1    0    0    0  501 -0.00000000000E+00 -0.00000000000E+00 -0.19718670855E+03  0.19718670855E+03  0.00000000000E+00 0.  1.
         25    2    1    2    0    0 -0.30279947771E+02 -0.51248646223E+02  0.13672324281E+02  0.13920239182E+03  0.12508826668E+03 0.  0.
         23    2    1    2    0    0  0.30279947771E+02  0.51248646223E+02 -0.11228388594E+03  0.15655946361E+03  0.91432464846E+02 0.  0.
          5    1    3    3  502    0 -0.32339158202E+02 -0.89169186822E+02  0.27049510346E+02  0.98722405975E+02  0.41800000000E+01 0. -1.
         -5    1    3    3    0  502  0.20592104312E+01  0.37920540598E+02 -0.13377186064E+02  0.40479985843E+02  0.41800000000E+01 0. -1.
        -11    1    4    4    0    0 -0.21444616247E+01  0.67273523370E+02 -0.95119940234E+02  0.11652522771E+03  0.00000000000E+00 0.  1.
         11    1    4    4    0    0  0.32424409396E+02 -0.16024877147E+02 -0.17163945710E+02  0.40034235906E+02  0.00000000000E+00 0. -1.
</event>
<event>
 8    1  0.7281309E-009  0.7840310E+02  0.7561462E-02  0.1333645E+00
          2   -1    0    0  501    0  0.00000000000E+00  0.00000000000E+00  0.20732338573E+03  0.20732338573E+03  0.00000000000E+00 0. -1.
         -2   -1    0    0    0  501 -0.00000000000E+00 -0.00000000000E+00 -0.74338434713E+02  0.74338434713E+02  0.00000000000E+00 0.  1.
         25    2    1    2    0    0  0.14499893772E+02 -0.18637583700E+02  0.13796688513E+03  0.18772224152E+03  0.12508865705E+03 0.  0.
         23    2    1    2    0    0 -0.14499893772E+02  0.18637583700E+02 -0.49819341198E+01  0.93939578919E+02  0.90786664078E+02 0.  0.
          5    1    3    3  502    0  0.11982348287E+01  0.38222935877E+02  0.68230776707E+00  0.38475531674E+02  0.41800000000E+01 0. -1.
         -5    1    3    3    0  502  0.13301658943E+02 -0.56860519576E+02  0.13728457737E+03  0.14924670985E+03  0.41800000000E+01 0. -1.
        -11    1    4    4    0    0 -0.35457697227E+02  0.82684754502E+01  0.33130177028E+02  0.49226259342E+02  0.00000000000E+00 0. -1.
         11    1    4    4    0    0  0.20957803455E+02  0.10369108249E+02 -0.38112111147E+02  0.44713319578E+02  0.00000000000E+00 0.  1.
</event>
<event>
 8    1  0.7281309E-009  0.1135851E+03  0.7561462E-02  0.1254071E+00
         -1   -1    0    0    0  501 -0.00000000000E+00  0.00000000000E+00  0.14888513733E+03  0.14888513733E+03  0.00000000000E+00 0.  1.
          1   -1    0    0  501    0  0.00000000000E+00 -0.00000000000E+00 -0.16318251737E+03  0.16318251737E+03  0.00000000000E+00 0. -1.
         25    2    1    2    0    0  0.66505490319E+02 -0.55660282547E+02  0.62542779040E+02  0.16456109246E+03  0.12509079361E+03 0.  0.
         23    2    1    2    0    0 -0.66505490319E+02  0.55660282547E+02 -0.76840159081E+02  0.14750656224E+03  0.91283780374E+02 0.  0.
          5    1    3    3  502    0  0.78807991082E+01 -0.41150301682E+02  0.89027850114E+02  0.98482916382E+02  0.41800000000E+01 0. -1.
         -5    1    3    3    0  502  0.58624691211E+02 -0.14509980865E+02 -0.26485071074E+02  0.66078176081E+02  0.41800000000E+01 0. -1.
        -11    1    4    4    0    0 -0.72172306967E+02  0.75170930628E+02 -0.55599211464E+02  0.11811343285E+03  0.00000000000E+00 0.  1.
         11    1    4    4    0    0  0.56668166473E+01 -0.19510648081E+02 -0.21240947617E+02  0.29393129386E+02  0.00000000000E+00 0. -1.
</event>
<event>
 8    1  0.7281309E-009  0.9844542E+02  0.7561462E-02  0.1283599E+00
         -2   -1    0    0    0  501 -0.00000000000E+00  0.00000000000E+00  0.81379035955E+02  0.81379035955E+02  0.00000000000E+00 0.  1.
          2   -1    0    0  501    0  0.00000000000E+00 -0.00000000000E+00 -0.17721457000E+03  0.17721457000E+03  0.00000000000E+00 0. -1.
         25    2    1    2    0    0  0.38536310172E+02 -0.27743599991E+02 -0.29760564593E+02  0.13706997639E+03  0.12509089767E+03 0.  0.
         23    2    1    2    0    0 -0.38536310172E+02  0.27743599991E+02 -0.66074969448E+02  0.12152362957E+03  0.90262596977E+02 0.  0.
          5    1    3    3  502    0  0.77148133150E+02 -0.35424265031E+02  0.39291686838E+01  0.85085978681E+02  0.41800000000E+01 0.  1.
         -5    1    3    3    0  502 -0.38611822978E+02  0.76806650402E+01 -0.33689733277E+02  0.51983997705E+02  0.41800000000E+01 0.  1.
        -11    1    4    4    0    0  0.90319038502E+01  0.22748919868E+02 -0.69388881890E+02  0.73579246886E+02  0.00000000000E+00 0.  1.
         11    1    4    4    0    0 -0.47568214023E+02  0.49946801228E+01  0.33139124423E+01  0.47944382679E+02  0.00000000000E+00 0. -1.
</event>
<event>
 8    1  0.7281309E-009  0.1404016E+03  0.7561462E-02  0.1212790E+00
          1   -1    0    0  501    0  0.00000000000E+00  0.00000000000E+00  0.51805016183E+02  0.51805016183E+02  0.00000000000E+00 0. -1.
         -1   -1    0    0    0  501 -0.00000000000E+00 -0.00000000000E+00 -0.39924092371E+03  0.39924092371E+03  0.00000000000E+00 0.  1.
         25    2    1    2    0    0  0.54101572918E+02  0.74171616791E+02 -0.22329377570E+03  0.27188599129E+03  0.12503388765E+03 0.  0.
         23    2    1    2    0    0 -0.54101572918E+02 -0.74171616791E+02 -0.12414213183E+03  0.17915994861E+03  0.90876891238E+02 0.  0.
          5    1    3    3  502    0  0.66732952058E+02 -0.10696463734E+02 -0.11741224279E+03  0.13553895523E+03  0.41800000000E+01 0. -1.
         -5    1    3    3    0  502 -0.12631379140E+02  0.84868080525E+02 -0.10588153291E+03  0.13634703606E+03  0.41800000000E+01 0. -1.
        -11    1    4    4    0    0  0.41339131308E+01  0.17828825246E+02 -0.80406500364E+01  0.19990205113E+02  0.00000000000E+00 0. -1.
         11    1    4    4    0    0 -0.58235486049E+02 -0.92000442038E+02 -0.11610148179E+03  0.15916974350E+03  0.00000000000E+00 0.  1.
</event>
<event>
 8    1  0.7281309E-009  0.1460842E+03  0.7561462E-02  0.1205369E+00
          2   -1    0    0  501    0  0.00000000000E+00  0.00000000000E+00  0.40572930607E+03  0.40572930607E+03  0.00000000000E+00 0. -1.
         -2   -1    0    0    0  501 -0.00000000000E+00 -0.00000000000E+00 -0.90260740952E+02  0.90260740952E+02  0.00000000000E+00 0.  1.
         25    2    1    2    0    0  0.83425455915E+02 -0.10082498511E+03  0.52271194412E+02  0.18843351872E+03  0.12509767741E+03 0.  0.
         23    2    1    2    0    0 -0.83425455915E+02  0.10082498511E+03  0.26319737071E+03  0.30755652831E+03  0.90513412472E+02 0.  0.
          5    1    3    3  502    0  0.21610366464E+02 -0.75423346944E+02  0.83408394602E+02  0.11458674397E+03  0.41800000000E+01 0. -1.
         -5    1    3    3    0  502  0.61815089451E+02 -0.25401638170E+02 -0.31137200190E+02  0.73846774752E+02  0.41800000000E+01 0. -1.
        -11    1    4    4    0    0 -0.78944896544E+02  0.45473396312E+02  0.21689848275E+03  0.23525534698E+03  0.00000000000E+00 0. -1.
         11    1    4    4    0    0 -0.44805593718E+01  0.55351588802E+02  0.46298887960E+02  0.72301181328E+02  0.00000000000E+00 0.  1.
</event>
<event>
 8    1  0.7281309E-009  0.1544395E+03  0.7561462E-02  0.1195122E+00
         -1   -1    0    0    0  501 -0.00000000000E+00  0.00000000000E+00  0.28316762582E+02  0.28316762582E+02  0.00000000000E+00 0. -1.
          1   -1    0    0  501    0  0.00000000000E+00 -0.00000000000E+00 -0.10766162040E+04  0.10766162040E+04  0.00000000000E+00 0.  1.
         25    2    1    2    0    0  0.31603933310E+02  0.11120225286E+03 -0.32640586257E+03  0.36817665225E+03  0.12509400667E+03 0.  0.
         23    2    1    2    0    0 -0.31603933310E+02 -0.11120225286E+03 -0.72189357883E+03  0.73675631431E+03  0.91185403832E+02 0.  0.
          5    1    3    3  502    0  0.67566227561E+02  0.28836166580E+02 -0.96941828248E+02  0.12170419086E+03  0.41800000000E+01 0.  1.
         -5    1    3    3    0  502 -0.35962294251E+02  0.82366086285E+02 -0.22946403432E+03  0.24647246139E+03  0.41800000000E+01 0.  1.
        -11    1    4    4    0    0  0.28278036757E+02 -0.60804732983E+02 -0.39285621150E+03  0.39853841199E+03  0.00000000000E+00 0. -1.
         11    1    4    4    0    0 -0.59881970067E+02 -0.50397519882E+02 -0.32903736733E+03  0.33821790232E+03  0.00000000000E+00 0.  1.
</event>
<event>
 8    1  0.7281309E-009  0.1165291E+03  0.7561462E-02  0.1248935E+00
         -2   -1    0    0    0  501 -0.00000000000E+00  0.00000000000E+00  0.38312418737E+02  0.38312418737E+02  0.00000000000E+00 0.  1.
          2   -1    0    0  501    0  0.00000000000E+00 -0.00000000000E+00 -0.38197444723E+03  0.38197444723E+03  0.00000000000E+00 0. -1.
         25    2    1    2    0    0  0.54101751190E+02 -0.33607073805E+01 -0.19422243317E+03  0.23729313955E+03  0.12508951472E+03 0.  0.
         23    2    1    2    0    0 -0.54101751190E+02  0.33607073805E+01 -0.14943959532E+03  0.18299372642E+03  0.90643352893E+02 0.  0.
          5    1    3    3  502    0 -0.76058344030E+01  0.51941222035E+02 -0.63922256706E+02  0.82820689238E+02  0.41800000000E+01 0. -1.
         -5    1    3    3    0  502  0.61707585594E+02 -0.55301929416E+02 -0.13030017647E+03  0.15447245031E+03  0.41800000000E+01 0. -1.
        -11    1    4    4    0    0  0.61963197769E+01  0.30631057401E+02 -0.18594302224E+02  0.36364874968E+02  0.00000000000E+00 0.  1.
         11    1    4    4    0    0 -0.60298070967E+02 -0.27270350020E+02 -0.13084529310E+03  0.14662885145E+03  0.00000000000E+00 0. -1.
</event>
<event>
 8    1  0.7281309E-009  0.1028906E+03  0.7561462E-02  0.1274332E+00
         -2   -1    0    0    0  501 -0.00000000000E+00  0.00000000000E+00  0.96676366585E+02  0.96676366585E+02  0.00000000000E+00 0.  1.
          2   -1    0    0  501    0  0.00000000000E+00 -0.00000000000E+00 -0.14852219308E+03  0.14852219308E+03  0.00000000000E+00 0. -1.
         25    2    1    2    0    0  0.14740377745E+02 -0.48515583649E+02 -0.29769832069E+02  0.13822614000E+03  0.12509669174E+03 0.  0.
         23    2    1    2    0    0 -0.14740377745E+02  0.48515583649E+02 -0.22075994424E+02  0.10697241967E+03  0.91568053637E+02 0.  0.
          5    1    3    3  502    0 -0.36079632521E+02 -0.70594891387E+02 -0.18827510066E+02  0.81592439037E+02  0.41800000000E+01 0. -1.
         -5    1    3    3    0  502  0.50820010266E+02  0.22079307737E+02 -0.10942322003E+02  0.56633700959E+02  0.41800000000E+01 0. -1.
        -11    1    4    4    0    0 -0.32976086093E+02  0.35277604478E+02 -0.51047351048E+02  0.70269222856E+02  0.00000000000E+00 0. -1.
         11    1    4    4    0    0  0.18235708349E+02  0.13237979172E+02  0.28971356624E+02  0.36703196811E+02  0.00000000000E+00 0.  1.
</event>
<event>
 8    1  0.7281309E-009  0.1091651E+03  0.7561462E-02  0.1262124E+00
          2   -1    0    0  501    0  0.00000000000E+00  0.00000000000E+00  0.20828999795E+03  0.20828999795E+03  0.00000000000E+00 0. -1.
         -2   -1    0    0    0  501 -0.00000000000E+00 -0.00000000000E+00 -0.10523457460E+03  0.10523457460E+03  0.00000000000E+00 0.  1.
         25    2    1    2    0    0  0.50920282348E+02  0.10125042531E+01  0.14822549862E+03  0.20053264102E+03  0.12509452967E+03 0.  0.
         23    2    1    2    0    0 -0.50920282348E+02 -0.10125042531E+01 -0.45170075267E+02  0.11299193153E+03  0.90182817495E+02 0.  0.
          5    1    3    3  502    0 -0.46058677786E+01 -0.45633902085E+02  0.10820334932E+03  0.11759721188E+03  0.41800000000E+01 0. -1.
         -5    1    3    3    0  502  0.55526150127E+02  0.46646406338E+02  0.40022149300E+02  0.82935429140E+02  0.41800000000E+01 0. -1.
        -11    1    4    4    0    0 -0.45097605686E+02  0.38743484433E+02 -0.41785195669E+02  0.72669486043E+02  0.00000000000E+00 0. -1.
         11    1    4    4    0    0 -0.58226766617E+01 -0.39755988686E+02 -0.33848795987E+01  0.40322445484E+02  0.00000000000E+00 0.  1.
</event>
<event>
 8    1  0.7281309E-009  0.1061634E+03  0.7561462E-02  0.1267844E+00
          2   -1    0    0  501    0  0.00000000000E+00  0.00000000000E+00  0.34836576302E+03  0.34836576302E+03  0.00000000000E+00 0. -1.
         -2   -1    0    0    0  501 -0.00000000000E+00 -0.00000000000E+00 -0.40821213907E+02  0.40821213907E+02  0.00000000000E+00 0.  1.
         25    2    1    2    0    0  0.44808694775E+02  0.14509127061E+02  0.19416780661E+03  0.23572781489E+03  0.12509249255E+03 0.  0.
         23    2    1    2    0    0 -0.44808694775E+02 -0.14509127061E+02  0.11337674250E+03  0.15345916204E+03  0.92071139767E+02 0.  0.
          5    1    3    3  502    0 -0.21355039878E+01 -0.41437177739E+02  0.18857801735E+02  0.45767774280E+02  0.41800000000E+01 0. -1.
         -5    1    3    3    0  502  0.46944198762E+02  0.55946304800E+02  0.17531000488E+03  0.18996004061E+03  0.41800000000E+01 0. -1.
        -11    1    4    4    0    0 -0.59411000631E+02  0.17797181492E+02  0.45631105520E+02  0.76997431490E+02  0.00000000000E+00 0. -1.
         11    1    4    4    0    0  0.14602305857E+02 -0.32306308553E+02  0.67745636979E+02  0.76461730548E+02  0.00000000000E+00 0.  1.
</event>
<event>
 8    1  0.7281309E-009  0.8886681E+02  0.7561462E-02  0.1305619E+00
          1   -1    0    0  501    0  0.00000000000E+00  0.00000000000E+00  0.11072285737E+04  0.11072285737E+04  0.00000000000E+00 0. -1.
         -1   -1    0    0    0  501 -0.00000000000E+00 -0.00000000000E+00 -0.13565774783E+02  0.13565774783E+02  0.00000000000E+00 0.  1.
         25    2    1    2    0    0  0.17321332800E+02 -0.81186717911E+01  0.81222385463E+03  0.82202269363E+03  0.12509107648E+03 0.  0.
         23    2    1    2    0    0 -0.17321332800E+02  0.81186717911E+01  0.28143894429E+03  0.29877165485E+03  0.98441256486E+02 0.  0.
          5    1    3    3  502    0 -0.28819702810E+02 -0.17539406571E+02  0.65435587819E+02  0.73739369445E+02  0.41800000000E+01 0.  1.
         -5    1    3    3    0  502  0.46141035610E+02  0.94207347803E+01  0.74678826681E+03  0.74828332419E+03  0.41800000000E+01 0.  1.
        -11    1    4    4    0    0 -0.45727244557E+02 -0.25572589828E+02  0.19266498741E+03  0.19966155269E+03  0.00000000000E+00 0.  1.
         11    1    4    4    0    0  0.28405911757E+02  0.33691261619E+02  0.88773956872E+02  0.99110102164E+02  0.00000000000E+00 0. -1.
</event>
<event>
 8    1  0.7281309E-009  0.1504968E+03  0.7561462E-02  0.1199864E+00
         -1   -1    0    0    0  501 -0.00000000000E+00  0.00000000000E+00  0.50431611856E+02  0.50431611856E+02  0.00000000000E+00 0.  1.
          1   -1    0    0  501    0  0.00000000000E+00 -0.00000000000E+00 -0.90347754436E+03  0.90347754436E+03  0.00000000000E+00 0. -1.
         25    2    1    2    0    0 -0.12662959522E+03 -0.34230034849E+01 -0.74028348702E+03  0.76138964201E+03  0.12509106468E+03 0.  0.
         23    2    1    2    0    0  0.12662959522E+03  0.34230034849E+01 -0.11276244549E+03  0.19251951421E+03  0.91113242193E+02 0.  0.
          5    1    3    3  502    0 -0.46880151376E+02  0.52914418269E+02 -0.43833442197E+03  0.44401826780E+03  0.41800000000E+01 0. -1.
         -5    1    3    3    0  502 -0.79749443839E+02 -0.56337421754E+02 -0.30194906505E+03  0.31737137421E+03  0.41800000000E+01 0. -1.
        -11    1    4    4    0    0  0.12014429664E+03  0.13035290781E+02 -0.53549932836E+02  0.13218232154E+03  0.00000000000E+00 0.  1.
         11    1    4    4    0    0  0.64852985707E+01 -0.96122872960E+01 -0.59212512651E+02  0.60337192668E+02  0.00000000000E+00 0. -1.
</event>
<event>
 8    1  0.7281309E-009  0.1387098E+03  0.7561462E-02  0.1215076E+00
          1   -1    0    0  501    0  0.00000000000E+00  0.00000000000E+00  0.61000585700E+03  0.61000585700E+03  0.00000000000E+00 0. -1.
         -1   -1    0    0    0  501 -0.00000000000E+00 -0.00000000000E+00 -0.45980664951E+02  0.45980664951E+02  0.00000000000E+00 0.  1.
         25    2    1    2    0    0  0.49878163105E+02 -0.10207883005E+03  0.41502666330E+03  0.44811359425E+03  0.12510293123E+03 0.  0.
         23    2    1    2    0    0 -0.49878163105E+02  0.10207883005E+03  0.14899852875E+03  0.20787292770E+03  0.90014853239E+02 0.  0.
          5    1    3    3  502    0  0.60458376602E+02 -0.11236514065E+03  0.23503546100E+03  0.26747014873E+03  0.41800000000E+01 0. -1.
         -5    1    3    3    0  502 -0.10580213498E+02  0.10286310602E+02  0.17999120231E+03  0.18064344553E+03  0.41800000000E+01 0. -1.
        -11    1    4    4    0    0 -0.31905513877E+01  0.84452300029E+02  0.12876686223E+03  0.15402361964E+03  0.00000000000E+00 0. -1.
         11    1    4    4    0    0 -0.46687611717E+02  0.17626530016E+02  0.20231666512E+02  0.53849308056E+02  0.00000000000E+00 0.  1.
</event>
<event>
 8    1  0.7281309E-009  0.1145110E+03  0.7561462E-02  0.1252437E+00
          2   -1    0    0  501    0  0.00000000000E+00  0.00000000000E+00  0.15761685395E+04  0.15761685395E+04  0.00000000000E+00 0. -1.
         -2   -1    0    0    0  501 -0.00000000000E+00 -0.00000000000E+00 -0.10937149819E+02  0.10937149819E+02  0.00000000000E+00 0.  1.
         25    2    1    2    0    0  0.21289630981E+02 -0.62809645051E+02  0.11109110922E+04  0.11198968541E+04  0.12508880449E+03 0.  0.
         23    2    1    2    0    0 -0.21289630981E+02  0.62809645051E+02  0.45432029743E+03  0.46720883523E+03  0.86480420694E+02 0.  0.
          5    1    3    3  502    0 -0.37929598314E+02 -0.67446511679E+02  0.76315637992E+03  0.76708071217E+03  0.41800000000E+01 0. -1.
         -5    1    3    3    0  502  0.59219229295E+02  0.46368666277E+01  0.34775471231E+03  0.35281614190E+03  0.41800000000E+01 0. -1.
        -11    1    4    4    0    0 -0.14137605811E+02 -0.10946178532E+02  0.20922051568E+02  0.27521318361E+02  0.00000000000E+00 0. -1.
         11    1    4    4    0    0 -0.71520251703E+01  0.73755823583E+02  0.43339824586E+03  0.43968751687E+03  0.00000000000E+00 0.  1.
</event>
<event>
 8    1  0.7281309E-009  0.1842572E+03  0.7561462E-02  0.1163745E+00
         -3   -1    0    0    0  501 -0.00000000000E+00  0.00000000000E+00  0.57914439686E+02  0.57914439686E+02  0.00000000000E+00 0.  1.
          3   -1    0    0  501    0  0.00000000000E+00 -0.00000000000E+00 -0.11656289263E+04  0.11656289263E+04  0.00000000000E+00 0. -1.
         25    2    1    2    0    0 -0.12917123426E+03  0.11167075269E+03 -0.95153396808E+03  0.97479125426E+03  0.12508210189E+03 0.  0.
         23    2    1    2    0    0  0.12917123426E+03 -0.11167075269E+03 -0.15618051853E+03  0.24875211172E+03  0.91267157020E+02 0.  0.
          5    1    3    3  502    0 -0.11492529105E+03  0.11157672396E+03 -0.54701855743E+03  0.57000347581E+03  0.41800000000E+01 0.  1.
         -5    1    3    3    0  502 -0.14245943200E+02  0.94028731233E-01 -0.40451541064E+03  0.40478777845E+03  0.41800000000E+01 0.  1.
        -11    1    4    4    0    0  0.50030356827E+02 -0.10212314969E+03 -0.86563585168E+02  0.14291755869E+03  0.00000000000E+00 0.  1.
         11    1    4    4    0    0  0.79140877428E+02 -0.95476030063E+01 -0.69616933366E+02  0.10583455303E+03  0.00000000000E+00 0. -1.
</event>
<event>
 8    1  0.7281309E-009  0.9870210E+02  0.7561462E-02  0.1283049E+00
         -4   -1    0    0    0  501 -0.00000000000E+00  0.00000000000E+00  0.34714152069E+02  0.34714152069E+02  0.00000000000E+00 0.  1.
          4   -1    0    0  501    0  0.00000000000E+00 -0.00000000000E+00 -0.50428991347E+03  0.50428991347E+03  0.00000000000E+00 0. -1.
         25    2    1    2    0    0  0.17407304289E+02 -0.27784355418E+01 -0.41511951818E+03  0.43391516439E+03  0.12508965410E+03 0.  0.
         23    2    1    2    0    0 -0.17407304289E+02  0.27784355418E+01 -0.54456243223E+02  0.10508890115E+03  0.88133199042E+02 0.  0.
          5    1    3    3  502    0 -0.24272310004E+01  0.56001850207E+02 -0.12275938849E+03  0.13501643804E+03  0.41800000000E+01 0. -1.
         -5    1    3    3    0  502  0.19834535290E+02 -0.58780285749E+02 -0.29236012969E+03  0.29889872635E+03  0.41800000000E+01 0. -1.
        -11    1    4    4    0    0  0.28291763817E+02  0.14567216564E+02  0.15370698520E+01  0.31858912128E+02  0.00000000000E+00 0.  1.
         11    1    4    4    0    0 -0.45699068106E+02 -0.11788781022E+02 -0.55993313075E+02  0.73229989026E+02  0.00000000000E+00 0. -1.
</event>
<event>
 8    1  0.7281309E-009  0.7601217E+02  0.7561462E-02  0.1340765E+00
         -1   -1    0    0    0  501 -0.00000000000E+00  0.00000000000E+00  0.26844410392E+03  0.26844410392E+03  0.00000000000E+00 0.  1.
          1   -1    0    0  501    0  0.00000000000E+00 -0.00000000000E+00 -0.51945789959E+02  0.51945789959E+02  0.00000000000E+00 0. -1.
         25    2    1    2    0    0 -0.22211830727E+02 -0.18845703406E+01  0.18087823395E+03  0.22104375066E+03  0.12508591911E+03 0.  0.
         23    2    1    2    0    0  0.22211830727E+02  0.18845703406E+01  0.35620080016E+02  0.99346143225E+02  0.90021936459E+02 0.  0.
          5    1    3    3  502    0  0.40042883313E+01  0.42277599029E+02  0.15975339467E+03  0.16535431417E+03  0.41800000000E+01 0.  1.
         -5    1    3    3    0  502 -0.26216119058E+02 -0.44162169370E+02  0.21124839275E+02  0.55689436488E+02  0.41800000000E+01 0.  1.
        -11    1    4    4    0    0  0.12573263394E+02 -0.25696885198E+02 -0.21097129361E+02  0.35545825754E+02  0.00000000000E+00 0. -1.
         11    1    4    4    0    0  0.96385673327E+01  0.27581455539E+02  0.56717209377E+02  0.63800317471E+02  0.00000000000E+00 0.  1.
</event>
<event>
 8    1  0.7281309E-009  0.1493133E+03  0.7561462E-02  0.1201319E+00
         -2   -1    0    0    0  501 -0.00000000000E+00  0.00000000000E+00  0.16869686814E+02  0.16869686814E+02  0.00000000000E+00 0.  1.
          2   -1    0    0  501    0  0.00000000000E+00 -0.00000000000E+00 -0.13744519368E+04  0.13744519368E+04  0.00000000000E+00 0. -1.
         25    2    1    2    0    0  0.11411792851E+02  0.10204254277E+03 -0.60097312369E+03  0.62238296156E+03  0.12509574688E+03 0.  0.
         23    2    1    2    0    0 -0.11411792851E+02 -0.10204254277E+03 -0.75660912633E+03  0.76893866209E+03  0.90919670360E+02 0.  0.
          5    1    3    3  502    0 -0.55098268299E+02  0.65025540701E+02 -0.29926260696E+03  0.31119081033E+03  0.41800000000E+01 0. -1.
         -5    1    3    3    0  502  0.66510061150E+02  0.37017002074E+02 -0.30171051674E+03  0.31119215123E+03  0.41800000000E+01 0. -1.
        -11    1    4    4    0    0 -0.51267258751E+02 -0.63575540875E+02 -0.43748613782E+03  0.44504415736E+03  0.00000000000E+00 0.  1.
         11    1    4    4    0    0  0.39855465900E+02 -0.38467001900E+02 -0.31912298851E+03  0.32389450472E+03  0.00000000000E+00 0. -1.
</event>
<event>
 8    1  0.7281309E-009  0.9240487E+02  0.7561462E-02  0.1297130E+00
          1   -1    0    0  501    0  0.00000000000E+00  0.00000000000E+00  0.23330332450E+03  0.23330332450E+03  0.00000000000E+00 0. -1.
         -1   -1    0    0    0  501 -0.00000000000E+00 -0.00000000000E+00 -0.69034333415E+02  0.69034333415E+02  0.00000000000E+00 0.  1.
         25    2    1    2    0    0  0.53380055666E+02 -0.84260513152E+00  0.42699566954E+02  0.14257143221E+03  0.12511282883E+03 0.  0.
         23    2    1    2    0    0 -0.53380055666E+02  0.84260513152E+00  0.12156942413E+03  0.15976622570E+03  0.88859336398E+02 0.  0.
          5    1    3    3  502    0 -0.93327359258E+01  0.42422460831E+02  0.49472450776E+02  0.65967878006E+02  0.41800000000E+01 0.  1.
         -5    1    3    3    0  502  0.62712791592E+02 -0.43265065963E+02 -0.67728838215E+01  0.76603554208E+02  0.41800000000E+01 0.  1.
        -11    1    4    4    0    0 -0.43876561879E+01 -0.13194531949E+02 -0.11005406340E+02  0.17733193984E+02  0.00000000000E+00 0.  1.
         11    1    4    4    0    0 -0.48992399478E+02  0.14037137080E+02  0.13257483047E+03  0.14203303172E+03  0.00000000000E+00 0. -1.
</event>
<event>
 8    1  0.7281309E-009  0.1042816E+03  0.7561462E-02  0.1271541E+00
          2   -1    0    0  501    0  0.00000000000E+00  0.00000000000E+00  0.16903158380E+03  0.16903158380E+03  0.00000000000E+00 0. -1.
         -2   -1    0    0    0  501 -0.00000000000E+00 -0.00000000000E+00 -0.92449507899E+02  0.92449507899E+02  0.00000000000E+00 0.  1.
         25    2    1    2    0    0  0.54472057336E+02 -0.30669548493E+02  0.35714513598E+02  0.14432850638E+03  0.12508942816E+03 0.  0.
         23    2    1    2    0    0 -0.54472057336E+02  0.30669548493E+02  0.40867562305E+02  0.11715258532E+03  0.90259317322E+02 0.  0.
          5    1    3    3  502    0 -0.11618143797E+02 -0.43186508479E+02  0.57987120961E+02  0.73348717625E+02  0.41800000000E+01 0.  1.
         -5    1    3    3    0  502  0.66090201133E+02  0.12516959986E+02 -0.22272607363E+02  0.70979788756E+02  0.41800000000E+01 0.  1.
        -11    1    4    4    0    0  0.16961040881E+02 -0.30941611965E+01  0.33654140497E+02  0.37813382735E+02  0.00000000000E+00 0. -1.
         11    1    4    4    0    0 -0.71433098217E+02  0.33763709689E+02  0.72134218087E+01  0.79339202587E+02  0.00000000000E+00 0.  1.
</event>
<event>
 8    1  0.7281309E-009  0.9853060E+02  0.7561462E-02  0.1283417E+00
          2   -1    0    0  501    0  0.00000000000E+00  0.00000000000E+00  0.15396162649E+03  0.15396162649E+03  0.00000000000E+00 0. -1.
         -2   -1    0    0    0  501 -0.00000000000E+00 -0.00000000000E+00 -0.78933451631E+02  0.78933451631E+02  0.00000000000E+00 0.  1.
         25    2    1    2    0    0 -0.16781747039E+02  0.20698832904E+01  0.54443127667E+02  0.13747891626E+03  0.12510190572E+03 0.  0.
         23    2    1    2    0    0  0.16781747039E+02 -0.20698832904E+01  0.20585047188E+02  0.95416161856E+02  0.91621986035E+02 0.  0.
          5    1    3    3  502    0 -0.68256620130E+02  0.16356881028E+02  0.43824854938E+02  0.82852906158E+02  0.41800000000E+01 0. -1.
         -5    1    3    3    0  502  0.51474873091E+02 -0.14286997738E+02  0.10618272730E+02  0.54626010103E+02  0.41800000000E+01 0. -1.
        -11    1    4    4    0    0 -0.18577157498E+02  0.23186688178E+02  0.38315530641E+02  0.48485185136E+02  0.00000000000E+00 0. -1.
         11    1    4    4    0    0  0.35358904538E+02 -0.25256571468E+02 -0.17730483453E+02  0.46930976720E+02  0.00000000000E+00 0.  1.
</event>
<event>
 8    1  0.7281309E-009  0.1189305E+03  0.7561462E-02  0.1244872E+00
          2   -1    0    0  501    0  0.00000000000E+00  0.00000000000E+00  0.20589939896E+04  0.20589939896E+04  0.00000000000E+00 0. -1.
         -2   -1    0    0    0  501 -0.00000000000E+00 -0.00000000000E+00 -0.12901951606E+02  0.12901951606E+02  0.00000000000E+00 0.  1.
         25    2    1    2    0    0 -0.16282849462E+01 -0.53610246330E+02  0.16755317388E+04  0.16810509508E+04  0.12509588941E+03 0.  0.
         23    2    1    2    0    0  0.16282849462E+01  0.53610246330E+02  0.37056029923E+03  0.39084499047E+03  0.11210781144E+03 0.  0.
          5    1    3    3  502    0 -0.39700697126E+01 -0.92331890930E+02  0.13547694951E+04  0.13579244444E+04  0.41800000000E+01 0.  1.
         -5    1    3    3    0  502  0.23417847665E+01  0.38721644600E+02  0.32076224373E+03  0.32312650637E+03  0.41800000000E+01 0.  1.
        -11    1    4    4    0    0 -0.44786786684E+02  0.20132812465E+02  0.73976307800E+02  0.88790092437E+02  0.00000000000E+00 0.  1.
         11    1    4    4    0    0  0.46415071630E+02  0.33477433865E+02  0.29658399143E+03  0.30205489803E+03  0.00000000000E+00 0. -1.
</event>
<event>
 8    1  0.7281309E-009  0.1096324E+03  0.7561462E-02  0.1261252E+00
         -1   -1    0    0    0  501 -0.00000000000E+00  0.00000000000E+00  0.57268296768E+03  0.57268296768E+03  0.00000000000E+00 0.  1.
          1   -1    0    0  501    0  0.00000000000E+00 -0.00000000000E+00 -0.26266422405E+02  0.26266422405E+02  0.00000000000E+00 0. -1.
         25    2    1    2    0    0 -0.20357274549E+02  0.38058881601E+02  0.39932669842E+03  0.42068067906E+03  0.12509006583E+03 0.  0.
         23    2    1    2    0    0  0.20357274549E+02 -0.38058881601E+02  0.14708984686E+03  0.17826871103E+03  0.91002270226E+02 0.  0.
          5    1    3    3  502    0 -0.66353890156E+02  0.50361819811E+02  0.22659047225E+03  0.24145365217E+03  0.41800000000E+01 0.  1.
         -5    1    3    3    0  502  0.45996615607E+02 -0.12302938210E+02  0.17273622617E+03  0.17922702688E+03  0.41800000000E+01 0.  1.
        -11    1    4    4    0    0 -0.27200280401E+02 -0.28794184315E+02  0.24807575214E+02  0.46737309425E+02  0.00000000000E+00 0. -1.
         11    1    4    4    0    0  0.47557554951E+02 -0.92646972864E+01  0.12228227165E+03  0.13153140160E+03  0.00000000000E+00 0.  1.
</event>
<event>
 8    1  0.7281309E-009  0.1137444E+03  0.7561462E-02  0.1253789E+00
         -1   -1    0    0    0  501 -0.00000000000E+00  0.00000000000E+00  0.71796901349E+02  0.71796901349E+02  0.00000000000E+00 0.  1.
          1   -1    0    0  501    0  0.00000000000E+00 -0.00000000000E+00 -0.25564506313E+03  0.25564506313E+03  0.00000000000E+00 0. -1.
         25    2    1    2    0    0  0.79908262135E+02 -0.19293891663E+02 -0.10610827108E+03  0.18346231602E+03  0.12506746817E+03 0.  0.
         23    2    1    2    0    0 -0.79908262135E+02  0.19293891663E+02 -0.77739890698E+02  0.14397964846E+03  0.89045291574E+02 0.  0.
          5    1    3    3  502    0 -0.28870367609E+02  0.10937856570E+02 -0.44325290441E+01  0.31468310186E+02  0.41800000000E+01 0. -1.
         -5    1    3    3    0  502  0.10877862974E+03 -0.30231748233E+02 -0.10167574204E+03  0.15199400583E+03  0.41800000000E+01 0. -1.
        -11    1    4    4    0    0 -0.35547106093E+02  0.15665761133E+02 -0.89819876031E+02  0.97860221508E+02  0.00000000000E+00 0. -1.
         11    1    4    4    0    0 -0.44361156042E+02  0.36281305310E+01  0.12079985333E+02  0.46119426950E+02  0.00000000000E+00 0.  1.
</event>
<event>
 8    1  0.7281309E-009  0.1157951E+03  0.7561462E-02  0.1250199E+00
         -2   -1    0    0    0  501 -0.00000000000E+00  0.00000000000E+00  0.53389640489E+02  0.53389640489E+02  0.00000000000E+00 0.  1.
          2   -1    0    0  501    0  0.00000000000E+00 -0.00000000000E+00 -0.42328303668E+03  0.42328303668E+03  0.00000000000E+00 0. -1.
         25    2    1    2    0    0 -0.63418809731E+02  0.83177514729E+02 -0.18351042192E+03  0.24548548755E+03  0.12508639120E+03 0.  0.
         23    2    1    2    0    0  0.63418809731E+02 -0.83177514729E+02 -0.18638297427E+03  0.23118718961E+03  0.88138862929E+02 0.  0.
          5    1    3    3  502    0  0.87609307988E+01  0.42641332337E+02  0.42695658742E+00  0.43734332324E+02  0.41800000000E+01 0.  1.
         -5    1    3    3    0  502 -0.72179740529E+02  0.40536182392E+02 -0.18393737850E+03  0.20175115523E+03  0.41800000000E+01 0.  1.
        -11    1    4    4    0    0  0.30401336891E+02 -0.32669141121E+02 -0.15859423671E+03  0.16475328823E+03  0.00000000000E+00 0. -1.
         11    1    4    4    0    0  0.33017472839E+02 -0.50508373607E+02 -0.27788737563E+02  0.66433901380E+02  0.00000000000E+00 0.  1.
</event>
<event>
 8    1  0.7281309E-009  0.1117098E+03  0.7561462E-02  0.1257436E+00
         -2   -1    0    0    0  501 -0.00000000000E+00  0.00000000000E+00  0.11066214171E+03  0.11066214171E+03  0.00000000000E+00 0.  1.
          2   -1    0    0  501    0  0.00000000000E+00 -0.00000000000E+00 -0.19933547258E+03  0.19933547258E+03  0.00000000000E+00 0. -1.
         25    2    1    2    0    0 -0.71533057736E+01 -0.11031495785E+03 -0.28754677838E+02  0.16939555898E+03  0.12508982450E+03 0.  0.
         23    2    1    2    0    0  0.71533057736E+01  0.11031495785E+03 -0.59918653036E+02  0.14060205532E+03  0.62913696984E+02 0.  0.
          5    1    3    3  502    0 -0.63820536510E+01 -0.54533287622E+02  0.48930583868E+02  0.73663318587E+02  0.41800000000E+01 0.  1.
         -5    1    3    3    0  502 -0.77125212264E+00 -0.55781670229E+02 -0.77685261706E+02  0.95732240388E+02  0.41800000000E+01 0.  1.
        -11    1    4    4    0    0  0.14373899454E+02  0.71299967646E+02 -0.50758700704E+01  0.72911307962E+02  0.00000000000E+00 0.  1.
         11    1    4    4    0    0 -0.72205936799E+01  0.39014990205E+02 -0.54842782966E+02  0.67690747353E+02  0.00000000000E+00 0. -1.
</event>
<event>
 8    1  0.7281309E-009  0.1065460E+03  0.7561462E-02  0.1267103E+00
         -2   -1    0    0    0  501 -0.00000000000E+00  0.00000000000E+00  0.68333149685E+02  0.68333149685E+02  0.00000000000E+00 0.  1.
          2   -1    0    0  501    0  0.00000000000E+00 -0.00000000000E+00 -0.31103566468E+03  0.31103566468E+03  0.00000000000E+00 0. -1.
         25    2    1    2    0    0 -0.27290985030E+02 -0.81686919831E+02 -0.19142017195E+03  0.24434774489E+03  0.12508632008E+03 0.  0.
         23    2    1    2    0    0  0.27290985030E+02  0.81686919831E+02 -0.51282343046E+02  0.13502106947E+03  0.90461371628E+02 0.  0.
          5    1    3    3  502    0 -0.58256577847E+02 -0.62265974659E+02 -0.18910757423E+03  0.20748500547E+03  0.41800000000E+01 0.  1.
         -5    1    3    3    0  502  0.30965592818E+02 -0.19420945172E+02 -0.23125977190E+01  0.36862739428E+02  0.41800000000E+01 0.  1.
        -11    1    4    4    0    0  0.96787327213E+01  0.27638207493E+01 -0.53190170755E+02  0.54134192865E+02  0.00000000000E+00 0. -1.
         11    1    4    4    0    0  0.17612252308E+02  0.78923099082E+02  0.19078277095E+01  0.80886876604E+02  0.00000000000E+00 0.  1.
</event>
<event>
 8    1  0.7281309E-009  0.1937050E+03  0.7561462E-02  0.1155161E+00
          1   -1    0    0  501    0  0.00000000000E+00  0.00000000000E+00  0.80026960954E+02  0.80026960954E+02  0.00000000000E+00 0. -1.
         -1   -1    0    0    0  501 -0.00000000000E+00 -0.00000000000E+00 -0.62179080468E+03  0.62179080468E+03  0.00000000000E+00 0.  1.
         25    2    1    2    0    0  0.18886578039E+03  0.38564092727E+02 -0.24282195693E+03  0.33430700550E+03  0.12506477886E+03 0.  0.
         23    2    1    2    0    0 -0.18886578039E+03 -0.38564092727E+02 -0.29894188679E+03  0.36751076013E+03  0.92414473322E+02 0.  0.
          5    1    3    3  502    0  0.35114397239E+02  0.11712855307E+02 -0.14579890481E+03  0.15048257346E+03  0.41800000000E+01 0. -1.
         -5    1    3    3    0  502  0.15375138315E+03  0.26851237420E+02 -0.97023052125E+02  0.18382443204E+03  0.41800000000E+01 0. -1.
        -11    1    4    4    0    0 -0.86345352122E+02 -0.28880758320E+02 -0.64884111735E+02  0.11180145791E+03  0.00000000000E+00 0. -1.
         11    1    4    4    0    0 -0.10252042827E+03 -0.96833344067E+01 -0.23405777506E+03  0.25570930222E+03  0.00000000000E+00 0.  1.
</event>
<event>
 8    1  0.7281309E-009  0.1289381E+03  0.7561462E-02  0.1229040E+00
          3   -1    0    0  501    0  0.00000000000E+00  0.00000000000E+00  0.22376395090E+02  0.22376395090E+02  0.00000000000E+00 0.  1.
         -3   -1    0    0    0  501 -0.00000000000E+00 -0.00000000000E+00 -0.11051906506E+04  0.11051906506E+04  0.00000000000E+00 0. -1.
         25    2    1    2    0    0 -0.99606221544E+02  0.32954914091E+02 -0.42758841592E+03  0.45769809366E+03  0.12509302849E+03 0.  0.
         23    2    1    2    0    0  0.99606221544E+02 -0.32954914091E+02 -0.65522583962E+03  0.66986895206E+03  0.91630160402E+02 0.  0.
          5    1    3    3  502    0 -0.78433168726E+02 -0.76211619237E+00 -0.40329049878E+03  0.41086864273E+03  0.41800000000E+01 0. -1.
         -5    1    3    3    0  502 -0.21173052818E+02  0.33717030283E+02 -0.24297917146E+02  0.46829450930E+02  0.41800000000E+01 0. -1.
        -11    1    4    4    0    0  0.64961724907E+02  0.26760716950E+02 -0.32920577969E+03  0.33661938009E+03  0.00000000000E+00 0.  1.
         11    1    4    4    0    0  0.34644496637E+02 -0.59715631041E+02 -0.32602005993E+03  0.33324957196E+03  0.00000000000E+00 0. -1.
</event>
<event>
 8    1  0.7281309E-009  0.1101550E+03  0.7561462E-02  0.1260283E+00
          2   -1    0    0  501    0  0.00000000000E+00  0.00000000000E+00  0.29251484579E+03  0.29251484579E+03  0.00000000000E+00 0. -1.
         -2   -1    0    0    0  501 -0.00000000000E+00 -0.00000000000E+00 -0.57297850302E+02  0.57297850302E+02  0.00000000000E+00 0.  1.
         25    2    1    2    0    0 -0.62521159939E+02 -0.19819665457E+02  0.10580704770E+03  0.17647833247E+03  0.12509099052E+03 0.  0.
         23    2    1    2    0    0  0.62521159939E+02  0.19819665457E+02  0.12940994779E+03  0.17333436363E+03  0.94848049256E+02 0.  0.
          5    1    3    3  502    0 -0.31644038340E+02 -0.56559032768E+02  0.54674724728E+01  0.65173882847E+02  0.41800000000E+01 0.  1.
         -5    1    3    3    0  502 -0.30877121599E+02  0.36739367311E+02  0.10033957523E+03  0.11130444962E+03  0.41800000000E+01 0.  1.
        -11    1    4    4    0    0 -0.71389602156E+00 -0.27939583572E+02  0.66568118725E+02  0.72197260393E+02  0.00000000000E+00 0. -1.
         11    1    4    4    0    0  0.63235055961E+02  0.47759249029E+02  0.62841829066E+02  0.10113710323E+03  0.00000000000E+00 0.  1.
</event>
<event>
 8    1  0.7281309E-009  0.2561802E+03  0.7561462E-02  0.1109460E+00
         -2   -1    0    0    0  501 -0.00000000000E+00  0.00000000000E+00  0.12401924218E+03  0.12401924218E+03  0.00000000000E+00 0.  1.
          2   -1    0    0  501    0  0.00000000000E+00 -0.00000000000E+00 -0.67217248207E+03  0.67217248207E+03  0.00000000000E+00 0. -1.
         25    2    1    2    0    0 -0.25486495814E+03 -0.40685614225E+01 -0.38971957120E+03  0.48218105937E+03  0.12507809463E+03 0.  0.
         23    2    1    2    0    0  0.25486495814E+03  0.40685614225E+01 -0.15843366869E+03  0.31401066489E+03  0.92351341125E+02 0.  0.
          5    1    3    3  502    0 -0.12727515007E+03 -0.15846284736E+02 -0.29827684507E+03  0.32471005108E+03  0.41800000000E+01 0.  1.
         -5    1    3    3    0  502 -0.12758980807E+03  0.11777723314E+02 -0.91442726133E+02  0.15747100829E+03  0.41800000000E+01 0.  1.
        -11    1    4    4    0    0  0.64271384022E+02  0.10543971439E+02  0.14580357673E+01  0.65146849549E+02  0.00000000000E+00 0.  1.
         11    1    4    4    0    0  0.19059357412E+03 -0.64754100165E+01 -0.15989170446E+03  0.24886381534E+03  0.00000000000E+00 0. -1.
</event>
<event>
 8    1  0.7281309E-009  0.1258022E+03  0.7561462E-02  0.1233821E+00
          1   -1    0    0  501    0  0.00000000000E+00  0.00000000000E+00  0.33572605286E+03  0.33572605286E+03  0.00000000000E+00 0. -1.
         -1   -1    0    0    0  501 -0.00000000000E+00 -0.00000000000E+00 -0.78603670983E+02  0.78603670983E+02  0.00000000000E+00 0.  1.
         25    2    1    2    0    0 -0.33929969612E+02  0.10599913966E+03  0.19651275208E+03  0.25817252235E+03  0.12509488047E+03 0.  0.
         23    2    1    2    0    0  0.33929969612E+02 -0.10599913966E+03  0.60609629797E+02  0.15615720149E+03  0.91238609738E+02 0.  0.
          5    1    3    3  502    0 -0.50603980898E+02  0.95418984127E+02  0.67158422006E+02  0.12725278567E+03  0.41800000000E+01 0. -1.
         -5    1    3    3    0  502  0.16674011286E+02  0.10580155536E+02  0.12935433008E+03  0.13091973668E+03  0.41800000000E+01 0. -1.
        -11    1    4    4    0    0  0.65404694301E+00 -0.82716301547E+02 -0.57464309853E+00  0.82720883299E+02  0.00000000000E+00 0.  1.
         11    1    4    4    0    0  0.33275922669E+02 -0.23282838115E+02  0.61184272896E+02  0.73436318194E+02  0.00000000000E+00 0. -1.
</event>
<event>
 8    1  0.7281309E-009  0.1150978E+03  0.7561462E-02  0.1251410E+00
         -2   -1    0    0    0  501 -0.00000000000E+00  0.00000000000E+00  0.32827996685E+02  0.32827996685E+02  0.00000000000E+00 0. -1.
          2   -1    0    0  501    0  0.00000000000E+00 -0.00000000000E+00 -0.48950172501E+03  0.48950172501E+03  0.00000000000E+00 0.  1.
         25    2    1    2    0    0  0.66441202640E+02  0.92633893305E+01 -0.26228544834E+03  0.29822978351E+03  0.12508838305E+03 0.  0.
         23    2    1    2    0    0 -0.66441202640E+02 -0.92633893305E+01 -0.19438827999E+03  0.22409993819E+03  0.89071516811E+02 0.  0.
          5    1    3    3  502    0  0.60090177369E+02 -0.42569589586E+02 -0.81111269439E+02  0.10963352500E+03  0.41800000000E+01 0.  1.
         -5    1    3    3    0  502  0.63510252705E+01  0.51832978916E+02 -0.18117417890E+03  0.18859625851E+03  0.41800000000E+01 0.  1.
        -11    1    4    4    0    0  0.16535937636E+02 -0.12928936904E+02 -0.80187383866E+02  0.82889149918E+02  0.00000000000E+00 0.  1.
         11    1    4    4    0    0 -0.82977140276E+02  0.36655475732E+01 -0.11420089613E+03  0.14121078827E+03  0.00000000000E+00 0. -1.
</event>
<event>
 8    1  0.7281309E-009  0.1500137E+03  0.7561462E-02  0.1200456E+00
         -1   -1    0    0    0  501 -0.00000000000E+00  0.00000000000E+00  0.36837690929E+02  0.36837690929E+02  0.00000000000E+00 0.  1.
          1   -1    0    0  501    0  0.00000000000E+00 -0.00000000000E+00 -0.73481367813E+03  0.73481367813E+03  0.00000000000E+00 0. -1.
         25    2    1    2    0    0  0.11201262469E+02  0.11273825406E+03 -0.26059608511E+03  0.31047135775E+03  0.12508701851E+03 0.  0.
         23    2    1    2    0    0 -0.11201262469E+02 -0.11273825406E+03 -0.43737990208E+03  0.46118001130E+03  0.92468599369E+02 0.  0.
          5    1    3    3  502    0 -0.53446568273E+02  0.68731994034E+02 -0.10656731819E+03  0.13767602686E+03  0.41800000000E+01 0. -1.
         -5    1    3    3    0  502  0.64647830742E+02  0.44006260022E+02 -0.15402876692E+03  0.17279533090E+03  0.41800000000E+01 0. -1.
        -11    1    4    4    0    0 -0.39626071304E+02 -0.39354950385E+02 -0.98009355973E+02  0.11280457218E+03  0.00000000000E+00 0. -1.
         11    1    4    4    0    0  0.28424808835E+02 -0.73383303671E+02 -0.33937054611E+03  0.34837543912E+03  0.00000000000E+00 0.  1.
</event>
<event>
 8    1  0.7281309E-009  0.1410279E+03  0.7561462E-02  0.1211952E+00
         -4   -1    0    0    0  501 -0.00000000000E+00  0.00000000000E+00  0.94760952120E+02  0.94760952120E+02  0.00000000000E+00 0.  1.
          4   -1    0    0  501    0  0.00000000000E+00 -0.00000000000E+00 -0.24707194437E+03  0.24707194437E+03  0.00000000000E+00 0. -1.
         25    2    1    2    0    0 -0.80136542264E+02 -0.73550095948E+02 -0.89239735634E+02  0.18826308457E+03  0.12509107312E+03 0.  0.
         23    2    1    2    0    0  0.80136542264E+02  0.73550095948E+02 -0.63071256619E+02  0.15356981192E+03  0.88171547013E+02 0.  0.
          5    1    3    3  502    0 -0.49570899746E+02 -0.10497708478E+03 -0.41612141924E+02  0.12339572597E+03  0.41800000000E+01 0.  1.
         -5    1    3    3    0  502 -0.30565642518E+02  0.31426988833E+02 -0.47627593710E+02  0.64867358604E+02  0.41800000000E+01 0.  1.
        -11    1    4    4    0    0  0.55444855470E+02  0.13708915868E+02  0.77298841455E+01  0.57635210430E+02  0.00000000000E+00 0.  1.
         11    1    4    4    0    0  0.24691686794E+02  0.59841180080E+02 -0.70801140765E+02  0.95934601493E+02  0.00000000000E+00 0. -1.
</event>
<event>
 8    1  0.7281309E-009  0.1022478E+03  0.7561462E-02  0.1275639E+00
          2   -1    0    0  501    0  0.00000000000E+00  0.00000000000E+00  0.78180389564E+02  0.78180389564E+02  0.00000000000E+00 0.  1.
         -2   -1    0    0    0  501 -0.00000000000E+00 -0.00000000000E+00 -0.22992950772E+03  0.22992950772E+03  0.00000000000E+00 0. -1.
         25    2    1    2    0    0  0.74087180227E+02  0.20566585445E+02 -0.62589322244E+02  0.15961524998E+03  0.12509080725E+03 0.  0.
         23    2    1    2    0    0 -0.74087180227E+02 -0.20566585445E+02 -0.89159795915E+02  0.14849464730E+03  0.90494731114E+02 0.  0.
          5    1    3    3  502    0 -0.69697444807E+01  0.89229110818E+01  0.32137915934E+02  0.34329487629E+02  0.41800000000E+01 0.  1.
         -5    1    3    3    0  502  0.81056924707E+02  0.11643674363E+02 -0.94727238178E+02  0.12528576235E+03  0.41800000000E+01 0.  1.
        -11    1    4    4    0    0  0.45056299457E+01  0.21031149194E+02  0.14287112312E+01  0.21555768449E+02  0.00000000000E+00 0.  1.
         11    1    4    4    0    0 -0.78592810172E+02 -0.41597734639E+02 -0.90588507146E+02  0.12693887885E+03  0.00000000000E+00 0. -1.
</event>
<event>
 8    1  0.7281309E-009  0.7938851E+02  0.7561462E-02  0.1330796E+00
          1   -1    0    0  501    0  0.00000000000E+00  0.00000000000E+00  0.23138408305E+03  0.23138408305E+03  0.00000000000E+00 0. -1.
         -1   -1    0    0    0  501 -0.00000000000E+00 -0.00000000000E+00 -0.70239345256E+02  0.70239345256E+02  0.00000000000E+00 0.  1.
         25    2    1    2    0    0 -0.37870785898E+02 -0.53283950954E+02  0.11169128753E+03  0.17999163796E+03  0.12509464486E+03 0.  0.
         23    2    1    2    0    0  0.37870785898E+02  0.53283950954E+02  0.49453450266E+02  0.12163179035E+03  0.89862521811E+02 0.  0.
          5    1    3    3  502    0 -0.44977769271E+02 -0.52956399076E+02  0.13683914772E+03  0.15352460611E+03  0.41800000000E+01 0.  1.
         -5    1    3    3    0  502  0.71069833726E+01 -0.32755187750E+00 -0.25147860191E+02  0.26467031853E+02  0.41800000000E+01 0.  1.
        -11    1    4    4    0    0  0.30261367190E+02  0.62216846445E+02 -0.16428139425E+01  0.69205383919E+02  0.00000000000E+00 0.  1.
         11    1    4    4    0    0  0.76094187085E+01 -0.89328954918E+01  0.51096264208E+02  0.52426406428E+02  0.00000000000E+00 0. -1.
</event>
<event>
 8    1  0.7281309E-009  0.2878917E+03  0.7561462E-02  0.1091455E+00
          1   -1    0    0  501    0  0.00000000000E+00  0.00000000000E+00  0.13915760544E+03  0.13915760544E+03  0.00000000000E+00 0. -1.
         -1   -1    0    0    0  501 -0.00000000000E+00 -0.00000000000E+00 -0.67703372911E+03  0.67703372911E+03  0.00000000000E+00 0.  1.
         25    2    1    2    0    0 -0.59790671327E+02  0.27578832320E+03 -0.20877055811E+03  0.37264829049E+03  0.12508988320E+03 0.  0.
         23    2    1    2    0    0  0.59790671327E+02 -0.27578832320E+03 -0.32910556555E+03  0.44354304406E+03  0.93732785469E+02 0.  0.
          5    1    3    3  502    0 -0.70708461374E+02  0.20053540616E+03 -0.88634065391E+02  0.23040747727E+03  0.41800000000E+01 0.  1.
         -5    1    3    3    0  502  0.10917790048E+02  0.75252917039E+02 -0.12013649272E+03  0.14224081322E+03  0.41800000000E+01 0.  1.
        -11    1    4    4    0    0  0.42318123918E+02 -0.81073500844E+02 -0.54515663237E+02  0.10646921475E+03  0.00000000000E+00 0.  1.
         11    1    4    4    0    0  0.17472547409E+02 -0.19471482235E+03 -0.27458990231E+03  0.33707382931E+03  0.00000000000E+00 0. -1.
</event>
<event>
 8    1  0.7281309E-009  0.1139592E+03  0.7561462E-02  0.1253409E+00
         -2   -1    0    0    0  501 -0.00000000000E+00  0.00000000000E+00  0.93139674298E+01  0.93139674298E+01  0.00000000000E+00 0.  1.
          2   -1    0    0  501    0  0.00000000000E+00 -0.00000000000E+00 -0.17290224833E+04  0.17290224833E+04  0.00000000000E+00 0. -1.
         25    2    1    2    0    0  0.14620455354E+02  0.29970774265E+02 -0.12808636900E+04  0.12873887962E+04  0.12508443193E+03 0.  0.
         23    2    1    2    0    0 -0.14620455354E+02 -0.29970774265E+02 -0.43884482583E+03  0.45094765452E+03  0.98270040891E+02 0.  0.
          5    1    3    3  502    0  0.66667286761E+02  0.29323787382E+02 -0.57751157304E+03  0.58210093715E+03  0.41800000000E+01 0.  1.
         -5    1    3    3    0  502 -0.52046831406E+02  0.64698688284E+00 -0.70335211699E+03  0.70528785905E+03  0.41800000000E+01 0.  1.
        -11    1    4    4    0    0  0.17214532328E+02 -0.57896242136E+02 -0.22608615773E+03  0.23401552447E+03  0.00000000000E+00 0.  1.
         11    1    4    4    0    0 -0.31834987682E+02  0.27925467871E+02 -0.21275866810E+03  0.21693213005E+03  0.00000000000E+00 0. -1.
</event>
<event>
 8    1  0.7281309E-009  0.1237966E+03  0.7561462E-02  0.1236962E+00
         -2   -1    0    0    0  501 -0.00000000000E+00  0.00000000000E+00  0.66484322115E+02  0.66484322115E+02  0.00000000000E+00 0.  1.
          2   -1    0    0  501    0  0.00000000000E+00 -0.00000000000E+00 -0.26135546535E+03  0.26135546535E+03  0.00000000000E+00 0. -1.
         25    2    1    2    0    0 -0.34260198676E+02  0.65836836066E+02 -0.11437404008E+03  0.18502997374E+03  0.12508565042E+03 0.  0.
         23    2    1    2    0    0  0.34260198676E+02 -0.65836836066E+02 -0.80497103149E+02  0.14280981372E+03  0.91687562311E+02 0.  0.
          5    1    3    3  502    0 -0.27409792665E+02 -0.32630945626E+02 -0.55231000328E+02  0.69885700566E+02  0.41800000000E+01 0. -1.
         -5    1    3    3    0  502 -0.68504060106E+01  0.98467781692E+02 -0.59143039754E+02  0.11514427318E+03  0.41800000000E+01 0. -1.
        -11    1    4    4    0    0  0.32142207779E+02  0.71775568263E+01  0.15350994661E+01  0.32969612878E+02  0.00000000000E+00 0.  1.
         11    1    4    4    0    0  0.21179908963E+01 -0.73014392893E+02 -0.82032202615E+02  0.10984020084E+03  0.00000000000E+00 0. -1.
</event>
<event>
 8    1  0.7281309E-009  0.1199218E+03  0.7561462E-02  0.1243226E+00
         -2   -1    0    0    0  501 -0.00000000000E+00  0.00000000000E+00  0.17676098771E+03  0.17676098771E+03  0.00000000000E+00 0.  1.
          2   -1    0    0  501    0  0.00000000000E+00 -0.00000000000E+00 -0.10620341140E+03  0.10620341140E+03  0.00000000000E+00 0. -1.
         25    2    1    2    0    0 -0.69524773149E+02  0.11971837309E+02  0.87402712593E+02  0.16811526990E+03  0.12508593380E+03 0.  0.
         23    2    1    2    0    0  0.69524773149E+02 -0.11971837309E+02 -0.16845136277E+02  0.11484912921E+03  0.89047992085E+02 0.  0.
          5    1    3    3  502    0 -0.63492829596E+02  0.54092167385E+02  0.16214360982E+02  0.85074554860E+02  0.41800000000E+01 0.  1.
         -5    1    3    3    0  502 -0.60319435530E+01 -0.42120330076E+02  0.71188351611E+02  0.83040715037E+02  0.41800000000E+01 0.  1.
        -11    1    4    4    0    0  0.21917838484E+01 -0.40418717904E+02 -0.73393990950E+01  0.41138102199E+02  0.00000000000E+00 0.  1.
         11    1    4    4    0    0  0.67332989301E+02  0.28446880595E+02 -0.95057371820E+01  0.73711027012E+02  0.00000000000E+00 0. -1.
</event>
<event>
 8    1  0.7281309E-009  0.1192190E+03  0.7561462E-02  0.1244391E+00
         -1   -1    0    0    0  501 -0.00000000000E+00  0.00000000000E+00  0.45807844964E+03  0.45807844964E+03  0.00000000000E+00 0.  1.
          1   -1    0    0  501    0  0.00000000000E+00 -0.00000000000E+00 -0.55946944516E+02  0.55946944516E+02  0.00000000000E+00 0. -1.
         25    2    1    2    0    0  0.74053428749E+02  0.14352494191E+02  0.35966024591E+03  0.38819197848E+03  0.12509042835E+03 0.  0.
         23    2    1    2    0    0 -0.74053428749E+02 -0.14352494191E+02  0.42471259213E+02  0.12583341568E+03  0.91325441385E+02 0.  0.
          5    1    3    3  502    0 -0.75253543313E+01  0.35356065048E+02  0.27831681902E+02  0.45812195003E+02  0.41800000000E+01 0.  1.
         -5    1    3    3    0  502  0.81578783081E+02 -0.21003570857E+02  0.33182856401E+03  0.34237978347E+03  0.41800000000E+01 0.  1.
        -11    1    4    4    0    0 -0.33015114067E+02  0.38548148464E+02  0.25319900937E+02  0.56719087531E+02  0.00000000000E+00 0.  1.
         11    1    4    4    0    0 -0.41038314682E+02 -0.52900642655E+02  0.17151358276E+02  0.69114328152E+02  0.00000000000E+00 0. -1.
</event>
<event>
 8    1  0.7281309E-009  0.1453940E+03  0.7561462E-02  0.1206250E+00
         -1   -1    0    0    0  501 -0.00000000000E+00  0.00000000000E+00  0.23557347892E+03  0.23557347892E+03  0.00000000000E+00 0.  1.
          1   -1    0    0  501    0  0.00000000000E+00 -0.00000000000E+00 -0.14892138064E+03  0.14892138064E+03  0.00000000000E+00 0. -1.
         25    2    1    2    0    0 -0.10075146548E+03  0.92893615357E+02  0.11356184728E+03  0.21754306749E+03  0.12509441029E+03 0.  0.
         23    2    1    2    0    0  0.10075146548E+03 -0.92893615357E+02 -0.26909749004E+02  0.16695179207E+03  0.91480515489E+02 0.  0.
          5    1    3    3  502    0 -0.28895868287E+02  0.73664038000E+02  0.11886217220E+03  0.14285324665E+03  0.41800000000E+01 0.  1.
         -5    1    3    3    0  502 -0.71855597198E+02  0.19229577357E+02 -0.53003249121E+01  0.74689820847E+02  0.41800000000E+01 0.  1.
        -11    1    4    4    0    0  0.82254259752E+02 -0.75106930009E+02  0.20297957885E+02  0.11322023351E+03  0.00000000000E+00 0.  1.
         11    1    4    4    0    0  0.18497205733E+02 -0.17786685348E+02 -0.47207706889E+02  0.53731558560E+02  0.00000000000E+00 0. -1.
</event>
<event>
 8    1  0.7281309E-009  0.9991289E+02  0.7561462E-02  0.1280479E+00
         -2   -1    0    0    0  501 -0.00000000000E+00  0.00000000000E+00  0.17658947248E+02  0.17658947248E+02  0.00000000000E+00 0.  1.
          2   -1    0    0  501    0  0.00000000000E+00 -0.00000000000E+00 -0.70676174484E+03  0.70676174484E+03  0.00000000000E+00 0. -1.
         25    2    1    2    0    0  0.62115083984E+01 -0.24686847445E+02 -0.37760947476E+03  0.39860293457E+03  0.12508941100E+03 0.  0.
         23    2    1    2    0    0 -0.62115083984E+01  0.24686847445E+02 -0.31149332283E+03  0.32581775752E+03  0.92092875259E+02 0.  0.
          5    1    3    3  502    0  0.21089167728E+02 -0.64136107987E+02 -0.32011532797E+03  0.32718418199E+03  0.41800000000E+01 0. -1.
         -5    1    3    3    0  502 -0.14877659330E+02  0.39449260541E+02 -0.57494146787E+02  0.71418752574E+02  0.41800000000E+01 0. -1.
        -11    1    4    4    0    0  0.39537708580E+02  0.18487851669E+02 -0.96324810584E+02  0.10575206945E+03  0.00000000000E+00 0.  1.
         11    1    4    4    0    0 -0.45749216978E+02  0.61989957765E+01 -0.21516851225E+03  0.22006568807E+03  0.00000000000E+00 0. -1.
</event>
<event>
 8    1  0.7281309E-009  0.1607039E+03  0.7561462E-02  0.1187904E+00
         -2   -1    0    0    0  501 -0.00000000000E+00  0.00000000000E+00  0.16947889593E+02  0.16947889593E+02  0.00000000000E+00 0.  1.
          2   -1    0    0  501    0  0.00000000000E+00 -0.00000000000E+00 -0.32328585897E+04  0.32328585897E+04  0.00000000000E+00 0. -1.
         25    2    1    2    0    0 -0.37783676211E+02  0.12722918617E+03 -0.27410292227E+04  0.27470900371E+04  0.12509036870E+03 0.  0.
         23    2    1    2    0    0  0.37783676211E+02 -0.12722918617E+03 -0.47488147741E+03  0.50271644218E+03  0.97961888741E+02 0.  0.
          5    1    3    3  502    0  0.23187846411E+02  0.76290127555E+02 -0.20397570973E+04  0.20413192666E+04  0.41800000000E+01 0. -1.
         -5    1    3    3    0  502 -0.60971522623E+02  0.50939058618E+02 -0.70127212539E+03  0.70577077051E+03  0.41800000000E+01 0. -1.
        -11    1    4    4    0    0  0.66793191712E+02 -0.64325012664E+02 -0.22370801855E+03  0.24216588380E+03  0.00000000000E+00 0. -1.
         11    1    4    4    0    0 -0.29009515501E+02 -0.62904173509E+02 -0.25117345886E+03  0.26055055838E+03  0.00000000000E+00 0.  1.
</event>
<event>
 8    1  0.7281309E-009  0.1126561E+03  0.7561462E-02  0.1255729E+00
          2   -1    0    0  501    0  0.00000000000E+00  0.00000000000E+00  0.40138676134E+02  0.40138676134E+02  0.00000000000E+00 0. -1.
         -2   -1    0    0    0  501 -0.00000000000E+00 -0.00000000000E+00 -0.52402675788E+03  0.52402675788E+03  0.00000000000E+00 0.  1.
         25    2    1    2    0    0  0.41358195276E+02 -0.35468017600E+02 -0.41783255011E+03  0.43954390942E+03  0.12508528207E+03 0.  0.
         23    2    1    2    0    0 -0.41358195276E+02  0.35468017600E+02 -0.66055531635E+02  0.12462152459E+03  0.90546731264E+02 0.  0.
          5    1    3    3  502    0  0.42662173196E+02  0.35324595493E+02 -0.10517104104E+03  0.11893825433E+03  0.41800000000E+01 0.  1.
         -5    1    3    3    0  502 -0.13039779207E+01 -0.70792613093E+02 -0.31266150906E+03  0.32060565509E+03  0.41800000000E+01 0.  1.
        -11    1    4    4    0    0 -0.87743042925E+00  0.54218699391E+02 -0.57794600585E+02  0.79250571636E+02  0.00000000000E+00 0.  1.
         11    1    4    4    0    0 -0.40480764846E+02 -0.18750681791E+02 -0.82609310499E+01  0.45370952954E+02  0.00000000000E+00 0. -1.
</event>
<event>
 8    1  0.7281309E-009  0.3520430E+03  0.7561462E-02  0.1061780E+00
          2   -1    0    0  501    0  0.00000000000E+00  0.00000000000E+00  0.32838003251E+04  0.32838003251E+04  0.00000000000E+00 0. -1.
         -2   -1    0    0    0  501 -0.00000000000E+00 -0.00000000000E+00 -0.39088293174E+02  0.39088293174E+02  0.00000000000E+00 0.  1.
         25    2    1    2    0    0  0.11789617123E+02 -0.33831854952E+03  0.18354759544E+04  0.18706197546E+04  0.12509137041E+03 0.  0.
         23    2    1    2    0    0 -0.11789617123E+02  0.33831854952E+03  0.14092360775E+04  0.14522688637E+04  0.92412630551E+02 0.  0.
          5    1    3    3  502    0 -0.45396942076E+02 -0.14259665076E+03  0.96688042179E+03  0.97840171177E+03  0.41800000000E+01 0. -1.
         -5    1    3    3    0  502  0.57186559198E+02 -0.19572189876E+03  0.86859553261E+03  0.89221804279E+03  0.41800000000E+01 0. -1.
        -11    1    4    4    0    0 -0.40547476738E+02  0.72557854137E+02  0.36758806831E+03  0.37686831657E+03  0.00000000000E+00 0. -1.
         11    1    4    4    0    0  0.28757859615E+02  0.26576069538E+03  0.10416480092E+04  0.10754005471E+04  0.00000000000E+00 0.  1.
</event>
<event>
 8    1  0.7281309E-009  0.8746601E+02  0.7561462E-02  0.1309107E+00
          1   -1    0    0  501    0  0.00000000000E+00  0.00000000000E+00  0.32155798036E+02  0.32155798036E+02  0.00000000000E+00 0. -1.
         -1   -1    0    0    0  501 -0.00000000000E+00 -0.00000000000E+00 -0.43100094513E+03  0.43100094513E+03  0.00000000000E+00 0.  1.
         25    2    1    2    0    0 -0.32354317992E+02 -0.23861517666E+02 -0.27215076027E+03  0.30220698469E+03  0.12508737492E+03 0.  0.
         23    2    1    2    0    0  0.32354317992E+02  0.23861517666E+02 -0.12669438683E+03  0.16094975848E+03  0.90758928937E+02 0.  0.
          5    1    3    3  502    0 -0.62155945537E+02 -0.27581433396E+02 -0.69583893223E+02  0.97383199937E+02  0.41800000000E+01 0. -1.
         -5    1    3    3    0  502  0.29801627545E+02  0.37199157304E+01 -0.20256686704E+03  0.20482378475E+03  0.41800000000E+01 0. -1.
        -11    1    4    4    0    0  0.17976463568E+02 -0.22004423014E+02 -0.33992531635E+01  0.28616477713E+02  0.00000000000E+00 0. -1.
         11    1    4    4    0    0  0.14377854424E+02  0.45865940680E+02 -0.12329513367E+03  0.13233328077E+03  0.00000000000E+00 0.  1.
</event>
<event>
 8    1  0.7281309E-009  0.2624753E+03  0.7561462E-02  0.1105665E+00
         -3   -1    0    0    0  501 -0.00000000000E+00  0.00000000000E+00  0.90671769926E+03  0.90671769926E+03  0.00000000000E+00 0.  1.
          3   -1    0    0  501    0  0.00000000000E+00 -0.00000000000E+00 -0.84692899940E+02  0.84692899940E+02  0.00000000000E+00 0. -1.
         25    2    1    2    0    0  0.24150751462E+03 -0.81748236708E+02  0.42458617315E+03  0.51081286972E+03  0.12509082948E+03 0.  0.
         23    2    1    2    0    0 -0.24150751462E+03  0.81748236708E+02  0.39743862617E+03  0.48059772948E+03  0.89487776715E+02 0.  0.
          5    1    3    3  502    0  0.22243691817E+02 -0.95041286309E+00 -0.36562313902E+01  0.22946144300E+02  0.41800000000E+01 0. -1.
         -5    1    3    3    0  502  0.21926382281E+03 -0.80797823845E+02  0.42824240454E+03  0.48786672542E+03  0.41800000000E+01 0. -1.
        -11    1    4    4    0    0 -0.63616519932E+02  0.63290906300E+02  0.10868359059E+03  0.14094297887E+03  0.00000000000E+00 0.  1.
         11    1    4    4    0    0 -0.17789099469E+03  0.18457330408E+02  0.28875503558E+03  0.33965475061E+03  0.00000000000E+00 0. -1.
</event>
<event>
 8    1  0.7281309E-009  0.1161212E+03  0.7561462E-02  0.1249637E+00
          2   -1    0    0  501    0  0.00000000000E+00  0.00000000000E+00  0.30740620507E+03  0.30740620507E+03  0.00000000000E+00 0. -1.
         -2   -1    0    0    0  501 -0.00000000000E+00 -0.00000000000E+00 -0.49613002582E+02  0.49613002582E+02  0.00000000000E+00 0.  1.
         25    2    1    2    0    0 -0.49812645053E+02  0.30787498756E+02  0.17134377936E+03  0.22008024129E+03  0.12508977654E+03 0.  0.
         23    2    1    2    0    0  0.49812645053E+02 -0.30787498756E+02  0.86449423124E+02  0.13693896636E+03  0.88598013870E+02 0.  0.
          5    1    3    3  502    0 -0.33970722105E+02 -0.40449567204E+02  0.11872982709E+03  0.13001700538E+03  0.41800000000E+01 0.  1.
         -5    1    3    3    0  502 -0.15841922948E+02  0.71237065960E+02  0.52613952275E+02  0.90063235914E+02  0.41800000000E+01 0.  1.
        -11    1    4    4    0    0  0.68916731700E+02  0.11691560030E+01  0.57985788316E+02  0.90073494883E+02  0.00000000000E+00 0.  1.
         11    1    4    4    0    0 -0.19104086646E+02 -0.31956654759E+02  0.28463634809E+02  0.46865471475E+02  0.00000000000E+00 0. -1.
</event>
<event>
 8    1  0.7281309E-009  0.1552572E+03  0.7561462E-02  0.1194158E+00
         -1   -1    0    0    0  501 -0.00000000000E+00  0.00000000000E+00  0.44421182574E+02  0.44421182574E+02  0.00000000000E+00 0.  1.
          1   -1    0    0  501    0  0.00000000000E+00 -0.00000000000E+00 -0.75674286479E+03  0.75674286479E+03  0.00000000000E+00 0. -1.
         25    2    1    2    0    0 -0.11464089618E+03 -0.65670935525E+02 -0.23185273106E+03  0.29471601389E+03  0.12508650243E+03 0.  0.
         23    2    1    2    0    0  0.11464089618E+03  0.65670935525E+02 -0.48046895115E+03  0.50644803348E+03  0.90465411865E+02 0.  0.
          5    1    3    3  502    0 -0.41387343112E+02  0.20270442191E+02 -0.12445209045E+02  0.47918249391E+02  0.41800000000E+01 0.  1.
         -5    1    3    3    0  502 -0.73253553068E+02 -0.85941377716E+02 -0.21940752202E+03  0.24679776449E+03  0.41800000000E+01 0.  1.
        -11    1    4    4    0    0  0.44296579324E+02  0.67654466019E+02 -0.33810101961E+03  0.34763718612E+03  0.00000000000E+00 0. -1.
         11    1    4    4    0    0  0.70344316856E+02 -0.19835304937E+01 -0.14236793154E+03  0.15881084735E+03  0.00000000000E+00 0.  1.
</event>
<event>
 8    1  0.7281309E-009  0.1608709E+03  0.7561462E-02  0.1187717E+00
         -2   -1    0    0    0  501 -0.00000000000E+00  0.00000000000E+00  0.26450071142E+02  0.26450071142E+02  0.00000000000E+00 0.  1.
          2   -1    0    0  501    0  0.00000000000E+00 -0.00000000000E+00 -0.11350046075E+04  0.11350046075E+04  0.00000000000E+00 0. -1.
         25    2    1    2    0    0  0.12018118993E+03 -0.55276778104E+02 -0.48628514037E+03  0.51924972843E+03  0.12509197462E+03 0.  0.
         23    2    1    2    0    0 -0.12018118993E+03  0.55276778104E+02 -0.62226939596E+03  0.64220495019E+03  0.87800662246E+02 0.  0.
          5    1    3    3  502    0 -0.20946415538E+01  0.20034617503E+02 -0.17738461667E+03  0.17857364882E+03  0.41800000000E+01 0. -1.
         -5    1    3    3    0  502  0.12227583148E+03 -0.75311395606E+02 -0.30890052370E+03  0.34067607960E+03  0.41800000000E+01 0. -1.
        -11    1    4    4    0    0 -0.13274849575E+03  0.42036315162E+02 -0.52009035811E+03  0.53840801955E+03  0.00000000000E+00 0.  1.
         11    1    4    4    0    0  0.12567305822E+02  0.13240462942E+02 -0.10217903785E+03  0.10379693064E+03  0.00000000000E+00 0. -1.
</event>
<event>
 8    1  0.7281309E-009  0.1442033E+03  0.7561462E-02  0.1207782E+00
         -1   -1    0    0    0  501 -0.00000000000E+00  0.00000000000E+00  0.32997046247E+03  0.32997046247E+03  0.00000000000E+00 0.  1.
          1   -1    0    0  501    0  0.00000000000E+00 -0.00000000000E+00 -0.98670054841E+02  0.98670054841E+02  0.00000000000E+00 0. -1.
         25    2    1    2    0    0  0.67760339496E+02  0.93729188316E+02  0.21005908406E+02  0.17164019138E+03  0.12506991148E+03 0.  0.
         23    2    1    2    0    0 -0.67760339496E+02 -0.93729188316E+02  0.21029449922E+03  0.25700032593E+03  0.91917173444E+02 0.  0.
          5    1    3    3  502    0  0.89148678741E+02  0.30927271208E+02  0.39894540470E+02  0.10253306679E+03  0.41800000000E+01 0.  1.
         -5    1    3    3    0  502 -0.21388339245E+02  0.62801917108E+02 -0.18888632065E+02  0.69107124592E+02  0.41800000000E+01 0.  1.
        -11    1    4    4    0    0 -0.11800877648E+02 -0.62072503688E+02  0.39523812812E+02  0.74527768023E+02  0.00000000000E+00 0. -1.
         11    1    4    4    0    0 -0.55959461848E+02 -0.31656684628E+02  0.17077068641E+03  0.18247255790E+03  0.00000000000E+00 0.  1.
</event>
<event>
 8    1  0.7281309E-009  0.1079252E+03  0.7561462E-02  0.1264461E+00
         -3   -1    0    0    0  501 -0.00000000000E+00  0.00000000000E+00  0.11234740078E+03  0.11234740078E+03  0.00000000000E+00 0.  1.
          3   -1    0    0  501    0  0.00000000000E+00 -0.00000000000E+00 -0.13038905343E+03  0.13038905343E+03  0.00000000000E+00 0. -1.
         25    2    1    2    0    0  0.41971603157E+02  0.18739000558E+02  0.18602874036E+02  0.13456084328E+03  0.12509111882E+03 0.  0.
         23    2    1    2    0    0 -0.41971603157E+02 -0.18739000558E+02 -0.36644526685E+02  0.10817561093E+03  0.90809558146E+02 0.  0.
          5    1    3    3  502    0  0.62237136520E+02  0.56608657674E+02  0.30844123757E+02  0.89704145145E+02  0.41800000000E+01 0. -1.
         -5    1    3    3    0  502 -0.20265533363E+02 -0.37869657116E+02 -0.12241249721E+02  0.44856698132E+02  0.41800000000E+01 0. -1.
        -11    1    4    4    0    0 -0.58656822367E+02  0.56315820720E+01 -0.48530680814E+02  0.76338486409E+02  0.00000000000E+00 0. -1.
         11    1    4    4    0    0  0.16685219210E+02 -0.24370582630E+02  0.11886154129E+02  0.31837124522E+02  0.00000000000E+00 0.  1.
</event>
<event>
 8    1  0.7281309E-009  0.1525316E+03  0.7561462E-02  0.1197396E+00
         -1   -1    0    0    0  501 -0.00000000000E+00  0.00000000000E+00  0.79653136067E+02  0.79653136067E+02  0.00000000000E+00 0.  1.
          1   -1    0    0  501    0  0.00000000000E+00 -0.00000000000E+00 -0.40188283710E+03  0.40188283710E+03  0.00000000000E+00 0. -1.
         25    2    1    2    0    0  0.13771580162E+03 -0.24582334248E+02 -0.14715320423E+03  0.23847729370E+03  0.12508965154E+03 0.  0.
         23    2    1    2    0    0 -0.13771580162E+03  0.24582334248E+02 -0.17507649680E+03  0.24305867946E+03  0.94105306734E+02 0.  0.
          5    1    3    3  502    0  0.84851442130E+02 -0.25752874270E+02 -0.74975885439E+01  0.89087956529E+02  0.41800000000E+01 0.  1.
         -5    1    3    3    0  502  0.52864359493E+02  0.11705400222E+01 -0.13965561569E+03  0.14938933717E+03  0.41800000000E+01 0.  1.
        -11    1    4    4    0    0 -0.12321750534E+03  0.50808665453E+02 -0.16348030945E+03  0.21092625651E+03  0.00000000000E+00 0. -1.
         11    1    4    4    0    0 -0.14498296285E+02 -0.26226331205E+02 -0.11596187348E+02  0.32132422950E+02  0.00000000000E+00 0.  1.
</event>
<event>
 8    1  0.7281309E-009  0.6921043E+02  0.7561462E-02  0.1362799E+00
         -1   -1    0    0    0  501 -0.00000000000E+00  0.00000000000E+00  0.32669133088E+02  0.32669133088E+02  0.00000000000E+00 0.  1.
          1   -1    0    0  501    0  0.00000000000E+00 -0.00000000000E+00 -0.44622221759E+03  0.44622221759E+03  0.00000000000E+00 0. -1.
         25    2    1    2    0    0 -0.15606216628E+02 -0.30962048521E+02 -0.30840234684E+03  0.33460594984E+03  0.12508769598E+03 0.  0.
         23    2    1    2    0    0  0.15606216628E+02  0.30962048521E+02 -0.10515073766E+03  0.14428540084E+03  0.92517008264E+02 0.  0.
          5    1    3    3  502    0  0.11456332361E+02  0.17064194555E+01 -0.28634568734E+03  0.28661033560E+03  0.41800000000E+01 0. -1.
         -5    1    3    3    0  502 -0.27062548989E+02 -0.32668467976E+02 -0.22056659507E+02  0.47995614240E+02  0.41800000000E+01 0. -1.
        -11    1    4    4    0    0  0.32359100941E+02  0.49090220900E+02 -0.10412737891E+03  0.11958040074E+03  0.00000000000E+00 0. -1.
         11    1    4    4    0    0 -0.16752884313E+02 -0.18128172379E+02 -0.10233587460E+01  0.24705000096E+02  0.00000000000E+00 0.  1.
</event>
<event>
 8    1  0.7281309E-009  0.1040435E+03  0.7561462E-02  0.1272016E+00
         -2   -1    0    0    0  501 -0.00000000000E+00  0.00000000000E+00  0.48683258915E+03  0.48683258915E+03  0.00000000000E+00 0.  1.
          2   -1    0    0  501    0  0.00000000000E+00 -0.00000000000E+00 -0.24470177013E+02  0.24470177013E+02  0.00000000000E+00 0. -1.
         25    2    1    2    0    0  0.10691904852E+02  0.12506381258E+02  0.24391337699E+03  0.27461302646E+03  0.12509137631E+03 0.  0.
         23    2    1    2    0    0 -0.10691904852E+02 -0.12506381258E+02  0.21844903515E+03  0.23668973970E+03  0.89617662998E+02 0.  0.
          5    1    3    3  502    0  0.59702719535E+02  0.31425388732E+02  0.94582451297E+02  0.11625524620E+03  0.41800000000E+01 0.  1.
         -5    1    3    3    0  502 -0.49010814683E+02 -0.18919007474E+02  0.14933092569E+03  0.15835778026E+03  0.41800000000E+01 0.  1.
        -11    1    4    4    0    0 -0.14533824409E+02 -0.48990979996E+02  0.15716642245E+03  0.16526533974E+03  0.00000000000E+00 0.  1.
         11    1    4    4    0    0  0.38419195571E+01  0.36484598739E+02  0.61282612694E+02  0.71424399959E+02  0.00000000000E+00 0. -1.
</event>
<event>
 8    1  0.7281309E-009  0.1120852E+03  0.7561462E-02  0.1256756E+00
          2   -1    0    0  501    0  0.00000000000E+00  0.00000000000E+00  0.46882797266E+03  0.46882797266E+03  0.00000000000E+00 0. -1.
         -2   -1    0    0    0  501 -0.00000000000E+00 -0.00000000000E+00 -0.44580290924E+02  0.44580290924E+02  0.00000000000E+00 0.  1.
         25    2    1    2    0    0 -0.84298874696E+02 -0.37281724335E+02  0.18468961354E+03  0.24135807630E+03  0.12508892997E+03 0.  0.
         23    2    1    2    0    0  0.84298874696E+02  0.37281724335E+02  0.23955806819E+03  0.27205018729E+03  0.90149925791E+02 0.  0.
          5    1    3    3  502    0 -0.39553253385E+02  0.45226867100E+01 -0.65033736669E+01  0.40554664559E+02  0.41800000000E+01 0. -1.
         -5    1    3    3    0  502 -0.44745621311E+02 -0.41804411045E+02  0.19119298721E+03  0.20080341174E+03  0.41800000000E+01 0. -1.
        -11    1    4    4    0    0 -0.86890730258E+01 -0.14070621802E+02  0.70308310339E+02  0.72227009426E+02  0.00000000000E+00 0. -1.
         11    1    4    4    0    0  0.92987947722E+02  0.51352346137E+02  0.16924975786E+03  0.19982317786E+03  0.00000000000E+00 0.  1.
</event>
<event>
 8    1  0.7281309E-009  0.1394134E+03  0.7561462E-02  0.1214120E+00
         -1   -1    0    0    0  501 -0.00000000000E+00  0.00000000000E+00  0.53312661573E+02  0.53312661573E+02  0.00000000000E+00 0.  1.
          1   -1    0    0  501    0  0.00000000000E+00 -0.00000000000E+00 -0.43436120962E+03  0.43436120962E+03  0.00000000000E+00 0. -1.
         25    2    1    2    0    0 -0.97426311639E+02  0.29524987733E+02 -0.15711465637E+03  0.22515547569E+03  0.12508541836E+03 0.  0.
         23    2    1    2    0    0  0.97426311639E+02 -0.29524987733E+02 -0.22393389167E+03  0.26251839550E+03  0.91683744672E+02 0.  0.
          5    1    3    3  502    0  0.27251715857E+02  0.22130691566E+02 -0.24993583099E+02  0.43296363848E+02  0.41800000000E+01 0. -1.
         -5    1    3    3    0  502 -0.12467802750E+03  0.73942961666E+01 -0.13212107327E+03  0.18185911184E+03  0.41800000000E+01 0. -1.
        -11    1    4    4    0    0  0.89630506728E+02 -0.17392938468E+01 -0.21396518286E+03  0.23198653486E+03  0.00000000000E+00 0. -1.
         11    1    4    4    0    0  0.77958049109E+01 -0.27785693886E+02 -0.99687088120E+01  0.30531860643E+02  0.00000000000E+00 0.  1.
</event>
<event>
 8    1  0.7281309E-009  0.1409547E+03  0.7561462E-02  0.1212050E+00
         -1   -1    0    0    0  501 -0.00000000000E+00  0.00000000000E+00  0.12242158988E+03  0.12242158988E+03  0.00000000000E+00 0.  1.
          1   -1    0    0  501    0  0.00000000000E+00 -0.00000000000E+00 -0.21277840309E+03  0.21277840309E+03  0.00000000000E+00 0. -1.
         25    2    1    2    0    0 -0.76368834245E+02 -0.84622292795E+02 -0.12371802353E+02  0.16970005862E+03  0.12510762215E+03 0.  0.
         23    2    1    2    0    0  0.76368834245E+02  0.84622292795E+02 -0.77985010855E+02  0.16549993436E+03  0.91189007407E+02 0.  0.
          5    1    3    3  502    0 -0.10272391246E+03 -0.32574855350E+02 -0.22952170859E+02  0.11026149799E+03  0.41800000000E+01 0.  1.
         -5    1    3    3    0  502  0.26355078211E+02 -0.52047437445E+02  0.10580368507E+02  0.59438560631E+02  0.41800000000E+01 0.  1.
        -11    1    4    4    0    0  0.57929947556E+02  0.50785394386E+02 -0.95893989349E+02  0.12300687908E+03  0.00000000000E+00 0. -1.
         11    1    4    4    0    0  0.18438886688E+02  0.33836898409E+02  0.17908978494E+02  0.42493055279E+02  0.00000000000E+00 0.  1.
</event>
<event>
 8    1  0.7281309E-009  0.7554179E+02  0.7561462E-02  0.1342201E+00
         -1   -1    0    0    0  501 -0.00000000000E+00  0.00000000000E+00  0.31393943953E+03  0.31393943953E+03  0.00000000000E+00 0.  1.
          1   -1    0    0  501    0  0.00000000000E+00 -0.00000000000E+00 -0.49772158287E+02  0.49772158287E+02  0.00000000000E+00 0. -1.
         25    2    1    2    0    0 -0.50810291882E+02  0.24359682824E+02  0.10786181679E+03  0.17451555945E+03  0.12508568687E+03 0.  0.
         23    2    1    2    0    0  0.50810291882E+02 -0.24359682824E+02  0.15630546446E+03  0.18919603837E+03  0.90491230558E+02 0.  0.
          5    1    3    3  502    0 -0.48453736421E+02  0.43345385365E+02  0.12972523782E+03  0.14516437832E+03  0.41800000000E+01 0. -1.
         -5    1    3    3    0  502 -0.23565554613E+01 -0.18985702540E+02 -0.21863421030E+02  0.29351181130E+02  0.41800000000E+01 0. -1.
        -11    1    4    4    0    0  0.28464268348E+02 -0.31916351065E+02  0.15973342994E+03  0.16535911428E+03  0.00000000000E+00 0.  1.
         11    1    4    4    0    0  0.22346023534E+02  0.75566682402E+01 -0.34279654773E+01  0.23836924089E+02  0.00000000000E+00 0. -1.
</event>
<event>
 8    1  0.7281309E-009  0.1177724E+03  0.7561462E-02  0.1246818E+00
          2   -1    0    0  501    0  0.00000000000E+00  0.00000000000E+00  0.62238682791E+03  0.62238682791E+03  0.00000000000E+00 0. -1.
         -2   -1    0    0    0  501 -0.00000000000E+00 -0.00000000000E+00 -0.24412197494E+02  0.24412197494E+02  0.00000000000E+00 0.  1.
         25    2    1    2    0    0 -0.45602018871E+02  0.32464223316E+02  0.30518777972E+03  0.33454266425E+03  0.12508294604E+03 0.  0.
         23    2    1    2    0    0  0.45602018871E+02 -0.32464223316E+02  0.29278685069E+03  0.31225636115E+03  0.92986156071E+02 0.  0.
          5    1    3    3  502    0 -0.83525278783E+02  0.38183661164E+02  0.16220640919E+03  0.18644799746E+03  0.41800000000E+01 0. -1.
         -5    1    3    3    0  502  0.37923259911E+02 -0.57194378482E+01  0.14298137053E+03  0.14809466679E+03  0.41800000000E+01 0. -1.
        -11    1    4    4    0    0 -0.19274295630E+02 -0.35162647347E+02  0.75671244537E+02  0.85639053535E+02  0.00000000000E+00 0.  1.
         11    1    4    4    0    0  0.64876314501E+02  0.26984240315E+01  0.21711560616E+03  0.22661730762E+03  0.00000000000E+00 0. -1.
</event>
<event>
 8    1  0.7281309E-009  0.1207943E+03  0.7561462E-02  0.1241792E+00
          1   -1    0    0  501    0  0.00000000000E+00  0.00000000000E+00  0.56795965241E+03  0.56795965241E+03  0.00000000000E+00 0. -1.
         -1   -1    0    0    0  501 -0.00000000000E+00 -0.00000000000E+00 -0.47296576263E+02  0.47296576263E+02  0.00000000000E+00 0.  1.
         25    2    1    2    0    0  0.51219360445E+02 -0.17947118211E+02  0.48389497646E+03  0.50273978958E+03  0.12508967122E+03 0.  0.
         23    2    1    2    0    0 -0.51219360445E+02  0.17947118211E+02  0.36768099691E+02  0.11251643910E+03  0.91446891561E+02 0.  0.
          5    1    3    3  502    0  0.64716136452E+02  0.40120868981E+02  0.25365614434E+03  0.26487124119E+03  0.41800000000E+01 0. -1.
         -5    1    3    3    0  502 -0.13496776007E+02 -0.58067987192E+02  0.23023883212E+03  0.23786854839E+03  0.41800000000E+01 0. -1.
        -11    1    4    4    0    0  0.23069150906E+02 -0.11351435130E+02  0.14912267510E+02  0.29722323686E+02  0.00000000000E+00 0. -1.
         11    1    4    4    0    0 -0.74288511351E+02  0.29298553342E+02  0.21855832182E+02  0.82794115413E+02  0.00000000000E+00 0.  1.
</event>
<event>
 8    1  0.7281309E-009  0.1291328E+03  0.7561462E-02  0.1228748E+00
          2   -1    0    0  501    0  0.00000000000E+00  0.00000000000E+00  0.12591160356E+03  0.12591160356E+03  0.00000000000E+00 0. -1.
         -2   -1    0    0    0  501 -0.00000000000E+00 -0.00000000000E+00 -0.28030899267E+03  0.28030899267E+03  0.00000000000E+00 0.  1.
         25    2    1    2    0    0  0.24254285998E+01  0.74759876538E+02 -0.22616708737E+03  0.26906118335E+03  0.12508975631E+03 0.  0.
         23    2    1    2    0    0 -0.24254285998E+01 -0.74759876538E+02  0.71769698258E+02  0.13715941288E+03  0.89815884501E+02 0.  0.
          5    1    3    3  502    0  0.60419988703E+02  0.60021104066E+02 -0.12171305107E+03  0.14860904134E+03  0.41800000000E+01 0. -1.
         -5    1    3    3    0  502 -0.57994560103E+02  0.14738772472E+02 -0.10445403630E+03  0.12045214201E+03  0.41800000000E+01 0. -1.
        -11    1    4    4    0    0 -0.38592145542E+02 -0.11713630670E+02  0.94641574085E+01  0.41426237054E+02  0.00000000000E+00 0.  1.
         11    1    4    4    0    0  0.36166716942E+02 -0.63046245868E+02  0.62305540850E+02  0.95733175822E+02  0.00000000000E+00 0. -1.
</event>
<event>
 8    1  0.7281309E-009  0.1032778E+03  0.7561462E-02  0.1273550E+00
         -1   -1    0    0    0  501 -0.00000000000E+00  0.00000000000E+00  0.10066311943E+03  0.10066311943E+03  0.00000000000E+00 0.  1.
          1   -1    0    0  501    0  0.00000000000E+00 -0.00000000000E+00 -0.15231012570E+03  0.15231012570E+03  0.00000000000E+00 0. -1.
         25    2    1    2    0    0 -0.33629505972E+01 -0.26105066850E+02 -0.82336122003E+02  0.15205296263E+03  0.12509229595E+03 0.  0.
         23    2    1    2    0    0  0.33629505972E+01  0.26105066850E+02  0.30689115738E+02  0.10092028250E+03  0.92467819502E+02 0.  0.
          5    1    3    3  502    0  0.47969724067E+02  0.10610384017E+02 -0.13902427499E+01  0.49326259243E+02  0.41800000000E+01 0. -1.
         -5    1    3    3    0  502 -0.51332674664E+02 -0.36715450866E+02 -0.80945879253E+02  0.10272670339E+03  0.41800000000E+01 0. -1.
        -11    1    4    4    0    0 -0.48500144268E+01  0.59455116847E+02  0.29511980656E+02  0.66553666777E+02  0.00000000000E+00 0. -1.
         11    1    4    4    0    0  0.82129650240E+01 -0.33350049998E+02  0.11771350815E+01  0.34366615724E+02  0.00000000000E+00 0.  1.
</event>
<event>
 8    1  0.7281309E-009  0.8806030E+02  0.7561462E-02  0.1307618E+00
         -1   -1    0    0    0  501 -0.00000000000E+00  0.00000000000E+00  0.12639949864E+03  0.12639949864E+03  0.00000000000E+00 0.  1.
          1   -1    0    0  501    0  0.00000000000E+00 -0.00000000000E+00 -0.94838372520E+02  0.94838372520E+02  0.00000000000E+00 0. -1.
         25    2    1    2    0    0 -0.17939156832E+02 -0.49124688956E+01  0.19992385822E+02  0.12803508560E+03  0.12508933590E+03 0.  0.
         23    2    1    2    0    0  0.17939156832E+02  0.49124688956E+01  0.11568740303E+02  0.93202785565E+02  0.90592371569E+02 0.  0.
          5    1    3    3  502    0  0.39837355325E+02  0.54073819911E+01  0.48099040483E+02  0.62827102072E+02  0.41800000000E+01 0.  1.
         -5    1    3    3    0  502 -0.57776512157E+02 -0.10319850887E+02 -0.28106654662E+02  0.65207983527E+02  0.41800000000E+01 0.  1.
        -11    1    4    4    0    0 -0.28288657303E+02 -0.69626764471E+01  0.30204649643E+02  0.41964840705E+02  0.00000000000E+00 0.  1.
         11    1    4    4    0    0  0.46227814135E+02  0.11875145343E+02 -0.18635909341E+02  0.51237944861E+02  0.00000000000E+00 0. -1.
</event>
<event>
 8    1  0.7281309E-009  0.1014625E+03  0.7561462E-02  0.1277250E+00
          2   -1    0    0  501    0  0.00000000000E+00  0.00000000000E+00  0.28893595042E+02  0.28893595042E+02  0.00000000000E+00 0. -1.
         -2   -1    0    0    0  501 -0.00000000000E+00 -0.00000000000E+00 -0.41823367248E+03  0.41823367248E+03  0.00000000000E+00 0.  1.
         25    2    1    2    0    0 -0.11291333808E+02  0.24386092773E+02 -0.21243684826E+03  0.24798863781E+03  0.12508706664E+03 0.  0.
         23    2    1    2    0    0  0.11291333808E+02 -0.24386092773E+02 -0.17690322918E+03  0.19913862972E+03  0.87402892473E+02 0.  0.
          5    1    3    3  502    0  0.17123203817E+02 -0.38515139381E+02 -0.14628532046E+03  0.15229408213E+03  0.41800000000E+01 0. -1.
         -5    1    3    3    0  502 -0.28414537625E+02  0.62901232154E+02 -0.66151527799E+02  0.95694555671E+02  0.41800000000E+01 0. -1.
        -11    1    4    4    0    0  0.48153631529E+02 -0.17966960451E+01 -0.95351553290E+02  0.10683594461E+03  0.00000000000E+00 0.  1.
         11    1    4    4    0    0 -0.36862297721E+02 -0.22589396728E+02 -0.81551675890E+02  0.92302685109E+02  0.00000000000E+00 0. -1.
</event>
<event>
 8    1  0.7281309E-009  0.1070582E+03  0.7561462E-02  0.1266117E+00
         -2   -1    0    0    0  501 -0.00000000000E+00  0.00000000000E+00  0.19161150254E+03  0.19161150254E+03  0.00000000000E+00 0.  1.
          2   -1    0    0  501    0  0.00000000000E+00 -0.00000000000E+00 -0.81676175789E+02  0.81676175789E+02  0.00000000000E+00 0. -1.
         25    2    1    2    0    0  0.42076957772E+02  0.41192089267E+02  0.68182520536E+02  0.15415262727E+03  0.12508764045E+03 0.  0.
         23    2    1    2    0    0 -0.42076957772E+02 -0.41192089267E+02  0.41752806215E+02  0.11913505106E+03  0.94776605607E+02 0.  0.
          5    1    3    3  502    0 -0.39986125494E+02  0.28279452735E+02  0.44297470639E+01  0.49352940520E+02  0.41800000000E+01 0.  1.
         -5    1    3    3    0  502  0.82063083266E+02  0.12912636532E+02  0.63752773472E+02  0.10479968675E+03  0.41800000000E+01 0.  1.
        -11    1    4    4    0    0  0.13971099012E+02 -0.12833493251E+02  0.52125562955E+02  0.55470392733E+02  0.00000000000E+00 0.  1.
         11    1    4    4    0    0 -0.56048056784E+02 -0.28358596016E+02 -0.10372756740E+02  0.63664658325E+02  0.00000000000E+00 0. -1.
</event>
<event>
 7    1  0.7281309E-009  0.1025369E+03  0.7561462E-02  0.1275050E+00
         -3   -1    0    0    0  501 -0.00000000000E+00  0.00000000000E+00  0.40617133408E+02  0.40617133408E+02  0.00000000000E+00 0.  1.
          3   -1    0    0  501    0  0.00000000000E+00 -0.00000000000E+00 -0.37875945408E+03  0.37875945408E+03  0.00000000000E+00 0. -1.
         23    2    1    2    0    0 -0.36506139536E+02 -0.45742169021E+01 -0.23030448669E+03  0.25040227229E+03  0.91145596121E+02 0.  0.
          5    1    1    2  502    0  0.75848434325E+02 -0.84624612433E+01 -0.32851292724E+02  0.83194218990E+02  0.41800000000E+01 0.  1.
         -5    1    1    2    0  502 -0.39342294789E+02  0.13036678145E+02 -0.74986541256E+02  0.85780096211E+02  0.41800000000E+01 0.  1.
        -11    1    3    3    0    0 -0.41170110326E+02 -0.36317855403E+02 -0.82097460488E+02  0.98762126465E+02  0.00000000000E+00 0.  1.
         11    1    3    3    0    0  0.46639707901E+01  0.31743638501E+02 -0.14820702621E+03  0.15164014582E+03  0.00000000000E+00 0. -1.
</event>
<event>
 8    1  0.7281309E-009  0.3884791E+03  0.7561462E-02  0.1047844E+00
         -2   -1    0    0    0  501 -0.00000000000E+00  0.00000000000E+00  0.23152615073E+03  0.23152615073E+03  0.00000000000E+00 0.  1.
          2   -1    0    0  501    0  0.00000000000E+00 -0.00000000000E+00 -0.68554298390E+03  0.68554298390E+03  0.00000000000E+00 0. -1.
         25    2    1    2    0    0  0.30896307075E+03  0.21852205864E+03 -0.16288588048E+03  0.43056871278E+03  0.12509011621E+03 0.  0.
         23    2    1    2    0    0 -0.30896307075E+03 -0.21852205864E+03 -0.29113095269E+03  0.48650042184E+03  0.93356090510E+02 0.  0.
          5    1    3    3  502    0  0.29320133166E+03  0.23467288505E+03 -0.15498521641E+03  0.40629579566E+03  0.41800000000E+01 0.  1.
         -5    1    3    3    0  502  0.15761739091E+02 -0.16150826415E+02 -0.79006640635E+01  0.24272917124E+02  0.41800000000E+01 0.  1.
        -11    1    4    4    0    0 -0.65924439150E+02 -0.46006873673E+02 -0.18319261803E+02  0.82451558235E+02  0.00000000000E+00 0.  1.
         11    1    4    4    0    0 -0.24303863160E+03 -0.17251518496E+03 -0.27281169089E+03  0.40404886360E+03  0.00000000000E+00 0. -1.
</event>
<event>
 8    1  0.7281309E-009  0.1021059E+03  0.7561462E-02  0.1275929E+00
          1   -1    0    0  501    0  0.00000000000E+00  0.00000000000E+00  0.67528372724E+03  0.67528372724E+03  0.00000000000E+00 0. -1.
         -1   -1    0    0    0  501 -0.00000000000E+00 -0.00000000000E+00 -0.19354520441E+02  0.19354520441E+02  0.00000000000E+00 0.  1.
         25    2    1    2    0    0  0.19710131789E+02  0.16838033755E+02  0.46467082283E+03  0.48190703128E+03  0.12507359644E+03 0.  0.
         23    2    1    2    0    0 -0.19710131789E+02 -0.16838033755E+02  0.19125838397E+03  0.21273121640E+03  0.89458327279E+02 0.  0.
          5    1    3    3  502    0 -0.52276612535E+02  0.13568079738E+02  0.16496261159E+03  0.17362912379E+03  0.41800000000E+01 0. -1.
         -5    1    3    3    0  502  0.71986744324E+02  0.32699540170E+01  0.29970821124E+03  0.30827790748E+03  0.41800000000E+01 0. -1.
        -11    1    4    4    0    0  0.22629252310E+02  0.12967352291E+02  0.12968115223E+03  0.13227787619E+03  0.00000000000E+00 0. -1.
         11    1    4    4    0    0 -0.42339384099E+02 -0.29805386046E+02  0.61577231733E+02  0.80453340212E+02  0.00000000000E+00 0.  1.
</event>
<event>
 8    1  0.7281309E-009  0.2650027E+03  0.7561462E-02  0.1104174E+00
          2   -1    0    0  501    0  0.00000000000E+00  0.00000000000E+00  0.23692099494E+03  0.23692099494E+03  0.00000000000E+00 0. -1.
         -2   -1    0    0    0  501 -0.00000000000E+00 -0.00000000000E+00 -0.36599120692E+03  0.36599120692E+03  0.00000000000E+00 0.  1.
         25    2    1    2    0    0 -0.84065855412E+02 -0.23698443176E+03  0.44347260091E+02  0.28433170604E+03  0.12509656527E+03 0.  0.
         23    2    1    2    0    0  0.84065855412E+02  0.23698443176E+03 -0.17341747207E+03  0.31858049582E+03  0.90505379697E+02 0.  0.
          5    1    3    3  502    0 -0.34765527764E+02 -0.19729673421E+03 -0.10250103889E+02  0.20064192055E+03  0.41800000000E+01 0. -1.
         -5    1    3    3    0  502 -0.49300327648E+02 -0.39687697543E+02  0.54597363980E+02  0.83689785494E+02  0.41800000000E+01 0. -1.
        -11    1    4    4    0    0  0.86064042044E+02  0.11224657264E+03 -0.78040383300E+02  0.16154446393E+03  0.00000000000E+00 0.  1.
         11    1    4    4    0    0 -0.19981866318E+01  0.12473785912E+03 -0.95377088768E+02  0.15703603188E+03  0.00000000000E+00 0. -1.
</event>
<event>
 8    1  0.7281309E-009  0.1457357E+03  0.7561462E-02  0.1205813E+00
          1   -1    0    0  501    0  0.00000000000E+00  0.00000000000E+00  0.11121225318E+03  0.11121225318E+03  0.00000000000E+00 0. -1.
         -1   -1    0    0    0  501 -0.00000000000E+00 -0.00000000000E+00 -0.22937234787E+03  0.22937234787E+03  0.00000000000E+00 0.  1.
         25    2    1    2    0    0  0.87173183333E+02  0.74923151056E+02 -0.49552016372E+02  0.17696154267E+03  0.12508933928E+03 0.  0.
         23    2    1    2    0    0 -0.87173183333E+02 -0.74923151056E+02 -0.68608078315E+02  0.16362305838E+03  0.94089289331E+02 0.  0.
          5    1    3    3  502    0  0.90427608590E+02  0.36826755742E+01 -0.10319485916E+01  0.90604921569E+02  0.41800000000E+01 0.  1.
         -5    1    3    3    0  502 -0.32544252563E+01  0.71240475482E+02 -0.48520067780E+02  0.86356621101E+02  0.41800000000E+01 0.  1.
        -11    1    4    4    0    0 -0.71190837522E+02 -0.22548795438E+02 -0.78090376285E+02  0.10804948122E+03  0.00000000000E+00 0. -1.
         11    1    4    4    0    0 -0.15982345811E+02 -0.52374355618E+02  0.94822979692E+01  0.55573577164E+02  0.00000000000E+00 0.  1.
</event>
<event>
 8    1  0.7281309E-009  0.9914022E+02  0.7561462E-02  0.1282114E+00
          2   -1    0    0  501    0  0.00000000000E+00  0.00000000000E+00  0.68609231339E+03  0.68609231339E+03  0.00000000000E+00 0. -1.
         -2   -1    0    0    0  501 -0.00000000000E+00 -0.00000000000E+00 -0.21579497497E+02  0.21579497497E+02  0.00000000000E+00 0.  1.
         25    2    1    2    0    0  0.47916804740E+01  0.11675144053E+02  0.45564341898E+03  0.47267115991E+03  0.12509129052E+03 0.  0.
         23    2    1    2    0    0 -0.47916804740E+01 -0.11675144053E+02  0.20886939691E+03  0.23500065097E+03  0.10695612091E+03 0.  0.
          5    1    3    3  502    0 -0.58850255859E+02 -0.23649142796E+01  0.25140639961E+03  0.25824715991E+03  0.41800000000E+01 0. -1.
         -5    1    3    3    0  502  0.63641936333E+02  0.14040058333E+02  0.20423701937E+03  0.21442400001E+03  0.41800000000E+01 0. -1.
        -11    1    4    4    0    0 -0.37046827538E+02 -0.17793077317E+02  0.24745841688E+02  0.47973093624E+02  0.00000000000E+00 0.  1.
         11    1    4    4    0    0  0.32255147064E+02  0.61179332635E+01  0.18412355522E+03  0.18702755735E+03  0.00000000000E+00 0. -1.
</event>
<event>
 8    1  0.7281309E-009  0.7667468E+02  0.7561462E-02  0.1338762E+00
          1   -1    0    0  501    0  0.00000000000E+00  0.00000000000E+00  0.60452269613E+03  0.60452269613E+03  0.00000000000E+00 0. -1.
         -1   -1    0    0    0  501 -0.00000000000E+00 -0.00000000000E+00 -0.19042052007E+02  0.19042052007E+02  0.00000000000E+00 0.  1.
         25    2    1    2    0    0  0.14594413750E+02  0.34990360268E+02  0.43076413449E+03  0.45015828457E+03  0.12508964538E+03 0.  0.
         23    2    1    2    0    0 -0.14594413750E+02 -0.34990360268E+02  0.15471650963E+03  0.17340646357E+03  0.68522120729E+02 0.  0.
          5    1    3    3  502    0  0.36893876208E+02 -0.14472155774E+02  0.35301538648E+03  0.35525756415E+03  0.41800000000E+01 0. -1.
         -5    1    3    3    0  502 -0.22299462459E+02  0.49462516043E+02  0.77748748013E+02  0.94900720423E+02  0.41800000000E+01 0. -1.
        -11    1    4    4    0    0 -0.30783315551E+02 -0.18217578600E+02  0.14282768400E+03  0.14723871775E+03  0.00000000000E+00 0. -1.
         11    1    4    4    0    0  0.16188901802E+02 -0.16772781668E+02  0.11888825633E+02  0.26167745821E+02  0.00000000000E+00 0.  1.
</event>
<event>
 8    1  0.7281309E-009  0.1005427E+03  0.7561462E-02  0.1279159E+00
          1   -1    0    0  501    0  0.00000000000E+00  0.00000000000E+00  0.13883333415E+03  0.13883333415E+03  0.00000000000E+00 0. -1.
         -1   -1    0    0    0  501 -0.00000000000E+00 -0.00000000000E+00 -0.15661170601E+03  0.15661170601E+03  0.00000000000E+00 0.  1.
         25    2    1    2    0    0  0.35877294874E+02  0.60287966693E+02  0.62690750735E+02  0.15652363521E+03  0.12509076279E+03 0.  0.
         23    2    1    2    0    0 -0.35877294874E+02 -0.60287966693E+02 -0.80469122603E+02  0.13892140495E+03  0.88893519704E+02 0.  0.
          5    1    3    3  502    0  0.74168783569E+02  0.25378734053E+02  0.46983978738E+01  0.78642456350E+02  0.41800000000E+01 0.  1.
         -5    1    3    3    0  502 -0.38291488695E+02  0.34909232640E+02  0.57992352861E+02  0.77881178859E+02  0.41800000000E+01 0.  1.
        -11    1    4    4    0    0 -0.18692408628E+02 -0.38936426300E+02 -0.97510174670E+02  0.10664748285E+03  0.00000000000E+00 0.  1.
         11    1    4    4    0    0 -0.17184886246E+02 -0.21351540393E+02  0.17041052066E+02  0.32273922104E+02  0.00000000000E+00 0. -1.
</event>
<event>
 8    1  0.7281309E-009  0.9640853E+02  0.7561462E-02  0.1288035E+00
         -2   -1    0    0    0  501 -0.00000000000E+00  0.00000000000E+00  0.27811634963E+03  0.27811634963E+03  0.00000000000E+00 0.  1.
          2   -1    0    0  501    0  0.00000000000E+00 -0.00000000000E+00 -0.53601191307E+02  0.53601191307E+02  0.00000000000E+00 0. -1.
         25    2    1    2    0    0  0.54338259188E+02  0.10936951090E+02  0.12148147450E+03  0.18297157310E+03  0.12509430285E+03 0.  0.
         23    2    1    2    0    0 -0.54338259188E+02 -0.10936951090E+02  0.10303368383E+03  0.14874596784E+03  0.91854012627E+02 0.  0.
          5    1    3    3  502    0  0.72450062181E+02  0.15534299451E+02  0.13864412553E+03  0.15725772450E+03  0.41800000000E+01 0.  1.
         -5    1    3    3    0  502 -0.18111802993E+02 -0.45973483615E+01 -0.17162651029E+02  0.25713848603E+02  0.41800000000E+01 0.  1.
        -11    1    4    4    0    0 -0.61570513514E+02  0.22266092279E+02  0.92194510167E+02  0.11307756057E+03  0.00000000000E+00 0.  1.
         11    1    4    4    0    0  0.72322543259E+01 -0.33203043369E+02  0.10839173659E+02  0.35668407271E+02  0.00000000000E+00 0. -1.
</event>
<event>
 8    1  0.7281309E-009  0.1691575E+03  0.7561462E-02  0.1178729E+00
          1   -1    0    0  501    0  0.00000000000E+00  0.00000000000E+00  0.76973609996E+03  0.76973609996E+03  0.00000000000E+00 0. -1.
         -1   -1    0    0    0  501 -0.00000000000E+00 -0.00000000000E+00 -0.41844754822E+02  0.41844754822E+02  0.00000000000E+00 0.  1.
         25    2    1    2    0    0  0.36478183984E+02 -0.13426723785E+03  0.43613021384E+03  0.47456804467E+03  0.12508763539E+03 0.  0.
         23    2    1    2    0    0 -0.36478183984E+02  0.13426723785E+03  0.29176113130E+03  0.33701281011E+03  0.95366280090E+02 0.  0.
          5    1    3    3  502    0  0.37449252979E+02 -0.15544383850E+03  0.33592225263E+03  0.37205707316E+03  0.41800000000E+01 0. -1.
         -5    1    3    3    0  502 -0.97106899527E+00  0.21176600642E+02  0.10020796121E+03  0.10251097151E+03  0.41800000000E+01 0. -1.
        -11    1    4    4    0    0  0.18182112173E+02  0.70341906064E+02  0.74602599520E+02  0.10413510843E+03  0.00000000000E+00 0. -1.
         11    1    4    4    0    0 -0.54660296156E+02  0.63925331789E+02  0.21715853178E+03  0.23287770169E+03  0.00000000000E+00 0.  1.
</event>
<event>
 8    1  0.7281309E-009  0.8962486E+02  0.7561462E-02  0.1303763E+00
         -1   -1    0    0    0  501 -0.00000000000E+00  0.00000000000E+00  0.22761161464E+03  0.22761161464E+03  0.00000000000E+00 0.  1.
          1   -1    0    0  501    0  0.00000000000E+00 -0.00000000000E+00 -0.95559304591E+02  0.95559304591E+02  0.00000000000E+00 0. -1.
         25    2    1    2    0    0 -0.34961853857E+01 -0.57437419512E+02  0.16110174462E+03  0.21192730352E+03  0.12509248333E+03 0.  0.
         23    2    1    2    0    0  0.34961853857E+01  0.57437419512E+02 -0.29049434574E+02  0.11124361570E+03  0.90664171056E+02 0.  0.
          5    1    3    3  502    0 -0.26032988188E+02  0.24291678080E+02  0.10300850312E+03  0.10906890580E+03  0.41800000000E+01 0. -1.
         -5    1    3    3    0  502  0.22536802802E+02 -0.81729097592E+02  0.58093241500E+02  0.10285839772E+03  0.41800000000E+01 0. -1.
        -11    1    4    4    0    0 -0.12119913571E+01  0.47549564252E+02  0.26619867954E+02  0.54507314679E+02  0.00000000000E+00 0.  1.
         11    1    4    4    0    0  0.47081767429E+01  0.98878552596E+01 -0.55669302529E+02  0.56736301024E+02  0.00000000000E+00 0. -1.
</event>
<event>
 8    1  0.7281309E-009  0.1326617E+03  0.7561462E-02  0.1223559E+00
         -1   -1    0    0    0  501 -0.00000000000E+00  0.00000000000E+00  0.11633423333E+03  0.11633423333E+03  0.00000000000E+00 0.  1.
          1   -1    0    0  501    0  0.00000000000E+00 -0.00000000000E+00 -0.21795919412E+03  0.21795919412E+03  0.00000000000E+00 0. -1.
         25    2    1    2    0    0 -0.43883908114E+02  0.58598630223E+02 -0.14202152905E+03  0.20290710990E+03  0.12506631713E+03 0.  0.
         23    2    1    2    0    0  0.43883908114E+02 -0.58598630223E+02  0.40396568266E+02  0.13138631755E+03  0.10134537412E+03 0.  0.
          5    1    3    3  502    0  0.30699617951E+02  0.62687559565E+02 -0.63577417414E+02  0.94507973587E+02  0.41800000000E+01 0. -1.
         -5    1    3    3    0  502 -0.74583526064E+02 -0.40889293416E+01 -0.78444111634E+02  0.10839913631E+03  0.41800000000E+01 0. -1.
        -11    1    4    4    0    0  0.74106598341E+02 -0.49132032043E+02  0.13697201723E+02  0.89963091461E+02  0.00000000000E+00 0.  1.
         11    1    4    4    0    0 -0.30222690227E+02 -0.94665981807E+01  0.26699366543E+02  0.41423226087E+02  0.00000000000E+00 0. -1.
</event>
<event>
 8    1  0.7281309E-009  0.7708398E+02  0.7561462E-02  0.1337536E+00
         -1   -1    0    0    0  501 -0.00000000000E+00  0.00000000000E+00  0.99925277035E+02  0.99925277035E+02  0.00000000000E+00 0.  1.
          1   -1    0    0  501    0  0.00000000000E+00 -0.00000000000E+00 -0.14523944909E+03  0.14523944909E+03  0.00000000000E+00 0. -1.
         25    2    1    2    0    0 -0.53879023398E+02 -0.20546900408E+02 -0.14283977418E+02  0.13847869083E+03  0.12508873460E+03 0.  0.
         23    2    1    2    0    0  0.53879023398E+02  0.20546900408E+02 -0.31030194638E+02  0.10668603530E+03  0.84225369514E+02 0.  0.
          5    1    3    3  502    0 -0.50333144861E+01 -0.36967099176E+01 -0.65309285750E+02  0.65740209340E+02  0.41800000000E+01 0.  1.
         -5    1    3    3    0  502 -0.48845708911E+02 -0.16850190490E+02  0.51025308332E+02  0.72738481487E+02  0.41800000000E+01 0.  1.
        -11    1    4    4    0    0  0.50405329988E+01  0.41402933778E+02 -0.33540081212E+02  0.53521462480E+02  0.00000000000E+00 0. -1.
         11    1    4    4    0    0  0.48838490399E+02 -0.20856033370E+02  0.25098865742E+01  0.53164572818E+02  0.00000000000E+00 0.  1.
</event>
<event>
 8    1  0.7281309E-009  0.1674945E+03  0.7561462E-02  0.1180486E+00
         -2   -1    0    0    0  501 -0.00000000000E+00  0.00000000000E+00  0.18532803371E+03  0.18532803371E+03  0.00000000000E+00 0.  1.
          2   -1    0    0  501    0  0.00000000000E+00 -0.00000000000E+00 -0.19623525736E+03  0.19623525736E+03  0.00000000000E+00 0. -1.
         25    2    1    2    0    0  0.15004642965E+03  0.42386706816E+02 -0.10325323903E+02  0.20016176009E+03  0.12509018315E+03 0.  0.
         23    2    1    2    0    0 -0.15004642965E+03 -0.42386706816E+02 -0.58189974590E+00  0.18140153098E+03  0.92712528110E+02 0.  0.
          5    1    3    3  502    0  0.13024616949E+01 -0.17452207488E+02  0.29821956572E+02  0.34829548467E+02  0.41800000000E+01 0.  1.
         -5    1    3    3    0  502  0.14874396796E+03  0.59838914304E+02 -0.40147280475E+02  0.16533221162E+03  0.41800000000E+01 0.  1.
        -11    1    4    4    0    0 -0.17458756014E+02 -0.14889924670E+00  0.33818632344E+02  0.38059561560E+02  0.00000000000E+00 0.  1.
         11    1    4    4    0    0 -0.13258767364E+03 -0.42237807569E+02 -0.34400532090E+02  0.14334196942E+03  0.00000000000E+00 0. -1.
</event>
<event>
 8    1  0.7281309E-009  0.1075592E+03  0.7561462E-02  0.1265158E+00
         -2   -1    0    0    0  501 -0.00000000000E+00  0.00000000000E+00  0.46954888132E+02  0.46954888132E+02  0.00000000000E+00 0.  1.
          2   -1    0    0  501    0  0.00000000000E+00 -0.00000000000E+00 -0.29034852232E+03  0.29034852232E+03  0.00000000000E+00 0. -1.
         25    2    1    2    0    0 -0.45135063185E+02 -0.17037328018E+02 -0.11287985886E+03  0.17526357411E+03  0.12509201973E+03 0.  0.
         23    2    1    2    0    0  0.45135063185E+02  0.17037328018E+02 -0.13051377532E+03  0.16203983633E+03  0.83039861123E+02 0.  0.
          5    1    3    3  502    0  0.36913128603E+02  0.19167595383E+02 -0.52321457953E+02  0.66970016712E+02  0.41800000000E+01 0. -1.
         -5    1    3    3    0  502 -0.82048191788E+02 -0.36204923401E+02 -0.60558400907E+02  0.10829355740E+03  0.41800000000E+01 0. -1.
        -11    1    4    4    0    0  0.12915913343E+02  0.41256254907E+02 -0.27035091212E+02  0.50988190233E+02  0.00000000000E+00 0.  1.
         11    1    4    4    0    0  0.32219149842E+02 -0.24218926889E+02 -0.10347868411E+03  0.11105164610E+03  0.00000000000E+00 0. -1.
</event>
<event>
 8    1  0.7281309E-009  0.1637628E+03  0.7561462E-02  0.1184513E+00
          2   -1    0    0  501    0  0.00000000000E+00  0.00000000000E+00  0.17058986484E+03  0.17058986484E+03  0.00000000000E+00 0.  1.
         -2   -1    0    0    0  501 -0.00000000000E+00 -0.00000000000E+00 -0.17982930965E+03  0.17982930965E+03  0.00000000000E+00 0. -1.
         25    2    1    2    0    0  0.52422458324E+02 -0.11052780090E+03 -0.66697719400E+02  0.18724326335E+03  0.12508774916E+03 0.  0.
         23    2    1    2    0    0 -0.52422458324E+02  0.11052780090E+03  0.57458274585E+02  0.16317591114E+03  0.91435309100E+02 0.  0.
          5    1    3    3  502    0  0.81217332012E+02 -0.25760611214E+02 -0.30735585017E+02  0.90675314698E+02  0.41800000000E+01 0.  1.
         -5    1    3    3    0  502 -0.28794873688E+02 -0.84767189685E+02 -0.35962134383E+02  0.96567948654E+02  0.41800000000E+01 0.  1.
        -11    1    4    4    0    0 -0.76748458294E+02  0.10008317370E+03  0.49996144079E+02  0.13567085881E+03  0.00000000000E+00 0.  1.
         11    1    4    4    0    0  0.24325999970E+02  0.10444627197E+02  0.74621305059E+01  0.27505052327E+02  0.00000000000E+00 0. -1.
</event>
<event>
 8    1  0.7281309E-009  0.1672837E+03  0.7561462E-02  0.1180710E+00
          2   -1    0    0  501    0  0.00000000000E+00  0.00000000000E+00  0.60721945928E+03  0.60721945928E+03  0.00000000000E+00 0. -1.
         -2   -1    0    0    0  501 -0.00000000000E+00 -0.00000000000E+00 -0.59730228828E+02  0.59730228828E+02  0.00000000000E+00 0.  1.
         25    2    1    2    0    0 -0.13145169717E+03  0.61394311363E+02  0.38609740619E+03  0.43100704516E+03  0.12508819189E+03 0.  0.
         23    2    1    2    0    0  0.13145169717E+03 -0.61394311363E+02  0.16139182426E+03  0.23594264295E+03  0.92589414458E+02 0.  0.
          5    1    3    3  502    0 -0.14045241884E+03  0.54032911463E+02  0.39000118326E+03  0.41804884024E+03  0.41800000000E+01 0. -1.
         -5    1    3    3    0  502  0.90007216768E+01  0.73613999004E+01 -0.39037770705E+01  0.12958204915E+02  0.41800000000E+01 0. -1.
        -11    1    4    4    0    0  0.67706760398E+02 -0.80435022150E+02  0.10699884390E+03  0.15000916901E+03  0.00000000000E+00 0. -1.
         11    1    4    4    0    0  0.63744936768E+02  0.19040710787E+02  0.54392980356E+02  0.85933473937E+02  0.00000000000E+00 0.  1.
</event>
<event>
 8    1  0.7281309E-009  0.8549944E+02  0.7561462E-02  0.1314132E+00
         -4   -1    0    0    0  501 -0.00000000000E+00  0.00000000000E+00  0.15110697343E+03  0.15110697343E+03  0.00000000000E+00 0. -1.
          4   -1    0    0  501    0  0.00000000000E+00 -0.00000000000E+00 -0.10978228095E+03  0.10978228095E+03  0.00000000000E+00 0.  1.
         25    2    1    2    0    0 -0.37642139213E+02  0.40649834853E+02  0.63644531389E+02  0.15088766760E+03  0.12508845726E+03 0.  0.
         23    2    1    2    0    0  0.37642139213E+02 -0.40649834853E+02 -0.22319838909E+02  0.11000158679E+03  0.92373341224E+02 0.  0.
          5    1    3    3  502    0 -0.43280847028E+02  0.34559786277E+02  0.99442609061E+02  0.11390309673E+03  0.41800000000E+01 0. -1.
         -5    1    3    3    0  502  0.56387078157E+01  0.60900485759E+01 -0.35798077672E+02  0.36984570871E+02  0.41800000000E+01 0. -1.
        -11    1    4    4    0    0  0.22071458265E+02  0.28065803447E+02  0.11911022883E+01  0.35724743774E+02  0.00000000000E+00 0.  1.
         11    1    4    4    0    0  0.15570680947E+02 -0.68715638300E+02 -0.23510941198E+02  0.74276843014E+02  0.00000000000E+00 0. -1.
</event>
<event>
 8    1  0.7281309E-009  0.1650048E+03  0.7561462E-02  0.1183159E+00
         -2   -1    0    0    0  501 -0.00000000000E+00  0.00000000000E+00  0.34927580473E+02  0.34927580473E+02  0.00000000000E+00 0.  1.
          2   -1    0    0  501    0  0.00000000000E+00 -0.00000000000E+00 -0.10167452325E+04  0.10167452325E+04  0.00000000000E+00 0. -1.
         25    2    1    2    0    0 -0.14269406599E+03 -0.57244258299E+02 -0.50389252159E+03  0.54147365977E+03  0.12509016479E+03 0.  0.
         23    2    1    2    0    0  0.14269406599E+03  0.57244258299E+02 -0.47792513045E+03  0.51019915322E+03  0.90841862895E+02 0.  0.
          5    1    3    3  502    0 -0.42832657419E+02  0.15978256665E+01 -0.32779777947E+03  0.33061464912E+03  0.41800000000E+01 0.  1.
         -5    1    3    3    0  502 -0.99861408574E+02 -0.58842083966E+02 -0.17609474213E+03  0.21085901065E+03  0.41800000000E+01 0.  1.
        -11    1    4    4    0    0  0.47772408355E+02 -0.16730836985E+02 -0.81773064464E+02  0.96171502942E+02  0.00000000000E+00 0. -1.
         11    1    4    4    0    0  0.94921657638E+02  0.73975095284E+02 -0.39615206599E+03  0.41402765028E+03  0.00000000000E+00 0.  1.
</event>
<event>
 8    1  0.7281309E-009  0.1122239E+03  0.7561462E-02  0.1256506E+00
          1   -1    0    0  501    0  0.00000000000E+00  0.00000000000E+00  0.88030364915E+03  0.88030364915E+03  0.00000000000E+00 0. -1.
         -1   -1    0    0    0  501 -0.00000000000E+00 -0.00000000000E+00 -0.17086523920E+02  0.17086523920E+02  0.00000000000E+00 0.  1.
         25    2    1    2    0    0  0.51107338035E+02 -0.18289788172E+02  0.56140505577E+03  0.57772760432E+03  0.12508825603E+03 0.  0.
         23    2    1    2    0    0 -0.51107338035E+02  0.18289788172E+02  0.30181206946E+03  0.31966256875E+03  0.90261598899E+02 0.  0.
          5    1    3    3  502    0  0.87440945775E+02 -0.31383579527E+00  0.27939837552E+03  0.29279163604E+03  0.41800000000E+01 0. -1.
         -5    1    3    3    0  502 -0.36333607740E+02 -0.17975952377E+02  0.28200668025E+03  0.28493596828E+03  0.41800000000E+01 0. -1.
        -11    1    4    4    0    0 -0.49756659515E+02  0.46386418251E+02  0.26346254217E+03  0.27210280426E+03  0.00000000000E+00 0.  1.
         11    1    4    4    0    0 -0.13506785194E+01 -0.28096630079E+02  0.38349527299E+02  0.47559764490E+02  0.00000000000E+00 0. -1.
</event>
<event>
 8    1  0.7281309E-009  0.1112212E+03  0.7561462E-02  0.1258325E+00
          3   -1    0    0  501    0  0.00000000000E+00  0.00000000000E+00  0.14595000396E+03  0.14595000396E+03  0.00000000000E+00 0. -1.
         -3   -1    0    0    0  501 -0.00000000000E+00 -0.00000000000E+00 -0.97127286775E+02  0.97127286775E+02  0.00000000000E+00 0.  1.
         25    2    1    2    0    0  0.29922051795E+02 -0.12769116512E+02 -0.77345507337E+01  0.12948355355E+03  0.12509111817E+03 0.  0.
         23    2    1    2    0    0 -0.29922051795E+02  0.12769116512E+02  0.56557267920E+02  0.11359373719E+03  0.92986198192E+02 0.  0.
          5    1    3    3  502    0 -0.27713283249E+02 -0.52225865863E+02 -0.43094160803E+01  0.59427355659E+02  0.41800000000E+01 0. -1.
         -5    1    3    3    0  502  0.57635335044E+02  0.39456749352E+02 -0.34251346534E+01  0.70056197887E+02  0.41800000000E+01 0. -1.
        -11    1    4    4    0    0 -0.54511466104E+02  0.30888705879E+02  0.19601914278E+02  0.65649425977E+02  0.00000000000E+00 0.  1.
         11    1    4    4    0    0  0.24589414309E+02 -0.18119589368E+02  0.36955353642E+02  0.47944311213E+02  0.00000000000E+00 0. -1.
</event>
<event>
 8    1  0.7281309E-009  0.1192929E+03  0.7561462E-02  0.1244268E+00
         -2   -1    0    0    0  501 -0.00000000000E+00  0.00000000000E+00  0.46375127785E+02  0.46375127785E+02  0.00000000000E+00 0.  1.
          2   -1    0    0  501    0  0.00000000000E+00 -0.00000000000E+00 -0.59451859036E+03  0.59451859036E+03  0.00000000000E+00 0. -1.
         25    2    1    2    0    0 -0.75145054243E+02 -0.84677475571E+01 -0.10301051867E+03  0.17881349288E+03  0.12507844081E+03 0.  0.
         23    2    1    2    0    0  0.75145054243E+02  0.84677475571E+01 -0.44513294391E+03  0.46208022526E+03  0.98266550263E+02 0.  0.
          5    1    3    3  502    0 -0.95398028033E+02 -0.19591138773E+02 -0.11636595614E+03  0.15179955408E+03  0.41800000000E+01 0. -1.
         -5    1    3    3    0  502  0.20252973790E+02  0.11123391216E+02  0.13355437473E+02  0.27013938801E+02  0.41800000000E+01 0. -1.
        -11    1    4    4    0    0 -0.10975169207E+02 -0.23362066364E+02 -0.48299557005E+02  0.54763926912E+02  0.00000000000E+00 0.  1.
         11    1    4    4    0    0  0.86120223450E+02  0.31829813921E+02 -0.39683338690E+03  0.40731629835E+03  0.00000000000E+00 0. -1.
</event>
<event>
 8    1  0.7281309E-009  0.1755795E+03  0.7561462E-02  0.1172151E+00
          2   -1    0    0  501    0  0.00000000000E+00  0.00000000000E+00  0.39423436817E+03  0.39423436817E+03  0.00000000000E+00 0. -1.
         -2   -1    0    0    0  501 -0.00000000000E+00 -0.00000000000E+00 -0.10780901417E+03  0.10780901417E+03  0.00000000000E+00 0.  1.
         25    2    1    2    0    0  0.71459163209E+02  0.14750744234E+03  0.74986551961E+02  0.21939626616E+03  0.12508749369E+03 0.  0.
         23    2    1    2    0    0 -0.71459163209E+02 -0.14750744234E+03  0.21143880204E+03  0.28264711618E+03  0.91203989653E+02 0.  0.
          5    1    3    3  502    0 -0.16166326483E+02  0.22528567403E+01  0.43714216458E+02  0.46849019157E+02  0.41800000000E+01 0.  1.
         -5    1    3    3    0  502  0.87625489691E+02  0.14525458560E+03  0.31272335503E+02  0.17254724700E+03  0.41800000000E+01 0.  1.
        -11    1    4    4    0    0 -0.60604581983E+02 -0.11019849720E+03  0.20873875098E+03  0.24369753857E+03  0.00000000000E+00 0. -1.
         11    1    4    4    0    0 -0.10854581225E+02 -0.37308945134E+02  0.27000510545E+01  0.38949577614E+02  0.00000000000E+00 0.  1.
</event>
<event>
 8    1  0.7281309E-009  0.1000484E+03  0.7561462E-02  0.1280194E+00
          1   -1    0    0  501    0  0.00000000000E+00  0.00000000000E+00  0.63585762045E+02  0.63585762045E+02  0.00000000000E+00 0. -1.
         -1   -1    0    0    0  501 -0.00000000000E+00 -0.00000000000E+00 -0.27475544860E+03  0.27475544860E+03  0.00000000000E+00 0.  1.
         25    2    1    2    0    0 -0.51502649520E+02  0.33501460203E+02 -0.67076547201E+02  0.15466582228E+03  0.12508949858E+03 0.  0.
         23    2    1    2    0    0  0.51502649520E+02 -0.33501460203E+02 -0.14409313935E+03  0.18367538836E+03  0.95911129372E+02 0.  0.
          5    1    3    3  502    0 -0.32147788051E+01  0.44534287822E+02  0.24032268426E+02  0.50878874990E+02  0.41800000000E+01 0.  1.
         -5    1    3    3    0  502 -0.48287870715E+02 -0.11032827619E+02 -0.91108815627E+02  0.10378694729E+03  0.41800000000E+01 0.  1.
        -11    1    4    4    0    0  0.31897493545E+02 -0.62715139631E+02 -0.59819587821E+02  0.92352703915E+02  0.00000000000E+00 0. -1.
         11    1    4    4    0    0  0.19605155975E+02  0.29213679428E+02 -0.84273551531E+02  0.91322684444E+02  0.00000000000E+00 0.  1.
</event>
<event>
 8    1  0.7281309E-009  0.1377766E+03  0.7561462E-02  0.1216352E+00
          2   -1    0    0  501    0  0.00000000000E+00  0.00000000000E+00  0.11569671377E+04  0.11569671377E+04  0.00000000000E+00 0. -1.
         -2   -1    0    0    0  501 -0.00000000000E+00 -0.00000000000E+00 -0.28212958887E+02  0.28212958887E+02  0.00000000000E+00 0.  1.
         25    2    1    2    0    0  0.10278619171E+03 -0.82901944335E+02  0.78447853840E+03  0.80528998502E+03  0.12509056391E+03 0.  0.
         23    2    1    2    0    0 -0.10278619171E+03  0.82901944335E+02  0.34427564041E+03  0.37989011157E+03  0.91395003719E+02 0.  0.
          5    1    3    3  502    0  0.76423108024E+02 -0.86291011603E+02  0.76066004105E+03  0.76935544488E+03  0.41800000000E+01 0.  1.
         -5    1    3    3    0  502  0.26363083690E+02  0.33890672678E+01  0.23818497351E+02  0.35934540134E+02  0.41800000000E+01 0.  1.
        -11    1    4    4    0    0 -0.70606546498E+02  0.45658565209E+02  0.99754327778E+02  0.13046422841E+03  0.00000000000E+00 0.  1.
         11    1    4    4    0    0 -0.32179645216E+02  0.37243379126E+02  0.24452131263E+03  0.24942588315E+03  0.00000000000E+00 0. -1.
</event>
<event>
 8    1  0.7281309E-009  0.1921435E+03  0.7561462E-02  0.1156542E+00
          3   -1    0    0  501    0  0.00000000000E+00  0.00000000000E+00  0.40262834853E+03  0.40262834853E+03  0.00000000000E+00 0. -1.
         -3   -1    0    0    0  501 -0.00000000000E+00 -0.00000000000E+00 -0.10865940099E+03  0.10865940099E+03  0.00000000000E+00 0.  1.
         25    2    1    2    0    0  0.12401122596E+03 -0.12344691263E+03  0.10417234361E+03  0.23897614615E+03  0.12505917342E+03 0.  0.
         23    2    1    2    0    0 -0.12401122596E+03  0.12344691263E+03  0.18979660393E+03  0.27231160336E+03  0.86677183044E+02 0.  0.
          5    1    3    3  502    0  0.12695785795E+03 -0.13148225023E+03  0.12128365146E+03  0.21939251659E+03  0.41800000000E+01 0. -1.
         -5    1    3    3    0  502 -0.29466319932E+01  0.80353376049E+01 -0.17111307855E+02  0.19583629568E+02  0.41800000000E+01 0. -1.
        -11    1    4    4    0    0  0.77272930941E+00  0.44013629626E+02  0.24067336155E+02  0.50170044579E+02  0.00000000000E+00 0.  1.
         11    1    4    4    0    0 -0.12478395527E+03  0.79433283001E+02  0.16572926778E+03  0.22214155878E+03  0.00000000000E+00 0. -1.
</event>
<event>
 8    1  0.7281309E-009  0.1330327E+03  0.7561462E-02  0.1223024E+00
          1   -1    0    0  501    0  0.00000000000E+00  0.00000000000E+00  0.49131452541E+03  0.49131452541E+03  0.00000000000E+00 0. -1.
         -1   -1    0    0    0  501 -0.00000000000E+00 -0.00000000000E+00 -0.56328840528E+02  0.56328840528E+02  0.00000000000E+00 0.  1.
         25    2    1    2    0    0  0.53580889746E+01 -0.11874840068E+03  0.16580698388E+03  0.23931205254E+03  0.12509360817E+03 0.  0.
         23    2    1    2    0    0 -0.53580889746E+01  0.11874840068E+03  0.26917870100E+03  0.30833131340E+03  0.92093072305E+02 0.  0.
          5    1    3    3  502    0 -0.28758118962E+02 -0.80247490485E+02  0.16715522015E+03  0.18768332147E+03  0.41800000000E+01 0.  1.
         -5    1    3    3    0  502  0.34116207937E+02 -0.38500910197E+02 -0.13482362765E+01  0.51628731062E+02  0.41800000000E+01 0.  1.
        -11    1    4    4    0    0 -0.27987346830E+02  0.62704925542E+02  0.61997549535E+02  0.92514298452E+02  0.00000000000E+00 0.  1.
         11    1    4    4    0    0  0.22629257855E+02  0.56043475140E+02  0.20718115147E+03  0.21581701495E+03  0.00000000000E+00 0. -1.
</event>
<event>
 8    1  0.7281309E-009  0.6651766E+02  0.7561462E-02  0.1372352E+00
         -1   -1    0    0    0  501 -0.00000000000E+00  0.00000000000E+00  0.83257328996E+02  0.83257328996E+02  0.00000000000E+00 0.  1.
          1   -1    0    0  501    0  0.00000000000E+00 -0.00000000000E+00 -0.13541487393E+03  0.13541487393E+03  0.00000000000E+00 0. -1.
         25    2    1    2    0    0 -0.61065936044E+01 -0.13011367777E+02 -0.34979262591E+02  0.13068706830E+03  0.12509586257E+03 0.  0.
         23    2    1    2    0    0  0.61065936044E+01  0.13011367777E+02 -0.17178282348E+02  0.87985134635E+02  0.85086452243E+02 0.  0.
          5    1    3    3  502    0 -0.21830642579E+02  0.54895410367E+01 -0.77901625288E+02  0.81196352373E+02  0.41800000000E+01 0.  1.
         -5    1    3    3    0  502  0.15724048975E+02 -0.18500908814E+02  0.42922362697E+02  0.49490715923E+02  0.41800000000E+01 0.  1.
        -11    1    4    4    0    0  0.34165321253E+02  0.35703349847E+02 -0.15768229718E+02  0.51871335389E+02  0.00000000000E+00 0. -1.
         11    1    4    4    0    0 -0.28058727649E+02 -0.22691982070E+02 -0.14100526301E+01  0.36113799245E+02  0.00000000000E+00 0.  1.
</event>
<event>
 8    1  0.7281309E-009  0.1203050E+03  0.7561462E-02  0.1242595E+00
          1   -1    0    0  501    0  0.00000000000E+00  0.00000000000E+00  0.16627515510E+04  0.16627515510E+04  0.00000000000E+00 0. -1.
         -1   -1    0    0    0  501 -0.00000000000E+00 -0.00000000000E+00 -0.12083188959E+02  0.12083188959E+02  0.00000000000E+00 0.  1.
         25    2    1    2    0    0  0.41594811013E+02 -0.33147691657E+02  0.13254434423E+04  0.13323951250E+04  0.12509017765E+03 0.  0.
         23    2    1    2    0    0 -0.41594811013E+02  0.33147691657E+02  0.32522491974E+03  0.34243961499E+03  0.93084605211E+02 0.  0.
          5    1    3    3  502    0 -0.43619233862E+02 -0.50268955130E+01  0.33608734725E+03  0.33896914996E+03  0.41800000000E+01 0. -1.
         -5    1    3    3    0  502  0.85214044875E+02 -0.28120796144E+02  0.98935609506E+03  0.99342597502E+03  0.41800000000E+01 0. -1.
        -11    1    4    4    0    0 -0.36538278053E+02 -0.27552181683E+02  0.15668238783E+03  0.16322848751E+03  0.00000000000E+00 0. -1.
         11    1    4    4    0    0 -0.50565329597E+01  0.60699873340E+02  0.16854253191E+03  0.17921112748E+03  0.00000000000E+00 0.  1.
</event>
<event>
 7    1  0.7281309E-009  0.2082930E+03  0.7561462E-02  0.1142925E+00
          2   -1    0    0  501    0  0.00000000000E+00  0.00000000000E+00  0.24458744424E+04  0.24458744424E+04  0.00000000000E+00 0. -1.
         -2   -1    0    0    0  501 -0.00000000000E+00 -0.00000000000E+00 -0.28835444557E+02  0.28835444557E+02  0.00000000000E+00 0.  1.
         23    2    1    2    0    0 -0.10456697984E+03  0.15652819928E+03  0.49047850482E+03  0.53494595445E+03  0.10081011876E+03 0.  0.
          5    1    1    2  502    0 -0.19416526504E+02 -0.19644073458E+02  0.56983997952E+03  0.57052429027E+03  0.41800000000E+01 0.  1.
         -5    1    1    2    0  502  0.12398350634E+03 -0.13688412582E+03  0.13567205135E+04  0.13692396423E+04  0.41800000000E+01 0.  1.
        -11    1    3    3    0    0 -0.11638731717E+03  0.12781571377E+03  0.34142868830E+03  0.38269624179E+03  0.00000000000E+00 0.  1.
         11    1    3    3    0    0  0.11820337338E+02  0.28712485511E+02  0.14904981652E+03  0.15224971266E+03  0.00000000000E+00 0. -1.
</event>
<event>
 8    1  0.7281309E-009  0.1268256E+03  0.7561462E-02  0.1232243E+00
          3   -1    0    0  501    0  0.00000000000E+00  0.00000000000E+00  0.11012190125E+03  0.11012190125E+03  0.00000000000E+00 0. -1.
         -3   -1    0    0    0  501 -0.00000000000E+00 -0.00000000000E+00 -0.19292620874E+03  0.19292620874E+03  0.00000000000E+00 0.  1.
         25    2    1    2    0    0  0.65708212178E+02  0.70993686326E+02 -0.41969792163E+02  0.16360811619E+03  0.12509388308E+03 0.  0.
         23    2    1    2    0    0 -0.65708212178E+02 -0.70993686326E+02 -0.40834515329E+02  0.13943999380E+03  0.91751738860E+02 0.  0.
          5    1    3    3  502    0  0.84537719165E+02  0.93876183196E+02 -0.23870852971E+02  0.12863379709E+03  0.41800000000E+01 0. -1.
         -5    1    3    3    0  502 -0.18829506987E+02 -0.22882496870E+02 -0.18098939192E+02  0.34974319097E+02  0.41800000000E+01 0. -1.
        -11    1    4    4    0    0 -0.13454582306E+02 -0.87246715041E+01 -0.54677885898E+02  0.56980846643E+02  0.00000000000E+00 0.  1.
         11    1    4    4    0    0 -0.52253629872E+02 -0.62269014822E+02  0.13843370569E+02  0.82459147160E+02  0.00000000000E+00 0. -1.
</event>
<event>
 8    1  0.7281309E-009  0.5204359E+02  0.7561462E-02  0.1434621E+00
          2   -1    0    0  501    0  0.00000000000E+00  0.00000000000E+00  0.32113340182E+03  0.32113340182E+03  0.00000000000E+00 0. -1.
         -2   -1    0    0    0  501 -0.00000000000E+00 -0.00000000000E+00 -0.37549570682E+02  0.37549570682E+02  0.00000000000E+00 0.  1.
         25    2    1    2    0    0  0.66723274186E+01  0.12608773281E+02  0.14160455577E+03  0.18948099433E+03  0.12509075058E+03 0.  0.
         23    2    1    2    0    0 -0.66723274186E+01 -0.12608773281E+02  0.14197927536E+03  0.16920197817E+03  0.90926858891E+02 0.  0.
          5    1    3    3  502    0 -0.80232884240E+00  0.40952017617E+01 -0.23349775638E+02  0.24085240945E+02  0.41800000000E+01 0.  1.
         -5    1    3    3    0  502  0.74746562610E+01  0.85135715189E+01  0.16495433141E+03  0.16539575338E+03  0.41800000000E+01 0.  1.
        -11    1    4    4    0    0  0.31911675549E+02 -0.29984984595E+02  0.42169943784E+02  0.60792750359E+02  0.00000000000E+00 0.  1.
         11    1    4    4    0    0 -0.38584002968E+02  0.17376211314E+02  0.99809331579E+02  0.10840922781E+03  0.00000000000E+00 0. -1.
</event>
<event>
 8    1  0.7281309E-009  0.2289225E+03  0.7561462E-02  0.1127400E+00
         -1   -1    0    0    0  501 -0.00000000000E+00  0.00000000000E+00  0.85265036485E+02  0.85265036485E+02  0.00000000000E+00 0.  1.
          1   -1    0    0  501    0  0.00000000000E+00 -0.00000000000E+00 -0.78336042948E+03  0.78336042948E+03  0.00000000000E+00 0. -1.
         25    2    1    2    0    0 -0.68205935914E+02 -0.20151917592E+03 -0.52299673446E+03  0.57830324326E+03  0.12508808478E+03 0.  0.
         23    2    1    2    0    0  0.68205935914E+02  0.20151917592E+03 -0.17509865854E+03  0.29032222271E+03  0.91462696307E+02 0.  0.
          5    1    3    3  502    0 -0.56573761198E+02 -0.46925059433E+02 -0.78935603622E+02  0.10793911978E+03  0.41800000000E+01 0. -1.
         -5    1    3    3    0  502 -0.11632174716E+02 -0.15459411649E+03 -0.44406113084E+03  0.47036412349E+03  0.41800000000E+01 0. -1.
        -11    1    4    4    0    0 -0.19368669689E+02  0.21445703993E+02 -0.93179923454E+01  0.30362617914E+02  0.00000000000E+00 0.  1.
         11    1    4    4    0    0  0.87574605603E+02  0.18007347193E+03 -0.16578066619E+03  0.25995960479E+03  0.00000000000E+00 0. -1.
</event>
<event>
 8    1  0.7281309E-009  0.9408269E+02  0.7561462E-02  0.1293256E+00
         -1   -1    0    0    0  501 -0.00000000000E+00  0.00000000000E+00  0.91220995853E+02  0.91220995853E+02  0.00000000000E+00 0.  1.
          1   -1    0    0  501    0  0.00000000000E+00 -0.00000000000E+00 -0.15624080486E+03  0.15624080486E+03  0.00000000000E+00 0. -1.
         25    2    1    2    0    0 -0.22440163324E+01 -0.26386256314E+02 -0.81289683187E+02  0.15151450734E+03  0.12508942086E+03 0.  0.
         23    2    1    2    0    0  0.22440163324E+01  0.26386256314E+02  0.16269874184E+02  0.95947293368E+02  0.90773917879E+02 0.  0.
          5    1    3    3  502    0  0.44737990910E+02  0.29602933049E+02 -0.25925095097E+02  0.59727752607E+02  0.41800000000E+01 0. -1.
         -5    1    3    3    0  502 -0.46982007242E+02 -0.55989189363E+02 -0.55364588090E+02  0.91786754733E+02  0.41800000000E+01 0. -1.
        -11    1    4    4    0    0 -0.15382624087E+02 -0.11603669567E+02 -0.28653971834E+02  0.34529992370E+02  0.00000000000E+00 0. -1.
         11    1    4    4    0    0  0.17626640420E+02  0.37989925881E+02  0.44923846017E+02  0.61417300998E+02  0.00000000000E+00 0.  1.
</event>
<event>
 8    1  0.7281309E-009  0.1278742E+03  0.7561462E-02  0.1230645E+00
         -3   -1    0    0    0  501 -0.00000000000E+00  0.00000000000E+00  0.14239320164E+03  0.14239320164E+03  0.00000000000E+00 0.  1.
          3   -1    0    0  501    0  0.00000000000E+00 -0.00000000000E+00 -0.12870869926E+03  0.12870869926E+03  0.00000000000E+00 0. -1.
         25    2    1    2    0    0  0.17229218071E+02  0.77323055203E+02  0.24382179620E+02  0.15005936522E+03  0.12509045362E+03 0.  0.
         23    2    1    2    0    0 -0.17229218071E+02 -0.77323055203E+02 -0.10697677248E+02  0.12104253568E+03  0.90890892413E+02 0.  0.
          5    1    3    3  502    0 -0.25611884081E+02 -0.23555295003E+02 -0.75017663305E+01  0.35840890432E+02  0.41800000000E+01 0. -1.
         -5    1    3    3    0  502  0.42841102152E+02  0.10087835021E+03  0.31883945950E+02  0.11421847479E+03  0.41800000000E+01 0. -1.
        -11    1    4    4    0    0 -0.44198437189E+02 -0.70492290069E+02 -0.28575304395E+02  0.87972795968E+02  0.00000000000E+00 0. -1.
         11    1    4    4    0    0  0.26969219118E+02 -0.68307651339E+01  0.17877627146E+02  0.33069739711E+02  0.00000000000E+00 0.  1.
</event>
<event>
 8    1  0.7281309E-009  0.1735460E+03  0.7561462E-02  0.1174200E+00
         -2   -1    0    0    0  501 -0.00000000000E+00  0.00000000000E+00  0.21271491791E+02  0.21271491791E+02  0.00000000000E+00 0.  1.
          2   -1    0    0  501    0  0.00000000000E+00 -0.00000000000E+00 -0.15012657283E+04  0.15012657283E+04  0.00000000000E+00 0. -1.
         25    2    1    2    0    0 -0.42091598178E+02  0.13101950703E+03 -0.88331745944E+03  0.90268165566E+03  0.12508646392E+03 0.  0.
         23    2    1    2    0    0  0.42091598178E+02 -0.13101950703E+03 -0.59667677712E+03  0.61985556448E+03  0.96228533200E+02 0.  0.
          5    1    3    3  502    0 -0.26348006213E+01 -0.24476890135E+02 -0.97650012866E+02  0.10079215117E+03  0.41800000000E+01 0. -1.
         -5    1    3    3    0  502 -0.39456797557E+02  0.15549639717E+03 -0.78566744657E+03  0.80188950449E+03  0.41800000000E+01 0. -1.
        -11    1    4    4    0    0  0.24177895088E+02  0.47974435315E+01 -0.43802636347E+02  0.50261884429E+02  0.00000000000E+00 0.  1.
         11    1    4    4    0    0  0.17913703090E+02 -0.13581695057E+03 -0.55287414077E+03  0.56959368005E+03  0.00000000000E+00 0. -1.
</event>
<event>
 8    1  0.7281309E-009  0.1650283E+03  0.7561462E-02  0.1183134E+00
          1   -1    0    0  501    0  0.00000000000E+00  0.00000000000E+00  0.13463995221E+04  0.13463995221E+04  0.00000000000E+00 0.  1.
         -1   -1    0    0    0  501 -0.00000000000E+00 -0.00000000000E+00 -0.29111736266E+02  0.29111736266E+02  0.00000000000E+00 0. -1.
         25    2    1    2    0    0 -0.12487673464E+03  0.79068346668E+02  0.42753581561E+03  0.46934081119E+03  0.12509165089E+03 0.  0.
         23    2    1    2    0    0  0.12487673464E+03 -0.79068346668E+02  0.88975197027E+03  0.90617044722E+03  0.87408858313E+02 0.  0.
          5    1    3    3  502    0 -0.39211091471E+02  0.60127751657E+02  0.67075208435E+02  0.98333169380E+02  0.41800000000E+01 0.  1.
         -5    1    3    3    0  502 -0.85665643174E+02  0.18940595011E+02  0.36046060717E+03  0.37100764181E+03  0.41800000000E+01 0.  1.
        -11    1    4    4    0    0  0.10272071349E+03 -0.16621657876E+02  0.59828767206E+03  0.60726926732E+03  0.00000000000E+00 0.  1.
         11    1    4    4    0    0  0.22156021158E+02 -0.62446688792E+02  0.29146429821E+03  0.29890117990E+03  0.00000000000E+00 0. -1.
</event>
<event>
 8    1  0.7281309E-009  0.3128891E+03  0.7561462E-02  0.1078969E+00
          1   -1    0    0  501    0  0.00000000000E+00  0.00000000000E+00  0.99184547970E+03  0.99184547970E+03  0.00000000000E+00 0. -1.
         -1   -1    0    0    0  501 -0.00000000000E+00 -0.00000000000E+00 -0.10408294273E+03  0.10408294273E+03  0.00000000000E+00 0.  1.
         25    2    1    2    0    0 -0.19639298575E+03  0.21787712456E+03  0.57075438355E+03  0.65379467051E+03  0.12508500546E+03 0.  0.
         23    2    1    2    0    0  0.19639298575E+03 -0.21787712456E+03  0.31700815343E+03  0.44213375192E+03  0.94590903313E+02 0.  0.
          5    1    3    3  502    0 -0.15208119669E+03  0.75760232151E+02  0.30300292748E+03  0.34741408956E+03  0.41800000000E+01 0.  1.
         -5    1    3    3    0  502 -0.44311789056E+02  0.14211689241E+03  0.26775145607E+03  0.30638058095E+03  0.41800000000E+01 0.  1.
        -11    1    4    4    0    0 -0.89467916546E+01 -0.19164190013E+02  0.12581314019E+02  0.24608956138E+02  0.00000000000E+00 0.  1.
         11    1    4    4    0    0  0.20533977741E+03 -0.19871293454E+03  0.30442683941E+03  0.41752479578E+03  0.00000000000E+00 0. -1.
</event>
<event>
 8    1  0.7281309E-009  0.2171432E+03  0.7561462E-02  0.1136031E+00
          1   -1    0    0  501    0  0.00000000000E+00  0.00000000000E+00  0.46502486086E+02  0.46502486086E+02  0.00000000000E+00 0. -1.
         -1   -1    0    0    0  501 -0.00000000000E+00 -0.00000000000E+00 -0.10753186549E+04  0.10753186549E+04  0.00000000000E+00 0.  1.
         25    2    1    2    0    0 -0.73918502331E+02 -0.18025659821E+03 -0.51677689500E+03  0.56627112541E+03  0.12509293378E+03 0.  0.
         23    2    1    2    0    0  0.73918502331E+02  0.18025659821E+03 -0.51203927382E+03  0.55555001558E+03  0.92169494367E+02 0.  0.
          5    1    3    3  502    0 -0.13978517621E+02 -0.15302349586E+03 -0.43402583589E+03  0.46044270855E+03  0.41800000000E+01 0.  1.
         -5    1    3    3    0  502 -0.59939984709E+02 -0.27233102352E+02 -0.82751059111E+02  0.10582841686E+03  0.41800000000E+01 0.  1.
        -11    1    4    4    0    0  0.28697024946E+02  0.16408246024E+03 -0.41771876174E+03  0.44970605611E+03  0.00000000000E+00 0.  1.
         11    1    4    4    0    0  0.45221477384E+02  0.16174137975E+02 -0.94320512079E+02  0.10584395946E+03  0.00000000000E+00 0. -1.
</event>
<event>
 8    1  0.7281309E-009  0.1041633E+03  0.7561462E-02  0.1271777E+00
          2   -1    0    0  501    0  0.00000000000E+00  0.00000000000E+00  0.46426288487E+03  0.46426288487E+03  0.00000000000E+00 0.  1.
         -2   -1    0    0    0  501 -0.00000000000E+00 -0.00000000000E+00 -0.31857854103E+02  0.31857854103E+02  0.00000000000E+00 0. -1.
         25    2    1    2    0    0 -0.43635999926E+02 -0.29548118837E+02  0.21970364751E+03  0.25824513280E+03  0.12507463398E+03 0.  0.
         23    2    1    2    0    0  0.43635999926E+02  0.29548118837E+02  0.21270138325E+03  0.23787560618E+03  0.92551249371E+02 0.  0.
          5    1    3    3  502    0 -0.68609125997E+02  0.11225792569E+01  0.20436503390E+03  0.21561774471E+03  0.41800000000E+01 0.  1.
         -5    1    3    3    0  502  0.24973126070E+02 -0.30670698094E+02  0.15338613617E+02  0.42627388085E+02  0.41800000000E+01 0.  1.
        -11    1    4    4    0    0 -0.14672493860E+02 -0.18950715343E+02  0.94051970922E+02  0.97057637116E+02  0.00000000000E+00 0.  1.
         11    1    4    4    0    0  0.58308493786E+02  0.48498834180E+02  0.11864941233E+03  0.14081796906E+03  0.00000000000E+00 0. -1.
</event>
<event>
 8    1  0.7281309E-009  0.1793215E+03  0.7561462E-02  0.1168461E+00
         -1   -1    0    0    0  501 -0.00000000000E+00  0.00000000000E+00  0.59048945887E+02  0.59048945887E+02  0.00000000000E+00 0.  1.
          1   -1    0    0  501    0  0.00000000000E+00 -0.00000000000E+00 -0.62005866624E+03  0.62005866624E+03  0.00000000000E+00 0. -1.
         25    2    1    2    0    0 -0.14541965539E+03 -0.51257703787E+02 -0.23096313895E+03  0.30457812487E+03  0.12509849809E+03 0.  0.
         23    2    1    2    0    0  0.14541965539E+03  0.51257703787E+02 -0.33004658140E+03  0.37452948726E+03  0.86990588917E+02 0.  0.
          5    1    3    3  502    0 -0.49423752110E+02 -0.81137906292E+02 -0.13792842785E+03  0.16753444637E+03  0.41800000000E+01 0. -1.
         -5    1    3    3    0  502 -0.95995903276E+02  0.29880202505E+02 -0.93034711095E+02  0.13704367850E+03  0.41800000000E+01 0. -1.
        -11    1    4    4    0    0  0.65213278480E+02 -0.42936565614E+01 -0.20944403078E+03  0.21940375841E+03  0.00000000000E+00 0. -1.
         11    1    4    4    0    0  0.80206376907E+02  0.55551360349E+02 -0.12060255063E+03  0.15512572885E+03  0.00000000000E+00 0.  1.
</event>
<event>
 8    1  0.7281309E-009  0.1132304E+03  0.7561462E-02  0.1254702E+00
         -1   -1    0    0    0  501 -0.00000000000E+00  0.00000000000E+00  0.29154697509E+03  0.29154697509E+03  0.00000000000E+00 0.  1.
          1   -1    0    0  501    0  0.00000000000E+00 -0.00000000000E+00 -0.10889353898E+03  0.10889353898E+03  0.00000000000E+00 0. -1.
         25    2    1    2    0    0  0.10645798819E+03  0.24099864297E+02  0.19819262998E+03  0.25853963700E+03  0.12509323967E+03 0.  0.
         23    2    1    2    0    0 -0.10645798819E+03 -0.24099864297E+02 -0.15539193871E+02  0.14190087708E+03  0.89332444620E+02 0.  0.
          5    1    3    3  502    0  0.10661024566E+03  0.29260606494E+02  0.71615674472E+02  0.13178848509E+03  0.41800000000E+01 0.  1.
         -5    1    3    3    0  502 -0.15225747716E+00 -0.51607421971E+01  0.12657695551E+03  0.12675115190E+03  0.41800000000E+01 0.  1.
        -11    1    4    4    0    0 -0.45150660726E+02 -0.88375028405E+01  0.37543964758E+02  0.59382092505E+02  0.00000000000E+00 0.  1.
         11    1    4    4    0    0 -0.61307327461E+02 -0.15262361456E+02 -0.53083158629E+02  0.82518784575E+02  0.00000000000E+00 0. -1.
</event>
<event>
 8    1  0.7281309E-009  0.7961589E+02  0.7561462E-02  0.1330145E+00
         -1   -1    0    0    0  501 -0.00000000000E+00  0.00000000000E+00  0.79245962738E+02  0.79245962738E+02  0.00000000000E+00 0.  1.
          1   -1    0    0  501    0  0.00000000000E+00 -0.00000000000E+00 -0.16237377523E+03  0.16237377523E+03  0.00000000000E+00 0. -1.
         25    2    1    2    0    0  0.38737369323E+02  0.37088708595E+01 -0.40196756453E+02  0.13703306576E+03  0.12509173585E+03 0.  0.
         23    2    1    2    0    0 -0.38737369323E+02 -0.37088708595E+01 -0.42931056038E+02  0.10458667221E+03  0.87068690847E+02 0.  0.
          5    1    3    3  502    0 -0.23464203035E+02  0.30759072466E+02 -0.55105468292E+02  0.67459427797E+02  0.41800000000E+01 0.  1.
         -5    1    3    3    0  502  0.62201572358E+02 -0.27050201607E+02  0.14908711839E+02  0.69573637963E+02  0.41800000000E+01 0.  1.
        -11    1    4    4    0    0 -0.12477042017E+02  0.15447557319E+02  0.23417792011E+02  0.30703364430E+02  0.00000000000E+00 0.  1.
         11    1    4    4    0    0 -0.26260327306E+02 -0.19156428179E+02 -0.66348848049E+02  0.73883307778E+02  0.00000000000E+00 0. -1.
</event>
<event>
 8    1  0.7281309E-009  0.1243895E+03  0.7561462E-02  0.1236027E+00
          1   -1    0    0  501    0  0.00000000000E+00  0.00000000000E+00  0.21060911219E+04  0.21060911219E+04  0.00000000000E+00 0. -1.
         -1   -1    0    0    0  501 -0.00000000000E+00 -0.00000000000E+00 -0.80672361228E+01  0.80672361228E+01  0.00000000000E+00 0.  1.
         25    2    1    2    0    0 -0.66836866409E+02 -0.77231966865E+01  0.14940556634E+04  0.15007920555E+04  0.12509058342E+03 0.  0.
         23    2    1    2    0    0  0.66836866409E+02  0.77231966865E+01  0.60396822233E+03  0.61336630247E+03  0.83149220923E+02 0.  0.
          5    1    3    3  502    0 -0.62274590141E+02 -0.61627705984E+02  0.90077407015E+03  0.90503452784E+03  0.41800000000E+01 0. -1.
         -5    1    3    3    0  502 -0.45622762675E+01  0.53904509298E+02  0.59328159325E+03  0.59575752767E+03  0.41800000000E+01 0. -1.
        -11    1    4    4    0    0  0.52875644652E+02 -0.33964270504E+02  0.37137141184E+03  0.37665120602E+03  0.00000000000E+00 0. -1.
         11    1    4    4    0    0  0.13961221756E+02  0.41687467190E+02  0.23259681049E+03  0.23671509644E+03  0.00000000000E+00 0.  1.
</event>
<event>
 8    1  0.7281309E-009  0.1277831E+03  0.7561462E-02  0.1230783E+00
         -1   -1    0    0    0  501 -0.00000000000E+00  0.00000000000E+00  0.17897362832E+02  0.17897362832E+02  0.00000000000E+00 0.  1.
          1   -1    0    0  501    0  0.00000000000E+00 -0.00000000000E+00 -0.11457405053E+04  0.11457405053E+04  0.00000000000E+00 0. -1.
         25    2    1    2    0    0  0.63466335395E+02 -0.64881532856E+02 -0.62678892700E+03  0.64556128676E+03  0.12508967553E+03 0.  0.
         23    2    1    2    0    0 -0.63466335395E+02  0.64881532856E+02 -0.50105421550E+03  0.51807658140E+03  0.95448563594E+02 0.  0.
          5    1    3    3  502    0  0.16945714354E+02 -0.79197320394E+02 -0.19750540486E+03  0.21350697914E+03  0.41800000000E+01 0. -1.
         -5    1    3    3    0  502  0.46520621041E+02  0.14315787537E+02 -0.42928352214E+03  0.43205430762E+03  0.41800000000E+01 0. -1.
        -11    1    4    4    0    0 -0.44882444333E+02 -0.12049690611E+02 -0.26671802492E+03  0.27073628067E+03  0.00000000000E+00 0.  1.
         11    1    4    4    0    0 -0.18583891062E+02  0.76931223467E+02 -0.23433619058E+03  0.24734030074E+03  0.00000000000E+00 0. -1.
</event>
<event>
 8    1  0.7281309E-009  0.6897867E+02  0.7561462E-02  0.1363601E+00
         -1   -1    0    0    0  501 -0.00000000000E+00  0.00000000000E+00  0.12882722832E+03  0.12882722832E+03  0.00000000000E+00 0.  1.
          1   -1    0    0  501    0  0.00000000000E+00 -0.00000000000E+00 -0.25187836674E+03  0.25187836674E+03  0.00000000000E+00 0. -1.
         25    2    1    2    0    0 -0.55255733375E+02  0.11733077554E+02 -0.20316169211E+03  0.24517983444E+03  0.12509043488E+03 0.  0.
         23    2    1    2    0    0  0.55255733375E+02 -0.11733077554E+02  0.80110553691E+02  0.13552576062E+03  0.93587765220E+02 0.  0.
          5    1    3    3  502    0 -0.46793423237E+02 -0.25054087685E+01 -0.21771391731E+03  0.22273913828E+03  0.41800000000E+01 0. -1.
         -5    1    3    3    0  502 -0.84623101387E+01  0.14238486323E+02  0.14552225206E+02  0.22440696159E+02  0.41800000000E+01 0. -1.
        -11    1    4    4    0    0  0.42515991814E+02  0.14290619960E+02  0.93428076455E+02  0.10363704381E+03  0.00000000000E+00 0.  1.
         11    1    4    4    0    0  0.12739741562E+02 -0.26023697515E+02 -0.13317522764E+02  0.31888716813E+02  0.00000000000E+00 0. -1.
</event>
<event>
 8    1  0.7281309E-009  0.2011854E+03  0.7561462E-02  0.1148743E+00
         -2   -1    0    0    0  501 -0.00000000000E+00  0.00000000000E+00  0.22551519964E+02  0.22551519964E+02  0.00000000000E+00 0.  1.
          2   -1    0    0  501    0  0.00000000000E+00 -0.00000000000E+00 -0.24158984890E+04  0.24158984890E+04  0.00000000000E+00 0. -1.
         25    2    1    2    0    0 -0.88116557530E+02  0.17833823652E+03 -0.15237050209E+04  0.15417179033E+04  0.12509215934E+03 0.  0.
         23    2    1    2    0    0  0.88116557530E+02 -0.17833823652E+03 -0.86964194811E+03  0.89673210564E+03  0.91007126374E+02 0.  0.
          5    1    3    3  502    0 -0.47426602116E+02  0.75449883227E+02 -0.11058368453E+04  0.11094298392E+04  0.41800000000E+01 0. -1.
         -5    1    3    3    0  502 -0.40689955414E+02  0.10288835329E+03 -0.41786817563E+03  0.43228806405E+03  0.41800000000E+01 0. -1.
        -11    1    4    4    0    0  0.65532448770E+02 -0.16142173420E+03 -0.82991567586E+03  0.84800442638E+03  0.00000000000E+00 0. -1.
         11    1    4    4    0    0  0.22584108761E+02 -0.16916502322E+02 -0.39726272248E+02  0.48727679260E+02  0.00000000000E+00 0.  1.
</event>
<event>
 8    1  0.7281309E-009  0.1118512E+03  0.7561462E-02  0.1257180E+00
         -2   -1    0    0    0  501 -0.00000000000E+00  0.00000000000E+00  0.55860353273E+02  0.55860353273E+02  0.00000000000E+00 0. -1.
          2   -1    0    0  501    0  0.00000000000E+00 -0.00000000000E+00 -0.27713891958E+03  0.27713891958E+03  0.00000000000E+00 0.  1.
         25    2    1    2    0    0 -0.26999526505E+02 -0.53460029112E+02 -0.13308403656E+03  0.19221404417E+03  0.12509168175E+03 0.  0.
         23    2    1    2    0    0  0.26999526505E+02  0.53460029112E+02 -0.88194529749E+02  0.14078522869E+03  0.91952468133E+02 0.  0.
          5    1    3    3  502    0 -0.69932417115E+02 -0.49529843159E+02 -0.11892556136E+03  0.14664416071E+03  0.41800000000E+01 0.  1.
         -5    1    3    3    0  502  0.42932890610E+02 -0.39301859535E+01 -0.14158475203E+02  0.45569883452E+02  0.41800000000E+01 0.  1.
        -11    1    4    4    0    0  0.87659996219E+01  0.69654152137E+02 -0.92393961494E+02  0.11603959574E+03  0.00000000000E+00 0.  1.
         11    1    4    4    0    0  0.18233526883E+02 -0.16194123024E+02  0.41994317445E+01  0.24745632950E+02  0.00000000000E+00 0. -1.
</event>
<event>
 8    1  0.7281309E-009  0.9106940E+02  0.7561462E-02  0.1300282E+00
         -4   -1    0    0    0  501 -0.00000000000E+00  0.00000000000E+00  0.49877172966E+02  0.49877172966E+02  0.00000000000E+00 0.  1.
          4   -1    0    0  501    0  0.00000000000E+00 -0.00000000000E+00 -0.26910438595E+03  0.26910438595E+03  0.00000000000E+00 0. -1.
         25    2    1    2    0    0  0.50003699063E+02 -0.14460457620E+02 -0.16166482761E+03  0.21093184815E+03  0.12508898162E+03 0.  0.
         23    2    1    2    0    0 -0.50003699063E+02  0.14460457620E+02 -0.57562385378E+02  0.10804971077E+03  0.75178700660E+02 0.  0.
          5    1    3    3  502    0 -0.17131562415E+02 -0.21495898888E+02  0.74587192973E+01  0.28786611355E+02  0.41800000000E+01 0.  1.
         -5    1    3    3    0  502  0.67135261478E+02  0.70354412674E+01 -0.16912354691E+03  0.18214523679E+03  0.41800000000E+01 0.  1.
        -11    1    4    4    0    0 -0.66635704565E+02  0.33865424293E+01 -0.27979184933E+02  0.72350677827E+02  0.00000000000E+00 0.  1.
         11    1    4    4    0    0  0.16632005502E+02  0.11073915191E+02 -0.29583200445E+02  0.35699032945E+02  0.00000000000E+00 0. -1.
</event>
<event>
 7    1  0.7281309E-009  0.1053724E+03  0.7561462E-02  0.1269388E+00
         -2   -1    0    0    0  501 -0.00000000000E+00  0.00000000000E+00  0.27007862968E+02  0.27007862968E+02  0.00000000000E+00 0.  1.
          2   -1    0    0  501    0  0.00000000000E+00 -0.00000000000E+00 -0.53027677188E+03  0.53027677188E+03  0.00000000000E+00 0. -1.
         23    2    1    2    0    0 -0.26680432255E+02 -0.26528804102E+02 -0.29241230808E+03  0.30903841283E+03  0.92650740838E+02 0.  0.
          5    1    1    2  502    0  0.69009579875E+02  0.17423371241E+02 -0.18348936242E+03  0.19685455164E+03  0.41800000000E+01 0.  1.
         -5    1    1    2    0  502 -0.42329147620E+02  0.91054328606E+01 -0.27367238415E+02  0.51391670379E+02  0.41800000000E+01 0.  1.
        -11    1    3    3    0    0  0.29698062428E+02 -0.26147714683E+02 -0.16553516330E+03  0.17019861393E+03  0.00000000000E+00 0. -1.
         11    1    3    3    0    0 -0.56378494683E+02 -0.38108941851E+00 -0.12687714478E+03  0.13883979890E+03  0.00000000000E+00 0.  1.
</event>
<event>
 8    1  0.7281309E-009  0.1112378E+03  0.7561462E-02  0.1258295E+00
          2   -1    0    0  501    0  0.00000000000E+00  0.00000000000E+00  0.17747238792E+03  0.17747238792E+03  0.00000000000E+00 0. -1.
         -2   -1    0    0    0  501 -0.00000000000E+00 -0.00000000000E+00 -0.10838937787E+03  0.10838937787E+03  0.00000000000E+00 0.  1.
         25    2    1    2    0    0  0.77987398846E+02 -0.33236077984E+02  0.53346469631E+02  0.16024971707E+03  0.12508978672E+03 0.  0.
         23    2    1    2    0    0 -0.77987398846E+02  0.33236077984E+02  0.15736540421E+02  0.12561204872E+03  0.91345918473E+02 0.  0.
          5    1    3    3  502    0  0.85787137242E+02  0.15482400072E+02  0.65673416572E+02  0.10922274338E+03  0.41800000000E+01 0.  1.
         -5    1    3    3    0  502 -0.77997383967E+01 -0.48718478055E+02 -0.12326946941E+02  0.51026973690E+02  0.41800000000E+01 0.  1.
        -11    1    4    4    0    0 -0.31222095802E+02  0.67552471708E+01 -0.37979504645E+02  0.49627566973E+02  0.00000000000E+00 0.  1.
         11    1    4    4    0    0 -0.46765303043E+02  0.26480830813E+02  0.53716045066E+02  0.75984481750E+02  0.00000000000E+00 0. -1.
</event>
<event>
 8    1  0.7281309E-009  0.1229378E+03  0.7561462E-02  0.1238328E+00
          2   -1    0    0  501    0  0.00000000000E+00  0.00000000000E+00  0.23627390753E+02  0.23627390753E+02  0.00000000000E+00 0. -1.
         -2   -1    0    0    0  501 -0.00000000000E+00 -0.00000000000E+00 -0.76032137420E+03  0.76032137420E+03  0.00000000000E+00 0.  1.
         25    2    1    2    0    0 -0.46964252592E+02 -0.47231455222E+02 -0.28346405059E+03  0.31691540257E+03  0.12508818098E+03 0.  0.
         23    2    1    2    0    0  0.46964252592E+02  0.47231455222E+02 -0.45322993285E+03  0.46703336239E+03  0.90919404766E+02 0.  0.
          5    1    3    3  502    0 -0.76690783740E+02  0.47395715346E+00 -0.10731642293E+03  0.13196964794E+03  0.41800000000E+01 0. -1.
         -5    1    3    3    0  502  0.29726531149E+02 -0.47705412375E+02 -0.17614762766E+03  0.18494575463E+03  0.41800000000E+01 0. -1.
        -11    1    4    4    0    0 -0.24935216513E+02 -0.28283855799E+01 -0.99922729025E+02  0.10302580533E+03  0.00000000000E+00 0.  1.
         11    1    4    4    0    0  0.71899469104E+02  0.50059840802E+02 -0.35330720383E+03  0.36400755706E+03  0.00000000000E+00 0. -1.
</event>
<event>
 8    1  0.7281309E-009  0.9696965E+02  0.7561462E-02  0.1286801E+00
          2   -1    0    0  501    0  0.00000000000E+00  0.00000000000E+00  0.27927132311E+03  0.27927132311E+03  0.00000000000E+00 0. -1.
         -2   -1    0    0    0  501 -0.00000000000E+00 -0.00000000000E+00 -0.13084497743E+03  0.13084497743E+03  0.00000000000E+00 0.  1.
         25    2    1    2    0    0 -0.42570621199E+02  0.35706586808E+02  0.23515401947E+03  0.27208857196E+03  0.12509020739E+03 0.  0.
         23    2    1    2    0    0  0.42570621199E+02 -0.35706586808E+02 -0.86727673792E+02  0.13802772858E+03  0.91884418288E+02 0.  0.
          5    1    3    3  502    0 -0.63224063820E+02  0.53841879110E+02  0.22898044727E+03  0.24360982703E+03  0.41800000000E+01 0. -1.
         -5    1    3    3    0  502  0.20653442621E+02 -0.18135292302E+02  0.61735721970E+01  0.28478744927E+02  0.41800000000E+01 0. -1.
        -11    1    4    4    0    0  0.51421567103E+01 -0.44291244379E+02 -0.89016225234E+02  0.99559250998E+02  0.00000000000E+00 0.  1.
         11    1    4    4    0    0  0.37428464489E+02  0.85846575712E+01  0.22885514416E+01  0.38468477580E+02  0.00000000000E+00 0. -1.
</event>
<event>
 8    1  0.7281309E-009  0.1042497E+03  0.7561462E-02  0.1271605E+00
         -1   -1    0    0    0  501 -0.00000000000E+00  0.00000000000E+00  0.16833731714E+02  0.16833731714E+02  0.00000000000E+00 0.  1.
          1   -1    0    0  501    0  0.00000000000E+00 -0.00000000000E+00 -0.81986661971E+03  0.81986661971E+03  0.00000000000E+00 0. -1.
         25    2    1    2    0    0 -0.33059652705E+02 -0.31619718273E+02 -0.44909430524E+03  0.46842894987E+03  0.12508892380E+03 0.  0.
         23    2    1    2    0    0  0.33059652705E+02  0.31619718273E+02 -0.35393858276E+03  0.36827140155E+03  0.90876606547E+02 0.  0.
          5    1    3    3  502    0 -0.46923452844E+02 -0.61406641483E+02 -0.40977245489E+03  0.41701741358E+03  0.41800000000E+01 0.  1.
         -5    1    3    3    0  502  0.13863800139E+02  0.29786923211E+02 -0.39321850352E+02  0.51411536291E+02  0.41800000000E+01 0.  1.
        -11    1    4    4    0    0  0.41655544589E+02 -0.19608206637E+02 -0.21657463562E+03  0.22141417967E+03  0.00000000000E+00 0.  1.
         11    1    4    4    0    0 -0.85958918846E+01  0.51227924910E+02 -0.13736394713E+03  0.14685722188E+03  0.00000000000E+00 0. -1.
</event>
<event>
 8    1  0.7281309E-009  0.1245004E+03  0.7561462E-02  0.1235852E+00
          2   -1    0    0  501    0  0.00000000000E+00  0.00000000000E+00  0.21296394872E+03  0.21296394872E+03  0.00000000000E+00 0.  1.
         -2   -1    0    0    0  501 -0.00000000000E+00 -0.00000000000E+00 -0.86318632401E+02  0.86318632401E+02  0.00000000000E+00 0. -1.
         25    2    1    2    0    0  0.47112762890E+02 -0.62738521192E+02  0.48465257581E+02  0.15540877797E+03  0.12508905871E+03 0.  0.
         23    2    1    2    0    0 -0.47112762890E+02  0.62738521192E+02  0.78180058737E+02  0.14387380315E+03  0.91824915897E+02 0.  0.
          5    1    3    3  502    0 -0.29640542678E+02  0.18992891664E+02  0.10914772652E+02  0.37093077064E+02  0.41800000000E+01 0.  1.
         -5    1    3    3    0  502  0.76753305568E+02 -0.81731412856E+02  0.37550484929E+02  0.11831570091E+03  0.41800000000E+01 0.  1.
        -11    1    4    4    0    0 -0.38949503869E+02  0.88324532737E+00  0.71109659615E+02  0.81082844452E+02  0.00000000000E+00 0.  1.
         11    1    4    4    0    0 -0.81632590209E+01  0.61855275865E+02  0.70703991226E+01  0.62790958695E+02  0.00000000000E+00 0. -1.
</event>
<event>
 8    1  0.7281309E-009  0.1516466E+03  0.7561462E-02  0.1198464E+00
          2   -1    0    0  501    0  0.00000000000E+00  0.00000000000E+00  0.98152467823E+03  0.98152467823E+03  0.00000000000E+00 0.  1.
         -2   -1    0    0    0  501 -0.00000000000E+00 -0.00000000000E+00 -0.32065239601E+02  0.32065239601E+02  0.00000000000E+00 0. -1.
         25    2    1    2    0    0 -0.10131695140E+03  0.86154548238E+02  0.37282990870E+03  0.41513444044E+03  0.12508689778E+03 0.  0.
         23    2    1    2    0    0  0.10131695140E+03 -0.86154548238E+02  0.57662952992E+03  0.59845547738E+03  0.89216662162E+02 0.  0.
          5    1    3    3  502    0  0.27877385350E+01  0.60716152640E+02  0.64682930878E+02  0.88857057258E+02  0.41800000000E+01 0. -1.
         -5    1    3    3    0  502 -0.10410468993E+03  0.25438395597E+02  0.30814697782E+03  0.32627738319E+03  0.41800000000E+01 0. -1.
        -11    1    4    4    0    0  0.11218312733E+02 -0.21412249014E+02  0.21510640962E+02  0.32358037997E+02  0.00000000000E+00 0. -1.
         11    1    4    4    0    0  0.90098638665E+02 -0.64742299224E+02  0.55511888896E+03  0.56609743939E+03  0.00000000000E+00 0.  1.
</event>
<event>
 8    1  0.7281309E-009  0.9334888E+02  0.7561462E-02  0.1294939E+00
         -2   -1    0    0    0  501 -0.00000000000E+00  0.00000000000E+00  0.10602521567E+03  0.10602521567E+03  0.00000000000E+00 0.  1.
          2   -1    0    0  501    0  0.00000000000E+00 -0.00000000000E+00 -0.12568978709E+03  0.12568978709E+03  0.00000000000E+00 0. -1.
         25    2    1    2    0    0 -0.33145893419E+02  0.22593679408E+02 -0.12118555639E+02  0.13192166801E+03  0.12508933808E+03 0.  0.
         23    2    1    2    0    0  0.33145893419E+02 -0.22593679408E+02 -0.75460157859E+01  0.99793334747E+02  0.91063948442E+02 0.  0.
          5    1    3    3  502    0 -0.60653299770E+00  0.48610279835E+02 -0.53945419012E+02  0.72738626742E+02  0.41800000000E+01 0. -1.
         -5    1    3    3    0  502 -0.32539360421E+02 -0.26016600426E+02  0.41826863372E+02  0.59183041270E+02  0.41800000000E+01 0. -1.
        -11    1    4    4    0    0  0.30680665000E+02 -0.55296727215E+02  0.75554476155E+01  0.63687644282E+02  0.00000000000E+00 0.  1.
         11    1    4    4    0    0  0.24652284190E+01  0.32703047807E+02 -0.15101463401E+02  0.36105690464E+02  0.00000000000E+00 0. -1.
</event>
<event>
 8    1  0.7281309E-009  0.1117622E+03  0.7561462E-02  0.1257341E+00
          1   -1    0    0  501    0  0.00000000000E+00  0.00000000000E+00  0.18402335628E+03  0.18402335628E+03  0.00000000000E+00 0. -1.
         -1   -1    0    0    0  501 -0.00000000000E+00 -0.00000000000E+00 -0.86693145871E+02  0.86693145871E+02  0.00000000000E+00 0.  1.
         25    2    1    2    0    0 -0.29276434705E+02  0.35616134928E+02  0.10241587345E+03  0.16811532178E+03  0.12509249213E+03 0.  0.
         23    2    1    2    0    0  0.29276434705E+02 -0.35616134928E+02 -0.50856630352E+01  0.10260118037E+03  0.91517864642E+02 0.  0.
          5    1    3    3  502    0 -0.53760485724E+02  0.70713882856E+02  0.57287657406E+02  0.10578275448E+03  0.41800000000E+01 0. -1.
         -5    1    3    3    0  502  0.24484051019E+02 -0.35097747928E+02  0.45128216042E+02  0.62332567307E+02  0.41800000000E+01 0. -1.
        -11    1    4    4    0    0  0.22163887141E+02  0.23356758390E+02 -0.24113942423E+02  0.40227581022E+02  0.00000000000E+00 0.  1.
         11    1    4    4    0    0  0.71125475645E+01 -0.58972893318E+02  0.19028279388E+02  0.62373599348E+02  0.00000000000E+00 0. -1.
</event>
<event>
 8    1  0.7281309E-009  0.1554434E+03  0.7561462E-02  0.1193939E+00
         -1   -1    0    0    0  501 -0.00000000000E+00  0.00000000000E+00  0.24030357546E+03  0.24030357546E+03  0.00000000000E+00 0.  1.
          1   -1    0    0  501    0  0.00000000000E+00 -0.00000000000E+00 -0.16823509396E+03  0.16823509396E+03  0.00000000000E+00 0. -1.
         25    2    1    2    0    0  0.15024318689E+03 -0.53386215777E+01  0.11613210112E+03  0.22745559290E+03  0.12509142954E+03 0.  0.
         23    2    1    2    0    0 -0.15024318689E+03  0.53386215777E+01 -0.44063619621E+02  0.18108307652E+03  0.90818290779E+02 0.  0.
          5    1    3    3  502    0  0.13969747391E+03  0.11514437007E+02  0.13859764972E+03  0.19716680092E+03  0.41800000000E+01 0.  1.
         -5    1    3    3    0  502  0.10545712981E+02 -0.16853058585E+02 -0.22465548600E+02  0.30288791984E+02  0.41800000000E+01 0.  1.
        -11    1    4    4    0    0 -0.13540796057E+03  0.48043964254E+01 -0.96188748818E+00  0.13549658017E+03  0.00000000000E+00 0.  1.
         11    1    4    4    0    0 -0.14835226324E+02  0.53422515233E+00 -0.43101732133E+02  0.45586496350E+02  0.00000000000E+00 0. -1.
</event>
<event>
 8    1  0.7281309E-009  0.1003501E+03  0.7561462E-02  0.1279561E+00
         -1   -1    0    0    0  501 -0.00000000000E+00  0.00000000000E+00  0.47385303920E+02  0.47385303920E+02  0.00000000000E+00 0.  1.
          1   -1    0    0  501    0  0.00000000000E+00 -0.00000000000E+00 -0.37785379988E+03  0.37785379988E+03  0.00000000000E+00 0. -1.
         25    2    1    2    0    0  0.15540384545E+02 -0.54682444802E+02 -0.27185280591E+03  0.30460215145E+03  0.12508736651E+03 0.  0.
         23    2    1    2    0    0 -0.15540384545E+02  0.54682444802E+02 -0.58615690040E+02  0.12063695235E+03  0.88802037320E+02 0.  0.
          5    1    3    3  502    0  0.51721050588E+02 -0.53224237376E+02 -0.79545167921E+02  0.10887053163E+03  0.41800000000E+01 0.  1.
         -5    1    3    3    0  502 -0.36180666043E+02 -0.14582074257E+01 -0.19230763799E+03  0.19573161981E+03  0.41800000000E+01 0.  1.
        -11    1    4    4    0    0 -0.41100111262E+02  0.17210770230E+02  0.23832410417E+01  0.44621851099E+02  0.00000000000E+00 0.  1.
         11    1    4    4    0    0  0.25559726717E+02  0.37471674572E+02 -0.60998931082E+02  0.76015101251E+02  0.00000000000E+00 0. -1.
</event>
<event>
 8    1  0.7281309E-009  0.1020775E+03  0.7561462E-02  0.1275987E+00
          2   -1    0    0  501    0  0.00000000000E+00  0.00000000000E+00  0.72500705638E+03  0.72500705638E+03  0.00000000000E+00 0. -1.
         -2   -1    0    0    0  501 -0.00000000000E+00 -0.00000000000E+00 -0.25953921551E+02  0.25953921551E+02  0.00000000000E+00 0.  1.
         25    2    1    2    0    0  0.79791189636E+02  0.31076546096E+01  0.30774132629E+03  0.34165401156E+03  0.12508576358E+03 0.  0.
         23    2    1    2    0    0 -0.79791189636E+02 -0.31076546096E+01  0.39131180854E+03  0.40930696637E+03  0.89615678061E+02 0.  0.
          5    1    3    3  502    0  0.77214325153E+02 -0.10249213111E+02  0.74129912660E+02  0.10760954757E+03  0.41800000000E+01 0.  1.
         -5    1    3    3    0  502  0.25768644833E+01  0.13356867721E+02  0.23361141363E+03  0.23404446399E+03  0.41800000000E+01 0.  1.
        -11    1    4    4    0    0 -0.58940287142E+02 -0.38813492470E+02  0.31179809075E+03  0.31968499189E+03  0.00000000000E+00 0. -1.
         11    1    4    4    0    0 -0.20850902494E+02  0.35705837861E+02  0.79513717788E+02  0.89621974474E+02  0.00000000000E+00 0.  1.
</event>
<event>
 8    1  0.7281309E-009  0.3586004E+03  0.7561462E-02  0.1059139E+00
          2   -1    0    0  501    0  0.00000000000E+00  0.00000000000E+00  0.22277213329E+04  0.22277213329E+04  0.00000000000E+00 0.  1.
         -2   -1    0    0    0  501 -0.00000000000E+00 -0.00000000000E+00 -0.61050274160E+02  0.61050274160E+02  0.00000000000E+00 0. -1.
         25    2    1    2    0    0 -0.90480150375E+02 -0.33603545208E+03  0.12636617481E+04  0.13166599632E+04  0.12508382113E+03 0.  0.
         23    2    1    2    0    0  0.90480150375E+02  0.33603545208E+03  0.90300931063E+03  0.97211164389E+03  0.92025813971E+02 0.  0.
          5    1    3    3  502    0 -0.94522272600E+02 -0.12925149704E+03  0.47310601563E+03  0.49948692068E+03  0.41800000000E+01 0. -1.
         -5    1    3    3    0  502  0.40421222253E+01 -0.20678395504E+03  0.79055573248E+03  0.81717304249E+03  0.41800000000E+01 0. -1.
        -11    1    4    4    0    0  0.68510411946E+02  0.18031465376E+03  0.60712996563E+03  0.63703520003E+03  0.00000000000E+00 0.  1.
         11    1    4    4    0    0  0.21969738429E+02  0.15572079832E+03  0.29587934500E+03  0.33507644386E+03  0.00000000000E+00 0. -1.
</event>
<event>
 8    1  0.7281309E-009  0.1149917E+03  0.7561462E-02  0.1251596E+00
          1   -1    0    0  501    0  0.00000000000E+00  0.00000000000E+00  0.35460449085E+03  0.35460449085E+03  0.00000000000E+00 0. -1.
         -1   -1    0    0    0  501 -0.00000000000E+00 -0.00000000000E+00 -0.52087349450E+02  0.52087349450E+02  0.00000000000E+00 0.  1.
         25    2    1    2    0    0 -0.26208851404E+02  0.54625081570E+02  0.24757497509E+03  0.28392201830E+03  0.12509013053E+03 0.  0.
         23    2    1    2    0    0  0.26208851404E+02 -0.54625081570E+02  0.54942166308E+02  0.12276982200E+03  0.91558637639E+02 0.  0.
          5    1    3    3  502    0 -0.11900994055E+02 -0.31039559033E+02  0.17153749653E+02  0.37640555410E+02  0.41800000000E+01 0. -1.
         -5    1    3    3    0  502 -0.14307857349E+02  0.85664640603E+02  0.23042122544E+03  0.24628146289E+03  0.41800000000E+01 0. -1.
        -11    1    4    4    0    0 -0.12677365853E+01 -0.75193720896E+02  0.41615846745E+02  0.85951041405E+02  0.00000000000E+00 0.  1.
         11    1    4    4    0    0  0.27476587990E+02  0.20568639326E+02  0.13326319563E+02  0.36818780593E+02  0.00000000000E+00 0. -1.
</event>
<event>
 8    1  0.7281309E-009  0.9338626E+02  0.7561462E-02  0.1294853E+00
          2   -1    0    0  501    0  0.00000000000E+00  0.00000000000E+00  0.42507651114E+03  0.42507651114E+03  0.00000000000E+00 0. -1.
         -2   -1    0    0    0  501 -0.00000000000E+00 -0.00000000000E+00 -0.26770435018E+02  0.26770435018E+02  0.00000000000E+00 0.  1.
         25    2    1    2    0    0 -0.19493744309E+01  0.19644550531E+02  0.22292409329E+03  0.25638371413E+03  0.12509096320E+03 0.  0.
         23    2    1    2    0    0  0.19493744309E+01 -0.19644550531E+02  0.17538198283E+03  0.19546323203E+03  0.84007896932E+02 0.  0.
          5    1    3    3  502    0 -0.27024052995E+01 -0.43511102401E+02  0.29342251558E+02  0.52715833987E+02  0.41800000000E+01 0. -1.
         -5    1    3    3    0  502  0.75303086854E+00  0.63155652931E+02  0.19358184174E+03  0.20366788014E+03  0.41800000000E+01 0. -1.
        -11    1    4    4    0    0 -0.31304535328E+02 -0.31467048451E+02  0.58900645180E+02  0.73752525875E+02  0.00000000000E+00 0. -1.
         11    1    4    4    0    0  0.33253909759E+02  0.11822497920E+02  0.11648133765E+03  0.12171070615E+03  0.00000000000E+00 0.  1.
</event>
<event>
 8    1  0.7281309E-009  0.1599372E+03  0.7561462E-02  0.1188768E+00
         -1   -1    0    0    0  501 -0.00000000000E+00  0.00000000000E+00  0.72227611024E+03  0.72227611024E+03  0.00000000000E+00 0.  1.
          1   -1    0    0  501    0  0.00000000000E+00 -0.00000000000E+00 -0.35479537774E+02  0.35479537774E+02  0.00000000000E+00 0. -1.
         25    2    1    2    0    0  0.11632970656E+03  0.14270017701E+02  0.35747086292E+03  0.39644498934E+03  0.12508787991E+03 0.  0.
         23    2    1    2    0    0 -0.11632970656E+03 -0.14270017701E+02  0.32932570955E+03  0.36131065868E+03  0.91398769536E+02 0.  0.
          5    1    3    3  502    0  0.14131638412E+03 -0.16797254550E+01  0.29977929380E+03  0.33144869782E+03  0.41800000000E+01 0.  1.
         -5    1    3    3    0  502 -0.24986677568E+02  0.15949743156E+02  0.57691569127E+02  0.64996291516E+02  0.41800000000E+01 0.  1.
        -11    1    4    4    0    0 -0.31265271044E+02  0.37613486460E+02  0.10301680492E+03  0.11403838667E+03  0.00000000000E+00 0.  1.
         11    1    4    4    0    0 -0.85064435513E+02 -0.51883504161E+02  0.22630890462E+03  0.24727227201E+03  0.00000000000E+00 0. -1.
</event>
<event>
 8    1  0.7281309E-009  0.1638177E+03  0.7561462E-02  0.1184453E+00
         -1   -1    0    0    0  501 -0.00000000000E+00  0.00000000000E+00  0.13151990389E+03  0.13151990389E+03  0.00000000000E+00 0.  1.
          1   -1    0    0  501    0  0.00000000000E+00 -0.00000000000E+00 -0.22415909047E+03  0.22415909047E+03  0.00000000000E+00 0. -1.
         25    2    1    2    0    0 -0.13070391421E+03  0.18956081217E+02 -0.38198331084E+02  0.18587618540E+03  0.12509195656E+03 0.  0.
         23    2    1    2    0    0  0.13070391421E+03 -0.18956081217E+02 -0.54440855501E+02  0.16980280896E+03  0.91795103237E+02 0.  0.
          5    1    3    3  502    0 -0.31363473367E+02 -0.40212216392E+02 -0.47479220814E+02  0.69802855371E+02  0.41800000000E+01 0.  1.
         -5    1    3    3    0  502 -0.99340440847E+02  0.59168297608E+02  0.92808897309E+01  0.11607333003E+03  0.41800000000E+01 0. -1.
        -11    1    4    4    0    0 -0.43869636510E+01 -0.25153088740E+02 -0.67891730691E+01  0.26419996106E+02  0.00000000000E+00 0. -1.
         11    1    4    4    0    0  0.13509087786E+03  0.61970075237E+01 -0.47651682432E+02  0.14338281286E+03  0.00000000000E+00 0.  1.
</event>
<event>
 8    1  0.7281309E-009  0.1472624E+03  0.7561462E-02  0.1203878E+00
          3   -1    0    0  501    0  0.00000000000E+00  0.00000000000E+00  0.29024849819E+03  0.29024849819E+03  0.00000000000E+00 0. -1.
         -3   -1    0    0    0  501 -0.00000000000E+00 -0.00000000000E+00 -0.92739937711E+02  0.92739937711E+02  0.00000000000E+00 0.  1.
         25    2    1    2    0    0  0.45775047310E+02 -0.10375997272E+03  0.15907038740E+03  0.23199626458E+03  0.12512949987E+03 0.  0.
         23    2    1    2    0    0 -0.45775047310E+02  0.10375997272E+03  0.38438173079E+02  0.15099217131E+03  0.91976386929E+02 0.  0.
          5    1    3    3  502    0  0.82281083392E+02 -0.75056270398E+02  0.14580011855E+03  0.18351775766E+03  0.41800000000E+01 0. -1.
         -5    1    3    3    0  502 -0.36506036083E+02 -0.28703702327E+02  0.13270268851E+02  0.48478506919E+02  0.41800000000E+01 0. -1.
        -11    1    4    4    0    0 -0.33735590100E+01 -0.12368729114E+02 -0.11916127986E+02  0.17503155900E+02  0.00000000000E+00 0.  1.
         11    1    4    4    0    0 -0.42401488300E+02  0.11612870184E+03  0.50354301064E+02  0.13348901541E+03  0.00000000000E+00 0. -1.
</event>
<event>
 8    1  0.7281309E-009  0.9221707E+02  0.7561462E-02  0.1297570E+00
         -2   -1    0    0    0  501 -0.00000000000E+00  0.00000000000E+00  0.34384778164E+02  0.34384778164E+02  0.00000000000E+00 0. -1.
          2   -1    0    0  501    0  0.00000000000E+00 -0.00000000000E+00 -0.43828376203E+03  0.43828376203E+03  0.00000000000E+00 0.  1.
         25    2    1    2    0    0 -0.44888152661E+02  0.26076594007E+02 -0.27368616421E+03  0.30536344880E+03  0.12509110433E+03 0.  0.
         23    2    1    2    0    0  0.44888152661E+02 -0.26076594007E+02 -0.13021281966E+03  0.16730509139E+03  0.91327324488E+02 0.  0.
          5    1    3    3  502    0  0.22702058028E+02  0.48282197693E+02 -0.61479004927E+02  0.81508861479E+02  0.41800000000E+01 0.  1.
         -5    1    3    3    0  502 -0.67590210689E+02 -0.22205603686E+02 -0.21220715928E+03  0.22385458732E+03  0.41800000000E+01 0.  1.
        -11    1    4    4    0    0  0.45775620117E+02 -0.14467446189E+02 -0.14250497650E+03  0.15037414247E+03  0.00000000000E+00 0.  1.
         11    1    4    4    0    0 -0.88746745606E+00 -0.11609147818E+02  0.12292156842E+02  0.16930948921E+02  0.00000000000E+00 0. -1.
</event>
<event>
 8    1  0.7281309E-009  0.3384614E+03  0.7561462E-02  0.1067453E+00
          2   -1    0    0  501    0  0.00000000000E+00  0.00000000000E+00  0.51461961343E+03  0.51461961343E+03  0.00000000000E+00 0. -1.
         -2   -1    0    0    0  501 -0.00000000000E+00 -0.00000000000E+00 -0.25634536906E+03  0.25634536906E+03  0.00000000000E+00 0.  1.
         25    2    1    2    0    0 -0.24342217308E+03  0.21945138474E+03  0.12000068159E+02  0.35100655131E+03  0.12509329644E+03 0.  0.
         23    2    1    2    0    0  0.24342217308E+03 -0.21945138474E+03  0.24627417621E+03  0.41995843118E+03  0.91108997583E+02 0.  0.
          5    1    3    3  502    0 -0.72819598524E+02  0.14216740414E+02 -0.31239294266E+02  0.80611261889E+02  0.41800000000E+01 0. -1.
         -5    1    3    3    0  502 -0.17060257455E+03  0.20523464433E+03  0.43239362425E+02  0.27039528942E+03  0.41800000000E+01 0. -1.
        -11    1    4    4    0    0  0.50974780028E+02 -0.11301747468E+02  0.65409312190E+02  0.83693104948E+02  0.00000000000E+00 0.  1.
         11    1    4    4    0    0  0.19244739305E+03 -0.20814963728E+03  0.18086486402E+03  0.33626532623E+03  0.00000000000E+00 0. -1.
</event>
<event>
 8    1  0.7281309E-009  0.1289936E+03  0.7561462E-02  0.1228957E+00
         -1   -1    0    0    0  501 -0.00000000000E+00  0.00000000000E+00  0.12942642625E+03  0.12942642625E+03  0.00000000000E+00 0.  1.
          1   -1    0    0  501    0  0.00000000000E+00 -0.00000000000E+00 -0.18632471681E+03  0.18632471681E+03  0.00000000000E+00 0. -1.
         25    2    1    2    0    0 -0.93828646226E+02 -0.61823193219E+02 -0.19521148683E+02  0.16927634911E+03  0.12508990787E+03 0.  0.
         23    2    1    2    0    0  0.93828646226E+02  0.61823193219E+02 -0.37377141873E+02  0.14647479394E+03  0.86208424492E+02 0.  0.
          5    1    3    3  502    0 -0.31823501208E+02 -0.38813388925E+01  0.49966059275E+02  0.59513691704E+02  0.41800000000E+01 0. -1.
         -5    1    3    3    0  502 -0.62005145019E+02 -0.57941854327E+02 -0.69487207959E+02  0.10976265741E+03  0.41800000000E+01 0. -1.
        -11    1    4    4    0    0  0.46713720924E+02 -0.16285634598E+02 -0.21248849282E+02  0.53841500839E+02  0.00000000000E+00 0.  1.
         11    1    4    4    0    0  0.47114925303E+02  0.78108827818E+02 -0.16128292591E+02  0.92633293104E+02  0.00000000000E+00 0. -1.
</event>
<event>
 8    1  0.7281309E-009  0.1175232E+03  0.7561462E-02  0.1247240E+00
         -1   -1    0    0    0  501 -0.00000000000E+00  0.00000000000E+00  0.45297944509E+02  0.45297944509E+02  0.00000000000E+00 0.  1.
          1   -1    0    0  501    0  0.00000000000E+00 -0.00000000000E+00 -0.38396972452E+03  0.38396972452E+03  0.00000000000E+00 0. -1.
         25    2    1    2    0    0 -0.50082836817E+02 -0.18150749243E+02 -0.27480721659E+03  0.30660170650E+03  0.12509140617E+03 0.  0.
         23    2    1    2    0    0  0.50082836817E+02  0.18150749243E+02 -0.63864563421E+02  0.12266596253E+03  0.90169372075E+02 0.  0.
          5    1    3    3  502    0  0.37939915492E+02  0.13168455634E+02 -0.60025238266E+02  0.72341876118E+02  0.41800000000E+01 0. -1.
         -5    1    3    3    0  502 -0.88022752309E+02 -0.31319204878E+02 -0.21478197832E+03  0.23425983038E+03  0.41800000000E+01 0. -1.
        -11    1    4    4    0    0  0.18848967369E+02 -0.34854065191E+02 -0.99313797221E+01  0.40849990629E+02  0.00000000000E+00 0.  1.
         11    1    4    4    0    0  0.31233869448E+02  0.53004814435E+02 -0.53933183699E+02  0.81815971899E+02  0.00000000000E+00 0. -1.
</event>
<event>
 8    1  0.7281309E-009  0.1239225E+03  0.7561462E-02  0.1236763E+00
          1   -1    0    0  501    0  0.00000000000E+00  0.00000000000E+00  0.85254563254E+03  0.85254563254E+03  0.00000000000E+00 0. -1.
         -1   -1    0    0    0  501 -0.00000000000E+00 -0.00000000000E+00 -0.30230367683E+02  0.30230367683E+02  0.00000000000E+00 0.  1.
         25    2    1    2    0    0 -0.17794297023E+02  0.10946559444E+03  0.32882966171E+03  0.36888364700E+03  0.12508735039E+03 0.  0.
         23    2    1    2    0    0  0.17794297023E+02 -0.10946559444E+03  0.49348560315E+03  0.51389235323E+03  0.90873300918E+02 0.  0.
          5    1    3    3  502    0  0.83202628062E+01  0.36042370447E+02  0.26627950214E+03  0.26886897348E+03  0.41800000000E+01 0. -1.
         -5    1    3    3    0  502 -0.26114559829E+02  0.73423223991E+02  0.62550159572E+02  0.10001467352E+03  0.41800000000E+01 0. -1.
        -11    1    4    4    0    0 -0.22089749237E+02 -0.79990792781E+02  0.39502262673E+03  0.40364509111E+03  0.00000000000E+00 0. -1.
         11    1    4    4    0    0  0.39884046260E+02 -0.29474801658E+02  0.98462976422E+02  0.11024726212E+03  0.00000000000E+00 0.  1.
</event>
<event>
 8    1  0.7281309E-009  0.1162304E+03  0.7561462E-02  0.1249449E+00
          1   -1    0    0  501    0  0.00000000000E+00  0.00000000000E+00  0.25137545959E+02  0.25137545959E+02  0.00000000000E+00 0. -1.
         -1   -1    0    0    0  501 -0.00000000000E+00 -0.00000000000E+00 -0.64572745910E+03  0.64572745910E+03  0.00000000000E+00 0.  1.
         25    2    1    2    0    0  0.25255569818E+02  0.49387196020E+02 -0.42249397060E+03  0.44410092402E+03  0.12509011383E+03 0.  0.
         23    2    1    2    0    0 -0.25255569818E+02 -0.49387196020E+02 -0.19809594254E+03  0.22676408104E+03  0.95409680136E+02 0.  0.
          5    1    3    3  502    0  0.75579992849E+02  0.31439323838E+02 -0.28428174992E+03  0.29586204917E+03  0.41800000000E+01 0.  1.
         -5    1    3    3    0  502 -0.50324423030E+02  0.17947872182E+02 -0.13821222068E+03  0.14823887484E+03  0.41800000000E+01 0.  1.
        -11    1    4    4    0    0 -0.42520911522E+02 -0.62240994281E+02 -0.18884949960E+03  0.20333741118E+03  0.00000000000E+00 0.  1.
         11    1    4    4    0    0  0.17265341704E+02  0.12853798261E+02 -0.92464429371E+01  0.23426669863E+02  0.00000000000E+00 0. -1.
</event>
<event>
 8    1  0.7281309E-009  0.1890836E+03  0.7561462E-02  0.1159290E+00
          2   -1    0    0  501    0  0.00000000000E+00  0.00000000000E+00  0.57822999275E+03  0.57822999275E+03  0.00000000000E+00 0.  1.
         -2   -1    0    0    0  501 -0.00000000000E+00 -0.00000000000E+00 -0.77941817651E+02  0.77941817651E+02  0.00000000000E+00 0. -1.
         25    2    1    2    0    0  0.34656875260E+02  0.16030771188E+03  0.38351284833E+03  0.43546409130E+03  0.12508880239E+03 0.  0.
         23    2    1    2    0    0 -0.34656875260E+02 -0.16030771188E+03  0.11677532677E+03  0.22070771910E+03  0.90419902891E+02 0.  0.
          5    1    3    3  502    0 -0.25534001708E+02  0.80156166472E+01  0.12367637214E+02  0.29776940805E+02  0.41800000000E+01 0.  1.
         -5    1    3    3    0  502  0.60190876967E+02  0.15229209523E+03  0.37114521112E+03  0.40568715050E+03  0.41800000000E+01 0.  1.
        -11    1    4    4    0    0 -0.46550950906E+02 -0.27777604600E+02  0.34977917192E+02  0.64513882527E+02  0.00000000000E+00 0. -1.
         11    1    4    4    0    0  0.11894075646E+02 -0.13253010728E+03  0.81797409574E+02  0.15619383657E+03  0.00000000000E+00 0.  1.
</event>
<event>
 8    1  0.7281309E-009  0.3615457E+03  0.7561462E-02  0.1057973E+00
         -2   -1    0    0    0  501 -0.00000000000E+00  0.00000000000E+00  0.26414054329E+03  0.26414054329E+03  0.00000000000E+00 0.  1.
          2   -1    0    0  501    0  0.00000000000E+00 -0.00000000000E+00 -0.74966469124E+03  0.74966469124E+03  0.00000000000E+00 0. -1.
         25    2    1    2    0    0  0.29339137990E+03 -0.20064642783E+03 -0.52750029869E+03  0.64826043987E+03  0.12509013545E+03 0.  0.
         23    2    1    2    0    0 -0.29339137990E+03  0.20064642783E+03  0.41976150745E+02  0.36554479466E+03  0.74320312641E+02 0.  0.
          5    1    3    3  502    0  0.15764340102E+03 -0.14195786522E+03 -0.40068563501E+03  0.45339820013E+03  0.41800000000E+01 0.  1.
         -5    1    3    3    0  502  0.13574797888E+03 -0.58688562608E+02 -0.12681466368E+03  0.19486223974E+03  0.41800000000E+01 0.  1.
        -11    1    4    4    0    0 -0.22067032301E+03  0.18639068141E+03  0.37865097826E+02  0.29132566520E+03  0.00000000000E+00 0.  1.
         11    1    4    4    0    0 -0.72721056886E+02  0.14255746422E+02  0.41110529190E+01  0.74219129453E+02  0.00000000000E+00 0. -1.
</event>
<event>
 8    1  0.7281309E-009  0.8803980E+02  0.7561462E-02  0.1307669E+00
          4   -1    0    0  501    0  0.00000000000E+00  0.00000000000E+00  0.87691032131E+02  0.87691032131E+02  0.00000000000E+00 0. -1.
         -4   -1    0    0    0  501 -0.00000000000E+00 -0.00000000000E+00 -0.14097989616E+03  0.14097989616E+03  0.00000000000E+00 0.  1.
         25    2    1    2    0    0 -0.85213208605E+00  0.22729636383E+01 -0.83854557305E+01  0.12539379889E+03  0.12508955368E+03 0.  0.
         23    2    1    2    0    0  0.85213208605E+00 -0.22729636383E+01 -0.44903408300E+02  0.10327712941E+03  0.92972882545E+02 0.  0.
          5    1    3    3  502    0  0.60688936308E+02 -0.10565154991E+02 -0.89362629606E+01  0.62386686768E+02  0.41800000000E+01 0.  1.
         -5    1    3    3    0  502 -0.61541068394E+02  0.12838118629E+02  0.55080723012E+00  0.63007112119E+02  0.41800000000E+01 0.  1.
        -11    1    4    4    0    0 -0.22982921802E+02 -0.11590353053E+02 -0.65532525840E+02  0.70406412502E+02  0.00000000000E+00 0.  1.
         11    1    4    4    0    0  0.23835053888E+02  0.93173894147E+01  0.20629117539E+02  0.32870716905E+02  0.00000000000E+00 0. -1.
</event>
<event>
 8    1  0.7281309E-009  0.1560747E+03  0.7561462E-02  0.1193201E+00
         -2   -1    0    0    0  501 -0.00000000000E+00  0.00000000000E+00  0.31426633977E+02  0.31426633977E+02  0.00000000000E+00 0.  1.
          2   -1    0    0  501    0  0.00000000000E+00 -0.00000000000E+00 -0.93513938603E+03  0.93513938603E+03  0.00000000000E+00 0. -1.
         25    2    1    2    0    0 -0.40929751604E+02  0.11832945793E+03 -0.36475361168E+03  0.40542571099E+03  0.12509078589E+03 0.  0.
         23    2    1    2    0    0  0.40929751604E+02 -0.11832945793E+03 -0.53895914037E+03  0.56114030901E+03  0.93404422985E+02 0.  0.
          5    1    3    3  502    0 -0.58469710690E+02  0.12424061504E+03 -0.21954454448E+03  0.25898207834E+03  0.41800000000E+01 0. -1.
         -5    1    3    3    0  502  0.17539959086E+02 -0.59111571128E+01 -0.14520906721E+03  0.14644363264E+03  0.41800000000E+01 0. -1.
        -11    1    4    4    0    0  0.58171379569E+02 -0.12455373838E+03 -0.48761553354E+03  0.50662259296E+03  0.00000000000E+00 0.  1.
         11    1    4    4    0    0 -0.17241627965E+02  0.62242804466E+01 -0.51343606828E+02  0.54517716057E+02  0.00000000000E+00 0. -1.
</event>
<event>
 8    1  0.7281309E-009  0.2124823E+03  0.7561462E-02  0.1139615E+00
          1   -1    0    0  501    0  0.00000000000E+00  0.00000000000E+00  0.52835172379E+02  0.52835172379E+02  0.00000000000E+00 0. -1.
         -1   -1    0    0    0  501 -0.00000000000E+00 -0.00000000000E+00 -0.12413280190E+04  0.12413280190E+04  0.00000000000E+00 0.  1.
         25    2    1    2    0    0 -0.11700048297E+03  0.16888661174E+03 -0.34086090801E+03  0.41718586633E+03  0.12508432282E+03 0.  0.
         23    2    1    2    0    0  0.11700048297E+03 -0.16888661174E+03 -0.84763193861E+03  0.87697732505E+03  0.91638008761E+02 0.  0.
          5    1    3    3  502    0 -0.43530196243E+02  0.12435734244E+02 -0.16266756744E+03  0.16890155525E+03  0.41800000000E+01 0. -1.
         -5    1    3    3    0  502 -0.73470286730E+02  0.15645087750E+03 -0.17819334057E+03  0.24828431108E+03  0.41800000000E+01 0. -1.
        -11    1    4    4    0    0  0.97540803687E+02 -0.12463894520E+03 -0.76538708748E+03  0.78157947051E+03  0.00000000000E+00 0.  1.
         11    1    4    4    0    0  0.19459679286E+02 -0.44247666540E+02 -0.82244851134E+02  0.95397854537E+02  0.00000000000E+00 0. -1.
</event>
<event>
 8    1  0.7281309E-009  0.1334859E+03  0.7561462E-02  0.1222373E+00
         -2   -1    0    0    0  501 -0.00000000000E+00  0.00000000000E+00  0.31000472540E+02  0.31000472540E+02  0.00000000000E+00 0.  1.
          2   -1    0    0  501    0  0.00000000000E+00 -0.00000000000E+00 -0.14282633116E+04  0.14282633116E+04  0.00000000000E+00 0. -1.
         25    2    1    2    0    0  0.32391690800E+02  0.10197349356E+03 -0.12251161633E+04  0.12361246862E+04  0.12508721447E+03 0.  0.
         23    2    1    2    0    0 -0.32391690800E+02 -0.10197349356E+03 -0.17214667570E+03  0.22313909789E+03  0.93320758827E+02 0.  0.
          5    1    3    3  502    0 -0.26136676889E+02  0.18335178345E+02 -0.72315089447E+03  0.72386738649E+03  0.41800000000E+01 0.  1.
         -5    1    3    3    0  502  0.58528367689E+02  0.83638315217E+02 -0.50196526886E+03  0.51225729974E+03  0.41800000000E+01 0.  1.
        -11    1    4    4    0    0  0.24374541487E+02 -0.14609233141E+02 -0.94604186315E+01  0.29950751015E+02  0.00000000000E+00 0.  1.
         11    1    4    4    0    0 -0.56766232287E+02 -0.87364260421E+02 -0.16268625707E+03  0.19318834687E+03  0.00000000000E+00 0. -1.
</event>
<event>
 8    1  0.7281309E-009  0.9327715E+02  0.7561462E-02  0.1295104E+00
         -3   -1    0    0    0  501 -0.00000000000E+00  0.00000000000E+00  0.94494240223E+01  0.94494240223E+01  0.00000000000E+00 0.  1.
          3   -1    0    0  501    0  0.00000000000E+00 -0.00000000000E+00 -0.14364813164E+04  0.14364813164E+04  0.00000000000E+00 0. -1.
         25    2    1    2    0    0  0.11981585879E+02  0.11130972270E+02 -0.10941126007E+04  0.11013615433E+04  0.12508960444E+03 0.  0.
         23    2    1    2    0    0 -0.11981585879E+02 -0.11130972270E+02 -0.33291929165E+03  0.34456919708E+03  0.87322504999E+02 0.  0.
          5    1    3    3  502    0  0.46563828723E+02  0.37021988250E+02 -0.28945372435E+03  0.29553299088E+03  0.41800000000E+01 0. -1.
         -5    1    3    3    0  502 -0.34582242844E+02 -0.25891015980E+02 -0.80465887637E+03  0.80582855245E+03  0.41800000000E+01 0. -1.
        -11    1    4    4    0    0 -0.46884062090E+02 -0.32829076415E-02 -0.12616697535E+03  0.13459651169E+03  0.00000000000E+00 0.  1.
         11    1    4    4    0    0  0.34902476212E+02 -0.11127689362E+02 -0.20675231630E+03  0.20997268539E+03  0.00000000000E+00 0. -1.
</event>
<event>
 7    1  0.7281309E-009  0.1178840E+03  0.7561462E-02  0.1246629E+00
          1   -1    0    0  501    0  0.00000000000E+00  0.00000000000E+00  0.33456672967E+03  0.33456672967E+03  0.00000000000E+00 0. -1.
         -1   -1    0    0    0  501 -0.00000000000E+00 -0.00000000000E+00 -0.47483407538E+02  0.47483407538E+02  0.00000000000E+00 0.  1.
         23    2    1    2    0    0  0.45740369448E+02 -0.38251702752E+02  0.86292220587E+02  0.13818078937E+03  0.89956706572E+02 0.  0.
          5    1    1    2  502    0 -0.46261555787E+02  0.79924271646E+02  0.10864637255E+03  0.14265176974E+03  0.41800000000E+01 0. -1.
         -5    1    1    2    0  502  0.52118633941E+00 -0.41672568895E+02  0.92144728992E+02  0.10121757809E+03  0.41800000000E+01 0. -1.
        -11    1    3    3    0    0  0.27067106963E+02 -0.64084439784E+02  0.79408987180E+02  0.10557097587E+03  0.00000000000E+00 0. -1.
         11    1    3    3    0    0  0.18673262485E+02  0.25832737032E+02  0.68832334076E+01  0.32609813501E+02  0.00000000000E+00 0.  1.
</event>
<event>
 8    1  0.7281309E-009  0.1458139E+03  0.7561462E-02  0.1205713E+00
         -3   -1    0    0    0  501 -0.00000000000E+00  0.00000000000E+00  0.28820816898E+03  0.28820816898E+03  0.00000000000E+00 0.  1.
          3   -1    0    0  501    0  0.00000000000E+00 -0.00000000000E+00 -0.93234899278E+02  0.93234899278E+02  0.00000000000E+00 0. -1.
         25    2    1    2    0    0  0.38553105852E+02 -0.11174037500E+03  0.99970938305E+02  0.19903143930E+03  0.12508825663E+03 0.  0.
         23    2    1    2    0    0 -0.38553105852E+02  0.11174037500E+03  0.95002331393E+02  0.18241162896E+03  0.10137211665E+03 0.  0.
          5    1    3    3  502    0  0.71099127871E+02 -0.52774449061E+02  0.97118183229E+02  0.13149008469E+03  0.41800000000E+01 0.  1.
         -5    1    3    3    0  502 -0.32546022019E+02 -0.58965925934E+02  0.28527550759E+01  0.67541354607E+02  0.41800000000E+01 0.  1.
        -11    1    4    4    0    0 -0.30813175788E+02  0.12017091004E+03  0.46354623451E+02  0.13243583555E+03  0.00000000000E+00 0. -1.
         11    1    4    4    0    0 -0.77399300640E+01 -0.84305350495E+01  0.48647707942E+02  0.49975793406E+02  0.00000000000E+00 0.  1.
</event>
<event>
 8    1  0.7281309E-009  0.2143987E+03  0.7561462E-02  0.1138129E+00
          1   -1    0    0  501    0  0.00000000000E+00  0.00000000000E+00  0.26185999527E+03  0.26185999527E+03  0.00000000000E+00 0. -1.
         -1   -1    0    0    0  501 -0.00000000000E+00 -0.00000000000E+00 -0.19893244420E+03  0.19893244420E+03  0.00000000000E+00 0.  1.
         25    2    1    2    0    0  0.12750129951E+03 -0.13932682756E+03 -0.28814225717E+02  0.22835527247E+03  0.12508926654E+03 0.  0.
         23    2    1    2    0    0 -0.12750129951E+03  0.13932682756E+03  0.91741776786E+02  0.23243716700E+03  0.99709261054E+02 0.  0.
          5    1    3    3  502    0  0.72641041633E+02  0.13523399799E+01 -0.25983478376E+02  0.77273302644E+02  0.41800000000E+01 0.  1.
         -5    1    3    3    0  502  0.54860257872E+02 -0.14067916754E+03 -0.28307473409E+01  0.15108196982E+03  0.41800000000E+01 0.  1.
        -11    1    4    4    0    0 -0.85295068336E+02  0.34580694516E+02  0.74052087015E+02  0.11813037165E+03  0.00000000000E+00 0.  1.
         11    1    4    4    0    0 -0.42206231169E+02  0.10474613305E+03  0.17689689771E+02  0.11430679535E+03  0.00000000000E+00 0. -1.
</event>
<event>
 8    1  0.7281309E-009  0.2442530E+03  0.7561462E-02  0.1116992E+00
         -3   -1    0    0    0  501 -0.00000000000E+00  0.00000000000E+00  0.28135708241E+03  0.28135708241E+03  0.00000000000E+00 0.  1.
          3   -1    0    0  501    0  0.00000000000E+00 -0.00000000000E+00 -0.24131005920E+03  0.24131005920E+03  0.00000000000E+00 0. -1.
         25    2    1    2    0    0 -0.19480754355E+03  0.13172129289E+03 -0.29746757338E+01  0.26636186064E+03  0.12505724322E+03 0.  0.
         23    2    1    2    0    0  0.19480754355E+03 -0.13172129289E+03  0.43021698942E+02  0.25630528097E+03  0.92417814554E+02 0.  0.
          5    1    3    3  502    0 -0.17876981066E+03  0.13084548642E+03  0.35552711911E+02  0.22441179613E+03  0.41800000000E+01 0.  1.
         -5    1    3    3    0  502 -0.16037732888E+02  0.87580647496E+00 -0.38527387644E+02  0.41950064504E+02  0.41800000000E+01 0.  1.
        -11    1    4    4    0    0  0.37510724275E+02  0.97688484055E+01  0.19622064509E+02  0.43445485961E+02  0.00000000000E+00 0.  1.
         11    1    4    4    0    0  0.15729681927E+03 -0.14149014130E+03  0.23399634433E+02  0.21285979501E+03  0.00000000000E+00 0. -1.
</event>
<event>
 8    1  0.7281309E-009  0.1182318E+03  0.7561462E-02  0.1246043E+00
          2   -1    0    0  501    0  0.00000000000E+00  0.00000000000E+00  0.36949069184E+03  0.36949069184E+03  0.00000000000E+00 0. -1.
         -2   -1    0    0    0  501 -0.00000000000E+00 -0.00000000000E+00 -0.53791463154E+02  0.53791463154E+02  0.00000000000E+00 0.  1.
         25    2    1    2    0    0 -0.31991508778E+02 -0.75388809698E+02  0.12833194718E+03  0.19703623566E+03  0.12508900924E+03 0.  0.
         23    2    1    2    0    0  0.31991508778E+02  0.75388809698E+02  0.18736728150E+03  0.22624591934E+03  0.96818327689E+02 0.  0.
          5    1    3    3  502    0 -0.18360089307E+01 -0.10134066606E+03  0.60010099994E+02  0.11786426951E+03  0.41800000000E+01 0. -1.
         -5    1    3    3    0  502 -0.30155499847E+02  0.25951856364E+02  0.68321847187E+02  0.79171966143E+02  0.41800000000E+01 0. -1.
        -11    1    4    4    0    0  0.22261707012E+02  0.35759501268E+01 -0.28170341146E+01  0.22722383229E+02  0.00000000000E+00 0.  1.
         11    1    4    4    0    0  0.97298017659E+01  0.71812859572E+02  0.19018431562E+03  0.20352353611E+03  0.00000000000E+00 0. -1.
</event>
<event>
 8    1  0.7281309E-009  0.2155732E+03  0.7561462E-02  0.1137227E+00
         -1   -1    0    0    0  501 -0.00000000000E+00  0.00000000000E+00  0.39933917555E+02  0.39933917555E+02  0.00000000000E+00 0.  1.
          1   -1    0    0  501    0  0.00000000000E+00 -0.00000000000E+00 -0.15309186531E+04  0.15309186531E+04  0.00000000000E+00 0. -1.
         25    2    1    2    0    0  0.55452741633E+02 -0.19006523244E+03 -0.10418622328E+04  0.10678598681E+04  0.12509191277E+03 0.  0.
         23    2    1    2    0    0 -0.55452741633E+02  0.19006523244E+03 -0.44912250279E+03  0.50299270259E+03  0.10995834308E+03 0.  0.
          5    1    3    3  502    0  0.16532130457E+02 -0.14739106188E+03 -0.46499758665E+03  0.48809595823E+03  0.41800000000E+01 0. -1.
         -5    1    3    3    0  502  0.38920611176E+02 -0.42674170559E+02 -0.57686464612E+03  0.57976390983E+03  0.41800000000E+01 0. -1.
        -11    1    4    4    0    0 -0.70954257043E+01  0.17365204753E+03 -0.32022653974E+03  0.36434930415E+03  0.00000000000E+00 0. -1.
         11    1    4    4    0    0 -0.48357315929E+02  0.16413184906E+02 -0.12889596305E+03  0.13864339844E+03  0.00000000000E+00 0.  1.
</event>
<event>
 8    1  0.7281309E-009  0.1418690E+03  0.7561462E-02  0.1210836E+00
         -2   -1    0    0    0  501 -0.00000000000E+00  0.00000000000E+00  0.65532024109E+02  0.65532024109E+02  0.00000000000E+00 0.  1.
          2   -1    0    0  501    0  0.00000000000E+00 -0.00000000000E+00 -0.42849884075E+03  0.42849884075E+03  0.00000000000E+00 0. -1.
         25    2    1    2    0    0 -0.17326074928E+02  0.10976714330E+03 -0.28472920323E+03  0.33025106627E+03  0.12508408764E+03 0.  0.
         23    2    1    2    0    0  0.17326074928E+02 -0.10976714330E+03 -0.78237613413E+02  0.16377979859E+03  0.91398466369E+02 0.  0.
          5    1    3    3  502    0  0.14233290412E+02 -0.24396982866E+02 -0.37055020213E+02  0.46779763273E+02  0.41800000000E+01 0. -1.
         -5    1    3    3    0  502 -0.31559365341E+02  0.13416412616E+03 -0.24767418302E+03  0.28347130299E+03  0.41800000000E+01 0. -1.
        -11    1    4    4    0    0  0.23611649254E+02 -0.34733444927E+02 -0.77879519731E+02  0.88482437638E+02  0.00000000000E+00 0. -1.
         11    1    4    4    0    0 -0.62855743261E+01 -0.75033698368E+02 -0.35809368251E+00  0.75297360953E+02  0.00000000000E+00 0.  1.
</event>
<event>
 8    1  0.7281309E-009  0.1091408E+03  0.7561462E-02  0.1262169E+00
         -1   -1    0    0    0  501 -0.00000000000E+00  0.00000000000E+00  0.35455849150E+02  0.35455849150E+02  0.00000000000E+00 0.  1.
          1   -1    0    0  501    0  0.00000000000E+00 -0.00000000000E+00 -0.68593891561E+03  0.68593891561E+03  0.00000000000E+00 0. -1.
         25    2    1    2    0    0  0.36191201787E+02  0.15660363538E+01 -0.59250660884E+03  0.60664959181E+03  0.12508952861E+03 0.  0.
         23    2    1    2    0    0 -0.36191201787E+02 -0.15660363538E+01 -0.57976457616E+02  0.11474517295E+03  0.92157091534E+02 0.  0.
          5    1    3    3  502    0  0.76953574595E+01  0.57091217003E+02 -0.17014652662E+03  0.17968288317E+03  0.41800000000E+01 0. -1.
         -5    1    3    3    0  502  0.28495844327E+02 -0.55525180649E+02 -0.42236008222E+03  0.42696670864E+03  0.41800000000E+01 0. -1.
        -11    1    4    4    0    0 -0.66454045866E+02 -0.82969042254E+01 -0.47165570808E+02  0.81911964336E+02  0.00000000000E+00 0. -1.
         11    1    4    4    0    0  0.30262844079E+02  0.67308678715E+01 -0.10810886808E+02  0.32833208610E+02  0.00000000000E+00 0.  1.
</event>
<event>
 8    1  0.7281309E-009  0.9611820E+02  0.7561462E-02  0.1288677E+00
         -2   -1    0    0    0  501 -0.00000000000E+00  0.00000000000E+00  0.41239615446E+02  0.41239615446E+02  0.00000000000E+00 0. -1.
          2   -1    0    0  501    0  0.00000000000E+00 -0.00000000000E+00 -0.34296351180E+03  0.34296351180E+03  0.00000000000E+00 0.  1.
         25    2    1    2    0    0 -0.47180115447E+01 -0.85736774617E+01 -0.93687621108E+02  0.15659034445E+03  0.12508956011E+03 0.  0.
         23    2    1    2    0    0  0.47180115447E+01  0.85736774617E+01 -0.20803627524E+03  0.22761278280E+03  0.91829839903E+02 0.  0.
          5    1    3    3  502    0 -0.76080563224E+01 -0.56135465132E+02 -0.92734333459E+02  0.10874834237E+03  0.41800000000E+01 0. -1.
         -5    1    3    3    0  502  0.28900447777E+01  0.47561787671E+02 -0.95328764877E+00  0.47842002076E+02  0.41800000000E+01 0. -1.
        -11    1    4    4    0    0 -0.39469696832E+02 -0.82437279308E+01 -0.13250508681E+03  0.13850420228E+03  0.00000000000E+00 0.  1.
         11    1    4    4    0    0  0.44187708376E+02  0.16817405392E+02 -0.75531188435E+02  0.89108580519E+02  0.00000000000E+00 0. -1.
</event>
<event>
 8    1  0.7281309E-009  0.8857548E+02  0.7561462E-02  0.1306339E+00
         -1   -1    0    0    0  501 -0.00000000000E+00  0.00000000000E+00  0.58580523877E+03  0.58580523877E+03  0.00000000000E+00 0.  1.
          1   -1    0    0  501    0  0.00000000000E+00 -0.00000000000E+00 -0.20587988552E+02  0.20587988552E+02  0.00000000000E+00 0. -1.
         25    2    1    2    0    0  0.35471069651E+01  0.14256638280E+02  0.26781368468E+03  0.29595206232E+03  0.12509044642E+03 0.  0.
         23    2    1    2    0    0 -0.35471069651E+01 -0.14256638280E+02  0.29740356554E+03  0.31044116500E+03  0.87800924999E+02 0.  0.
          5    1    3    3  502    0 -0.49169491276E+02  0.73626148621E+01  0.46152953848E+02  0.67966274863E+02  0.41800000000E+01 0.  1.
         -5    1    3    3    0  502  0.52716598241E+02  0.68940234175E+01  0.22166073083E+03  0.22798578746E+03  0.41800000000E+01 0.  1.
        -11    1    4    4    0    0  0.25708653153E+02  0.17229646537E+02  0.46333487553E+02  0.55718826580E+02  0.00000000000E+00 0. -1.
         11    1    4    4    0    0 -0.29255760118E+02 -0.31486284817E+02  0.25107007798E+03  0.25472233842E+03  0.00000000000E+00 0.  1.
</event>
<event>
 8    1  0.7281309E-009  0.1560010E+03  0.7561462E-02  0.1193287E+00
         -1   -1    0    0    0  501 -0.00000000000E+00  0.00000000000E+00  0.13559545587E+03  0.13559545587E+03  0.00000000000E+00 0.  1.
          1   -1    0    0  501    0  0.00000000000E+00 -0.00000000000E+00 -0.20319430640E+03  0.20319430640E+03  0.00000000000E+00 0. -1.
         25    2    1    2    0    0 -0.10730078923E+03 -0.55903045176E+02 -0.70785995456E+02  0.18787292628E+03  0.12508784692E+03 0.  0.
         23    2    1    2    0    0  0.10730078923E+03  0.55903045176E+02  0.31871449264E+01  0.15091683599E+03  0.90150561082E+02 0.  0.
          5    1    3    3  502    0 -0.12818786304E+03 -0.72085222789E+02 -0.57024399872E+02  0.15778993046E+03  0.41800000000E+01 0.  1.
         -5    1    3    3    0  502  0.20887073804E+02  0.16182177613E+02 -0.13761595584E+02  0.30082995819E+02  0.41800000000E+01 0.  1.
        -11    1    4    4    0    0  0.40399949690E+02 -0.12654180563E+02  0.29474127485E+02  0.51584963039E+02  0.00000000000E+00 0.  1.
         11    1    4    4    0    0  0.66900839542E+02  0.68557225739E+02 -0.26286982559E+02  0.99331872954E+02  0.00000000000E+00 0. -1.
</event>
<event>
 8    1  0.7281309E-009  0.2363152E+03  0.7561462E-02  0.1122272E+00
          2   -1    0    0  501    0  0.00000000000E+00  0.00000000000E+00  0.45933976388E+03  0.45933976388E+03  0.00000000000E+00 0. -1.
         -2   -1    0    0    0  501 -0.00000000000E+00 -0.00000000000E+00 -0.20876735052E+03  0.20876735052E+03  0.00000000000E+00 0.  1.
         25    2    1    2    0    0  0.13210284637E+02 -0.22782130568E+03  0.31988970516E+03  0.41237620060E+03  0.12509056085E+03 0.  0.
         23    2    1    2    0    0 -0.13210284637E+02  0.22782130568E+03 -0.69317291797E+02  0.25573091379E+03  0.92284096070E+02 0.  0.
          5    1    3    3  502    0 -0.14071108514E+02 -0.11206629786E+03  0.63317925687E+02  0.12955108384E+03  0.41800000000E+01 0.  1.
         -5    1    3    3    0  502  0.27281393151E+02 -0.11575500781E+03  0.25657177948E+03  0.28282511676E+03  0.41800000000E+01 0.  1.
        -11    1    4    4    0    0 -0.43626458987E+02  0.98028776568E+02 -0.42306111753E+01  0.10738159540E+03  0.00000000000E+00 0. -1.
         11    1    4    4    0    0  0.30416174350E+02  0.12979252911E+03 -0.65086680622E+02  0.14834931840E+03  0.00000000000E+00 0.  1.
</event>
<event>
 8    1  0.7281309E-009  0.1066727E+03  0.7561462E-02  0.1266859E+00
          1   -1    0    0  501    0  0.00000000000E+00  0.00000000000E+00  0.64928784235E+03  0.64928784235E+03  0.00000000000E+00 0. -1.
         -1   -1    0    0    0  501 -0.00000000000E+00 -0.00000000000E+00 -0.27041144140E+02  0.27041144140E+02  0.00000000000E+00 0.  1.
         25    2    1    2    0    0  0.57460856384E+02  0.29104990496E+02  0.23960657794E+03  0.27786234796E+03  0.12508925507E+03 0.  0.
         23    2    1    2    0    0 -0.57460856384E+02 -0.29104990496E+02  0.38264012027E+03  0.39846663854E+03  0.90627533862E+02 0.  0.
          5    1    3    3  502    0  0.34467137826E+02 -0.32255432717E+02  0.18931063252E+03  0.19515220858E+03  0.41800000000E+01 0. -1.
         -5    1    3    3    0  502  0.22993718558E+02  0.61360423213E+02  0.50295945420E+02  0.82710139377E+02  0.41800000000E+01 0. -1.
        -11    1    4    4    0    0 -0.18808355735E+02 -0.52050371120E+02  0.12183341744E+03  0.13381471139E+03  0.00000000000E+00 0.  1.
         11    1    4    4    0    0 -0.38652500649E+02  0.22945380624E+02  0.26080670284E+03  0.26465192715E+03  0.00000000000E+00 0. -1.
</event>
<event>
 7    1  0.7281309E-009  0.1443688E+03  0.7561462E-02  0.1207568E+00
          2   -1    0    0  501    0  0.00000000000E+00  0.00000000000E+00  0.11355185267E+04  0.11355185267E+04  0.00000000000E+00 0. -1.
         -2   -1    0    0    0  501 -0.00000000000E+00 -0.00000000000E+00 -0.22830662181E+02  0.22830662181E+02  0.00000000000E+00 0.  1.
         25    2    1    2    0    0 -0.88628707108E+02 -0.78237186545E+02  0.86463349103E+03  0.88159794595E+03  0.12509100448E+03 0.  0.
          5    1    3    3  502    0 -0.11344217924E+03 -0.87023713720E+02  0.66620482331E+03  0.68138725684E+03  0.41800000000E+01 0.  1.
         -5    1    3    3    0  502  0.24813472137E+02  0.87865271750E+01  0.19842866772E+03  0.20021068911E+03  0.41800000000E+01 0.  1.
        -11    1    1    2    0    0  0.34142696294E+02  0.39406284839E+02  0.76191729526E+02  0.92324203995E+02  0.00000000000E+00 0.  1.
         11    1    1    2    0    0  0.54486010814E+02  0.38830901706E+02  0.17186264391E+03  0.18442703889E+03  0.00000000000E+00 0. -1.
</event>
<event>
 8    1  0.7281309E-009  0.1499326E+03  0.7561462E-02  0.1200556E+00
          2   -1    0    0  501    0  0.00000000000E+00  0.00000000000E+00  0.49752744652E+03  0.49752744652E+03  0.00000000000E+00 0. -1.
         -2   -1    0    0    0  501 -0.00000000000E+00 -0.00000000000E+00 -0.60621807440E+02  0.60621807440E+02  0.00000000000E+00 0.  1.
         25    2    1    2    0    0 -0.69288595503E+02  0.11546874795E+03  0.22995236011E+03  0.29437793728E+03  0.12508533414E+03 0.  0.
         23    2    1    2    0    0  0.69288595503E+02 -0.11546874795E+03  0.20695327897E+03  0.26377131668E+03  0.92799281283E+02 0.  0.
          5    1    3    3  502    0 -0.16110112509E+01  0.49752789686E+01 -0.15449474765E+02  0.16837678835E+02  0.41800000000E+01 0.  1.
         -5    1    3    3    0  502 -0.67677584252E+02  0.11049346898E+03  0.24540183488E+03  0.27754025845E+03  0.41800000000E+01 0.  1.
        -11    1    4    4    0    0 -0.20388572337E+02 -0.45255354531E+02  0.61442824237E+02  0.78987097971E+02  0.00000000000E+00 0.  1.
         11    1    4    4    0    0  0.89677167840E+02 -0.70213393419E+02  0.14551045473E+03  0.18478421871E+03  0.00000000000E+00 0. -1.
</event>
<event>
 8    1  0.7281309E-009  0.9916015E+02  0.7561462E-02  0.1282072E+00
         -1   -1    0    0    0  501 -0.00000000000E+00  0.00000000000E+00  0.18495140214E+03  0.18495140214E+03  0.00000000000E+00 0.  1.
          1   -1    0    0  501    0  0.00000000000E+00 -0.00000000000E+00 -0.99575065959E+02  0.99575065959E+02  0.00000000000E+00 0. -1.
         25    2    1    2    0    0 -0.37238657760E+02 -0.14906489368E+02  0.11519636445E+03  0.17471671820E+03  0.12508720230E+03 0.  0.
         23    2    1    2    0    0  0.37238657760E+02  0.14906489368E+02 -0.29820028269E+02  0.10980974990E+03  0.97775385599E+02 0.  0.
          5    1    3    3  502    0  0.23781504818E+02  0.41524309289E+02  0.45594167239E+02  0.66227854559E+02  0.41800000000E+01 0.  1.
         -5    1    3    3    0  502 -0.61020162578E+02 -0.56430798657E+02  0.69602197208E+02  0.10848886364E+03  0.41800000000E+01 0.  1.
        -11    1    4    4    0    0  0.38262554378E+02 -0.12031573540E+02  0.26015081109E+02  0.47807596410E+02  0.00000000000E+00 0.  1.
         11    1    4    4    0    0 -0.10238966188E+01  0.26938062907E+02 -0.55835109378E+02  0.62002153485E+02  0.00000000000E+00 0. -1.
</event>
<event>
 8    1  0.7281309E-009  0.8370518E+02  0.7561462E-02  0.1318854E+00
          1   -1    0    0  501    0  0.00000000000E+00  0.00000000000E+00  0.14681427439E+03  0.14681427439E+03  0.00000000000E+00 0. -1.
         -1   -1    0    0    0  501 -0.00000000000E+00 -0.00000000000E+00 -0.89119301596E+02  0.89119301596E+02  0.00000000000E+00 0.  1.
         25    2    1    2    0    0 -0.16733175514E+02  0.29537789545E+02  0.22514691144E+02  0.13155571938E+03  0.12509003081E+03 0.  0.
         23    2    1    2    0    0  0.16733175514E+02 -0.29537789545E+02  0.35180281654E+02  0.10437785662E+03  0.92220412927E+02 0.  0.
          5    1    3    3  502    0 -0.56448157132E+02 -0.76455072189E+01 -0.21928352340E+02  0.61181478084E+02  0.41800000000E+01 0.  1.
         -5    1    3    3    0  502  0.39714981618E+02  0.37183296764E+02  0.44443043485E+02  0.70374241291E+02  0.41800000000E+01 0.  1.
        -11    1    4    4    0    0  0.30553010625E+02 -0.28643135626E+02 -0.20764240483E+02  0.46744725473E+02  0.00000000000E+00 0.  1.
         11    1    4    4    0    0 -0.13819835111E+02 -0.89465391948E+00  0.55944522137E+02  0.57633131143E+02  0.00000000000E+00 0. -1.
</event>
<event>
 8    1  0.7281309E-009  0.1098915E+03  0.7561462E-02  0.1260771E+00
         -1   -1    0    0    0  501 -0.00000000000E+00  0.00000000000E+00  0.42437436221E+02  0.42437436221E+02  0.00000000000E+00 0.  1.
          1   -1    0    0  501    0  0.00000000000E+00 -0.00000000000E+00 -0.43223129606E+03  0.43223129606E+03  0.00000000000E+00 0. -1.
         25    2    1    2    0    0 -0.80503510605E+02 -0.20602007257E+02 -0.23868696380E+03  0.28199924185E+03  0.12508736066E+03 0.  0.
         23    2    1    2    0    0  0.80503510605E+02  0.20602007257E+02 -0.15110689604E+03  0.19266949043E+03  0.85924272396E+02 0.  0.
          5    1    3    3  502    0 -0.29168649390E+02 -0.60753441069E+02 -0.18667649719E+03  0.19851291573E+03  0.41800000000E+01 0. -1.
         -5    1    3    3    0  502 -0.51334861214E+02  0.40151433813E+02 -0.52010466608E+02  0.83486326126E+02  0.41800000000E+01 0. -1.
        -11    1    4    4    0    0  0.51166197193E+02  0.10486971200E+00 -0.14817591151E+03  0.15676125633E+03  0.00000000000E+00 0. -1.
         11    1    4    4    0    0  0.29337313412E+02  0.20497137545E+02 -0.29309845301E+01  0.35908234099E+02  0.00000000000E+00 0.  1.
</event>
<event>
 8    1  0.7281309E-009  0.1104574E+03  0.7561462E-02  0.1259725E+00
         -1   -1    0    0    0  501 -0.00000000000E+00  0.00000000000E+00  0.36023839591E+03  0.36023839591E+03  0.00000000000E+00 0.  1.
          1   -1    0    0  501    0  0.00000000000E+00 -0.00000000000E+00 -0.37556237123E+02  0.37556237123E+02  0.00000000000E+00 0. -1.
         25    2    1    2    0    0  0.44921189415E+01  0.47144109639E+02  0.17561038038E+03  0.22074848177E+03  0.12509252695E+03 0.  0.
         23    2    1    2    0    0 -0.44921189415E+01 -0.47144109639E+02  0.14707177840E+03  0.17704615126E+03  0.86443539189E+02 0.  0.
          5    1    3    3  502    0  0.24768231594E+02  0.83445402204E+02  0.88872267450E+02  0.12446828016E+03  0.41800000000E+01 0.  1.
         -5    1    3    3    0  502 -0.20276112652E+02 -0.36301292565E+02  0.86738112932E+02  0.96280201605E+02  0.41800000000E+01 0.  1.
        -11    1    4    4    0    0 -0.20355859722E+02  0.16616424904E+02  0.75242387048E+02  0.79698703943E+02  0.00000000000E+00 0. -1.
         11    1    4    4    0    0  0.15863740780E+02 -0.63760534543E+02  0.71829391354E+02  0.97347447317E+02  0.00000000000E+00 0.  1.
</event>
<event>
 8    1  0.7281309E-009  0.2191238E+03  0.7561462E-02  0.1134538E+00
         -2   -1    0    0    0  501 -0.00000000000E+00  0.00000000000E+00  0.49695982161E+02  0.49695982161E+02  0.00000000000E+00 0.  1.
          2   -1    0    0  501    0  0.00000000000E+00 -0.00000000000E+00 -0.11611526353E+04  0.11611526353E+04  0.00000000000E+00 0. -1.
         25    2    1    2    0    0 -0.17561888531E+01 -0.19419595368E+03 -0.34786689767E+03  0.41758288635E+03  0.12509570679E+03 0.  0.
         23    2    1    2    0    0  0.17561888531E+01  0.19419595368E+03 -0.76358975551E+03  0.79326573115E+03  0.92119774571E+02 0.  0.
          5    1    3    3  502    0  0.46085706052E+02 -0.16381031379E+03 -0.22432679789E+03  0.28159846565E+03  0.41800000000E+01 0. -1.
         -5    1    3    3    0  502 -0.47841894905E+02 -0.30385639885E+02 -0.12354009978E+03  0.13598442070E+03  0.41800000000E+01 0. -1.
        -11    1    4    4    0    0 -0.40609605888E+02  0.98460553414E+02 -0.45870341528E+03  0.47090598197E+03  0.00000000000E+00 0. -1.
         11    1    4    4    0    0  0.42365794742E+02  0.95735400266E+02 -0.30488634023E+03  0.32235974918E+03  0.00000000000E+00 0.  1.
</event>
<event>
 8    1  0.7281309E-009  0.4277023E+03  0.7561462E-02  0.1034588E+00
         -1   -1    0    0    0  501 -0.00000000000E+00  0.00000000000E+00  0.12224170550E+03  0.12224170550E+03  0.00000000000E+00 0.  1.
          1   -1    0    0  501    0  0.00000000000E+00 -0.00000000000E+00 -0.15236252019E+04  0.15236252019E+04  0.00000000000E+00 0. -1.
         25    2    1    2    0    0 -0.35579183549E+03  0.21594844621E+03 -0.64105355367E+03  0.77447884654E+03  0.12508502485E+03 0.  0.
         23    2    1    2    0    0  0.35579183549E+03 -0.21594844621E+03 -0.76032994277E+03  0.87138806090E+03  0.89408999420E+02 0.  0.
          5    1    3    3  502    0 -0.14184308091E+03  0.25409139816E+02 -0.26539129479E+03  0.30201836986E+03  0.41800000000E+01 0. -1.
         -5    1    3    3    0  502 -0.21394875458E+03  0.19053930640E+03 -0.37566225888E+03  0.47246047667E+03  0.41800000000E+01 0. -1.
        -11    1    4    4    0    0  0.28009276294E+03 -0.12592660112E+03 -0.57540183631E+03  0.65222445366E+03  0.00000000000E+00 0. -1.
         11    1    4    4    0    0  0.75699072547E+02 -0.90021845092E+02 -0.18492810647E+03  0.21916360724E+03  0.00000000000E+00 0.  1.
</event>
<event>
 8    1  0.7281309E-009  0.8316677E+02  0.7561462E-02  0.1320297E+00
         -1   -1    0    0    0  501 -0.00000000000E+00  0.00000000000E+00  0.26189388633E+03  0.26189388633E+03  0.00000000000E+00 0.  1.
          1   -1    0    0  501    0  0.00000000000E+00 -0.00000000000E+00 -0.12035851120E+03  0.12035851120E+03  0.00000000000E+00 0. -1.
         25    2    1    2    0    0 -0.11604152641E+02  0.61708200374E+01  0.22556654120E+03  0.25826449967E+03  0.12509017507E+03 0.  0.
         23    2    1    2    0    0  0.11604152641E+02 -0.61708200374E+01 -0.84031166065E+02  0.12398789787E+03  0.90216553744E+02 0.  0.
          5    1    3    3  502    0  0.45676859306E+02 -0.29667242161E+02  0.13128111553E+03  0.14219256109E+03  0.41800000000E+01 0. -1.
         -5    1    3    3    0  502 -0.57281011947E+02  0.35838062198E+02  0.94285425671E+02  0.11607193858E+03  0.41800000000E+01 0. -1.
        -11    1    4    4    0    0  0.44464810209E+01 -0.24203635789E+02  0.11029667238E+02  0.26967401400E+02  0.00000000000E+00 0.  1.
         11    1    4    4    0    0  0.71576716201E+01  0.18032815751E+02 -0.95060833303E+02  0.97020496470E+02  0.00000000000E+00 0. -1.
</event>
<event>
 8    1  0.7281309E-009  0.8596308E+02  0.7561462E-02  0.1312933E+00
         -1   -1    0    0    0  501 -0.00000000000E+00  0.00000000000E+00  0.16944682923E+02  0.16944682923E+02  0.00000000000E+00 0.  1.
          1   -1    0    0  501    0  0.00000000000E+00 -0.00000000000E+00 -0.12474177463E+04  0.12474177463E+04  0.00000000000E+00 0. -1.
         25    2    1    2    0    0 -0.10493292652E+02  0.14140801616E+02 -0.10832623685E+04  0.10906033106E+04  0.12509256859E+03 0.  0.
         23    2    1    2    0    0  0.10493292652E+02 -0.14140801616E+02 -0.14721069489E+03  0.17375911859E+03  0.90615512707E+02 0.  0.
          5    1    3    3  502    0  0.34701782412E+02  0.35483447188E+02 -0.87385486963E+03  0.87527315411E+03  0.41800000000E+01 0.  1.
         -5    1    3    3    0  502 -0.45195075065E+02 -0.21342645572E+02 -0.20940749887E+03  0.21533015654E+03  0.41800000000E+01 0.  1.
        -11    1    4    4    0    0 -0.26617395666E+02 -0.21395269869E+02 -0.16958381224E+02  0.38129122971E+02  0.00000000000E+00 0.  1.
         11    1    4    4    0    0  0.37110688318E+02  0.72544682539E+01 -0.13025231366E+03  0.13562999562E+03  0.00000000000E+00 0. -1.
</event>
<event>
 8    1  0.7281309E-009  0.1001947E+03  0.7561462E-02  0.1279887E+00
          1   -1    0    0  501    0  0.00000000000E+00  0.00000000000E+00  0.15415378995E+03  0.15415378995E+03  0.00000000000E+00 0. -1.
         -1   -1    0    0    0  501 -0.00000000000E+00 -0.00000000000E+00 -0.93447878193E+02  0.93447878193E+02  0.00000000000E+00 0.  1.
         25    2    1    2    0    0 -0.49320377143E+02 -0.61621476998E+01  0.15984901800E+02  0.13554873376E+03  0.12508984960E+03 0.  0.
         23    2    1    2    0    0  0.49320377143E+02  0.61621476998E+01  0.44721009956E+02  0.11205293438E+03  0.89918961887E+02 0.  0.
          5    1    3    3  502    0 -0.93728815398E+01 -0.46936831665E+02 -0.34564665640E+02  0.59187039003E+02  0.41800000000E+01 0.  1.
         -5    1    3    3    0  502 -0.39947495603E+02  0.40774683965E+02  0.50549567440E+02  0.76361694755E+02  0.41800000000E+01 0.  1.
        -11    1    4    4    0    0  0.60826907273E+02  0.30605302575E+02  0.50060578604E+02  0.84514251605E+02  0.00000000000E+00 0.  1.
         11    1    4    4    0    0 -0.11506530130E+02 -0.24443154875E+02 -0.53395686485E+01  0.27538682780E+02  0.00000000000E+00 0. -1.
</event>
<event>
 8    1  0.7281309E-009  0.1234592E+03  0.7561462E-02  0.1237497E+00
          4   -1    0    0  501    0  0.00000000000E+00  0.00000000000E+00  0.14415502035E+03  0.14415502035E+03  0.00000000000E+00 0. -1.
         -4   -1    0    0    0  501 -0.00000000000E+00 -0.00000000000E+00 -0.14092280555E+03  0.14092280555E+03  0.00000000000E+00 0.  1.
         25    2    1    2    0    0 -0.24389712374E+02  0.77212604778E+02 -0.42699858650E+02  0.15500676975E+03  0.12508867388E+03 0.  0.
         23    2    1    2    0    0  0.24389712374E+02 -0.77212604778E+02  0.45932073444E+02  0.13007105615E+03  0.90840959208E+02 0.  0.
          5    1    3    3  502    0 -0.40307026819E+02  0.10596455701E+03 -0.44416501731E+02  0.12183366439E+03  0.41800000000E+01 0. -1.
         -5    1    3    3    0  502  0.15917314445E+02 -0.28751952228E+02  0.17166430812E+01  0.33173105364E+02  0.41800000000E+01 0. -1.
        -11    1    4    4    0    0  0.44208546597E+02 -0.55206163488E+02  0.63995997985E+02  0.95381360010E+02  0.00000000000E+00 0. -1.
         11    1    4    4    0    0 -0.19818834223E+02 -0.22006441289E+02 -0.18063924541E+02  0.34689696136E+02  0.00000000000E+00 0.  1.
</event>
<event>
 8    1  0.7281309E-009  0.9745287E+02  0.7561462E-02  0.1285745E+00
          2   -1    0    0  501    0  0.00000000000E+00  0.00000000000E+00  0.61630491145E+03  0.61630491145E+03  0.00000000000E+00 0.  1.
         -2   -1    0    0    0  501 -0.00000000000E+00 -0.00000000000E+00 -0.64859782405E+02  0.64859782405E+02  0.00000000000E+00 0. -1.
         25    2    1    2    0    0 -0.21004946542E+01 -0.56168765614E+02  0.55696555109E+03  0.57360019826E+03  0.12508884858E+03 0.  0.
         23    2    1    2    0    0  0.21004946542E+01  0.56168765614E+02 -0.55204220387E+01  0.10756449560E+03  0.91543996773E+02 0.  0.
          5    1    3    3  502    0  0.29550047913E+02 -0.72100831274E+01  0.45527673724E+03  0.45631082663E+03  0.41800000000E+01 0. -1.
         -5    1    3    3    0  502 -0.31650542567E+02 -0.48958682487E+02  0.10168881385E+03  0.11728937163E+03  0.41800000000E+01 0. -1.
        -11    1    4    4    0    0 -0.40077976957E+02  0.48446366431E+02  0.60096374924E+01  0.63161779583E+02  0.00000000000E+00 0. -1.
         11    1    4    4    0    0  0.42178471611E+02  0.77223991824E+01 -0.11530059531E+02  0.44402716013E+02  0.00000000000E+00 0.  1.
</event>
<event>
 8    1  0.7281309E-009  0.1338293E+03  0.7561462E-02  0.1221882E+00
          2   -1    0    0  501    0  0.00000000000E+00  0.00000000000E+00  0.15649311356E+03  0.15649311356E+03  0.00000000000E+00 0. -1.
         -2   -1    0    0    0  501 -0.00000000000E+00 -0.00000000000E+00 -0.16925966169E+03  0.16925966169E+03  0.00000000000E+00 0.  1.
         25    2    1    2    0    0 -0.11050819803E+03  0.18696306811E+02  0.38499728808E+02  0.17231244989E+03  0.12509091714E+03 0.  0.
         23    2    1    2    0    0  0.11050819803E+03 -0.18696306811E+02 -0.51266276933E+02  0.15344032535E+03  0.91400703354E+02 0.  0.
          5    1    3    3  502    0 -0.23740444338E+02  0.54338753833E+02 -0.18758593663E+02  0.62335111307E+02  0.41800000000E+01 0.  1.
         -5    1    3    3    0  502 -0.86767753693E+02 -0.35642447021E+02  0.57258322472E+02  0.10997733859E+03  0.41800000000E+01 0.  1.
        -11    1    4    4    0    0  0.10203280378E+03 -0.10576371241E+02 -0.74925884871E+02  0.12702929150E+03  0.00000000000E+00 0.  1.
         11    1    4    4    0    0  0.84753942547E+01 -0.81199355708E+01  0.23659607939E+02  0.26411033854E+02  0.00000000000E+00 0. -1.
</event>
<event>
 8    1  0.7281309E-009  0.1042586E+03  0.7561462E-02  0.1271587E+00
         -2   -1    0    0    0  501 -0.00000000000E+00  0.00000000000E+00  0.34466216152E+03  0.34466216152E+03  0.00000000000E+00 0.  1.
          2   -1    0    0  501    0  0.00000000000E+00 -0.00000000000E+00 -0.45100936327E+02  0.45100936327E+02  0.00000000000E+00 0. -1.
         25    2    1    2    0    0 -0.35225641141E+02  0.37987431957E+02  0.22365861979E+03  0.26144721708E+03  0.12509028072E+03 0.  0.
         23    2    1    2    0    0  0.35225641141E+02 -0.37987431957E+02  0.75902605400E+02  0.12831588077E+03  0.89553721139E+02 0.  0.
          5    1    3    3  502    0 -0.32860553196E+02 -0.27193157297E+02  0.17444668340E+03  0.17963407670E+03  0.41800000000E+01 0.  1.
         -5    1    3    3    0  502 -0.23650879450E+01  0.65180589254E+02  0.49211936390E+02  0.81813140386E+02  0.41800000000E+01 0.  1.
        -11    1    4    4    0    0  0.37173800197E+02  0.20047474176E+02  0.47862241489E+02  0.63832490177E+02  0.00000000000E+00 0.  1.
         11    1    4    4    0    0 -0.19481590552E+01 -0.58034906133E+02  0.28040363911E+02  0.64483390589E+02  0.00000000000E+00 0. -1.
</event>
<event>
 8    1  0.7281309E-009  0.1170077E+03  0.7561462E-02  0.1248117E+00
          1   -1    0    0  501    0  0.00000000000E+00  0.00000000000E+00  0.37227892920E+03  0.37227892920E+03  0.00000000000E+00 0. -1.
         -1   -1    0    0    0  501 -0.00000000000E+00 -0.00000000000E+00 -0.69017850147E+02  0.69017850147E+02  0.00000000000E+00 0.  1.
         25    2    1    2    0    0  0.99449614959E+02  0.17778303728E+02  0.24454884147E+03  0.29267485175E+03  0.12509252170E+03 0.  0.
         23    2    1    2    0    0 -0.99449614959E+02 -0.17778303728E+02  0.58712237582E+02  0.14862192760E+03  0.91842563778E+02 0.  0.
          5    1    3    3  502    0  0.12947548965E+02 -0.23986256908E+02 -0.23886980028E+01  0.27679556044E+02  0.41800000000E+01 0. -1.
         -5    1    3    3    0  502  0.86502065994E+02  0.41764560636E+02  0.24693753948E+03  0.26499529571E+03  0.41800000000E+01 0. -1.
        -11    1    4    4    0    0 -0.51652574440E+02  0.13226595824E+02 -0.15065834405E+02  0.55406774402E+02  0.00000000000E+00 0.  1.
         11    1    4    4    0    0 -0.47797040519E+02 -0.31004899552E+02  0.73778071987E+02  0.93215153193E+02  0.00000000000E+00 0. -1.
</event>
<event>
 8    1  0.7281309E-009  0.9119124E+02  0.7561462E-02  0.1299992E+00
         -2   -1    0    0    0  501 -0.00000000000E+00  0.00000000000E+00  0.23969879448E+02  0.23969879448E+02  0.00000000000E+00 0.  1.
          2   -1    0    0  501    0  0.00000000000E+00 -0.00000000000E+00 -0.55887969651E+03  0.55887969651E+03  0.00000000000E+00 0. -1.
         25    2    1    2    0    0 -0.30543402988E+02 -0.27300946411E+02 -0.29607778337E+03  0.32401858965E+03  0.12509097286E+03 0.  0.
         23    2    1    2    0    0  0.30543402988E+02  0.27300946411E+02 -0.23883203370E+03  0.25883098632E+03  0.90964267795E+02 0.  0.
          5    1    3    3  502    0  0.63474319996E+01 -0.48936878685E+02 -0.38092205465E+02  0.62478768439E+02  0.41800000000E+01 0.  1.
         -5    1    3    3    0  502 -0.36890834988E+02  0.21635932274E+02 -0.25798557790E+03  0.26153982121E+03  0.41800000000E+01 0.  1.
        -11    1    4    4    0    0  0.44534308086E+02  0.47631791418E+02 -0.21442493721E+03  0.22412082868E+03  0.00000000000E+00 0. -1.
         11    1    4    4    0    0 -0.13990905098E+02 -0.20330845008E+02 -0.24407096491E+02  0.34710157638E+02  0.00000000000E+00 0.  1.
</event>
<event>
 8    1  0.7281309E-009  0.2151288E+03  0.7561462E-02  0.1137568E+00
         -1   -1    0    0    0  501 -0.00000000000E+00  0.00000000000E+00  0.55396523044E+03  0.55396523044E+03  0.00000000000E+00 0.  1.
          1   -1    0    0  501    0  0.00000000000E+00 -0.00000000000E+00 -0.97118122795E+02  0.97118122795E+02  0.00000000000E+00 0. -1.
         25    2    1    2    0    0 -0.14646475109E+03 -0.14273375756E+03  0.24746204247E+03  0.34454198797E+03  0.12508745001E+03 0.  0.
         23    2    1    2    0    0  0.14646475109E+03  0.14273375756E+03  0.20938506517E+03  0.30654136526E+03  0.91107926344E+02 0.  0.
          5    1    3    3  502    0 -0.95350493741E+02 -0.73417013144E+02  0.52493921221E+02  0.13135775059E+03  0.41800000000E+01 0. -1.
         -5    1    3    3    0  502 -0.51114257350E+02 -0.69316744415E+02  0.19496812125E+03  0.21318423738E+03  0.41800000000E+01 0. -1.
        -11    1    4    4    0    0  0.14823856949E+03  0.95469517245E+02  0.17108841276E+03  0.24568342880E+03  0.00000000000E+00 0.  1.
         11    1    4    4    0    0 -0.17738184043E+01  0.47264240314E+02  0.38296652411E+02  0.60857936459E+02  0.00000000000E+00 0. -1.
</event>
<event>
 8    1  0.7281309E-009  0.9160771E+02  0.7561462E-02  0.1299004E+00
         -1   -1    0    0    0  501 -0.00000000000E+00  0.00000000000E+00  0.23283460409E+02  0.23283460409E+02  0.00000000000E+00 0.  1.
          1   -1    0    0  501    0  0.00000000000E+00 -0.00000000000E+00 -0.54572734195E+03  0.54572734195E+03  0.00000000000E+00 0. -1.
         25    2    1    2    0    0  0.85967923280E+01  0.14148168691E+02 -0.24569342330E+03  0.27620021307E+03  0.12508886414E+03 0.  0.
         23    2    1    2    0    0 -0.85967923280E+01 -0.14148168691E+02 -0.27675045824E+03  0.29281058929E+03  0.94197396705E+02 0.  0.
          5    1    3    3  502    0  0.20232643442E+02 -0.42781073490E+02 -0.18911489282E+03  0.19499101311E+03  0.41800000000E+01 0.  1.
         -5    1    3    3    0  502 -0.11635851114E+02  0.56929242181E+02 -0.56578530482E+02  0.81209199959E+02  0.41800000000E+01 0.  1.
        -11    1    4    4    0    0 -0.40354726192E+02  0.45283374732E+01 -0.56957541877E+02  0.69951206873E+02  0.00000000000E+00 0.  1.
         11    1    4    4    0    0  0.31757933864E+02 -0.18676506164E+02 -0.21979291637E+03  0.22285938241E+03  0.00000000000E+00 0. -1.
</event>
<event>
 7    1  0.7281309E-009  0.7517691E+02  0.7561462E-02  0.1343324E+00
         -2   -1    0    0    0  501 -0.00000000000E+00  0.00000000000E+00  0.78534167881E+02  0.78534167881E+02  0.00000000000E+00 0.  1.
          2   -1    0    0  501    0  0.00000000000E+00 -0.00000000000E+00 -0.29989516462E+03  0.29989516462E+03  0.00000000000E+00 0. -1.
         23    2    1    2    0    0  0.41467246666E+02  0.14601888073E+02 -0.22605210051E+03  0.24584481950E+03  0.86066110899E+02 0.  0.
          5    1    1    2  502    0 -0.65595659097E+01 -0.18835803707E+02 -0.57507841317E+02  0.61011799016E+02  0.41800000000E+01 0.  1.
         -5    1    1    2    0  502 -0.34907680757E+02  0.42339156334E+01  0.62198945091E+02  0.71572713990E+02  0.41800000000E+01 0.  1.
        -11    1    3    3    0    0  0.50238954113E+02  0.42196649660E+02 -0.13149849025E+03  0.14695700967E+03  0.00000000000E+00 0.  1.
         11    1    3    3    0    0 -0.87717074467E+01 -0.27594761586E+02 -0.94553610267E+02  0.98887809830E+02  0.00000000000E+00 0. -1.
</event>
<event>
 8    1  0.7281309E-009  0.8856925E+02  0.7561462E-02  0.1306354E+00
         -1   -1    0    0    0  501 -0.00000000000E+00  0.00000000000E+00  0.29928812788E+02  0.29928812788E+02  0.00000000000E+00 0.  1.
          1   -1    0    0  501    0  0.00000000000E+00 -0.00000000000E+00 -0.64639164776E+03  0.64639164776E+03  0.00000000000E+00 0. -1.
         25    2    1    2    0    0 -0.85140398056E+02  0.16324878506E+02 -0.33998911137E+03  0.37249882416E+03  0.12508952438E+03 0.  0.
         23    2    1    2    0    0  0.85140398056E+02 -0.16324878506E+02 -0.27647372360E+03  0.30382163639E+03  0.91402832874E+02 0.  0.
          5    1    3    3  502    0 -0.68545480307E+02  0.32145319268E+01 -0.58740770788E+02  0.90425475607E+02  0.41800000000E+01 0. -1.
         -5    1    3    3    0  502 -0.16594917749E+02  0.13110346579E+02 -0.28124834059E+03  0.28207334855E+03  0.41800000000E+01 0. -1.
        -11    1    4    4    0    0  0.21781277134E+02 -0.19895516566E+01 -0.22255283128E+01  0.21984888575E+02  0.00000000000E+00 0.  1.
         11    1    4    4    0    0  0.63359120922E+02 -0.14335326849E+02 -0.27424819529E+03  0.28183674781E+03  0.00000000000E+00 0. -1.
</event>
<event>
 8    1  0.7281309E-009  0.1170424E+03  0.7561462E-02  0.1248058E+00
         -2   -1    0    0    0  501 -0.00000000000E+00  0.00000000000E+00  0.53796425963E+02  0.53796425963E+02  0.00000000000E+00 0.  1.
          2   -1    0    0  501    0  0.00000000000E+00 -0.00000000000E+00 -0.34135716809E+03  0.34135716809E+03  0.00000000000E+00 0. -1.
         25    2    1    2    0    0 -0.23609540431E+02 -0.72293466892E+02 -0.11390527895E+03  0.18548368794E+03  0.12508409237E+03 0.  0.
         23    2    1    2    0    0  0.23609540431E+02  0.72293466892E+02 -0.17365546318E+03  0.20966990612E+03  0.89562792969E+02 0.  0.
          5    1    3    3  502    0 -0.26498059273E+02 -0.92950883276E+02 -0.12764096431E+03  0.16016148731E+03  0.41800000000E+01 0.  1.
         -5    1    3    3    0  502  0.28885188422E+01  0.20657416384E+02  0.13735685355E+02  0.25322200634E+02  0.41800000000E+01 0.  1.
        -11    1    4    4    0    0  0.55586418648E+02  0.30374053444E+02 -0.78349267572E+02  0.10075237362E+03  0.00000000000E+00 0. -1.
         11    1    4    4    0    0 -0.31976878217E+02  0.41919413448E+02 -0.95306195606E+02  0.10891753250E+03  0.00000000000E+00 0.  1.
</event>
<event>
 8    1  0.7281309E-009  0.9807843E+02  0.7561462E-02  0.1284389E+00
         -2   -1    0    0    0  501 -0.00000000000E+00  0.00000000000E+00  0.20832537521E+03  0.20832537521E+03  0.00000000000E+00 0.  1.
          2   -1    0    0  501    0  0.00000000000E+00 -0.00000000000E+00 -0.18206744368E+03  0.18206744368E+03  0.00000000000E+00 0. -1.
         25    2    1    2    0    0 -0.15059758670E+02  0.92421746175E+02 -0.11350719323E+03  0.19313065002E+03  0.12508792734E+03 0.  0.
         23    2    1    2    0    0  0.15059758670E+02 -0.92421746175E+02  0.13976512476E+03  0.19726216887E+03  0.10300241586E+03 0.  0.
          5    1    3    3  502    0 -0.26624505181E+02  0.51394869539E+02 -0.13372063565E+03  0.14577029083E+03  0.41800000000E+01 0.  1.
         -5    1    3    3    0  502  0.11564746511E+02  0.41026876637E+02  0.20213442419E+02  0.47360359193E+02  0.41800000000E+01 0.  1.
        -11    1    4    4    0    0 -0.23188376283E+01 -0.39995621057E+02 -0.67999285892E+01  0.40635769225E+02  0.00000000000E+00 0. -1.
         11    1    4    4    0    0  0.17378596298E+02 -0.52426125118E+02  0.14656505335E+03  0.15662639965E+03  0.00000000000E+00 0.  1.
</event>
<event>
 8    1  0.7281309E-009  0.9918209E+02  0.7561462E-02  0.1282025E+00
          1   -1    0    0  501    0  0.00000000000E+00  0.00000000000E+00  0.13174816933E+03  0.13174816933E+03  0.00000000000E+00 0. -1.
         -1   -1    0    0    0  501 -0.00000000000E+00 -0.00000000000E+00 -0.12138550221E+03  0.12138550221E+03  0.00000000000E+00 0.  1.
         25    2    1    2    0    0 -0.46198242856E+02 -0.12929147859E+02  0.42219009944E+02  0.14046930722E+03  0.12509093078E+03 0.  0.
         23    2    1    2    0    0  0.46198242856E+02  0.12929147859E+02 -0.31856342817E+02  0.11266436432E+03  0.96834869246E+02 0.  0.
          5    1    3    3  502    0  0.25733096165E+02 -0.14820855801E+02 -0.27135472080E+02  0.40443247272E+02  0.41800000000E+01 0. -1.
         -5    1    3    3    0  502 -0.71931339022E+02  0.18917079417E+01  0.69354482024E+02  0.10002605995E+03  0.41800000000E+01 0. -1.
        -11    1    4    4    0    0 -0.18700689891E+02  0.24037547974E+02  0.12874469237E+02  0.33064655951E+02  0.00000000000E+00 0. -1.
         11    1    4    4    0    0  0.64898932748E+02 -0.11108400115E+02 -0.44730812054E+02  0.79599708366E+02  0.00000000000E+00 0.  1.
</event>
<event>
 8    1  0.7281309E-009  0.1281175E+03  0.7561462E-02  0.1230276E+00
          2   -1    0    0  501    0  0.00000000000E+00  0.00000000000E+00  0.54940281944E+02  0.54940281944E+02  0.00000000000E+00 0. -1.
         -2   -1    0    0    0  501 -0.00000000000E+00 -0.00000000000E+00 -0.36814815761E+03  0.36814815761E+03  0.00000000000E+00 0.  1.
         25    2    1    2    0    0 -0.18284699022E+02 -0.87841760189E+02 -0.15036309937E+03  0.21519208857E+03  0.12509223908E+03 0.  0.
         23    2    1    2    0    0  0.18284699022E+02  0.87841760189E+02 -0.16284477629E+03  0.20789635098E+03  0.93015947742E+02 0.  0.
          5    1    3    3  502    0  0.33851800427E+02 -0.53822062407E+01  0.15907096277E+01  0.34567546822E+02  0.41800000000E+01 0. -1.
         -5    1    3    3    0  502 -0.52136499450E+02 -0.82459553948E+02 -0.15195380900E+03  0.18062454175E+03  0.41800000000E+01 0. -1.
        -11    1    4    4    0    0  0.52935262575E+02  0.52044754164E+02 -0.12480416898E+03  0.14521321928E+03  0.00000000000E+00 0. -1.
         11    1    4    4    0    0 -0.34650563552E+02  0.35797006025E+02 -0.38040607313E+02  0.62683131699E+02  0.00000000000E+00 0.  1.
</event>
<event>
 8    1  0.7281309E-009  0.1770059E+03  0.7561462E-02  0.1170733E+00
          1   -1    0    0  501    0  0.00000000000E+00  0.00000000000E+00  0.23213120191E+03  0.23213120191E+03  0.00000000000E+00 0. -1.
         -1   -1    0    0    0  501 -0.00000000000E+00 -0.00000000000E+00 -0.27761526667E+03  0.27761526667E+03  0.00000000000E+00 0.  1.
         25    2    1    2    0    0 -0.11917743148E+03 -0.91776510853E+02  0.15015081474E+03  0.24661630199E+03  0.12509254623E+03 0.  0.
         23    2    1    2    0    0  0.11917743148E+03  0.91776510853E+02 -0.19563487950E+03  0.26313016659E+03  0.91314239698E+02 0.  0.
          5    1    3    3  502    0 -0.93320661704E+02  0.67777114558E+01  0.71191189243E+02  0.11764497907E+03  0.41800000000E+01 0.  1.
         -5    1    3    3    0  502 -0.25856769778E+02 -0.98554222309E+02  0.78959625495E+02  0.12897132292E+03  0.41800000000E+01 0.  1.
        -11    1    4    4    0    0  0.29082434304E+02 -0.93782971084E+00 -0.55612579041E+00  0.29102865590E+02  0.00000000000E+00 0. -1.
         11    1    4    4    0    0  0.90094997178E+02  0.92714340564E+02 -0.19507875371E+03  0.23402730100E+03  0.00000000000E+00 0.  1.
</event>
<event>
 8    1  0.7281309E-009  0.1001801E+03  0.7561462E-02  0.1279918E+00
          1   -1    0    0  501    0  0.00000000000E+00  0.00000000000E+00  0.37151892360E+03  0.37151892360E+03  0.00000000000E+00 0. -1.
         -1   -1    0    0    0  501 -0.00000000000E+00 -0.00000000000E+00 -0.40179644482E+02  0.40179644482E+02  0.00000000000E+00 0.  1.
         25    2    1    2    0    0 -0.17748424016E+02  0.33341685443E+02  0.11459128932E+03  0.17380350925E+03  0.12509924739E+03 0.  0.
         23    2    1    2    0    0  0.17748424016E+02 -0.33341685443E+02  0.21674798980E+03  0.23789505883E+03  0.90485873984E+02 0.  0.
          5    1    3    3  502    0  0.44299049607E+02  0.12739414948E+02  0.94589840434E+02  0.10530626193E+03  0.41800000000E+01 0. -1.
         -5    1    3    3    0  502 -0.62047473623E+02  0.20602270494E+02  0.20001448885E+02  0.68497247317E+02  0.41800000000E+01 0. -1.
        -11    1    4    4    0    0 -0.27788107264E+02  0.59519852880E+01  0.28399725355E+02  0.40176478621E+02  0.00000000000E+00 0.  1.
         11    1    4    4    0    0  0.45536531280E+02 -0.39293670731E+02  0.18834826445E+03  0.19771858021E+03  0.00000000000E+00 0. -1.
</event>
<event>
 8    1  0.7281309E-009  0.8848925E+02  0.7561462E-02  0.1306552E+00
         -1   -1    0    0    0  501 -0.00000000000E+00  0.00000000000E+00  0.13740817626E+03  0.13740817626E+03  0.00000000000E+00 0.  1.
          1   -1    0    0  501    0  0.00000000000E+00 -0.00000000000E+00 -0.96776718339E+02  0.96776718339E+02  0.00000000000E+00 0. -1.
         25    2    1    2    0    0  0.29918406937E+02 -0.22265481412E+02  0.38989082989E+02  0.13625022692E+03  0.12511240149E+03 0.  0.
         23    2    1    2    0    0 -0.29918406937E+02  0.22265481412E+02  0.16423749350E+01  0.97934667686E+02  0.90540814019E+02 0.  0.
          5    1    3    3  502    0 -0.26029398810E+02 -0.22497188392E+02  0.65571600811E+02  0.74167110776E+02  0.41800000000E+01 0.  1.
         -5    1    3    3    0  502  0.55947805747E+02  0.23170698039E+00 -0.26582517822E+02  0.62083116141E+02  0.41800000000E+01 0.  1.
        -11    1    4    4    0    0  0.46350762235E+01  0.44751727814E+02  0.24046761505E+02  0.51014192269E+02  0.00000000000E+00 0.  1.
         11    1    4    4    0    0 -0.34553483160E+02 -0.22486246402E+02 -0.22404386570E+02  0.46920475417E+02  0.00000000000E+00 0. -1.
</event>
<event>
 8    1  0.7281309E-009  0.3671556E+03  0.7561462E-02  0.1055786E+00
          1   -1    0    0  501    0  0.00000000000E+00  0.00000000000E+00  0.21591532402E+04  0.21591532402E+04  0.00000000000E+00 0. -1.
         -1   -1    0    0    0  501 -0.00000000000E+00 -0.00000000000E+00 -0.66357840897E+02  0.66357840897E+02  0.00000000000E+00 0.  1.
         25    2    1    2    0    0 -0.27494229749E+02 -0.36067095077E+03  0.11273936879E+04  0.11905889482E+04  0.12508416721E+03 0.  0.
         23    2    1    2    0    0  0.27494229749E+02  0.36067095077E+03  0.96540171144E+03  0.10349221328E+04  0.90685661364E+02 0.  0.
          5    1    3    3  502    0 -0.31997769375E+02 -0.34159527951E+03  0.11159581696E+04  0.11675150110E+04  0.41800000000E+01 0.  1.
         -5    1    3    3    0  502  0.45035396263E+01 -0.19075671262E+02  0.11435518299E+02  0.23073937289E+02  0.41800000000E+01 0.  1.
        -11    1    4    4    0    0  0.49163278451E+02  0.12246678519E+03  0.29650199945E+03  0.32454364437E+03  0.00000000000E+00 0.  1.
         11    1    4    4    0    0 -0.21669048702E+02  0.23820416559E+03  0.66889971199E+03  0.71037848846E+03  0.00000000000E+00 0. -1.
</event>
<event>
 8    1  0.7281309E-009  0.1240294E+03  0.7561462E-02  0.1236594E+00
          2   -1    0    0  501    0  0.00000000000E+00  0.00000000000E+00  0.44262526885E+03  0.44262526885E+03  0.00000000000E+00 0.  1.
         -2   -1    0    0    0  501 -0.00000000000E+00 -0.00000000000E+00 -0.46407057778E+02  0.46407057778E+02  0.00000000000E+00 0. -1.
         25    2    1    2    0    0 -0.76301357908E+02  0.27673559274E+02  0.29075135952E+03  0.32676702329E+03  0.12511039664E+03 0.  0.
         23    2    1    2    0    0  0.76301357908E+02 -0.27673559274E+02  0.10546685155E+03  0.16226530334E+03  0.92838832333E+02 0.  0.
          5    1    3    3  502    0 -0.11052416513E+03  0.22335654435E+02  0.20154712668E+03  0.23098309291E+03  0.41800000000E+01 0.  1.
         -5    1    3    3    0  502  0.34222807227E+02  0.53379048397E+01  0.89204232839E+02  0.95783930379E+02  0.41800000000E+01 0.  1.
        -11    1    4    4    0    0 -0.46364406532E+01 -0.18274324143E+02  0.71574394450E+02  0.74015818888E+02  0.00000000000E+00 0.  1.
         11    1    4    4    0    0  0.80937798561E+02 -0.93992351318E+01  0.33892457103E+02  0.88249484449E+02  0.00000000000E+00 0. -1.
</event>
<event>
 8    1  0.7281309E-009  0.1152367E+03  0.7561462E-02  0.1251169E+00
          2   -1    0    0  501    0  0.00000000000E+00  0.00000000000E+00  0.15025736542E+03  0.15025736542E+03  0.00000000000E+00 0. -1.
         -2   -1    0    0    0  501 -0.00000000000E+00 -0.00000000000E+00 -0.12467924230E+03  0.12467924230E+03  0.00000000000E+00 0.  1.
         25    2    1    2    0    0 -0.73101625152E+02  0.24094545483E+02  0.48603600711E+01  0.14694922068E+03  0.12508419420E+03 0.  0.
         23    2    1    2    0    0  0.73101625152E+02 -0.24094545483E+02  0.20717763041E+02  0.12798738704E+03  0.10013566205E+03 0.  0.
          5    1    3    3  502    0 -0.76028108610E+02  0.68114702530E+02 -0.15368592243E+01  0.10217494965E+03  0.41800000000E+01 0. -1.
         -5    1    3    3    0  502  0.29264834580E+01 -0.44020157048E+02  0.63972192954E+01  0.44774271034E+02  0.41800000000E+01 0. -1.
        -11    1    4    4    0    0  0.42586629239E+02 -0.31041670070E+02 -0.35573015287E+02  0.63581803115E+02  0.00000000000E+00 0.  1.
         11    1    4    4    0    0  0.30514995913E+02  0.69471245872E+01  0.56290778328E+02  0.64405583922E+02  0.00000000000E+00 0. -1.
</event>
<event>
 8    1  0.7281309E-009  0.1065449E+03  0.7561462E-02  0.1267105E+00
         -4   -1    0    0    0  501 -0.00000000000E+00  0.00000000000E+00  0.41031831260E+02  0.41031831260E+02  0.00000000000E+00 0.  1.
          4   -1    0    0  501    0  0.00000000000E+00 -0.00000000000E+00 -0.39940527913E+03  0.39940527913E+03  0.00000000000E+00 0. -1.
         25    2    1    2    0    0  0.31621139238E+02 -0.23662229167E+02 -0.29189717923E+03  0.32002358829E+03  0.12510530078E+03 0.  0.
         23    2    1    2    0    0 -0.31621139238E+02  0.23662229167E+02 -0.66476268640E+02  0.12041352210E+03  0.92306687062E+02 0.  0.
          5    1    3    3  502    0  0.39348628008E+02 -0.71910151931E+02 -0.18779585445E+03  0.20494911521E+03  0.41800000000E+01 0.  1.
         -5    1    3    3    0  502 -0.77274887699E+01  0.48247922764E+02 -0.10410132478E+03  0.11507447308E+03  0.41800000000E+01 0.  1.
        -11    1    4    4    0    0 -0.52406076657E+02  0.29815024570E+02 -0.11584165816E+02  0.61396461286E+02  0.00000000000E+00 0.  1.
         11    1    4    4    0    0  0.20784937419E+02 -0.61527954027E+01 -0.54892102824E+02  0.59017060815E+02  0.00000000000E+00 0. -1.
</event>
<event>
 8    1  0.7281309E-009  0.1417854E+03  0.7561462E-02  0.1210947E+00
         -2   -1    0    0    0  501 -0.00000000000E+00  0.00000000000E+00  0.97083114716E+01  0.97083114716E+01  0.00000000000E+00 0.  1.
          2   -1    0    0  501    0  0.00000000000E+00 -0.00000000000E+00 -0.22022433796E+04  0.22022433796E+04  0.00000000000E+00 0. -1.
         25    2    1    2    0    0  0.30902522749E+02 -0.82313849553E+02 -0.14459398115E+04  0.14540017794E+04  0.12509476516E+03 0.  0.
         23    2    1    2    0    0 -0.30902522749E+02  0.82313849553E+02 -0.74659525667E+03  0.75794991172E+03  0.96711197111E+02 0.  0.
          5    1    3    3  502    0  0.13151259048E+02 -0.11479744404E+03 -0.11050076484E+04  0.11110404062E+04  0.41800000000E+01 0.  1.
         -5    1    3    3    0  502  0.17751263700E+02  0.32483594488E+02 -0.34093216311E+03  0.34296137321E+03  0.41800000000E+01 0.  1.
        -11    1    4    4    0    0  0.34746964157E+02  0.37983170884E+02 -0.28949392262E+03  0.29403537886E+03  0.00000000000E+00 0. -1.
         11    1    4    4    0    0 -0.65649486906E+02  0.44330678669E+02 -0.45710133405E+03  0.46391453286E+03  0.00000000000E+00 0.  1.
</event>
<event>
 8    1  0.7281309E-009  0.9682295E+02  0.7561462E-02  0.1287122E+00
          3   -1    0    0  501    0  0.00000000000E+00  0.00000000000E+00  0.76772125010E+03  0.76772125010E+03  0.00000000000E+00 0. -1.
         -3   -1    0    0    0  501 -0.00000000000E+00 -0.00000000000E+00 -0.15900781046E+02  0.15900781046E+02  0.00000000000E+00 0.  1.
         25    2    1    2    0    0  0.24262200350E+02 -0.83923914363E+00  0.36902290310E+03  0.39040320312E+03  0.12508956511E+03 0.  0.
         23    2    1    2    0    0 -0.24262200350E+02  0.83923914363E+00  0.38279756595E+03  0.39321882803E+03  0.86589326893E+02 0.  0.
          5    1    3    3  502    0  0.61144650104E+02 -0.18026667094E+02  0.10263231360E+03  0.12089041797E+03  0.41800000000E+01 0. -1.
         -5    1    3    3    0  502 -0.36882449754E+02  0.17187427950E+02  0.26639058951E+03  0.26951278514E+03  0.41800000000E+01 0. -1.
        -11    1    4    4    0    0 -0.32181722885E+02 -0.37668675836E+02  0.24296167576E+03  0.24796162669E+03  0.00000000000E+00 0. -1.
         11    1    4    4    0    0  0.79195225353E+01  0.38507914980E+02  0.13983589019E+03  0.14525720133E+03  0.00000000000E+00 0.  1.
</event>
<event>
 8    1  0.7281309E-009  0.1009154E+03  0.7561462E-02  0.1278383E+00
          1   -1    0    0  501    0  0.00000000000E+00  0.00000000000E+00  0.39159327573E+03  0.39159327573E+03  0.00000000000E+00 0. -1.
         -1   -1    0    0    0  501 -0.00000000000E+00 -0.00000000000E+00 -0.35130131135E+02  0.35130131135E+02  0.00000000000E+00 0.  1.
         25    2    1    2    0    0 -0.38597688162E+02  0.21796528378E+02  0.24334032814E+03  0.27717523087E+03  0.12508686234E+03 0.  0.
         23    2    1    2    0    0  0.38597688162E+02 -0.21796528378E+02  0.11312281646E+03  0.14954817599E+03  0.87195270277E+02 0.  0.
          5    1    3    3  502    0 -0.81967591683E+02  0.25033097534E+02  0.13061378563E+03  0.15627787897E+03  0.41800000000E+01 0.  1.
         -5    1    3    3    0  502  0.43369903522E+02 -0.32365691559E+01  0.11272654251E+03  0.12089735191E+03  0.41800000000E+01 0.  1.
        -11    1    4    4    0    0 -0.12937147695E+02  0.54508140592E+01  0.82526591048E+02  0.83712122147E+02  0.00000000000E+00 0. -1.
         11    1    4    4    0    0  0.51534835856E+02 -0.27247342438E+02  0.30596225409E+02  0.65836053845E+02  0.00000000000E+00 0.  1.
</event>
<event>
 8    1  0.7281309E-009  0.3514278E+03  0.7561462E-02  0.1062031E+00
         -1   -1    0    0    0  501 -0.00000000000E+00  0.00000000000E+00  0.21140588128E+03  0.21140588128E+03  0.00000000000E+00 0.  1.
          1   -1    0    0  501    0  0.00000000000E+00 -0.00000000000E+00 -0.69799099629E+03  0.69799099629E+03  0.00000000000E+00 0. -1.
         25    2    1    2    0    0 -0.94294406105E+02  0.32529761332E+03 -0.41803750957E+03  0.55237049281E+03  0.12509128531E+03 0.  0.
         23    2    1    2    0    0  0.94294406105E+02 -0.32529761332E+03 -0.68547605435E+02  0.35702638476E+03  0.89772450946E+02 0.  0.
          5    1    3    3  502    0  0.25036736642E+02  0.68375697330E+02 -0.52358866081E+02  0.89783057557E+02  0.41800000000E+01 0. -1.
         -5    1    3    3    0  502 -0.11933114275E+03  0.25692191600E+03 -0.36567864349E+03  0.46258743525E+03  0.41800000000E+01 0. -1.
        -11    1    4    4    0    0  0.75078815990E+02 -0.12813481287E+03 -0.55352085527E+02  0.15849041691E+03  0.00000000000E+00 0.  1.
         11    1    4    4    0    0  0.19215590115E+02 -0.19716280045E+03 -0.13195519908E+02  0.19853596785E+03  0.00000000000E+00 0. -1.
</event>
<event>
 8    1  0.7281309E-009  0.1773576E+03  0.7561462E-02  0.1170385E+00
         -2   -1    0    0    0  501 -0.00000000000E+00  0.00000000000E+00  0.48509346953E+02  0.48509346953E+02  0.00000000000E+00 0.  1.
          2   -1    0    0  501    0  0.00000000000E+00 -0.00000000000E+00 -0.71848218573E+03  0.71848218573E+03  0.00000000000E+00 0. -1.
         25    2    1    2    0    0 -0.92052108843E+02  0.11355074507E+03 -0.27660161726E+03  0.33692897320E+03  0.12508123705E+03 0.  0.
         23    2    1    2    0    0  0.92052108843E+02 -0.11355074507E+03 -0.39337122152E+03  0.43006255948E+03  0.94050649668E+02 0.  0.
          5    1    3    3  502    0 -0.12253994988E+03  0.95020107091E+02 -0.20778265973E+03  0.25929898988E+03  0.41800000000E+01 0.  1.
         -5    1    3    3    0  502  0.30487841036E+02  0.18530637977E+02 -0.68818957523E+02  0.77629983315E+02  0.41800000000E+01 0.  1.
        -11    1    4    4    0    0  0.34501742307E+02  0.20254592403E+01 -0.15668291474E+03  0.16044939538E+03  0.00000000000E+00 0. -1.
         11    1    4    4    0    0  0.57550366537E+02 -0.11557620431E+03 -0.23668830677E+03  0.26961316410E+03  0.00000000000E+00 0.  1.
</event>
<event>
 8    1  0.7281309E-009  0.9639135E+02  0.7561462E-02  0.1288073E+00
          2   -1    0    0  501    0  0.00000000000E+00  0.00000000000E+00  0.99815334660E+03  0.99815334660E+03  0.00000000000E+00 0. -1.
         -2   -1    0    0    0  501 -0.00000000000E+00 -0.00000000000E+00 -0.16500017468E+02  0.16500017468E+02  0.00000000000E+00 0.  1.
         25    2    1    2    0    0  0.41881417436E+02  0.40033851416E+02  0.69160019118E+03  0.70520529091E+03  0.12508763129E+03 0.  0.
         23    2    1    2    0    0 -0.41881417436E+02 -0.40033851416E+02  0.29005313796E+03  0.30944807316E+03  0.90942425521E+02 0.  0.
          5    1    3    3  502    0  0.73510576158E+02  0.56912436616E+02  0.59193719506E+03  0.59920776492E+03  0.41800000000E+01 0.  1.
         -5    1    3    3    0  502 -0.31629158721E+02 -0.16878585200E+02  0.99662996118E+02  0.10599752599E+03  0.41800000000E+01 0.  1.
        -11    1    4    4    0    0  0.10729163522E+01 -0.12632742844E+02 -0.21300494673E+01  0.12855911170E+02  0.00000000000E+00 0.  1.
         11    1    4    4    0    0 -0.42954333789E+02 -0.27401108572E+02  0.29218318742E+03  0.29659216199E+03  0.00000000000E+00 0. -1.
</event>
<event>
 8    1  0.7281309E-009  0.8694373E+02  0.7561462E-02  0.1310426E+00
          1   -1    0    0  501    0  0.00000000000E+00  0.00000000000E+00  0.55983473028E+02  0.55983473028E+02  0.00000000000E+00 0. -1.
         -1   -1    0    0    0  501 -0.00000000000E+00 -0.00000000000E+00 -0.23039289968E+03  0.23039289968E+03  0.00000000000E+00 0.  1.
         25    2    1    2    0    0 -0.16955113474E+02  0.24296966588E+02 -0.10295338584E+03  0.16469549177E+03  0.12508951552E+03 0.  0.
         23    2    1    2    0    0  0.16955113474E+02 -0.24296966588E+02 -0.71456040810E+02  0.12168088094E+03  0.93927911503E+02 0.  0.
          5    1    3    3  502    0  0.35270146341E+00 -0.24770636616E+02 -0.10926580517E+03  0.11211689175E+03  0.41800000000E+01 0.  1.
         -5    1    3    3    0  502 -0.17307814938E+02  0.49067603204E+02  0.63124193270E+01  0.52578600018E+02  0.41800000000E+01 0.  1.
        -11    1    4    4    0    0  0.24857114426E+02  0.31548292328E+02 -0.18149396766E+02  0.44074612753E+02  0.00000000000E+00 0. -1.
         11    1    4    4    0    0 -0.79020009518E+01 -0.55845258915E+02 -0.53306644044E+02  0.77606268185E+02  0.00000000000E+00 0.  1.
</event>
<event>
 8    1  0.7281309E-009  0.9185323E+02  0.7561462E-02  0.1298425E+00
          1   -1    0    0  501    0  0.00000000000E+00  0.00000000000E+00  0.93606678173E+02  0.93606678173E+02  0.00000000000E+00 0. -1.
         -1   -1    0    0    0  501 -0.00000000000E+00 -0.00000000000E+00 -0.15720447261E+03  0.15720447261E+03  0.00000000000E+00 0.  1.
         25    2    1    2    0    0 -0.18621699275E+02  0.19150513527E+01 -0.30988832150E+02  0.13022435126E+03  0.12509052258E+03 0.  0.
         23    2    1    2    0    0  0.18621699275E+02 -0.19150513527E+01 -0.32608962291E+02  0.12058679952E+03  0.11457485192E+03 0.  0.
          5    1    3    3  502    0  0.46822765323E+02 -0.47618490201E+01 -0.42211774409E+02  0.63358920897E+02  0.41800000000E+01 0. -1.
         -5    1    3    3    0  502 -0.65444464597E+02  0.66769003727E+01  0.11222942259E+02  0.66865430365E+02  0.41800000000E+01 0. -1.
        -11    1    4    4    0    0  0.16173197213E+01  0.32295796858E+02 -0.63629674488E+02  0.71374853367E+02  0.00000000000E+00 0.  1.
         11    1    4    4    0    0  0.17004379553E+02 -0.34210848211E+02  0.31020712197E+02  0.49211946156E+02  0.00000000000E+00 0. -1.
</event>
<event>
 8    1  0.7281309E-009  0.1437414E+03  0.7561462E-02  0.1208381E+00
         -1   -1    0    0    0  501 -0.00000000000E+00  0.00000000000E+00  0.48666574489E+03  0.48666574489E+03  0.00000000000E+00 0.  1.
          1   -1    0    0  501    0  0.00000000000E+00 -0.00000000000E+00 -0.62810575953E+02  0.62810575953E+02  0.00000000000E+00 0. -1.
         25    2    1    2    0    0 -0.10714156431E+03  0.28515822406E+02  0.98381159118E+02  0.19395680803E+03  0.12509166231E+03 0.  0.
         23    2    1    2    0    0  0.10714156431E+03 -0.28515822406E+02  0.32547400982E+03  0.35551951281E+03  0.90378791732E+02 0.  0.
          5    1    3    3  502    0  0.18714802607E+02 -0.13603654435E+02 -0.68973897560E+01  0.24502033304E+02  0.41800000000E+01 0.  1.
         -5    1    3    3    0  502 -0.12585636692E+03  0.42119476841E+02  0.10527854887E+03  0.16945477472E+03  0.41800000000E+01 0.  1.
        -11    1    4    4    0    0 -0.10323199697E+02 -0.47706103399E-01  0.24302620213E+01  0.10605512781E+02  0.00000000000E+00 0. -1.
         11    1    4    4    0    0  0.11746476401E+03 -0.28468116303E+02  0.32304374780E+03  0.34491400003E+03  0.00000000000E+00 0.  1.
</event>
<event>
 7    1  0.7281309E-009  0.1101163E+03  0.7561462E-02  0.1260355E+00
          2   -1    0    0  501    0  0.00000000000E+00  0.00000000000E+00  0.84513002262E+03  0.84513002262E+03  0.00000000000E+00 0. -1.
         -2   -1    0    0    0  501 -0.00000000000E+00 -0.00000000000E+00 -0.24288215835E+02  0.24288215835E+02  0.00000000000E+00 0.  1.
         23    2    1    2    0    0  0.66881390232E+02 -0.63383106842E+02  0.33480372280E+03  0.35911661525E+03  0.91546010045E+02 0.  0.
          5    1    1    2  502    0 -0.52761232750E+01  0.83278356595E+01 -0.53697448180E+01  0.11979018449E+02  0.41800000000E+01 0.  1.
         -5    1    1    2    0  502 -0.61605266957E+02  0.55055271183E+02  0.49140782880E+03  0.49832260475E+03  0.41800000000E+01 0.  1.
        -11    1    3    3    0    0  0.65880213183E+02 -0.25224278391E+01  0.21268197256E+03  0.22266608764E+03  0.00000000000E+00 0. -1.
         11    1    3    3    0    0  0.10011770492E+01 -0.60860679003E+02  0.12212175024E+03  0.13645052761E+03  0.00000000000E+00 0.  1.
</event>
<event>
 8    1  0.7281309E-009  0.1245914E+03  0.7561462E-02  0.1235709E+00
          4   -1    0    0  501    0  0.00000000000E+00  0.00000000000E+00  0.63230625656E+02  0.63230625656E+02  0.00000000000E+00 0. -1.
         -4   -1    0    0    0  501 -0.00000000000E+00 -0.00000000000E+00 -0.32663727549E+03  0.32663727549E+03  0.00000000000E+00 0.  1.
         25    2    1    2    0    0 -0.59670202241E+02 -0.47761044507E+02 -0.21455004439E+03  0.25984830586E+03  0.12509104725E+03 0.  0.
         23    2    1    2    0    0  0.59670202241E+02  0.47761044507E+02 -0.48856605444E+02  0.13001959529E+03  0.93147607891E+02 0.  0.
          5    1    3    3  502    0 -0.63271958765E+02 -0.77235764870E+02 -0.20552706600E+03  0.22853347983E+03  0.41800000000E+01 0.  1.
         -5    1    3    3    0  502  0.36017565241E+01  0.29474720363E+02 -0.90229783890E+01  0.31314826034E+02  0.41800000000E+01 0.  1.
        -11    1    4    4    0    0  0.10890040058E+01  0.59507925968E+02 -0.15132199639E+02  0.61411421158E+02  0.00000000000E+00 0.  1.
         11    1    4    4    0    0  0.58581198235E+02 -0.11746881461E+02 -0.33724405805E+02  0.68608174131E+02  0.00000000000E+00 0. -1.
</event>
<event>
 8    1  0.7281309E-009  0.8662353E+02  0.7561462E-02  0.1311241E+00
         -1   -1    0    0    0  501 -0.00000000000E+00  0.00000000000E+00  0.27173041475E+02  0.27173041475E+02  0.00000000000E+00 0.  1.
          1   -1    0    0  501    0  0.00000000000E+00 -0.00000000000E+00 -0.49668056188E+03  0.49668056188E+03  0.00000000000E+00 0. -1.
         25    2    1    2    0    0 -0.13285209829E+02 -0.28957103573E+02 -0.20277058199E+03  0.24037193651E+03  0.12509096007E+03 0.  0.
         23    2    1    2    0    0  0.13285209829E+02  0.28957103573E+02 -0.26673693841E+03  0.28348166684E+03  0.90544190743E+02 0.  0.
          5    1    3    3  502    0  0.26681564618E+02  0.90840261876E+01 -0.17709120941E+03  0.17936887766E+03  0.41800000000E+01 0.  1.
         -5    1    3    3    0  502 -0.39966774447E+02 -0.38041129760E+02 -0.25679372587E+02  0.61003058854E+02  0.41800000000E+01 0.  1.
        -11    1    4    4    0    0 -0.34157155613E+02  0.63069566599E+00 -0.15633486485E+03  0.16002405764E+03  0.00000000000E+00 0. -1.
         11    1    4    4    0    0  0.47442365442E+02  0.28326407907E+02 -0.11040207356E+03  0.12345760920E+03  0.00000000000E+00 0.  1.
</event>
<event>
 8    1  0.7281309E-009  0.2091802E+03  0.7561462E-02  0.1142217E+00
         -1   -1    0    0    0  501 -0.00000000000E+00  0.00000000000E+00  0.17466761196E+03  0.17466761196E+03  0.00000000000E+00 0.  1.
          1   -1    0    0  501    0  0.00000000000E+00 -0.00000000000E+00 -0.31040028251E+03  0.31040028251E+03  0.00000000000E+00 0. -1.
         25    2    1    2    0    0 -0.31123663223E+01 -0.20286449809E+03 -0.42722956645E+02  0.24214681608E+03  0.12508452384E+03 0.  0.
         23    2    1    2    0    0  0.31123663223E+01  0.20286449809E+03 -0.93009713905E+02  0.24292107840E+03  0.95896569490E+02 0.  0.
          5    1    3    3  502    0 -0.23341262023E+02 -0.18392229776E+03  0.64399312942E+01  0.18555638292E+03  0.41800000000E+01 0.  1.
         -5    1    3    3    0  502  0.20228895700E+02 -0.18942200323E+02 -0.49162887940E+02  0.56590433157E+02  0.41800000000E+01 0.  1.
        -11    1    4    4    0    0 -0.97540525381E+01  0.29985550365E+02  0.18727294951E+02  0.36674055513E+02  0.00000000000E+00 0.  1.
         11    1    4    4    0    0  0.12866418860E+02  0.17287894772E+03 -0.11173700886E+03  0.20624702288E+03  0.00000000000E+00 0. -1.
</event>
<event>
 8    1  0.7281309E-009  0.1044637E+03  0.7561462E-02  0.1271180E+00
         -2   -1    0    0    0  501 -0.00000000000E+00  0.00000000000E+00  0.86777697156E+02  0.86777697156E+02  0.00000000000E+00 0. -1.
          2   -1    0    0  501    0  0.00000000000E+00 -0.00000000000E+00 -0.21678479758E+03  0.21678479758E+03  0.00000000000E+00 0.  1.
         25    2    1    2    0    0 -0.52239292124E+02  0.63350587709E+02 -0.88708347895E+02  0.17395166378E+03  0.12509104581E+03 0.  0.
         23    2    1    2    0    0  0.52239292124E+02 -0.63350587709E+02 -0.41298752526E+02  0.12961083095E+03  0.91384571643E+02 0.  0.
          5    1    3    3  502    0 -0.11003609985E+02  0.35692088779E+02  0.28121723924E+02  0.46939411911E+02  0.41800000000E+01 0. -1.
         -5    1    3    3    0  502 -0.41235682139E+02  0.27658498930E+02 -0.11683007182E+03  0.12701225187E+03  0.41800000000E+01 0. -1.
        -11    1    4    4    0    0  0.26862749671E+02 -0.84383705960E+02 -0.21383710439E+02  0.91101483103E+02  0.00000000000E+00 0.  1.
         11    1    4    4    0    0  0.25376542453E+02  0.21033118251E+02 -0.19915042086E+02  0.38509347846E+02  0.00000000000E+00 0. -1.
</event>
<event>
 8    1  0.7281309E-009  0.9532300E+02  0.7561462E-02  0.1290450E+00
          1   -1    0    0  501    0  0.00000000000E+00  0.00000000000E+00  0.10072485098E+03  0.10072485098E+03  0.00000000000E+00 0. -1.
         -1   -1    0    0    0  501 -0.00000000000E+00 -0.00000000000E+00 -0.16709219800E+03  0.16709219800E+03  0.00000000000E+00 0.  1.
         25    2    1    2    0    0 -0.70564181329E+00  0.69959552768E+02 -0.50615391792E+02  0.15199934251E+03  0.12508815005E+03 0.  0.
         23    2    1    2    0    0  0.70564181329E+00 -0.69959552768E+02 -0.15751955234E+02  0.11581770647E+03  0.90943829283E+02 0.  0.
          5    1    3    3  502    0  0.13605117447E+02  0.40508863651E+02 -0.90534648583E+02  0.10020011102E+03  0.41800000000E+01 0.  1.
         -5    1    3    3    0  502 -0.14310759261E+02  0.29450689117E+02  0.39919256791E+02  0.51799231489E+02  0.41800000000E+01 0.  1.
        -11    1    4    4    0    0 -0.36231016864E+02 -0.68786577925E+02 -0.12126519870E+02  0.78685019983E+02  0.00000000000E+00 0.  1.
         11    1    4    4    0    0  0.36936658677E+02 -0.11729748429E+01 -0.36254353635E+01  0.37132686487E+02  0.00000000000E+00 0. -1.
</event>
<event>
 8    1  0.7281309E-009  0.1343160E+03  0.7561462E-02  0.1221188E+00
         -2   -1    0    0    0  501 -0.00000000000E+00  0.00000000000E+00  0.27711883467E+02  0.27711883467E+02  0.00000000000E+00 0. -1.
          2   -1    0    0  501    0  0.00000000000E+00 -0.00000000000E+00 -0.11474990061E+04  0.11474990061E+04  0.00000000000E+00 0.  1.
         25    2    1    2    0    0  0.10971101480E+03  0.13339092443E+02 -0.88785053046E+03  0.90340542377E+03  0.12509339355E+03 0.  0.
         23    2    1    2    0    0 -0.10971101480E+03 -0.13339092443E+02 -0.23193659217E+03  0.27180546579E+03  0.88708456709E+02 0.  0.
          5    1    3    3  502    0 -0.65411327766E+01 -0.13843243245E+02 -0.13224203250E+02  0.20658503168E+02  0.41800000000E+01 0. -1.
         -5    1    3    3    0  502  0.11625214757E+03  0.27182335688E+02 -0.87462632721E+03  0.88274692060E+03  0.41800000000E+01 0. -1.
        -11    1    4    4    0    0  0.71654619568E+01 -0.14768233579E+02 -0.71174265402E+02  0.73042594585E+02  0.00000000000E+00 0. -1.
         11    1    4    4    0    0 -0.11687647675E+03  0.14291411357E+01 -0.16076232677E+03  0.19876287121E+03  0.00000000000E+00 0.  1.
</event>
<event>
 8    1  0.7281309E-009  0.1293606E+03  0.7561462E-02  0.1228408E+00
          4   -1    0    0  501    0  0.00000000000E+00  0.00000000000E+00  0.21524135263E+03  0.21524135263E+03  0.00000000000E+00 0. -1.
         -4   -1    0    0    0  501 -0.00000000000E+00 -0.00000000000E+00 -0.12502999115E+03  0.12502999115E+03  0.00000000000E+00 0.  1.
         25    2    1    2    0    0 -0.52394489737E+02  0.65412990861E+02 -0.44969326539E+02  0.15713899131E+03  0.12508549209E+03 0.  0.
         23    2    1    2    0    0  0.52394489737E+02 -0.65412990861E+02  0.13518068802E+03  0.18313235247E+03  0.90772232422E+02 0.  0.
          5    1    3    3  502    0 -0.85274511339E+02  0.42001873332E+02  0.18687954898E+01  0.95167559831E+02  0.41800000000E+01 0. -1.
         -5    1    3    3    0  502  0.32880021602E+02  0.23411117528E+02 -0.46838122029E+02  0.61971431480E+02  0.41800000000E+01 0. -1.
        -11    1    4    4    0    0  0.41477038896E+02  0.13276370504E+02  0.39761348296E+02  0.58970938501E+02  0.00000000000E+00 0.  1.
         11    1    4    4    0    0  0.10917450841E+02 -0.78689361365E+02  0.95419339724E+02  0.12416141397E+03  0.00000000000E+00 0. -1.
</event>
<event>
 8    1  0.7281309E-009  0.1052964E+03  0.7561462E-02  0.1269537E+00
         -2   -1    0    0    0  501 -0.00000000000E+00  0.00000000000E+00  0.77078940055E+02  0.77078940055E+02  0.00000000000E+00 0.  1.
          2   -1    0    0  501    0  0.00000000000E+00 -0.00000000000E+00 -0.16274449068E+03  0.16274449068E+03  0.00000000000E+00 0. -1.
         25    2    1    2    0    0  0.16454706037E+02  0.24817618802E+02 -0.55343461212E+02  0.13998983890E+03  0.12509030635E+03 0.  0.
         23    2    1    2    0    0 -0.16454706037E+02 -0.24817618802E+02 -0.30322089414E+02  0.99833591835E+02  0.90336290596E+02 0.  0.
          5    1    3    3  502    0  0.95660036336E+01 -0.49835567302E+02 -0.88683375538E+01  0.51683769259E+02  0.41800000000E+01 0.  1.
         -5    1    3    3    0  502  0.68887024036E+01  0.74653186104E+02 -0.46475123658E+02  0.88306069640E+02  0.41800000000E+01 0.  1.
        -11    1    4    4    0    0 -0.43450287953E+02 -0.34941788268E+02  0.29159079548E+01  0.55833310933E+02  0.00000000000E+00 0.  1.
         11    1    4    4    0    0  0.26995581916E+02  0.10124169467E+02 -0.33237997369E+02  0.44000280902E+02  0.00000000000E+00 0. -1.
</event>
<event>
 8    1  0.7281309E-009  0.7335417E+02  0.7561462E-02  0.1349045E+00
         -2   -1    0    0    0  501 -0.00000000000E+00  0.00000000000E+00  0.15103908209E+03  0.15103908209E+03  0.00000000000E+00 0.  1.
          2   -1    0    0  501    0  0.00000000000E+00 -0.00000000000E+00 -0.77716779535E+02  0.77716779535E+02  0.00000000000E+00 0. -1.
         25    2    1    2    0    0  0.83824321000E+01  0.20091451013E+02  0.25078446061E+02  0.12942043558E+03  0.12508712611E+03 0.  0.
         23    2    1    2    0    0 -0.83824321000E+01 -0.20091451013E+02  0.48243856494E+02  0.99335426044E+02  0.84060249858E+02 0.  0.
          5    1    3    3  502    0 -0.21195338269E+02  0.27734660502E+02  0.68012633803E+02  0.76561377432E+02  0.41800000000E+01 0.  1.
         -5    1    3    3    0  502  0.29577770369E+02 -0.76432094894E+01 -0.42934187742E+02  0.52859058149E+02  0.41800000000E+01 0.  1.
        -11    1    4    4    0    0  0.12905172077E+02 -0.45659764984E+02  0.45846200093E+02  0.65979024453E+02  0.00000000000E+00 0.  1.
         11    1    4    4    0    0 -0.21287604177E+02  0.25568313971E+02  0.23976564007E+01  0.33356401592E+02  0.00000000000E+00 0. -1.
</event>
<event>
 8    1  0.7281309E-009  0.1398209E+03  0.7561462E-02  0.1213570E+00
         -2   -1    0    0    0  501 -0.00000000000E+00  0.00000000000E+00  0.27336864279E+03  0.27336864279E+03  0.00000000000E+00 0.  1.
          2   -1    0    0  501    0  0.00000000000E+00 -0.00000000000E+00 -0.11316370974E+03  0.11316370974E+03  0.00000000000E+00 0. -1.
         25    2    1    2    0    0  0.56246667264E+02  0.95824115118E+02 -0.52463521654E+01  0.16739346676E+03  0.12508836832E+03 0.  0.
         23    2    1    2    0    0 -0.56246667264E+02 -0.95824115118E+02  0.16545128522E+03  0.21913888577E+03  0.91114076075E+02 0.  0.
          5    1    3    3  502    0 -0.18488665130E+01 -0.15163506849E+02 -0.35132302920E+02  0.38537012803E+02  0.41800000000E+01 0. -1.
         -5    1    3    3    0  502  0.58095533777E+02  0.11098762197E+03  0.29885950754E+02  0.12885645396E+03  0.41800000000E+01 0. -1.
        -11    1    4    4    0    0  0.62553055513E+01 -0.70896797586E+02  0.11416506442E+03  0.13453306913E+03  0.00000000000E+00 0.  1.
         11    1    4    4    0    0 -0.62501972816E+02 -0.24927317532E+02  0.51286220794E+02  0.84605816635E+02  0.00000000000E+00 0. -1.
</event>
<event>
 7    1  0.7281309E-009  0.1005795E+03  0.7561462E-02  0.1279082E+00
         -2   -1    0    0    0  501 -0.00000000000E+00  0.00000000000E+00  0.23427649512E+02  0.23427649512E+02  0.00000000000E+00 0.  1.
          2   -1    0    0  501    0  0.00000000000E+00 -0.00000000000E+00 -0.58363239518E+03  0.58363239518E+03  0.00000000000E+00 0. -1.
         23    2    1    2    0    0 -0.15107732534E+02 -0.33738896571E+02 -0.30946801652E+03  0.32453992021E+03  0.90493921545E+02 0.  0.
          5    1    1    2  502    0  0.61028724313E+02 -0.14166165075E+02 -0.13845205380E+03  0.15202509341E+03  0.41800000000E+01 0.  1.
         -5    1    1    2    0  502 -0.45920991779E+02  0.47905061646E+02 -0.11228467535E+03  0.13049503107E+03  0.41800000000E+01 0.  1.
        -11    1    3    3    0    0 -0.11311836122E+02  0.17314867440E+02 -0.14737006732E+02  0.25395701178E+02  0.00000000000E+00 0.  1.
         11    1    3    3    0    0 -0.37958964125E+01 -0.51053764011E+02 -0.29473100979E+03  0.29914421904E+03  0.00000000000E+00 0. -1.
</event>
<event>
 8    1  0.7281309E-009  0.1303419E+03  0.7561462E-02  0.1226949E+00
          1   -1    0    0  501    0  0.00000000000E+00  0.00000000000E+00  0.91188549781E+03  0.91188549781E+03  0.00000000000E+00 0. -1.
         -1   -1    0    0    0  501 -0.00000000000E+00 -0.00000000000E+00 -0.19704411162E+02  0.19704411162E+02  0.00000000000E+00 0.  1.
         25    2    1    2    0    0  0.36435818587E+02 -0.68884025794E+02  0.52579278394E+03  0.54605727763E+03  0.12509165011E+03 0.  0.
         23    2    1    2    0    0 -0.36435818587E+02  0.68884025794E+02  0.36638830271E+03  0.38553263135E+03  0.91227427792E+02 0.  0.
          5    1    3    3  502    0 -0.21521555164E+02  0.23139411420E+02  0.20107982958E+03  0.20359071679E+03  0.41800000000E+01 0.  1.
         -5    1    3    3    0  502  0.57957373751E+02 -0.92023437213E+02  0.32471295435E+03  0.34246656084E+03  0.41800000000E+01 0.  1.
        -11    1    4    4    0    0 -0.31764322654E+02  0.91512311416E+02  0.29726613855E+03  0.31265097547E+03  0.00000000000E+00 0. -1.
         11    1    4    4    0    0 -0.46714959337E+01 -0.22628285622E+02  0.69122164167E+02  0.72881655878E+02  0.00000000000E+00 0.  1.
</event>
<event>
 8    1  0.7281309E-009  0.1673904E+03  0.7561462E-02  0.1180597E+00
          4   -1    0    0  501    0  0.00000000000E+00  0.00000000000E+00  0.89379686659E+03  0.89379686659E+03  0.00000000000E+00 0. -1.
         -4   -1    0    0    0  501 -0.00000000000E+00 -0.00000000000E+00 -0.70515609533E+02  0.70515609533E+02  0.00000000000E+00 0.  1.
         25    2    1    2    0    0  0.11034418956E+03 -0.10312084314E+03  0.74720209740E+03  0.77250741379E+03  0.12508789525E+03 0.  0.
         23    2    1    2    0    0 -0.11034418956E+03  0.10312084314E+03  0.76079159661E+02  0.19180506234E+03  0.90506325448E+02 0.  0.
          5    1    3    3  502    0  0.74309631336E+02 -0.11191806474E+03  0.37353301600E+03  0.39697853968E+03  0.41800000000E+01 0. -1.
         -5    1    3    3    0  502  0.36034558220E+02  0.87972216021E+01  0.37366908140E+03  0.37552887410E+03  0.41800000000E+01 0. -1.
        -11    1    4    4    0    0 -0.93091541722E+02  0.46899990434E+02  0.12155114149E+02  0.10494470469E+03  0.00000000000E+00 0.  1.
         11    1    4    4    0    0 -0.17252647833E+02  0.56220852704E+02  0.63924045512E+02  0.86860357647E+02  0.00000000000E+00 0. -1.
</event>
<event>
 8    1  0.7281309E-009  0.7620778E+02  0.7561462E-02  0.1340171E+00
         -1   -1    0    0    0  501 -0.00000000000E+00  0.00000000000E+00  0.18453053025E+03  0.18453053025E+03  0.00000000000E+00 0.  1.
          1   -1    0    0  501    0  0.00000000000E+00 -0.00000000000E+00 -0.73042799275E+02  0.73042799275E+02  0.00000000000E+00 0. -1.
         25    2    1    2    0    0  0.20972207580E+02 -0.18894341389E+02  0.99577793787E+02  0.16235750494E+03  0.12508953900E+03 0.  0.
         23    2    1    2    0    0 -0.20972207580E+02  0.18894341389E+02  0.11909937192E+02  0.95215824591E+02  0.90151966264E+02 0.  0.
          5    1    3    3  502    0 -0.31142105071E+02 -0.28755343156E+02  0.10049231968E+03  0.10914613682E+03  0.41800000000E+01 0. -1.
         -5    1    3    3    0  502  0.52114312652E+02  0.98610017661E+01 -0.91452589671E+00  0.53211368114E+02  0.41800000000E+01 0. -1.
        -11    1    4    4    0    0 -0.23657326807E+02 -0.11361560030E+02 -0.32274337707E+02  0.41597921011E+02  0.00000000000E+00 0. -1.
         11    1    4    4    0    0  0.26851192268E+01  0.30255901420E+02  0.44184274899E+02  0.53617903580E+02  0.00000000000E+00 0.  1.
</event>
<event>
 8    1  0.7281309E-009  0.1076946E+03  0.7561462E-02  0.1264900E+00
         -2   -1    0    0    0  501 -0.00000000000E+00  0.00000000000E+00  0.11667811718E+03  0.11667811718E+03  0.00000000000E+00 0.  1.
          2   -1    0    0  501    0  0.00000000000E+00 -0.00000000000E+00 -0.12416180755E+03  0.12416180755E+03  0.00000000000E+00 0. -1.
         25    2    1    2    0    0 -0.50147834598E+02  0.95739854926E+01 -0.18095788229E+02  0.13631279356E+03  0.12508898282E+03 0.  0.
         23    2    1    2    0    0  0.50147834598E+02 -0.95739854926E+01  0.10612097860E+02  0.10452713118E+03  0.90591600151E+02 0.  0.
          5    1    3    3  502    0 -0.26830705963E+01 -0.52217728225E+02 -0.24751551932E+02  0.58000014930E+02  0.41800000000E+01 0. -1.
         -5    1    3    3    0  502 -0.47464764002E+02  0.61791713717E+02  0.66557637029E+01  0.78312778627E+02  0.41800000000E+01 0. -1.
        -11    1    4    4    0    0 -0.61019950717E+01 -0.25680895320E+02 -0.24730422217E+02  0.36170934621E+02  0.00000000000E+00 0. -1.
         11    1    4    4    0    0  0.56249829670E+02  0.16106909828E+02  0.35342520077E+02  0.68356196555E+02  0.00000000000E+00 0.  1.
</event>
<event>
 8    1  0.7281309E-009  0.1105700E+03  0.7561462E-02  0.1259518E+00
         -2   -1    0    0    0  501 -0.00000000000E+00  0.00000000000E+00  0.27294974298E+02  0.27294974298E+02  0.00000000000E+00 0. -1.
          2   -1    0    0  501    0  0.00000000000E+00 -0.00000000000E+00 -0.76813532712E+03  0.76813532712E+03  0.00000000000E+00 0.  1.
         25    2    1    2    0    0 -0.21333133700E+02 -0.55776833628E+02 -0.59051209065E+03  0.60656276876E+03  0.12509078893E+03 0.  0.
         23    2    1    2    0    0  0.21333133700E+02  0.55776833628E+02 -0.15032826217E+03  0.18886753266E+03  0.97499747296E+02 0.  0.
          5    1    3    3  502    0  0.34549159788E+02 -0.12899753168E+02 -0.42526497893E+03  0.42688150906E+03  0.41800000000E+01 0. -1.
         -5    1    3    3    0  502 -0.55882293488E+02 -0.42877080460E+02 -0.16524711173E+03  0.17968125970E+03  0.41800000000E+01 0. -1.
        -11    1    4    4    0    0  0.11600797785E+02  0.83386685440E+02 -0.12118762084E+03  0.14756136778E+03  0.00000000000E+00 0.  1.
         11    1    4    4    0    0  0.97323359150E+01 -0.27609851813E+02 -0.29140641335E+02  0.41306164878E+02  0.00000000000E+00 0. -1.
</event>
<event>
 8    1  0.7281309E-009  0.1234478E+03  0.7561462E-02  0.1237515E+00
         -2   -1    0    0    0  501 -0.00000000000E+00  0.00000000000E+00  0.12639981153E+02  0.12639981153E+02  0.00000000000E+00 0.  1.
          2   -1    0    0  501    0  0.00000000000E+00 -0.00000000000E+00 -0.13778117651E+04  0.13778117651E+04  0.00000000000E+00 0. -1.
         25    2    1    2    0    0  0.56901752314E+02 -0.18616987101E+02 -0.97527196252E+03  0.98508221439E+03  0.12508863499E+03 0.  0.
         23    2    1    2    0    0 -0.56901752314E+02  0.18616987101E+02 -0.38989982147E+03  0.40536953190E+03  0.93371221430E+02 0.  0.
          5    1    3    3  502    0  0.95373485842E+02 -0.45996061779E+01 -0.60072175775E+03  0.60827737161E+03  0.41800000000E+01 0. -1.
         -5    1    3    3    0  502 -0.38471733528E+02 -0.14017380924E+02 -0.37455020477E+03  0.37680484278E+03  0.41800000000E+01 0. -1.
        -11    1    4    4    0    0 -0.59510052433E+02 -0.26375583423E+02 -0.25313889638E+03  0.26137409704E+03  0.00000000000E+00 0.  1.
         11    1    4    4    0    0  0.26083001196E+01  0.44992570525E+02 -0.13676092509E+03  0.14399543487E+03  0.00000000000E+00 0. -1.
</event>
<event>
 8    1  0.7281309E-009  0.1082735E+03  0.7561462E-02  0.1263801E+00
          2   -1    0    0  501    0  0.00000000000E+00  0.00000000000E+00  0.48667512465E+03  0.48667512465E+03  0.00000000000E+00 0. -1.
         -2   -1    0    0    0  501 -0.00000000000E+00 -0.00000000000E+00 -0.25791985071E+02  0.25791985071E+02  0.00000000000E+00 0.  1.
         25    2    1    2    0    0  0.27169037321E+02  0.12960311517E+02  0.33381427140E+03  0.35775034367E+03  0.12508882582E+03 0.  0.
         23    2    1    2    0    0 -0.27169037321E+02 -0.12960311517E+02  0.12706886818E+03  0.15471676605E+03  0.82973816184E+02 0.  0.
          5    1    3    3  502    0 -0.22272268955E+02 -0.46187242864E+02  0.13563212097E+03  0.14506157315E+03  0.41800000000E+01 0.  1.
         -5    1    3    3    0  502  0.49441306276E+02  0.59147554381E+02  0.19818215043E+03  0.21268877052E+03  0.41800000000E+01 0.  1.
        -11    1    4    4    0    0 -0.16308137902E+02  0.35057970924E+02  0.48948130329E+02  0.62377368892E+02  0.00000000000E+00 0.  1.
         11    1    4    4    0    0 -0.10860899419E+02 -0.48018282441E+02  0.78120737848E+02  0.92339397154E+02  0.00000000000E+00 0. -1.
</event>
<event>
 8    1  0.7281309E-009  0.9375913E+02  0.7561462E-02  0.1293996E+00
          1   -1    0    0  501    0  0.00000000000E+00  0.00000000000E+00  0.28893675962E+03  0.28893675962E+03  0.00000000000E+00 0.  1.
         -1   -1    0    0    0  501 -0.00000000000E+00 -0.00000000000E+00 -0.70112130889E+02  0.70112130889E+02  0.00000000000E+00 0. -1.
         25    2    1    2    0    0  0.50550124972E+02  0.98452469114E+01  0.23006914052E+02  0.13721865371E+03  0.12508955516E+03 0.  0.
         23    2    1    2    0    0 -0.50550124972E+02 -0.98452469114E+01  0.19581771468E+03  0.22183023680E+03  0.90619162186E+02 0.  0.
          5    1    3    3  502    0  0.64202409927E+02 -0.25705448890E+01 -0.37024863662E+02  0.74275635781E+02  0.41800000000E+01 0. -1.
         -5    1    3    3    0  502 -0.13652284955E+02  0.12415791800E+02  0.60031777713E+02  0.62943017929E+02  0.41800000000E+01 0. -1.
        -11    1    4    4    0    0  0.26388348279E+02  0.15298329785E+01  0.51737522755E+02  0.58098679630E+02  0.00000000000E+00 0. -1.
         11    1    4    4    0    0 -0.76938473251E+02 -0.11375079890E+02  0.14408019192E+03  0.16373155717E+03  0.00000000000E+00 0.  1.
</event>
<event>
 8    1  0.7281309E-009  0.1077848E+03  0.7561462E-02  0.1264728E+00
         -2   -1    0    0    0  501 -0.00000000000E+00  0.00000000000E+00  0.10053055227E+03  0.10053055227E+03  0.00000000000E+00 0.  1.
          2   -1    0    0  501    0  0.00000000000E+00 -0.00000000000E+00 -0.18977981634E+03  0.18977981634E+03  0.00000000000E+00 0. -1.
         25    2    1    2    0    0 -0.35034629841E+02  0.55892705022E+02 -0.84084366171E+02  0.16454562023E+03  0.12511459043E+03 0.  0.
         23    2    1    2    0    0  0.35034629841E+02 -0.55892705022E+02 -0.51648978985E+01  0.12576474837E+03  0.10695174613E+03 0.  0.
          5    1    3    3  502    0 -0.22625689430E+02 -0.26273956366E+02  0.12473332107E+02  0.37085024190E+02  0.41800000000E+01 0.  1.
         -5    1    3    3    0  502 -0.12408940411E+02  0.82166661388E+02 -0.96557698277E+02  0.12746059604E+03  0.41800000000E+01 0.  1.
        -11    1    4    4    0    0  0.39265599522E+02  0.20745543218E+01  0.36974841665E+02  0.53974345736E+02  0.00000000000E+00 0.  1.
         11    1    4    4    0    0 -0.42309696810E+01 -0.57967259344E+02 -0.42139739564E+02  0.71790402637E+02  0.00000000000E+00 0. -1.
</event>
<event>
 8    1  0.7281309E-009  0.1117958E+03  0.7561462E-02  0.1257280E+00
          4   -1    0    0  501    0  0.00000000000E+00  0.00000000000E+00  0.11267553126E+03  0.11267553126E+03  0.00000000000E+00 0. -1.
         -4   -1    0    0    0  501 -0.00000000000E+00 -0.00000000000E+00 -0.21407510203E+03  0.21407510203E+03  0.00000000000E+00 0.  1.
         25    2    1    2    0    0  0.73740256971E+02  0.46952622684E+02 -0.12579219130E+03  0.19776912919E+03  0.12508708484E+03 0.  0.
         23    2    1    2    0    0 -0.73740256971E+02 -0.46952622684E+02  0.24392620530E+02  0.12898150410E+03  0.91646353932E+02 0.  0.
          5    1    3    3  502    0 -0.32490567100E+01  0.41696711003E+02 -0.11152375929E+03  0.11918134655E+03  0.41800000000E+01 0.  1.
         -5    1    3    3    0  502  0.76989313681E+02  0.52559116811E+01 -0.14268432009E+02  0.78587782643E+02  0.41800000000E+01 0.  1.
        -11    1    4    4    0    0 -0.61138444755E+02 -0.60015962324E+01  0.49875874750E+02  0.79129839293E+02  0.00000000000E+00 0. -1.
         11    1    4    4    0    0 -0.12601812216E+02 -0.40951026451E+02 -0.25483254221E+02  0.49851664809E+02  0.00000000000E+00 0.  1.
</event>
<event>
 8    1  0.7281309E-009  0.2440503E+03  0.7561462E-02  0.1117124E+00
         -2   -1    0    0    0  501 -0.00000000000E+00  0.00000000000E+00  0.42549616027E+02  0.42549616027E+02  0.00000000000E+00 0.  1.
          2   -1    0    0  501    0  0.00000000000E+00 -0.00000000000E+00 -0.14304072164E+04  0.14304072164E+04  0.00000000000E+00 0. -1.
         25    2    1    2    0    0  0.14345744291E+03 -0.16788065006E+03 -0.67257032387E+03  0.71886107248E+03  0.12508577216E+03 0.  0.
         23    2    1    2    0    0 -0.14345744291E+03  0.16788065006E+03 -0.71528727648E+03  0.75409575992E+03  0.90887714481E+02 0.  0.
          5    1    3    3  502    0  0.12231015973E+03 -0.18523846031E+03 -0.63102046652E+03  0.66893748880E+03  0.41800000000E+01 0. -1.
         -5    1    3    3    0  502  0.21147283180E+02  0.17357810251E+02 -0.41549857346E+02  0.49923583686E+02  0.41800000000E+01 0. -1.
        -11    1    4    4    0    0 -0.13698981893E+03  0.98494591893E+02 -0.52528751123E+03  0.55171946185E+03  0.00000000000E+00 0. -1.
         11    1    4    4    0    0 -0.64676239772E+01  0.69386058163E+02 -0.18999976525E+03  0.20237629807E+03  0.00000000000E+00 0.  1.
</event>
<event>
 8    1  0.7281309E-009  0.2194884E+03  0.7561462E-02  0.1134265E+00
         -1   -1    0    0    0  501 -0.00000000000E+00  0.00000000000E+00  0.13047836186E+03  0.13047836186E+03  0.00000000000E+00 0.  1.
          1   -1    0    0  501    0  0.00000000000E+00 -0.00000000000E+00 -0.79877401791E+03  0.79877401791E+03  0.00000000000E+00 0. -1.
         25    2    1    2    0    0  0.12253271643E+03  0.15676529057E+03 -0.99473234424E+01  0.23523591353E+03  0.12508941940E+03 0.  0.
         23    2    1    2    0    0 -0.12253271643E+03 -0.15676529057E+03 -0.65834833261E+03  0.69401646624E+03  0.92987662802E+02 0.  0.
          5    1    3    3  502    0 -0.24260092273E+02  0.12646960520E+02  0.76908763935E+01  0.28724896296E+02  0.41800000000E+01 0.  1.
         -5    1    3    3    0  502  0.14679280870E+03  0.14411833005E+03 -0.17638199836E+02  0.20651101723E+03  0.41800000000E+01 0.  1.
        -11    1    4    4    0    0 -0.18063594887E+02 -0.61720019214E+02 -0.10675536412E+03  0.12462889713E+03  0.00000000000E+00 0.  1.
         11    1    4    4    0    0 -0.10446912154E+03 -0.95045271360E+02 -0.55159296849E+03  0.56938756910E+03  0.00000000000E+00 0. -1.
</event>
<event>
 8    1  0.7281309E-009  0.2043559E+03  0.7561462E-02  0.1146115E+00
          2   -1    0    0  501    0  0.00000000000E+00  0.00000000000E+00  0.58230754318E+02  0.58230754318E+02  0.00000000000E+00 0. -1.
         -2   -1    0    0    0  501 -0.00000000000E+00 -0.00000000000E+00 -0.83707313110E+03  0.83707313110E+03  0.00000000000E+00 0.  1.
         25    2    1    2    0    0  0.18902526895E+03  0.32490832677E+02 -0.40779061981E+03  0.46768238811E+03  0.12508964800E+03 0.  0.
         23    2    1    2    0    0 -0.18902526895E+03 -0.32490832677E+02 -0.37105175698E+03  0.42762149731E+03  0.91621679174E+02 0.  0.
          5    1    3    3  502    0  0.62118209770E+02  0.60362355384E+02 -0.24157387975E+03  0.25666651069E+03  0.41800000000E+01 0. -1.
         -5    1    3    3    0  502  0.12690705918E+03 -0.27871522708E+02 -0.16621674006E+03  0.21101587742E+03  0.41800000000E+01 0. -1.
        -11    1    4    4    0    0 -0.13946279875E+03 -0.27857557438E+02 -0.17579301167E+03  0.22611744447E+03  0.00000000000E+00 0. -1.
         11    1    4    4    0    0 -0.49562470204E+02 -0.46332752388E+01 -0.19525874531E+03  0.20150405284E+03  0.00000000000E+00 0.  1.
</event>
<event>
 8    1  0.7281309E-009  0.1033243E+03  0.7561462E-02  0.1273457E+00
         -2   -1    0    0    0  501 -0.00000000000E+00  0.00000000000E+00  0.17181879746E+02  0.17181879746E+02  0.00000000000E+00 0.  1.
          2   -1    0    0  501    0  0.00000000000E+00 -0.00000000000E+00 -0.69798221900E+03  0.69798221900E+03  0.00000000000E+00 0. -1.
         25    2    1    2    0    0  0.43865476597E+01  0.18104284826E+02 -0.39663368636E+03  0.41630960882E+03  0.12509357423E+03 0.  0.
         23    2    1    2    0    0 -0.43865476597E+01 -0.18104284826E+02 -0.28416665290E+03  0.29885448993E+03  0.90643877903E+02 0.  0.
          5    1    3    3  502    0 -0.16758917740E+02 -0.44613066374E+02 -0.83530167340E+02  0.96259795714E+02  0.41800000000E+01 0. -1.
         -5    1    3    3    0  502  0.21145465400E+02  0.62717351199E+02 -0.31310351902E+03  0.32004981311E+03  0.41800000000E+01 0. -1.
        -11    1    4    4    0    0 -0.10914071608E+02 -0.54465542701E+02 -0.17532044536E+03  0.18390995313E+03  0.00000000000E+00 0.  1.
         11    1    4    4    0    0  0.65275239483E+01  0.36361257875E+02 -0.10884620754E+03  0.11494453680E+03  0.00000000000E+00 0. -1.
</event>
<event>
 8    1  0.7281309E-009  0.1221089E+03  0.7561462E-02  0.1239658E+00
         -2   -1    0    0    0  501 -0.00000000000E+00  0.00000000000E+00  0.29824168563E+02  0.29824168563E+02  0.00000000000E+00 0. -1.
          2   -1    0    0  501    0  0.00000000000E+00 -0.00000000000E+00 -0.79781971299E+03  0.79781971299E+03  0.00000000000E+00 0.  1.
         25    2    1    2    0    0 -0.36011575316E+02 -0.86946017078E+02 -0.26469301185E+03  0.30751692659E+03  0.12509127137E+03 0.  0.
         23    2    1    2    0    0  0.36011575316E+02  0.86946017078E+02 -0.50330253257E+03  0.52012695496E+03  0.91444882531E+02 0.  0.
          5    1    3    3  502    0 -0.42094020634E+02 -0.93832070030E+02 -0.27467185522E+03  0.29332313988E+03  0.41800000000E+01 0. -1.
         -5    1    3    3    0  502  0.60824453185E+01  0.68860529525E+01  0.99788433643E+01  0.14193786711E+02  0.41800000000E+01 0. -1.
        -11    1    4    4    0    0  0.42325420043E+02 -0.16685760811E+01 -0.16699552948E+03  0.17228387096E+03  0.00000000000E+00 0. -1.
         11    1    4    4    0    0 -0.63138447272E+01  0.88614593159E+02 -0.33630700309E+03  0.34784308400E+03  0.00000000000E+00 0.  1.
</event>
<event>
 8    1  0.7281309E-009  0.1244402E+03  0.7561462E-02  0.1235947E+00
          2   -1    0    0  501    0  0.00000000000E+00  0.00000000000E+00  0.14744418750E+04  0.14744418750E+04  0.00000000000E+00 0. -1.
         -2   -1    0    0    0  501 -0.00000000000E+00 -0.00000000000E+00 -0.21658405985E+02  0.21658405985E+02  0.00000000000E+00 0.  1.
         25    2    1    2    0    0 -0.11959534800E+03  0.25754277680E+02  0.10679739273E+04  0.10822117846E+04  0.12509079567E+03 0.  0.
         23    2    1    2    0    0  0.11959534800E+03 -0.25754277680E+02  0.38480954170E+03  0.41388849641E+03  0.90878897424E+02 0.  0.
          5    1    3    3  502    0 -0.38553415154E+02  0.11131372347E+02  0.81789773792E+03  0.81889221230E+03  0.41800000000E+01 0. -1.
         -5    1    3    3    0  502 -0.81041932845E+02  0.14622905333E+02  0.25007618940E+03  0.26331957228E+03  0.41800000000E+01 0. -1.
        -11    1    4    4    0    0  0.55008791444E+02 -0.27433589935E+02  0.72896807890E+02  0.95354672636E+02  0.00000000000E+00 0.  1.
         11    1    4    4    0    0  0.64586556556E+02  0.16793122547E+01  0.31191273380E+03  0.31853382377E+03  0.00000000000E+00 0. -1.
</event>
<event>
 8    1  0.7281309E-009  0.1194909E+03  0.7561462E-02  0.1243939E+00
          1   -1    0    0  501    0  0.00000000000E+00  0.00000000000E+00  0.84077549984E+02  0.84077549984E+02  0.00000000000E+00 0. -1.
         -1   -1    0    0    0  501 -0.00000000000E+00 -0.00000000000E+00 -0.25907872652E+03  0.25907872652E+03  0.00000000000E+00 0.  1.
         25    2    1    2    0    0  0.60287908159E+02  0.65866094373E+02 -0.41388453593E+02  0.15916223679E+03  0.12508652713E+03 0.  0.
         23    2    1    2    0    0 -0.60287908159E+02 -0.65866094373E+02 -0.13361272294E+03  0.18399403971E+03  0.89601744742E+02 0.  0.
          5    1    3    3  502    0  0.13633086741E+02 -0.17470376812E+02  0.31645242127E+02  0.38858317891E+02  0.41800000000E+01 0.  1.
         -5    1    3    3    0  502  0.46654821418E+02  0.83336471185E+02 -0.73033695721E+02  0.12030391890E+03  0.41800000000E+01 0.  1.
        -11    1    4    4    0    0  0.10845858849E+02 -0.45593854607E+02 -0.79724967328E+02  0.92479741822E+02  0.00000000000E+00 0.  1.
         11    1    4    4    0    0 -0.71133767007E+02 -0.20272239766E+02 -0.53887755612E+02  0.91514297892E+02  0.00000000000E+00 0. -1.
</event>
<event>
 8    1  0.7281309E-009  0.7545671E+02  0.7561462E-02  0.1342463E+00
          2   -1    0    0  501    0  0.00000000000E+00  0.00000000000E+00  0.98843301151E+03  0.98843301151E+03  0.00000000000E+00 0.  1.
         -2   -1    0    0    0  501 -0.00000000000E+00 -0.00000000000E+00 -0.15030351030E+02  0.15030351030E+02  0.00000000000E+00 0. -1.
         25    2    1    2    0    0 -0.27153220422E+02  0.40581992342E+01  0.74103243034E+03  0.75201823311E+03  0.12509433941E+03 0.  0.
         23    2    1    2    0    0  0.27153220422E+02 -0.40581992342E+01  0.23237023014E+03  0.25144512943E+03  0.92059561696E+02 0.  0.
          5    1    3    3  502    0 -0.28304159855E+02  0.26988554683E+02  0.67807919042E+02  0.78389373220E+02  0.41800000000E+01 0. -1.
         -5    1    3    3    0  502  0.11509394333E+01 -0.22930355448E+02  0.67322451130E+03  0.67362885989E+03  0.41800000000E+01 0. -1.
        -11    1    4    4    0    0  0.57343300913E+02  0.23136106408E+01  0.19341948929E+03  0.20175407255E+03  0.00000000000E+00 0.  1.
         11    1    4    4    0    0 -0.30190080492E+02 -0.63718098750E+01  0.38950740850E+02  0.49691056881E+02  0.00000000000E+00 0. -1.
</event>
<event>
 8    1  0.7281309E-009  0.1290513E+03  0.7561462E-02  0.1228870E+00
         -1   -1    0    0    0  501 -0.00000000000E+00  0.00000000000E+00  0.85631120608E+02  0.85631120608E+02  0.00000000000E+00 0.  1.
          1   -1    0    0  501    0  0.00000000000E+00 -0.00000000000E+00 -0.31113821778E+03  0.31113821778E+03  0.00000000000E+00 0. -1.
         25    2    1    2    0    0 -0.69132833495E+02 -0.20071516649E+02 -0.23565837302E+03  0.27633932555E+03  0.12508532936E+03 0.  0.
         23    2    1    2    0    0  0.69132833495E+02  0.20071516649E+02  0.10151275847E+02  0.12043001284E+03  0.96011067823E+02 0.  0.
          5    1    3    3  502    0  0.18763843919E+02  0.32621956103E+02 -0.37947532767E+02  0.53607476174E+02  0.41800000000E+01 0. -1.
         -5    1    3    3    0  502 -0.87896677414E+02 -0.52693472753E+02 -0.19771084026E+03  0.22273184937E+03  0.41800000000E+01 0. -1.
        -11    1    4    4    0    0  0.29914758474E+02  0.56636596774E+02  0.17272586211E+02  0.66339574186E+02  0.00000000000E+00 0.  1.
         11    1    4    4    0    0  0.39218075021E+02 -0.36565080125E+02 -0.71213103637E+01  0.54090438658E+02  0.00000000000E+00 0. -1.
</event>
<event>
 8    1  0.7281309E-009  0.1561242E+03  0.7561462E-02  0.1193143E+00
         -1   -1    0    0    0  501 -0.00000000000E+00  0.00000000000E+00  0.11874941494E+03  0.11874941494E+03  0.00000000000E+00 0.  1.
          1   -1    0    0  501    0  0.00000000000E+00 -0.00000000000E+00 -0.24061627648E+03  0.24061627648E+03  0.00000000000E+00 0. -1.
         25    2    1    2    0    0 -0.10388502742E+03  0.80062318423E+02 -0.66249848546E+02  0.19297372287E+03  0.12509093305E+03 0.  0.
         23    2    1    2    0    0  0.10388502742E+03 -0.80062318423E+02 -0.55617012992E+02  0.16639196855E+03  0.85970700300E+02 0.  0.
          5    1    3    3  502    0 -0.13061961126E+03  0.48512715361E+02 -0.46459914516E+02  0.14693863500E+03  0.41800000000E+01 0.  1.
         -5    1    3    3    0  502  0.26734583840E+02  0.31549603062E+02 -0.19789934030E+02  0.46035087872E+02  0.41800000000E+01 0.  1.
        -11    1    4    4    0    0  0.38918571592E+02 -0.26497130492E+02  0.21914238030E+02  0.51932523215E+02  0.00000000000E+00 0.  1.
         11    1    4    4    0    0  0.64966455833E+02 -0.53565187931E+02 -0.77531251023E+02  0.11445944534E+03  0.00000000000E+00 0. -1.
</event>
<event>
 8    1  0.7281309E-009  0.1256975E+03  0.7561462E-02  0.1233983E+00
          3   -1    0    0  501    0  0.00000000000E+00  0.00000000000E+00  0.79742999863E+02  0.79742999863E+02  0.00000000000E+00 0. -1.
         -3   -1    0    0    0  501 -0.00000000000E+00 -0.00000000000E+00 -0.27574438546E+03  0.27574438546E+03  0.00000000000E+00 0.  1.
         25    2    1    2    0    0 -0.17942871169E+02  0.97127774541E+02 -0.78711699861E+02  0.17776144506E+03  0.12509136038E+03 0.  0.
         23    2    1    2    0    0  0.17942871169E+02 -0.97127774541E+02 -0.11728968574E+03  0.17772594027E+03  0.89854817626E+02 0.  0.
          5    1    3    3  502    0 -0.57137046295E+01 -0.10293518460E+02 -0.67885214278E+02  0.69025195837E+02  0.41800000000E+01 0.  1.
         -5    1    3    3    0  502 -0.12229166540E+02  0.10742129300E+03 -0.10826485584E+02  0.10873624922E+03  0.41800000000E+01 0.  1.
        -11    1    4    4    0    0  0.35704623626E+02 -0.40325896982E+01 -0.49659387081E+02  0.61295486401E+02  0.00000000000E+00 0.  1.
         11    1    4    4    0    0 -0.17761752457E+02 -0.93095184843E+02 -0.67630298658E+02  0.11643045387E+03  0.00000000000E+00 0. -1.
</event>
<event>
 8    1  0.7281309E-009  0.1014928E+03  0.7561462E-02  0.1277188E+00
          1   -1    0    0  501    0  0.00000000000E+00  0.00000000000E+00  0.18833659701E+03  0.18833659701E+03  0.00000000000E+00 0. -1.
         -1   -1    0    0    0  501 -0.00000000000E+00 -0.00000000000E+00 -0.70241326432E+02  0.70241326432E+02  0.00000000000E+00 0.  1.
         25    2    1    2    0    0  0.26023709167E+02 -0.28266382955E+02  0.97394577925E+02  0.16312593930E+03  0.12509255142E+03 0.  0.
         23    2    1    2    0    0 -0.26023709167E+02  0.28266382955E+02  0.20700692654E+02  0.95451984141E+02  0.84890168783E+02 0.  0.
          5    1    3    3  502    0  0.66687117516E+02 -0.87154328818E+00  0.17140778182E+02  0.68987027092E+02  0.41800000000E+01 0. -1.
         -5    1    3    3    0  502 -0.40663408349E+02 -0.27394839667E+02  0.80253799744E+02  0.94138912211E+02  0.41800000000E+01 0. -1.
        -11    1    4    4    0    0 -0.53646043432E+02  0.12261892673E+02 -0.38726892245E+01  0.55165656977E+02  0.00000000000E+00 0.  1.
         11    1    4    4    0    0  0.27622334265E+02  0.16004490282E+02  0.24573381879E+02  0.40286327164E+02  0.00000000000E+00 0. -1.
</event>
<event>
 8    1  0.7281309E-009  0.1270285E+03  0.7561462E-02  0.1231933E+00
          2   -1    0    0  501    0  0.00000000000E+00  0.00000000000E+00  0.17606140643E+03  0.17606140643E+03  0.00000000000E+00 0. -1.
         -2   -1    0    0    0  501 -0.00000000000E+00 -0.00000000000E+00 -0.36218500520E+03  0.36218500520E+03  0.00000000000E+00 0.  1.
         25    2    1    2    0    0 -0.10527783445E+03  0.35215509081E+02  0.11689880041E+03  0.20404932688E+03  0.12508894339E+03 0.  0.
         23    2    1    2    0    0  0.10527783445E+03 -0.35215509081E+02 -0.30302239918E+03  0.33419708475E+03  0.86842170338E+02 0.  0.
          5    1    3    3  502    0 -0.11835474192E+03  0.30342560625E+02  0.44345767094E+02  0.13004820406E+03  0.41800000000E+01 0. -1.
         -5    1    3    3    0  502  0.13076907471E+02  0.48729484557E+01  0.72553033312E+02  0.74001122819E+02  0.41800000000E+01 0. -1.
        -11    1    4    4    0    0  0.60033506599E+02 -0.21626548474E+00 -0.24678046533E+03  0.25397768948E+03  0.00000000000E+00 0.  1.
         11    1    4    4    0    0  0.45244327855E+02 -0.34999243596E+02 -0.56241933844E+02  0.80219395272E+02  0.00000000000E+00 0. -1.
</event>
<event>
 8    1  0.7281309E-009  0.1219272E+03  0.7561462E-02  0.1239951E+00
         -2   -1    0    0    0  501 -0.00000000000E+00  0.00000000000E+00  0.29628941079E+02  0.29628941079E+02  0.00000000000E+00 0.  1.
          2   -1    0    0  501    0  0.00000000000E+00 -0.00000000000E+00 -0.76866320491E+03  0.76866320491E+03  0.00000000000E+00 0. -1.
         25    2    1    2    0    0 -0.32559055697E+00 -0.84068200631E+02 -0.22806216320E+03  0.27336340945E+03  0.12509050713E+03 0.  0.
         23    2    1    2    0    0  0.32559055697E+00  0.84068200631E+02 -0.51097210063E+03  0.52492873654E+03  0.85965821442E+02 0.  0.
          5    1    3    3  502    0 -0.31592390724E+02 -0.87294940399E+02 -0.22255693388E+03  0.24117949123E+03  0.41800000000E+01 0. -1.
         -5    1    3    3    0  502  0.31266800167E+02  0.32267397675E+01 -0.55052293224E+01  0.32183918222E+02  0.41800000000E+01 0. -1.
        -11    1    4    4    0    0 -0.42031128135E+02  0.38458944941E+02 -0.21021013521E+03  0.21779349651E+03  0.00000000000E+00 0.  1.
         11    1    4    4    0    0  0.42356718692E+02  0.45609255690E+02 -0.30076196542E+03  0.30713524002E+03  0.00000000000E+00 0. -1.
</event>
<event>
 8    1  0.7281309E-009  0.2284791E+03  0.7561462E-02  0.1127715E+00
         -1   -1    0    0    0  501 -0.00000000000E+00  0.00000000000E+00  0.27350976738E+03  0.27350976738E+03  0.00000000000E+00 0.  1.
          1   -1    0    0  501    0  0.00000000000E+00 -0.00000000000E+00 -0.28825579752E+03  0.28825579752E+03  0.00000000000E+00 0. -1.
         25    2    1    2    0    0  0.22116414990E+03  0.24591642361E+02 -0.13952310543E+03  0.29091923310E+03  0.12509585589E+03 0.  0.
         23    2    1    2    0    0 -0.22116414990E+03 -0.24591642361E+02  0.12477707529E+03  0.27084633180E+03  0.90940017921E+02 0.  0.
          5    1    3    3  502    0  0.17964456754E+03  0.40613398829E+02 -0.50052426654E+02  0.19090399845E+03  0.41800000000E+01 0.  1.
         -5    1    3    3    0  502  0.41519582355E+02 -0.16021756469E+02 -0.89470678779E+02  0.10001523464E+03  0.41800000000E+01 0.  1.
        -11    1    4    4    0    0 -0.74232691773E+02 -0.32176050248E+02  0.48809898271E+01  0.81053160328E+02  0.00000000000E+00 0.  1.
         11    1    4    4    0    0 -0.14693145812E+03  0.75844078878E+01  0.11989608546E+03  0.18979317147E+03  0.00000000000E+00 0. -1.
</event>
<event>
 8    1  0.7281309E-009  0.1096858E+03  0.7561462E-02  0.1261153E+00
          1   -1    0    0  501    0  0.00000000000E+00  0.00000000000E+00  0.38317070580E+02  0.38317070580E+02  0.00000000000E+00 0. -1.
         -1   -1    0    0    0  501 -0.00000000000E+00 -0.00000000000E+00 -0.44038027773E+03  0.44038027773E+03  0.00000000000E+00 0.  1.
         25    2    1    2    0    0  0.30014598797E+02  0.48763527535E+02 -0.12558305223E+03  0.18627140365E+03  0.12508866875E+03 0.  0.
         23    2    1    2    0    0 -0.30014598797E+02 -0.48763527535E+02 -0.27648015492E+03  0.29242594467E+03  0.76111098352E+02 0.  0.
          5    1    3    3  502    0  0.63215994078E+02 -0.72722790709E+01 -0.29859571087E+02  0.70414588941E+02  0.41800000000E+01 0.  1.
         -5    1    3    3    0  502 -0.33201395281E+02  0.56035806606E+02 -0.95723481148E+02  0.11585681471E+03  0.41800000000E+01 0.  1.
        -11    1    4    4    0    0  0.10253223645E+02 -0.49004542595E+02 -0.19782469535E+03  0.20406171586E+03  0.00000000000E+00 0.  1.
         11    1    4    4    0    0 -0.40267822443E+02  0.24101506053E+00 -0.78655459568E+02  0.88364228806E+02  0.00000000000E+00 0. -1.
</event>
<event>
 8    1  0.7281309E-009  0.2248694E+03  0.7561462E-02  0.1130304E+00
          1   -1    0    0  501    0  0.00000000000E+00  0.00000000000E+00  0.62531150457E+02  0.62531150457E+02  0.00000000000E+00 0. -1.
         -1   -1    0    0    0  501 -0.00000000000E+00 -0.00000000000E+00 -0.81024936928E+03  0.81024936928E+03  0.00000000000E+00 0.  1.
         25    2    1    2    0    0 -0.19640500276E+03  0.54823491876E+01 -0.39339872833E+03  0.45718115471E+03  0.12508823889E+03 0.  0.
         23    2    1    2    0    0  0.19640500276E+03 -0.54823491876E+01 -0.35431949049E+03  0.41559936502E+03  0.92604263423E+02 0.  0.
          5    1    3    3  502    0 -0.11620048935E+03  0.64426450567E+02 -0.23747353931E+03  0.27214789275E+03  0.41800000000E+01 0.  1.
         -5    1    3    3    0  502 -0.80204513418E+02 -0.58944101380E+02 -0.15592518902E+03  0.18503326196E+03  0.41800000000E+01 0.  1.
        -11    1    4    4    0    0  0.18658815853E+03  0.22114371849E+02 -0.30869730976E+03  0.36138375088E+03  0.00000000000E+00 0. -1.
         11    1    4    4    0    0  0.98168442354E+01 -0.27596721037E+02 -0.45622180725E+02  0.54215614142E+02  0.00000000000E+00 0.  1.
</event>
<event>
 8    1  0.7281309E-009  0.1826554E+03  0.7561462E-02  0.1165258E+00
         -2   -1    0    0    0  501 -0.00000000000E+00  0.00000000000E+00  0.21101972211E+02  0.21101972211E+02  0.00000000000E+00 0.  1.
          2   -1    0    0  501    0  0.00000000000E+00 -0.00000000000E+00 -0.16154032130E+04  0.16154032130E+04  0.00000000000E+00 0. -1.
         25    2    1    2    0    0  0.84198819634E+02 -0.12209632333E+03 -0.95530885938E+03  0.97481264070E+03  0.12509082408E+03 0.  0.
         23    2    1    2    0    0 -0.84198819634E+02  0.12209632333E+03 -0.63899238143E+03  0.66169254453E+03  0.86768695730E+02 0.  0.
          5    1    3    3  502    0 -0.12904311954E+02 -0.90672345815E+02 -0.43014251282E+03  0.43980455807E+03  0.41800000000E+01 0. -1.
         -5    1    3    3    0  502  0.97103131588E+02 -0.31423977519E+02 -0.52516634656E+03  0.53500808264E+03  0.41800000000E+01 0. -1.
        -11    1    4    4    0    0  0.14201892216E+02  0.42840572040E+02 -0.15024566391E+03  0.15687819441E+03  0.00000000000E+00 0.  1.
         11    1    4    4    0    0 -0.98400711850E+02  0.79255751294E+02 -0.48874671752E+03  0.50481435012E+03  0.00000000000E+00 0. -1.
</event>
<event>
 8    1  0.7281309E-009  0.8336753E+02  0.7561462E-02  0.1319758E+00
          1   -1    0    0  501    0  0.00000000000E+00  0.00000000000E+00  0.13970513859E+02  0.13970513859E+02  0.00000000000E+00 0. -1.
         -1   -1    0    0    0  501 -0.00000000000E+00 -0.00000000000E+00 -0.86901187387E+03  0.86901187387E+03  0.00000000000E+00 0.  1.
         25    2    1    2    0    0  0.53777277513E+01  0.17246614035E+02 -0.53612049069E+03  0.55081683598E+03  0.12509052966E+03 0.  0.
         23    2    1    2    0    0 -0.53777277513E+01 -0.17246614035E+02 -0.31892086932E+03  0.33216555175E+03  0.91088238693E+02 0.  0.
          5    1    3    3  502    0 -0.65806383001E+01 -0.28360324431E+02 -0.28370250865E+02  0.40865099247E+02  0.41800000000E+01 0. -1.
         -5    1    3    3    0  502  0.11958366051E+02  0.45606938467E+02 -0.50775023982E+03  0.50995173673E+03  0.41800000000E+01 0. -1.
        -11    1    4    4    0    0  0.38188198201E+02  0.88564921244E+01 -0.18085541439E+03  0.18505528052E+03  0.00000000000E+00 0.  1.
         11    1    4    4    0    0 -0.43565925952E+02 -0.26103106160E+02 -0.13806545493E+03  0.14711027123E+03  0.00000000000E+00 0. -1.
</event>
<event>
 7    1  0.7281309E-009  0.1180298E+03  0.7561462E-02  0.1246383E+00
          1   -1    0    0  501    0  0.00000000000E+00  0.00000000000E+00  0.37052445351E+03  0.37052445351E+03  0.00000000000E+00 0. -1.
         -1   -1    0    0    0  501 -0.00000000000E+00 -0.00000000000E+00 -0.41724149719E+02  0.41724149719E+02  0.00000000000E+00 0.  1.
         23    2    1    2    0    0  0.24044063808E+02  0.46941995394E+02  0.10633388176E+03  0.15159359218E+03  0.94297692680E+02 0.  0.
          5    1    1    2  502    0 -0.60991040629E+02 -0.63225297486E+02  0.18741194488E+03  0.20702187025E+03  0.41800000000E+01 0. -1.
         -5    1    1    2    0  502  0.36946976822E+02  0.16283302092E+02  0.35054477155E+02  0.53633140798E+02  0.41800000000E+01 0. -1.
        -11    1    3    3    0    0  0.26431582186E+02  0.74917141275E+02  0.71754439967E+02  0.10705095165E+03  0.00000000000E+00 0.  1.
         11    1    3    3    0    0 -0.23875183782E+01 -0.27975145882E+02  0.34579441795E+02  0.44542640536E+02  0.00000000000E+00 0. -1.
</event>
<event>
 8    1  0.7281309E-009  0.1094141E+03  0.7561462E-02  0.1261659E+00
          2   -1    0    0  501    0  0.00000000000E+00  0.00000000000E+00  0.60570543690E+03  0.60570543690E+03  0.00000000000E+00 0. -1.
         -2   -1    0    0    0  501 -0.00000000000E+00 -0.00000000000E+00 -0.25025309822E+02  0.25025309822E+02  0.00000000000E+00 0.  1.
         25    2    1    2    0    0  0.44689793031E+02  0.20516138054E+02  0.23932783696E+03  0.27448621627E+03  0.12508708908E+03 0.  0.
         23    2    1    2    0    0 -0.44689793031E+02 -0.20516138054E+02  0.34135229012E+03  0.35624453046E+03  0.89278720806E+02 0.  0.
          5    1    3    3  502    0 -0.28410516097E+01  0.58198039950E+02  0.18114956850E+03  0.19033581375E+03  0.41800000000E+01 0.  1.
         -5    1    3    3    0  502  0.47530844641E+02 -0.37681901896E+02  0.58178268463E+02  0.84150402519E+02  0.41800000000E+01 0.  1.
        -11    1    4    4    0    0 -0.40053458241E+02  0.29270918106E+02  0.13229526932E+03  0.14129085055E+03  0.00000000000E+00 0.  1.
         11    1    4    4    0    0 -0.46363347904E+01 -0.49787056160E+02  0.20905702080E+03  0.21495367991E+03  0.00000000000E+00 0. -1.
</event>
<event>
 8    1  0.7281309E-009  0.2546580E+03  0.7561462E-02  0.1110396E+00
          4   -1    0    0  501    0  0.00000000000E+00  0.00000000000E+00  0.12704155566E+04  0.12704155566E+04  0.00000000000E+00 0. -1.
         -4   -1    0    0    0  501 -0.00000000000E+00 -0.00000000000E+00 -0.81753666567E+02  0.81753666567E+02  0.00000000000E+00 0.  1.
         25    2    1    2    0    0 -0.46765550355E+02  0.22952351981E+03  0.10075556010E+04  0.10419612269E+04  0.12508735510E+03 0.  0.
         23    2    1    2    0    0  0.46765550355E+02 -0.22952351981E+03  0.18110628899E+03  0.31020799623E+03  0.92528104721E+02 0.  0.
          5    1    3    3  502    0 -0.26519688876E+02 -0.36578865371E+01  0.58650368069E+02  0.64606594916E+02  0.41800000000E+01 0.  1.
         -5    1    3    3    0  502 -0.20245861479E+02  0.23318140635E+03  0.94890523297E+03  0.97735463203E+03  0.41800000000E+01 0.  1.
        -11    1    4    4    0    0 -0.10883898065E+02 -0.14731892646E+03  0.81201445402E+02  0.16856749409E+03  0.00000000000E+00 0.  1.
         11    1    4    4    0    0  0.57649448419E+02 -0.82204593357E+02  0.99904843591E+02  0.14164050213E+03  0.00000000000E+00 0. -1.
</event>
<event>
 7    1  0.7281309E-009  0.1170941E+03  0.7561462E-02  0.1247969E+00
          2   -1    0    0  501    0  0.00000000000E+00  0.00000000000E+00  0.11798314614E+04  0.11798314614E+04  0.00000000000E+00 0. -1.
         -2   -1    0    0    0  501 -0.00000000000E+00 -0.00000000000E+00 -0.16425333762E+02  0.16425333762E+02  0.00000000000E+00 0.  1.
         23    2    1    2    0    0  0.53873751136E+02 -0.60727058385E+02  0.37727563757E+03  0.39612645698E+03  0.89381802002E+02 0.  0.
          5    1    1    2  502    0  0.41004991872E+01  0.59963769669E+02  0.64049245101E+03  0.64331992039E+03  0.41800000000E+01 0.  1.
         -5    1    1    2    0  502 -0.57974250323E+02  0.76328871621E+00  0.14563803906E+03  0.15681041780E+03  0.41800000000E+01 0.  1.
        -11    1    3    3    0    0  0.73625753480E+02 -0.30482732880E+02  0.30618724361E+03  0.31638675182E+03  0.00000000000E+00 0. -1.
         11    1    3    3    0    0 -0.19752002344E+02 -0.30244325505E+02  0.71088393967E+02  0.79739705158E+02  0.00000000000E+00 0.  1.
</event>
<event>
 8    1  0.7281309E-009  0.1026488E+03  0.7561462E-02  0.1274822E+00
         -1   -1    0    0    0  501 -0.00000000000E+00  0.00000000000E+00  0.19622787743E+03  0.19622787743E+03  0.00000000000E+00 0.  1.
          1   -1    0    0  501    0  0.00000000000E+00 -0.00000000000E+00 -0.74902604148E+02  0.74902604148E+02  0.00000000000E+00 0. -1.
         25    2    1    2    0    0 -0.21140693184E+02 -0.40049105734E+02  0.36290184430E+02  0.13786703897E+03  0.12505791926E+03 0.  0.
         23    2    1    2    0    0  0.21140693184E+02  0.40049105734E+02  0.85035088854E+02  0.13326344261E+03  0.92072357537E+02 0.  0.
          5    1    3    3  502    0  0.34815566453E+02  0.18896754969E+02 -0.13973845121E+02  0.42213170495E+02  0.41800000000E+01 0.  1.
         -5    1    3    3    0  502 -0.55956259637E+02 -0.58945860703E+02  0.50264029552E+02  0.95653868470E+02  0.41800000000E+01 0.  1.
        -11    1    4    4    0    0  0.40702738011E+02  0.13569496902E+01  0.34470227957E+01  0.40870969651E+02  0.00000000000E+00 0. -1.
         11    1    4    4    0    0 -0.19562044827E+02  0.38692156044E+02  0.81588066058E+02  0.92392472963E+02  0.00000000000E+00 0.  1.
</event>
<event>
 8    1  0.7281309E-009  0.1599349E+03  0.7561462E-02  0.1188770E+00
          2   -1    0    0  501    0  0.00000000000E+00  0.00000000000E+00  0.16884851719E+03  0.16884851719E+03  0.00000000000E+00 0. -1.
         -2   -1    0    0    0  501 -0.00000000000E+00 -0.00000000000E+00 -0.16796601065E+03  0.16796601065E+03  0.00000000000E+00 0.  1.
         25    2    1    2    0    0  0.59450987096E+02 -0.10432874073E+03 -0.47818164589E+02  0.17987013272E+03  0.12509109390E+03 0.  0.
         23    2    1    2    0    0 -0.59450987096E+02  0.10432874073E+03  0.48700671129E+02  0.15694439512E+03  0.88548753700E+02 0.  0.
          5    1    3    3  502    0  0.96939251482E+02 -0.59215847419E+02 -0.40216175673E+02  0.12057590244E+03  0.41800000000E+01 0. -1.
         -5    1    3    3    0  502 -0.37488264386E+02 -0.45112893306E+02 -0.76019889160E+01  0.59294230281E+02  0.41800000000E+01 0. -1.
        -11    1    4    4    0    0 -0.68442830180E+02  0.33872940112E+02  0.13053942258E+02  0.77473882589E+02  0.00000000000E+00 0.  1.
         11    1    4    4    0    0  0.89918430842E+01  0.70455800614E+02  0.35646728871E+02  0.79470512527E+02  0.00000000000E+00 0. -1.
</event>
<event>
 8    1  0.7281309E-009  0.2480535E+03  0.7561462E-02  0.1114541E+00
         -2   -1    0    0    0  501 -0.00000000000E+00  0.00000000000E+00  0.83763710324E+02  0.83763710324E+02  0.00000000000E+00 0.  1.
          2   -1    0    0  501    0  0.00000000000E+00 -0.00000000000E+00 -0.98209820398E+03  0.98209820398E+03  0.00000000000E+00 0. -1.
         25    2    1    2    0    0  0.43413074671E+02 -0.21895022821E+03 -0.19253197609E+03  0.32021942446E+03  0.12509204810E+03 0.  0.
         23    2    1    2    0    0 -0.43413074671E+02  0.21895022821E+03 -0.70580251756E+03  0.74564248984E+03  0.89451838307E+02 0.  0.
          5    1    3    3  502    0 -0.21329746057E+02 -0.17745590945E+03 -0.13822676697E+03  0.22598599375E+03  0.41800000000E+01 0. -1.
         -5    1    3    3    0  502  0.64742820728E+02 -0.41494318757E+02 -0.54305209123E+02  0.94233430707E+02  0.41800000000E+01 0. -1.
        -11    1    4    4    0    0 -0.19591076166E+02  0.21532730418E+03 -0.62656924431E+03  0.66282627898E+03  0.00000000000E+00 0. -1.
         11    1    4    4    0    0 -0.23821998505E+02  0.36229240250E+01 -0.79233273250E+02  0.82816210860E+02  0.00000000000E+00 0.  1.
</event>
<event>
 8    1  0.7281309E-009  0.1093552E+03  0.7561462E-02  0.1261769E+00
          1   -1    0    0  501    0  0.00000000000E+00  0.00000000000E+00  0.69267937207E+03  0.69267937207E+03  0.00000000000E+00 0. -1.
         -1   -1    0    0    0  501 -0.00000000000E+00 -0.00000000000E+00 -0.19658702277E+02  0.19658702277E+02  0.00000000000E+00 0.  1.
         25    2    1    2    0    0 -0.32353821231E+01 -0.38386571811E+02  0.32448149660E+03  0.34988463102E+03  0.12508803618E+03 0.  0.
         23    2    1    2    0    0  0.32353821231E+01  0.38386571811E+02  0.34853917319E+03  0.36245344333E+03  0.91700309368E+02 0.  0.
          5    1    3    3  502    0 -0.24775525784E+02  0.35287768526E+02  0.19099284677E+03  0.19584379797E+03  0.41800000000E+01 0.  1.
         -5    1    3    3    0  502  0.21540143661E+02 -0.73674340338E+02  0.13348864983E+03  0.15404083305E+03  0.41800000000E+01 0.  1.
        -11    1    4    4    0    0 -0.35358545340E+02 -0.98866520813E+01  0.15483117815E+03  0.15912468804E+03  0.00000000000E+00 0. -1.
         11    1    4    4    0    0  0.38593927464E+02  0.48273223893E+02  0.19370799505E+03  0.20332875529E+03  0.00000000000E+00 0.  1.
</event>
<event>
 8    1  0.7281309E-009  0.1186124E+03  0.7561462E-02  0.1245404E+00
          2   -1    0    0  501    0  0.00000000000E+00  0.00000000000E+00  0.36824667198E+03  0.36824667198E+03  0.00000000000E+00 0. -1.
         -2   -1    0    0    0  501 -0.00000000000E+00 -0.00000000000E+00 -0.45051912207E+02  0.45051912207E+02  0.00000000000E+00 0.  1.
         25    2    1    2    0    0  0.50161340951E+02 -0.26809808670E+02  0.22180138031E+03  0.26092234485E+03  0.12509872809E+03 0.  0.
         23    2    1    2    0    0 -0.50161340951E+02  0.26809808670E+02  0.10139337946E+03  0.15237623933E+03  0.98503679869E+02 0.  0.
          5    1    3    3  502    0 -0.35259037956E+02 -0.11152327384E+02  0.12676693759E+03  0.13211700507E+03  0.41800000000E+01 0.  1.
         -5    1    3    3    0  502  0.85420378906E+02 -0.15657481286E+02  0.95034442716E+02  0.12880533978E+03  0.41800000000E+01 0.  1.
        -11    1    4    4    0    0  0.26944361848E+02 -0.85070489710E+01  0.18421448231E+02  0.33730079640E+02  0.00000000000E+00 0.  1.
         11    1    4    4    0    0 -0.77105702799E+02  0.35316857641E+02  0.82971931233E+02  0.11864615969E+03  0.00000000000E+00 0. -1.
</event>
<event>
 8    1  0.7281309E-009  0.9413007E+02  0.7561462E-02  0.1293147E+00
          4   -1    0    0  501    0  0.00000000000E+00  0.00000000000E+00  0.66673841974E+02  0.66673841974E+02  0.00000000000E+00 0. -1.
         -4   -1    0    0    0  501 -0.00000000000E+00 -0.00000000000E+00 -0.20673548259E+03  0.20673548259E+03  0.00000000000E+00 0.  1.
         25    2    1    2    0    0  0.35276428954E+01  0.26267736835E+02 -0.36793890802E+02  0.13305622670E+03  0.12509089016E+03 0.  0.
         23    2    1    2    0    0 -0.35276428954E+01 -0.26267736835E+02 -0.10326774981E+03  0.14035309786E+03  0.91281573529E+02 0.  0.
          5    1    3    3  502    0 -0.48733458847E+02 -0.20720440997E+02  0.10418849910E+01  0.53130448997E+02  0.41800000000E+01 0. -1.
         -5    1    3    3    0  502  0.52261101742E+02  0.46988177832E+02 -0.37835775793E+02  0.79925777701E+02  0.41800000000E+01 0. -1.
        -11    1    4    4    0    0  0.27820138679E+02 -0.12256186122E+02  0.11627887520E+01  0.30422463609E+02  0.00000000000E+00 0. -1.
         11    1    4    4    0    0 -0.31347781574E+02 -0.14011550712E+02 -0.10443053856E+03  0.10993063425E+03  0.00000000000E+00 0.  1.
</event>
<event>
 8    1  0.7281309E-009  0.3457550E+03  0.7561462E-02  0.1064371E+00
          2   -1    0    0  501    0  0.00000000000E+00  0.00000000000E+00  0.36944588080E+03  0.36944588080E+03  0.00000000000E+00 0. -1.
         -2   -1    0    0    0  501 -0.00000000000E+00 -0.00000000000E+00 -0.40541130305E+03  0.40541130305E+03  0.00000000000E+00 0.  1.
         25    2    1    2    0    0 -0.17427690448E+03 -0.29234425429E+03  0.13067768609E+03  0.38543641888E+03  0.12508786076E+03 0.  0.
         23    2    1    2    0    0  0.17427690448E+03  0.29234425429E+03 -0.16664310834E+03  0.38942076496E+03  0.89671646456E+02 0.  0.
          5    1    3    3  502    0 -0.63997088857E+01 -0.45250148855E+02 -0.20900418926E+02  0.50426502521E+02  0.41800000000E+01 0.  1.
         -5    1    3    3    0  502 -0.16787719560E+03 -0.24709410543E+03  0.15157810502E+03  0.33500991636E+03  0.41800000000E+01 0.  1.
        -11    1    4    4    0    0  0.76003329683E+02  0.68183607897E+02 -0.19842362601E+02  0.10401552703E+03  0.00000000000E+00 0.  1.
         11    1    4    4    0    0  0.98273574800E+02  0.22416064639E+03 -0.14680074574E+03  0.28540523794E+03  0.00000000000E+00 0. -1.
</event>
<event>
 8    1  0.7281309E-009  0.8577761E+02  0.7561462E-02  0.1313411E+00
          1   -1    0    0  501    0  0.00000000000E+00  0.00000000000E+00  0.29240073060E+03  0.29240073060E+03  0.00000000000E+00 0. -1.
         -1   -1    0    0    0  501 -0.00000000000E+00 -0.00000000000E+00 -0.40579946589E+02  0.40579946589E+02  0.00000000000E+00 0.  1.
         25    2    1    2    0    0 -0.31939890449E+01 -0.84446535269E+01  0.16514701402E+03  0.20737144540E+03  0.12509143212E+03 0.  0.
         23    2    1    2    0    0  0.31939890449E+01  0.84446535269E+01  0.86673769990E+02  0.12560923178E+03  0.90464484554E+02 0.  0.
          5    1    3    3  502    0 -0.33107217863E+02 -0.34410650693E+02  0.12393255839E+02  0.49510059038E+02  0.41800000000E+01 0.  1.
         -5    1    3    3    0  502  0.29913228818E+02  0.25965997166E+02  0.15275375818E+03  0.15786138637E+03  0.41800000000E+01 0.  1.
        -11    1    4    4    0    0  0.28886552211E+02 -0.27316254657E+02  0.17114792697E+02  0.43284255754E+02  0.00000000000E+00 0.  1.
         11    1    4    4    0    0 -0.25692563166E+02  0.35760908183E+02  0.69558977293E+02  0.82324976029E+02  0.00000000000E+00 0. -1.
</event>
<event>
 8    1  0.7281309E-009  0.1121144E+03  0.7561462E-02  0.1256704E+00
          1   -1    0    0  501    0  0.00000000000E+00  0.00000000000E+00  0.17971208481E+02  0.17971208481E+02  0.00000000000E+00 0. -1.
         -1   -1    0    0    0  501 -0.00000000000E+00 -0.00000000000E+00 -0.10519852864E+04  0.10519852864E+04  0.00000000000E+00 0.  1.
         25    2    1    2    0    0  0.35798077855E+02 -0.30991354417E+02 -0.81424532672E+03  0.82515768546E+03  0.12509111621E+03 0.  0.
         23    2    1    2    0    0 -0.35798077855E+02  0.30991354417E+02 -0.21976875123E+03  0.24479880946E+03  0.96882334136E+02 0.  0.
          5    1    3    3  502    0  0.56224949092E+02 -0.63678333412E+02 -0.68390631040E+03  0.68917449811E+03  0.41800000000E+01 0.  1.
         -5    1    3    3    0  502 -0.20426871237E+02  0.32686978995E+02 -0.13033901632E+03  0.13598318735E+03  0.41800000000E+01 0.  1.
        -11    1    4    4    0    0 -0.64313548399E+02  0.32081154695E+02 -0.11012681487E+03  0.13150417616E+03  0.00000000000E+00 0. -1.
         11    1    4    4    0    0  0.28515470544E+02 -0.10898002789E+01 -0.10964193636E+03  0.11329463329E+03  0.00000000000E+00 0.  1.
</event>
<event>
 8    1  0.7281309E-009  0.1094507E+03  0.7561462E-02  0.1261590E+00
         -3   -1    0    0    0  501 -0.00000000000E+00  0.00000000000E+00  0.36533055966E+02  0.36533055966E+02  0.00000000000E+00 0.  1.
          3   -1    0    0  501    0  0.00000000000E+00 -0.00000000000E+00 -0.56000223758E+03  0.56000223758E+03  0.00000000000E+00 0. -1.
         25    2    1    2    0    0 -0.90716286960E+02 -0.45037232358E+01 -0.32129173399E+03  0.35653123676E+03  0.12504565653E+03 0.  0.
         23    2    1    2    0    0  0.90716286960E+02  0.45037232358E+01 -0.20217744762E+03  0.24000405678E+03  0.92067902660E+02 0.  0.
          5    1    3    3  502    0 -0.57681868126E+02 -0.45219532684E+02 -0.28056066130E+03  0.29000648461E+03  0.41800000000E+01 0. -1.
         -5    1    3    3    0  502 -0.33034418834E+02  0.40715809449E+02 -0.40731072686E+02  0.66524752153E+02  0.41800000000E+01 0. -1.
        -11    1    4    4    0    0  0.46477953806E+02 -0.74368287217E+01 -0.18296898255E+02  0.50500327694E+02  0.00000000000E+00 0.  1.
         11    1    4    4    0    0  0.44238333154E+02  0.11940551958E+02 -0.18388054937E+03  0.18950372908E+03  0.00000000000E+00 0. -1.
</event>
<event>
 8    1  0.7281309E-009  0.3123181E+03  0.7561462E-02  0.1079240E+00
          1   -1    0    0  501    0  0.00000000000E+00  0.00000000000E+00  0.40433631657E+03  0.40433631657E+03  0.00000000000E+00 0. -1.
         -1   -1    0    0    0  501 -0.00000000000E+00 -0.00000000000E+00 -0.26043667741E+03  0.26043667741E+03  0.00000000000E+00 0.  1.
         25    2    1    2    0    0  0.16196251890E+03 -0.25531370604E+03  0.27443263429E+02  0.32836605064E+03  0.12511668349E+03 0.  0.
         23    2    1    2    0    0 -0.16196251890E+03  0.25531370604E+03  0.11645637573E+03  0.33640694334E+03  0.90501922943E+02 0.  0.
          5    1    3    3  502    0  0.15443653350E+03 -0.19509936381E+03  0.64573335762E+02  0.25710230013E+03  0.41800000000E+01 0.  1.
         -5    1    3    3    0  502  0.75259853964E+01 -0.60214342232E+02 -0.37130072333E+02  0.71263750519E+02  0.41800000000E+01 0.  1.
        -11    1    4    4    0    0 -0.77539266644E+02  0.19871817124E+03  0.88942817030E+02  0.23111052368E+03  0.00000000000E+00 0.  1.
         11    1    4    4    0    0 -0.84423252254E+02  0.56595534795E+02  0.27513558700E+02  0.10529641966E+03  0.00000000000E+00 0. -1.
</event>
<event>
 8    1  0.7281309E-009  0.6521616E+02  0.7561462E-02  0.1377160E+00
         -1   -1    0    0    0  501 -0.00000000000E+00  0.00000000000E+00  0.44650998460E+02  0.44650998460E+02  0.00000000000E+00 0.  1.
          1   -1    0    0  501    0  0.00000000000E+00 -0.00000000000E+00 -0.27075951118E+03  0.27075951118E+03  0.00000000000E+00 0. -1.
         25    2    1    2    0    0 -0.97177054408E+01 -0.10339773059E+02 -0.12280609321E+03  0.17586720379E+03  0.12508633871E+03 0.  0.
         23    2    1    2    0    0  0.97177054408E+01  0.10339773059E+02 -0.10330241950E+03  0.13954330585E+03  0.92734026258E+02 0.  0.
          5    1    3    3  502    0  0.11400008532E+02 -0.34027976113E+02  0.11409018321E+02  0.37888011982E+02  0.41800000000E+01 0. -1.
         -5    1    3    3    0  502 -0.21117713973E+02  0.23688203053E+02 -0.13421511153E+03  0.13797919181E+03  0.41800000000E+01 0. -1.
        -11    1    4    4    0    0  0.34351471328E+02 -0.26348401144E+01 -0.20285135925E+01  0.34512038946E+02  0.00000000000E+00 0.  1.
         11    1    4    4    0    0 -0.24633765887E+02  0.12974613174E+02 -0.10127390591E+03  0.10503126690E+03  0.00000000000E+00 0. -1.
</event>
<event>
 8    1  0.7281309E-009  0.1125935E+03  0.7561462E-02  0.1255841E+00
         -1   -1    0    0    0  501 -0.00000000000E+00  0.00000000000E+00  0.74506983246E+02  0.74506983246E+02  0.00000000000E+00 0.  1.
          1   -1    0    0  501    0  0.00000000000E+00 -0.00000000000E+00 -0.18947549383E+03  0.18947549383E+03  0.00000000000E+00 0. -1.
         25    2    1    2    0    0 -0.29382530607E+02  0.13768050765E+02 -0.24663542863E+02  0.13156156589E+03  0.12508902008E+03 0.  0.
         23    2    1    2    0    0  0.29382530607E+02 -0.13768050765E+02 -0.90304967724E+02  0.13242091119E+03  0.91254688638E+02 0.  0.
          5    1    3    3  502    0  0.17645304551E+02 -0.48016907290E+02 -0.67828122408E+01  0.51773150380E+02  0.41800000000E+01 0.  1.
         -5    1    3    3    0  502 -0.47027835158E+02  0.61784958055E+02 -0.17880730623E+02  0.79788415507E+02  0.41800000000E+01 0.  1.
        -11    1    4    4    0    0 -0.17951880846E+02  0.27808620301E+02 -0.39147690942E+02  0.51265301082E+02  0.00000000000E+00 0. -1.
         11    1    4    4    0    0  0.47334411453E+02 -0.41576671066E+02 -0.51157276782E+02  0.81155610109E+02  0.00000000000E+00 0.  1.
</event>
<event>
 8    1  0.7281309E-009  0.1115060E+03  0.7561462E-02  0.1257806E+00
         -1   -1    0    0    0  501 -0.00000000000E+00  0.00000000000E+00  0.29460107876E+02  0.29460107876E+02  0.00000000000E+00 0.  1.
          1   -1    0    0  501    0  0.00000000000E+00 -0.00000000000E+00 -0.68224348698E+03  0.68224348698E+03  0.00000000000E+00 0. -1.
         25    2    1    2    0    0 -0.35397556726E+02 -0.33031291081E+02 -0.54573781353E+03  0.56198010495E+03  0.12509126281E+03 0.  0.
         23    2    1    2    0    0  0.35397556726E+02  0.33031291081E+02 -0.10704556558E+03  0.14972348991E+03  0.92813345529E+02 0.  0.
          5    1    3    3  502    0  0.24582877396E+02  0.35216912374E+02 -0.17037736939E+03  0.17575684675E+03  0.41800000000E+01 0. -1.
         -5    1    3    3    0  502 -0.59980434121E+02 -0.68248203455E+02 -0.37536044414E+03  0.38622325820E+03  0.41800000000E+01 0. -1.
        -11    1    4    4    0    0 -0.13186356545E+02  0.37851605038E+02 -0.89111719780E+02  0.97711425151E+02  0.00000000000E+00 0. -1.
         11    1    4    4    0    0  0.48583913271E+02 -0.48203139567E+01 -0.17933845797E+02  0.52012064759E+02  0.00000000000E+00 0.  1.
</event>
<event>
 8    1  0.7281309E-009  0.1048434E+03  0.7561462E-02  0.1270428E+00
         -1   -1    0    0    0  501 -0.00000000000E+00  0.00000000000E+00  0.52428615921E+03  0.52428615921E+03  0.00000000000E+00 0.  1.
          1   -1    0    0  501    0  0.00000000000E+00 -0.00000000000E+00 -0.22378606999E+02  0.22378606999E+02  0.00000000000E+00 0. -1.
         25    2    1    2    0    0 -0.73826073935E+00 -0.16469486719E+02  0.29158253060E+03  0.31770925018E+03  0.12508799493E+03 0.  0.
         23    2    1    2    0    0  0.73826073935E+00  0.16469486719E+02  0.21032502161E+03  0.22895551603E+03  0.88950686250E+02 0.  0.
          5    1    3    3  502    0  0.17888282036E+02  0.51693994032E+02  0.11313879396E+03  0.12573829469E+03  0.41800000000E+01 0.  1.
         -5    1    3    3    0  502 -0.18626542776E+02 -0.68163480751E+02  0.17844373664E+03  0.19197095549E+03  0.41800000000E+01 0.  1.
        -11    1    4    4    0    0  0.32864594039E+02 -0.17542782595E+02  0.13700746679E+03  0.14198195913E+03  0.00000000000E+00 0.  1.
         11    1    4    4    0    0 -0.32126333300E+02  0.34012269313E+02  0.73317554818E+02  0.86973556898E+02  0.00000000000E+00 0. -1.
</event>
<event>
 8    1  0.7281309E-009  0.1117280E+03  0.7561462E-02  0.1257403E+00
          2   -1    0    0  501    0  0.00000000000E+00  0.00000000000E+00  0.69527898693E+03  0.69527898693E+03  0.00000000000E+00 0. -1.
         -2   -1    0    0    0  501 -0.00000000000E+00 -0.00000000000E+00 -0.30559427755E+02  0.30559427755E+02  0.00000000000E+00 0.  1.
         25    2    1    2    0    0  0.84912099564E+02 -0.24677930579E+02  0.25614835125E+03  0.29846099699E+03  0.12509166225E+03 0.  0.
         23    2    1    2    0    0 -0.84912099564E+02  0.24677930579E+02  0.40857120792E+03  0.42737741769E+03  0.88892971049E+02 0.  0.
          5    1    3    3  502    0  0.14826664002E+02 -0.23550878679E+02  0.21549106538E+03  0.21732083543E+03  0.41800000000E+01 0. -1.
         -5    1    3    3    0  502  0.70085435562E+02 -0.11270519003E+01  0.40657285873E+02  0.81140161563E+02  0.41800000000E+01 0. -1.
        -11    1    4    4    0    0 -0.35823994236E+02  0.56280084288E+02  0.20338439333E+03  0.21404676568E+03  0.00000000000E+00 0.  1.
         11    1    4    4    0    0 -0.49088105328E+02 -0.31602153709E+02  0.20518681459E+03  0.21333065201E+03  0.00000000000E+00 0. -1.
</event>
<event>
 8    1  0.7281309E-009  0.5957184E+02  0.7561462E-02  0.1399637E+00
          2   -1    0    0  501    0  0.00000000000E+00  0.00000000000E+00  0.10157177398E+04  0.10157177398E+04  0.00000000000E+00 0. -1.
         -2   -1    0    0    0  501 -0.00000000000E+00 -0.00000000000E+00 -0.14830588616E+02  0.14830588616E+02  0.00000000000E+00 0.  1.
         25    2    1    2    0    0  0.21179873857E+02  0.19890084561E+02  0.76391075760E+03  0.77462947953E+03  0.12508789893E+03 0.  0.
         23    2    1    2    0    0 -0.21179873857E+02 -0.19890084561E+02  0.23697639354E+03  0.25591884884E+03  0.92154455006E+02 0.  0.
          5    1    3    3  502    0  0.11359282575E+02  0.33639150477E+02  0.55580953615E+02  0.66085857414E+02  0.41800000000E+01 0.  1.
         -5    1    3    3    0  502  0.98205912821E+01 -0.13749065916E+02  0.70832980398E+03  0.70854362212E+03  0.41800000000E+01 0.  1.
        -11    1    4    4    0    0 -0.10800790841E+02  0.21100097830E+02  0.11199164789E+02  0.26216264096E+02  0.00000000000E+00 0.  1.
         11    1    4    4    0    0 -0.10379083016E+02 -0.40990182391E+02  0.22577722875E+03  0.22970258475E+03  0.00000000000E+00 0. -1.
</event>
<event>
 8    1  0.7281309E-009  0.2553718E+03  0.7561462E-02  0.1109956E+00
         -1   -1    0    0    0  501 -0.00000000000E+00  0.00000000000E+00  0.12447342337E+03  0.12447342337E+03  0.00000000000E+00 0.  1.
          1   -1    0    0  501    0  0.00000000000E+00 -0.00000000000E+00 -0.60618129851E+03  0.60618129851E+03  0.00000000000E+00 0. -1.
         25    2    1    2    0    0  0.61918778148E+02 -0.24085539845E+03 -0.29627614252E+03  0.40653629824E+03  0.12508777363E+03 0.  0.
         23    2    1    2    0    0 -0.61918778148E+02  0.24085539845E+03 -0.18543173262E+03  0.32411842363E+03  0.93928520819E+02 0.  0.
          5    1    3    3  502    0  0.59626720957E+02 -0.14023721177E+03 -0.90128663167E+02  0.17709452205E+03  0.41800000000E+01 0. -1.
         -5    1    3    3    0  502  0.22920571905E+01 -0.10061818668E+03 -0.20614747935E+03  0.22944177619E+03  0.41800000000E+01 0. -1.
        -11    1    4    4    0    0  0.96658191145E+01  0.90792201333E+02 -0.10585737857E+03  0.13979426483E+03  0.00000000000E+00 0.  1.
         11    1    4    4    0    0 -0.71584597262E+02  0.15006319712E+03 -0.79574354055E+02  0.18432415880E+03  0.00000000000E+00 0. -1.
</event>
<event>
 8    1  0.7281309E-009  0.1504998E+03  0.7561462E-02  0.1199860E+00
          1   -1    0    0  501    0  0.00000000000E+00  0.00000000000E+00  0.12150741447E+03  0.12150741447E+03  0.00000000000E+00 0.  1.
         -1   -1    0    0    0  501 -0.00000000000E+00 -0.00000000000E+00 -0.23687906178E+03  0.23687906178E+03  0.00000000000E+00 0. -1.
         25    2    1    2    0    0  0.10833817547E+03  0.53662648248E+02 -0.56919406581E+01  0.17405895927E+03  0.12508910037E+03 0.  0.
         23    2    1    2    0    0 -0.10833817547E+03 -0.53662648248E+02 -0.10967970665E+03  0.18432751698E+03  0.85616326618E+02 0.  0.
          5    1    3    3  502    0  0.32981166212E+02  0.85149576937E+02  0.52105408817E+01  0.91557795482E+02  0.41800000000E+01 0.  1.
         -5    1    3    3    0  502  0.75357009258E+02 -0.31486928689E+02 -0.10902481540E+02  0.82501163787E+02  0.41800000000E+01 0.  1.
        -11    1    4    4    0    0 -0.60650537858E+02 -0.69319664614E+01 -0.64468204868E+01  0.61384862921E+02  0.00000000000E+00 0.  1.
         11    1    4    4    0    0 -0.47687637611E+02 -0.46730681787E+02 -0.10323288616E+03  0.12294265406E+03  0.00000000000E+00 0. -1.
</event>
<event>
 8    1  0.7281309E-009  0.1480418E+03  0.7561462E-02  0.1202900E+00
          2   -1    0    0  501    0  0.00000000000E+00  0.00000000000E+00  0.23731521914E+03  0.23731521914E+03  0.00000000000E+00 0. -1.
         -2   -1    0    0    0  501 -0.00000000000E+00 -0.00000000000E+00 -0.11061609451E+03  0.11061609451E+03  0.00000000000E+00 0.  1.
         25    2    1    2    0    0 -0.11492358742E+03 -0.13673219515E+02  0.10289414531E+03  0.19907227359E+03  0.12509267402E+03 0.  0.
         23    2    1    2    0    0  0.11492358742E+03  0.13673219515E+02  0.23804979320E+02  0.14885904006E+03  0.90542525309E+02 0.  0.
          5    1    3    3  502    0  0.13638729145E+00 -0.41831459056E+02 -0.11037609977E+00  0.42040149276E+02  0.41800000000E+01 0.  1.
         -5    1    3    3    0  502 -0.11505997471E+03  0.28158239541E+02  0.10300452141E+03  0.15703212431E+03  0.41800000000E+01 0.  1.
        -11    1    4    4    0    0 -0.19247732675E+01  0.18467734969E+02 -0.16823689720E+02  0.25055907942E+02  0.00000000000E+00 0.  1.
         11    1    4    4    0    0  0.11684836069E+03 -0.47945154537E+01  0.40628669040E+02  0.12380313212E+03  0.00000000000E+00 0. -1.
</event>
<event>
 8    1  0.7281309E-009  0.2540531E+03  0.7561462E-02  0.1110770E+00
         -1   -1    0    0    0  501 -0.00000000000E+00  0.00000000000E+00  0.49428027336E+02  0.49428027336E+02  0.00000000000E+00 0.  1.
          1   -1    0    0  501    0  0.00000000000E+00 -0.00000000000E+00 -0.13343474246E+04  0.13343474246E+04  0.00000000000E+00 0. -1.
         25    2    1    2    0    0 -0.22977157534E+03 -0.30270233345E+02 -0.62871779762E+03  0.68164737881E+03  0.12508323684E+03 0.  0.
         23    2    1    2    0    0  0.22977157534E+03  0.30270233345E+02 -0.65620159964E+03  0.70212807312E+03  0.93123723264E+02 0.  0.
          5    1    3    3  502    0 -0.15328883246E+03  0.40974105268E+02 -0.37447599428E+03  0.40672605787E+03  0.41800000000E+01 0.  1.
         -5    1    3    3    0  502 -0.76482742881E+02 -0.71244338613E+02 -0.25424180334E+03  0.27492132095E+03  0.41800000000E+01 0.  1.
        -11    1    4    4    0    0  0.10096127916E+03 -0.25926948808E+02 -0.35048066262E+03  0.36565295217E+03  0.00000000000E+00 0.  1.
         11    1    4    4    0    0  0.12881029617E+03  0.56197182152E+02 -0.30572093702E+03  0.33647512095E+03  0.00000000000E+00 0. -1.
</event>
<event>
 8    1  0.7281309E-009  0.9059421E+02  0.7561462E-02  0.1301419E+00
         -1   -1    0    0    0  501 -0.00000000000E+00  0.00000000000E+00  0.31193880123E+02  0.31193880123E+02  0.00000000000E+00 0.  1.
          1   -1    0    0  501    0  0.00000000000E+00 -0.00000000000E+00 -0.44789024947E+03  0.44789024947E+03  0.00000000000E+00 0. -1.
         25    2    1    2    0    0  0.43111485269E+02 -0.20815093232E+02 -0.16493414224E+03  0.21246641405E+03  0.12508731971E+03 0.  0.
         23    2    1    2    0    0 -0.43111485269E+02  0.20815093232E+02 -0.25176222711E+03  0.26661771555E+03  0.73545353191E+02 0.  0.
          5    1    3    3  502    0 -0.60692492011E+01  0.31295956586E+02 -0.12754691656E+03  0.13153691880E+03  0.41800000000E+01 0.  1.
         -5    1    3    3    0  502  0.49180734470E+02 -0.52111049818E+02 -0.37387225678E+02  0.80929495242E+02  0.41800000000E+01 0.  1.
        -11    1    4    4    0    0 -0.15064519790E+02 -0.21646370466E+02 -0.15561615500E+03  0.15783501768E+03  0.00000000000E+00 0. -1.
         11    1    4    4    0    0 -0.28046965479E+02  0.42461463698E+02 -0.96146072116E+02  0.10878269787E+03  0.00000000000E+00 0.  1.
</event>
<event>
 8    1  0.7281309E-009  0.2264795E+03  0.7561462E-02  0.1129142E+00
          2   -1    0    0  501    0  0.00000000000E+00  0.00000000000E+00  0.50621525921E+03  0.50621525921E+03  0.00000000000E+00 0. -1.
         -2   -1    0    0    0  501 -0.00000000000E+00 -0.00000000000E+00 -0.12896309321E+03  0.12896309321E+03  0.00000000000E+00 0.  1.
         25    2    1    2    0    0  0.19145262640E+03  0.11659496194E+03  0.26658975229E+03  0.37008858944E+03  0.12508786792E+03 0.  0.
         23    2    1    2    0    0 -0.19145262640E+03 -0.11659496194E+03  0.11066241371E+03  0.26508976299E+03  0.88192512880E+02 0.  0.
          5    1    3    3  502    0  0.10962289188E+03  0.88229891465E+02  0.74368784268E+02  0.15921645846E+03  0.41800000000E+01 0.  1.
         -5    1    3    3    0  502  0.81829734525E+02  0.28365070476E+02  0.19222096802E+03  0.21087213098E+03  0.41800000000E+01 0.  1.
        -11    1    4    4    0    0 -0.50675307912E+02 -0.18760133091E+02 -0.10647605573E+02  0.55075411301E+02  0.00000000000E+00 0.  1.
         11    1    4    4    0    0 -0.14077731849E+03 -0.97834828851E+02  0.12131001928E+03  0.21001435169E+03  0.00000000000E+00 0. -1.
</event>
<event>
 8    1  0.7281309E-009  0.8315104E+02  0.7561462E-02  0.1320340E+00
         -2   -1    0    0    0  501 -0.00000000000E+00  0.00000000000E+00  0.68943543304E+02  0.68943543304E+02  0.00000000000E+00 0.  1.
          2   -1    0    0  501    0  0.00000000000E+00 -0.00000000000E+00 -0.17217241759E+03  0.17217241759E+03  0.00000000000E+00 0. -1.
         25    2    1    2    0    0 -0.14072655208E+02 -0.47517223278E+02 -0.76863731290E+02  0.15495007861E+03  0.12508224311E+03 0.  0.
         23    2    1    2    0    0  0.14072655208E+02  0.47517223278E+02 -0.26365142993E+02  0.86165882277E+02  0.65372106979E+02 0.  0.
          5    1    3    3  502    0 -0.15474468263E+02  0.25135917034E+02 -0.76563430529E+02  0.82162672714E+02  0.41800000000E+01 0. -1.
         -5    1    3    3    0  502  0.14018130550E+01 -0.72653140312E+02 -0.30030076059E+00  0.72787405899E+02  0.41800000000E+01 0. -1.
        -11    1    4    4    0    0  0.26673951988E+02  0.19684116710E+02  0.13623893025E+02  0.35840962968E+02  0.00000000000E+00 0.  1.
         11    1    4    4    0    0 -0.12601296781E+02  0.27833106568E+02 -0.39989036018E+02  0.50324919309E+02  0.00000000000E+00 0. -1.
</event>
<event>
 8    1  0.7281309E-009  0.1078229E+03  0.7561462E-02  0.1264655E+00
         -1   -1    0    0    0  501 -0.00000000000E+00  0.00000000000E+00  0.74289928682E+02  0.74289928682E+02  0.00000000000E+00 0.  1.
          1   -1    0    0  501    0  0.00000000000E+00 -0.00000000000E+00 -0.23636306991E+03  0.23636306991E+03  0.00000000000E+00 0. -1.
         25    2    1    2    0    0  0.30819314884E+02 -0.64584129767E+02 -0.12842061487E+03  0.19303063647E+03  0.12509209529E+03 0.  0.
         23    2    1    2    0    0 -0.30819314884E+02  0.64584129767E+02 -0.33652526355E+02  0.11762236212E+03  0.87072312211E+02 0.  0.
          5    1    3    3  502    0  0.18973918779E+02  0.19060923246E+02 -0.10025117298E+03  0.10388021213E+03  0.41800000000E+01 0. -1.
         -5    1    3    3    0  502  0.11845396105E+02 -0.83645053013E+02 -0.28169441889E+02  0.89150424333E+02  0.41800000000E+01 0. -1.
        -11    1    4    4    0    0  0.54629842909E+01  0.67243965445E+02 -0.43072743390E+02  0.80042840462E+02  0.00000000000E+00 0. -1.
         11    1    4    4    0    0 -0.36282299175E+02 -0.26598356786E+01  0.94202170343E+01  0.37579521661E+02  0.00000000000E+00 0.  1.
</event>
<event>
 8    1  0.7281309E-009  0.1883125E+03  0.7561462E-02  0.1159992E+00
         -1   -1    0    0    0  501 -0.00000000000E+00  0.00000000000E+00  0.88266113220E+02  0.88266113220E+02  0.00000000000E+00 0.  1.
          1   -1    0    0  501    0  0.00000000000E+00 -0.00000000000E+00 -0.40547286131E+03  0.40547286131E+03  0.00000000000E+00 0. -1.
         25    2    1    2    0    0  0.13158206976E+03 -0.59297468778E+02 -0.15275733802E+03  0.24457397222E+03  0.12510632550E+03 0.  0.
         23    2    1    2    0    0 -0.13158206976E+03  0.59297468778E+02 -0.16444941006E+03  0.24916500231E+03  0.11920385488E+03 0.  0.
          5    1    3    3  502    0  0.97111147377E+02 -0.97653883341E+02 -0.96960358710E+02  0.16848038295E+03  0.41800000000E+01 0. -1.
         -5    1    3    3    0  502  0.34470922386E+02  0.38356414563E+02 -0.55796979314E+02  0.76093589275E+02  0.41800000000E+01 0. -1.
        -11    1    4    4    0    0 -0.17541467003E+02  0.70371972327E+02 -0.60075736955E+02  0.94175430578E+02  0.00000000000E+00 0. -1.
         11    1    4    4    0    0 -0.11404060276E+03 -0.11074503549E+02 -0.10437367311E+03  0.15498957173E+03  0.00000000000E+00 0.  1.
</event>
<event>
 8    1  0.7281309E-009  0.8572211E+02  0.7561462E-02  0.1313555E+00
         -2   -1    0    0    0  501 -0.00000000000E+00  0.00000000000E+00  0.21968732209E+03  0.21968732209E+03  0.00000000000E+00 0.  1.
          2   -1    0    0  501    0  0.00000000000E+00 -0.00000000000E+00 -0.57798780132E+02  0.57798780132E+02  0.00000000000E+00 0. -1.
         25    2    1    2    0    0  0.82924713544E+01  0.82554023858E+00  0.12139782292E+03  0.17450717036E+03  0.12508347013E+03 0.  0.
         23    2    1    2    0    0 -0.82924713544E+01 -0.82554023858E+00  0.40490719036E+02  0.10297893186E+03  0.94317100678E+02 0.  0.
          5    1    3    3  502    0 -0.29736763259E+02 -0.47064288245E+02  0.89302486140E+02  0.10531727659E+03  0.41800000000E+01 0.  1.
         -5    1    3    3    0  502  0.38029234613E+02  0.47889828484E+02  0.32095336776E+02  0.69189893773E+02  0.41800000000E+01 0.  1.
        -11    1    4    4    0    0  0.49016420600E+01  0.24916523693E+02 -0.22331838169E+02  0.33816715450E+02  0.00000000000E+00 0. -1.
         11    1    4    4    0    0 -0.13194113414E+02 -0.25742063932E+02  0.62822557206E+02  0.69162216406E+02  0.00000000000E+00 0.  1.
</event>
<event>
 8    1  0.7281309E-009  0.8956744E+02  0.7561462E-02  0.1303903E+00
          1   -1    0    0  501    0  0.00000000000E+00  0.00000000000E+00  0.85202784425E+03  0.85202784425E+03  0.00000000000E+00 0. -1.
         -1   -1    0    0    0  501 -0.00000000000E+00 -0.00000000000E+00 -0.16163961758E+02  0.16163961758E+02  0.00000000000E+00 0.  1.
         25    2    1    2    0    0  0.26670964236E+02 -0.10813079611E+02  0.60670959154E+03  0.62013839705E+03  0.12508732953E+03 0.  0.
         23    2    1    2    0    0 -0.26670964236E+02  0.10813079611E+02  0.22915429096E+03  0.24805340896E+03  0.90501611083E+02 0.  0.
          5    1    3    3  502    0  0.66792498018E+02  0.16180541601E+02  0.47109027262E+03  0.47609512188E+03  0.41800000000E+01 0. -1.
         -5    1    3    3    0  502 -0.40121533782E+02 -0.26993621212E+02  0.13561931891E+03  0.14404327517E+03  0.41800000000E+01 0. -1.
        -11    1    4    4    0    0 -0.37111045155E+02  0.24546902059E+02  0.22621988956E+03  0.23055415526E+03  0.00000000000E+00 0. -1.
         11    1    4    4    0    0  0.10440080919E+02 -0.13733822448E+02  0.29344013966E+01  0.17499253704E+02  0.00000000000E+00 0.  1.
</event>
<event>
 8    1  0.7281309E-009  0.1332369E+03  0.7561462E-02  0.1222730E+00
          2   -1    0    0  501    0  0.00000000000E+00  0.00000000000E+00  0.62443562877E+03  0.62443562877E+03  0.00000000000E+00 0. -1.
         -2   -1    0    0    0  501 -0.00000000000E+00 -0.00000000000E+00 -0.43759169999E+02  0.43759169999E+02  0.00000000000E+00 0.  1.
         25    2    1    2    0    0  0.93120850212E+02 -0.59799143741E+02  0.19566064636E+03  0.25725207992E+03  0.12509242084E+03 0.  0.
         23    2    1    2    0    0 -0.93120850212E+02  0.59799143741E+02  0.38501581241E+03  0.41094271885E+03  0.91593187693E+02 0.  0.
          5    1    3    3  502    0  0.32780865151E+02 -0.62219441834E+02  0.18205202135E+03  0.19520823482E+03  0.41800000000E+01 0.  1.
         -5    1    3    3    0  502  0.60339985062E+02  0.24202980933E+01  0.13608625003E+02  0.62043845098E+02  0.41800000000E+01 0.  1.
        -11    1    4    4    0    0 -0.52302780114E+02  0.75423384672E+02  0.18892670664E+03  0.21004182499E+03  0.00000000000E+00 0. -1.
         11    1    4    4    0    0 -0.40818070099E+02 -0.15624240931E+02  0.19608910578E+03  0.20090089387E+03  0.00000000000E+00 0.  1.
</event>
<event>
 8    1  0.7281309E-009  0.1158557E+03  0.7561462E-02  0.1250095E+00
          2   -1    0    0  501    0  0.00000000000E+00  0.00000000000E+00  0.26903996135E+03  0.26903996135E+03  0.00000000000E+00 0. -1.
         -2   -1    0    0    0  501 -0.00000000000E+00 -0.00000000000E+00 -0.66573729562E+02  0.66573729562E+02  0.00000000000E+00 0.  1.
         25    2    1    2    0    0  0.13344275617E+02  0.74456824457E+02  0.14205946889E+03  0.20383958410E+03  0.12509114655E+03 0.  0.
         23    2    1    2    0    0 -0.13344275617E+02 -0.74456824457E+02  0.60406762893E+02  0.13177410681E+03  0.89406654241E+02 0.  0.
          5    1    3    3  502    0  0.37288147780E+02 -0.14779006652E+02  0.82252568030E+01  0.41157651196E+02  0.41800000000E+01 0.  1.
         -5    1    3    3    0  502 -0.23943872163E+02  0.89235831109E+02  0.13383421209E+03  0.16268193290E+03  0.41800000000E+01 0.  1.
        -11    1    4    4    0    0  0.17822179490E+02 -0.63352430705E+02  0.71215162010E+02  0.96967828986E+02  0.00000000000E+00 0. -1.
         11    1    4    4    0    0 -0.31166455107E+02 -0.11104393752E+02 -0.10808399117E+02  0.34806277825E+02  0.00000000000E+00 0.  1.
</event>
<event>
 8    1  0.7281309E-009  0.1162782E+03  0.7561462E-02  0.1249366E+00
          1   -1    0    0  501    0  0.00000000000E+00  0.00000000000E+00  0.56265284717E+02  0.56265284717E+02  0.00000000000E+00 0. -1.
         -1   -1    0    0    0  501 -0.00000000000E+00 -0.00000000000E+00 -0.27691873727E+03  0.27691873727E+03  0.00000000000E+00 0.  1.
         25    2    1    2    0    0  0.38015779229E+02 -0.23351322551E+02 -0.67034837255E+02  0.14876100748E+03  0.12508270945E+03 0.  0.
         23    2    1    2    0    0 -0.38015779229E+02  0.23351322551E+02 -0.15361861530E+03  0.18442301451E+03  0.91775190438E+02 0.  0.
          5    1    3    3  502    0 -0.45133292020E+02 -0.11751815886E+02 -0.12165791037E+02  0.48379728159E+02  0.41800000000E+01 0. -1.
         -5    1    3    3    0  502  0.83149071249E+02 -0.11599506665E+02 -0.54869046218E+02  0.10038127932E+03  0.41800000000E+01 0. -1.
        -11    1    4    4    0    0 -0.52403132130E+02  0.49334800175E+02 -0.11566954470E+03  0.13623308826E+03  0.00000000000E+00 0.  1.
         11    1    4    4    0    0  0.14387352901E+02 -0.25983477624E+02 -0.37949070601E+02  0.48189926255E+02  0.00000000000E+00 0. -1.
</event>
<event>
 8    1  0.7281309E-009  0.1013034E+03  0.7561462E-02  0.1277579E+00
         -1   -1    0    0    0  501 -0.00000000000E+00  0.00000000000E+00  0.12368545555E+03  0.12368545555E+03  0.00000000000E+00 0.  1.
          1   -1    0    0  501    0  0.00000000000E+00 -0.00000000000E+00 -0.16583465693E+03  0.16583465693E+03  0.00000000000E+00 0. -1.
         25    2    1    2    0    0 -0.90999383836E+02 -0.19805709042E+02 -0.17075712717E+02  0.15688054773E+03  0.12508705897E+03 0.  0.
         23    2    1    2    0    0  0.90999383836E+02  0.19805709042E+02 -0.25073488659E+02  0.13263956475E+03  0.91057236584E+02 0.  0.
          5    1    3    3  502    0 -0.90827788821E+01 -0.15312926593E+01  0.48966651773E+02  0.50000471151E+02  0.41800000000E+01 0.  1.
         -5    1    3    3    0  502 -0.81916604954E+02 -0.18274416382E+02 -0.66042364491E+02  0.10688007658E+03  0.41800000000E+01 0.  1.
        -11    1    4    4    0    0  0.92917263448E+02  0.30343670994E+02 -0.46832939735E+02  0.10838671718E+03  0.00000000000E+00 0. -1.
         11    1    4    4    0    0 -0.19178796126E+01 -0.10537961952E+02  0.21759451075E+02  0.24252847573E+02  0.00000000000E+00 0.  1.
</event>
<event>
 8    1  0.7281309E-009  0.1125957E+03  0.7561462E-02  0.1255837E+00
          1   -1    0    0  501    0  0.00000000000E+00  0.00000000000E+00  0.42064565330E+03  0.42064565330E+03  0.00000000000E+00 0. -1.
         -1   -1    0    0    0  501 -0.00000000000E+00 -0.00000000000E+00 -0.34561100013E+02  0.34561100013E+02  0.00000000000E+00 0.  1.
         25    2    1    2    0    0  0.20920947290E+02  0.34106532446E+02  0.15272074568E+03  0.20142865370E+03  0.12509570249E+03 0.  0.
         23    2    1    2    0    0 -0.20920947290E+02 -0.34106532446E+02  0.23336380761E+03  0.25377809961E+03  0.91343940952E+02 0.  0.
          5    1    3    3  502    0  0.31795390008E+02 -0.42783977280E+02  0.66145913402E+02  0.85053922881E+02  0.41800000000E+01 0. -1.
         -5    1    3    3    0  502 -0.10874442719E+02  0.76890509726E+02  0.86574832276E+02  0.11637473082E+03  0.41800000000E+01 0. -1.
        -11    1    4    4    0    0  0.19809996570E+02 -0.47185674801E+02  0.83559494197E+02  0.97985269000E+02  0.00000000000E+00 0.  1.
         11    1    4    4    0    0 -0.40730943860E+02  0.13079142355E+02  0.14980431342E+03  0.15579283061E+03  0.00000000000E+00 0. -1.
</event>
<event>
 8    1  0.7281309E-009  0.1350394E+03  0.7561462E-02  0.1220164E+00
          1   -1    0    0  501    0  0.00000000000E+00  0.00000000000E+00  0.24478372591E+03  0.24478372591E+03  0.00000000000E+00 0. -1.
         -1   -1    0    0    0  501 -0.00000000000E+00 -0.00000000000E+00 -0.75136050071E+02  0.75136050071E+02  0.00000000000E+00 0.  1.
         25    2    1    2    0    0  0.64092450308E+01 -0.76051332151E+02  0.10583308736E+03  0.18078504801E+03  0.12513076224E+03 0.  0.
         23    2    1    2    0    0 -0.64092450308E+01  0.76051332151E+02  0.63814588478E+02  0.13913472798E+03  0.97269148666E+02 0.  0.
          5    1    3    3  502    0  0.64588861737E+02 -0.26540755144E+02  0.53986011264E+02  0.88363423181E+02  0.41800000000E+01 0. -1.
         -5    1    3    3    0  502 -0.58179616706E+02 -0.49510577008E+02  0.51847076098E+02  0.92421624827E+02  0.41800000000E+01 0. -1.
        -11    1    4    4    0    0  0.18492874234E+02 -0.18309739917E+02  0.14509018500E+02  0.29795043063E+02  0.00000000000E+00 0. -1.
         11    1    4    4    0    0 -0.24902119265E+02  0.94361072069E+02  0.49305569979E+02  0.10933968491E+03  0.00000000000E+00 0.  1.
</event>
<event>
 8    1  0.7281309E-009  0.9795753E+02  0.7561462E-02  0.1284651E+00
          2   -1    0    0  501    0  0.00000000000E+00  0.00000000000E+00  0.44127534927E+02  0.44127534927E+02  0.00000000000E+00 0. -1.
         -2   -1    0    0    0  501 -0.00000000000E+00 -0.00000000000E+00 -0.36944483782E+03  0.36944483782E+03  0.00000000000E+00 0.  1.
         25    2    1    2    0    0 -0.55539881615E+02  0.44784191078E+01 -0.11681287716E+03  0.17999313650E+03  0.12509015241E+03 0.  0.
         23    2    1    2    0    0  0.55539881615E+02 -0.44784191078E+01 -0.20850442573E+03  0.23357923625E+03  0.89333248951E+02 0.  0.
          5    1    3    3  502    0 -0.23322643218E+02 -0.33921179096E+02  0.10852393576E+02  0.42776616560E+02  0.41800000000E+01 0. -1.
         -5    1    3    3    0  502 -0.32217238397E+02  0.38399598204E+02 -0.12766527074E+03  0.13721651994E+03  0.41800000000E+01 0. -1.
        -11    1    4    4    0    0  0.79546152684E+02 -0.81156793820E+01 -0.17277878052E+03  0.19038372214E+03  0.00000000000E+00 0.  1.
         11    1    4    4    0    0 -0.24006271069E+02  0.36372602742E+01 -0.35725645215E+02  0.43195514107E+02  0.00000000000E+00 0. -1.
</event>
<event>
 8    1  0.7281309E-009  0.1680358E+03  0.7561462E-02  0.1179912E+00
          1   -1    0    0  501    0  0.00000000000E+00  0.00000000000E+00  0.11090374999E+03  0.11090374999E+03  0.00000000000E+00 0. -1.
         -1   -1    0    0    0  501 -0.00000000000E+00 -0.00000000000E+00 -0.26250929311E+03  0.26250929311E+03  0.00000000000E+00 0.  1.
         25    2    1    2    0    0 -0.12797332987E+03 -0.38622962817E+01 -0.52164082094E+02  0.18644353081E+03  0.12509199906E+03 0.  0.
         23    2    1    2    0    0  0.12797332987E+03  0.38622962817E+01 -0.99441461030E+02  0.18696951229E+03  0.93149899974E+02 0.  0.
          5    1    3    3  502    0 -0.11191862273E+03 -0.55260325479E+02 -0.33534383852E+02  0.12931167382E+03  0.41800000000E+01 0. -1.
         -5    1    3    3    0  502 -0.16054707142E+02  0.51398029197E+02 -0.18629698242E+02  0.57131856992E+02  0.41800000000E+01 0. -1.
        -11    1    4    4    0    0  0.77316315447E+02  0.47135274697E+02 -0.46027977663E+02  0.10157815456E+03  0.00000000000E+00 0. -1.
         11    1    4    4    0    0  0.50657014421E+02 -0.43272978415E+02 -0.53413483367E+02  0.85391357738E+02  0.00000000000E+00 0.  1.
</event>
<event>
 8    1  0.7281309E-009  0.1035293E+03  0.7561462E-02  0.1273045E+00
          1   -1    0    0  501    0  0.00000000000E+00  0.00000000000E+00  0.72495665841E+03  0.72495665841E+03  0.00000000000E+00 0. -1.
         -1   -1    0    0    0  501 -0.00000000000E+00 -0.00000000000E+00 -0.23065117826E+02  0.23065117826E+02  0.00000000000E+00 0.  1.
         25    2    1    2    0    0  0.68825788617E+02  0.82304209438E+01  0.36988679219E+03  0.39657084061E+03  0.12508982205E+03 0.  0.
         23    2    1    2    0    0 -0.68825788617E+02 -0.82304209438E+01  0.33200474840E+03  0.35145093563E+03  0.92118826454E+02 0.  0.
          5    1    3    3  502    0  0.60148600625E+02 -0.26899168668E+02  0.77007017148E+02  0.10143457262E+03  0.41800000000E+01 0.  1.
         -5    1    3    3    0  502  0.86771879919E+01  0.35129589611E+02  0.29287977504E+03  0.29513626799E+03  0.41800000000E+01 0.  1.
        -11    1    4    4    0    0 -0.36772519602E+02 -0.43494442582E+02  0.10454817852E+03  0.11905589597E+03  0.00000000000E+00 0.  1.
         11    1    4    4    0    0 -0.32053269014E+02  0.35264021638E+02  0.22745656989E+03  0.23239503966E+03  0.00000000000E+00 0. -1.
</event>
<event>
 8    1  0.7281309E-009  0.1226636E+03  0.7561462E-02  0.1238767E+00
         -1   -1    0    0    0  501 -0.00000000000E+00  0.00000000000E+00  0.85806618498E+02  0.85806618498E+02  0.00000000000E+00 0.  1.
          1   -1    0    0  501    0  0.00000000000E+00 -0.00000000000E+00 -0.32177499244E+03  0.32177499244E+03  0.00000000000E+00 0. -1.
         25    2    1    2    0    0  0.10115935522E+03 -0.36263894391E+01 -0.21712156292E+03  0.27025071791E+03  0.12508921455E+03 0.  0.
         23    2    1    2    0    0 -0.10115935522E+03  0.36263894391E+01 -0.18846811021E+02  0.13733089303E+03  0.90874672183E+02 0.  0.
          5    1    3    3  502    0  0.72746581691E+01  0.14083713352E+02 -0.15577134309E+03  0.15663159120E+03  0.41800000000E+01 0. -1.
         -5    1    3    3    0  502  0.93884697053E+02 -0.17710102791E+02 -0.61350219826E+02  0.11361912671E+03  0.41800000000E+01 0. -1.
        -11    1    4    4    0    0 -0.11670644791E+03 -0.21229579677E+01 -0.25484215405E+02  0.11947529941E+03  0.00000000000E+00 0. -1.
         11    1    4    4    0    0  0.15547092685E+02  0.57493474068E+01  0.66374043834E+01  0.17855593619E+02  0.00000000000E+00 0.  1.
</event>
<event>
 8    1  0.7281309E-009  0.1292219E+03  0.7561462E-02  0.1228615E+00
          1   -1    0    0  501    0  0.00000000000E+00  0.00000000000E+00  0.40198729180E+03  0.40198729180E+03  0.00000000000E+00 0. -1.
         -1   -1    0    0    0  501 -0.00000000000E+00 -0.00000000000E+00 -0.57788421996E+02  0.57788421996E+02  0.00000000000E+00 0.  1.
         25    2    1    2    0    0 -0.20148294248E+02  0.10360505858E+03  0.15577428718E+03  0.22595166054E+03  0.12509421421E+03 0.  0.
         23    2    1    2    0    0  0.20148294248E+02 -0.10360505858E+03  0.18842458262E+03  0.23382405325E+03  0.89609723921E+02 0.  0.
          5    1    3    3  502    0 -0.41136456600E+02  0.10830493474E+03  0.16543106077E+03  0.20200761178E+03  0.41800000000E+01 0.  1.
         -5    1    3    3    0  502  0.20988162352E+02 -0.46998761621E+01 -0.96567735860E+01  0.23944048759E+02  0.41800000000E+01 0.  1.
        -11    1    4    4    0    0  0.37470278706E+02 -0.93070379817E+02  0.18851384843E+03  0.21354996707E+03  0.00000000000E+00 0. -1.
         11    1    4    4    0    0 -0.17321984458E+02 -0.10534678760E+02 -0.89265813685E-01  0.20274086182E+02  0.00000000000E+00 0.  1.
</event>
<event>
 7    1  0.7281309E-009  0.1189831E+03  0.7561462E-02  0.1244784E+00
          3   -1    0    0  501    0  0.00000000000E+00  0.00000000000E+00  0.90922659539E+02  0.90922659539E+02  0.00000000000E+00 0. -1.
         -3   -1    0    0    0  501 -0.00000000000E+00 -0.00000000000E+00 -0.21976705953E+03  0.21976705953E+03  0.00000000000E+00 0.  1.
         23    2    1    2    0    0 -0.11881483259E+02 -0.87033678430E+02 -0.35479193105E+02  0.13151666391E+03  0.91224058877E+02 0.  0.
          5    1    1    2  502    0  0.64322703598E+02  0.25891326292E+02 -0.26305080671E+02  0.74277861065E+02  0.41800000000E+01 0.  1.
         -5    1    1    2    0  502 -0.52441220338E+02  0.61142352137E+02 -0.67060126215E+02  0.10489519409E+03  0.41800000000E+01 0.  1.
        -11    1    3    3    0    0 -0.49160147503E+01 -0.38111543139E+02  0.30516695395E+02  0.49070618697E+02  0.00000000000E+00 0. -1.
         11    1    3    3    0    0 -0.69654685088E+01 -0.48922135290E+02 -0.65995888500E+02  0.82446045216E+02  0.00000000000E+00 0.  1.
</event>
<event>
 8    1  0.7281309E-009  0.1057324E+03  0.7561462E-02  0.1268683E+00
         -1   -1    0    0    0  501 -0.00000000000E+00  0.00000000000E+00  0.97293674796E+02  0.97293674796E+02  0.00000000000E+00 0.  1.
          1   -1    0    0  501    0  0.00000000000E+00 -0.00000000000E+00 -0.17455974118E+03  0.17455974118E+03  0.00000000000E+00 0. -1.
         25    2    1    2    0    0 -0.35000464936E+02  0.50583485952E+02 -0.13773028851E+01  0.13940385856E+03  0.12509123559E+03 0.  0.
         23    2    1    2    0    0  0.35000464936E+02 -0.50583485952E+02 -0.75888763503E+02  0.13244955742E+03  0.89443050247E+02 0.  0.
          5    1    3    3  502    0 -0.21771108340E+02  0.92324774700E+02 -0.62137887630E+01  0.95152134777E+02  0.41800000000E+01 0.  1.
         -5    1    3    3    0  502 -0.13229356596E+02 -0.41741288748E+02  0.48364858779E+01  0.44251723784E+02  0.41800000000E+01 0.  1.
        -11    1    4    4    0    0  0.10891228146E+02  0.49685754786E+01  0.17465193451E+02  0.21174007063E+02  0.00000000000E+00 0.  1.
         11    1    4    4    0    0  0.24109236790E+02 -0.55552061431E+02 -0.93353956955E+02  0.11127555036E+03  0.00000000000E+00 0. -1.
</event>
<event>
 8    1  0.7281309E-009  0.1075921E+03  0.7561462E-02  0.1265095E+00
          2   -1    0    0  501    0  0.00000000000E+00  0.00000000000E+00  0.33003708697E+03  0.33003708697E+03  0.00000000000E+00 0. -1.
         -2   -1    0    0    0  501 -0.00000000000E+00 -0.00000000000E+00 -0.46108703188E+02  0.46108703188E+02  0.00000000000E+00 0.  1.
         25    2    1    2    0    0 -0.34087034893E+02 -0.47108348786E+02  0.19237953231E+03  0.23672345761E+03  0.12508792290E+03 0.  0.
         23    2    1    2    0    0  0.34087034893E+02  0.47108348786E+02  0.91548851470E+02  0.13942233255E+03  0.87614337503E+02 0.  0.
          5    1    3    3  502    0 -0.59429115003E+02 -0.57760188998E+02  0.19172344124E+03  0.20891005113E+03  0.41800000000E+01 0. -1.
         -5    1    3    3    0  502  0.25342080110E+02  0.10651840212E+02  0.65609107364E+00  0.27813406475E+02  0.41800000000E+01 0. -1.
        -11    1    4    4    0    0 -0.18824857274E+02  0.47916108543E+02  0.53489993921E+02  0.74239532319E+02  0.00000000000E+00 0.  1.
         11    1    4    4    0    0  0.52911892167E+02 -0.80775975634E+00  0.38058857549E+02  0.65182800235E+02  0.00000000000E+00 0. -1.
</event>
<event>
 8    1  0.7281309E-009  0.1203340E+03  0.7561462E-02  0.1242547E+00
          2   -1    0    0  501    0  0.00000000000E+00  0.00000000000E+00  0.53736970986E+03  0.53736970986E+03  0.00000000000E+00 0.  1.
         -2   -1    0    0    0  501 -0.00000000000E+00 -0.00000000000E+00 -0.33461512197E+02  0.33461512197E+02  0.00000000000E+00 0. -1.
         25    2    1    2    0    0  0.46250380060E+02 -0.40050973146E+02  0.16923114659E+03  0.21915760703E+03  0.12509075760E+03 0.  0.
         23    2    1    2    0    0 -0.46250380060E+02  0.40050973146E+02  0.33467705107E+03  0.35167361503E+03  0.89008004624E+02 0.  0.
          5    1    3    3  502    0 -0.27732524959E+02  0.26918816649E+02  0.55999206908E+02  0.68169635504E+02  0.41800000000E+01 0.  1.
         -5    1    3    3    0  502  0.73982905019E+02 -0.66969789795E+02  0.11323193968E+03  0.15098797152E+03  0.41800000000E+01 0.  1.
        -11    1    4    4    0    0 -0.18172526806E+02  0.63051931026E+02  0.15416950138E+03  0.16755304203E+03  0.00000000000E+00 0. -1.
         11    1    4    4    0    0 -0.28077853254E+02 -0.23000957880E+02  0.18050754969E+03  0.18412057300E+03  0.00000000000E+00 0.  1.
</event>
<event>
 8    1  0.7281309E-009  0.1204858E+03  0.7561462E-02  0.1242298E+00
         -2   -1    0    0    0  501 -0.00000000000E+00  0.00000000000E+00  0.13192492273E+03  0.13192492273E+03  0.00000000000E+00 0.  1.
          2   -1    0    0  501    0  0.00000000000E+00 -0.00000000000E+00 -0.14119459795E+03  0.14119459795E+03  0.00000000000E+00 0. -1.
         25    2    1    2    0    0  0.74836810500E+02  0.30269409960E+02 -0.18617911383E+02  0.15003168404E+03  0.12508434837E+03 0.  0.
         23    2    1    2    0    0 -0.74836810500E+02 -0.30269409960E+02  0.93482361630E+01  0.12308783665E+03  0.92446961149E+02 0.  0.
          5    1    3    3  502    0 -0.14342036646E+02  0.54371347044E+02 -0.60968097877E+01  0.56714908834E+02  0.41800000000E+01 0.  1.
         -5    1    3    3    0  502  0.89178847145E+02 -0.24101937084E+02 -0.12521101595E+02  0.93316775204E+02  0.41800000000E+01 0.  1.
        -11    1    4    4    0    0 -0.30306760081E+02 -0.36174950160E+02 -0.35925508029E+02  0.59310781927E+02  0.00000000000E+00 0. -1.
         11    1    4    4    0    0 -0.44530050419E+02  0.59055401994E+01  0.45273744192E+02  0.63777054718E+02  0.00000000000E+00 0.  1.
</event>
<event>
 8    1  0.7281309E-009  0.1062527E+03  0.7561462E-02  0.1267671E+00
          2   -1    0    0  501    0  0.00000000000E+00  0.00000000000E+00  0.79117638372E+03  0.79117638372E+03  0.00000000000E+00 0. -1.
         -2   -1    0    0    0  501 -0.00000000000E+00 -0.00000000000E+00 -0.19889206005E+02  0.19889206005E+02  0.00000000000E+00 0.  1.
         25    2    1    2    0    0 -0.47865269735E+02  0.15864966470E+02  0.55550068165E+03  0.57164015386E+03  0.12509467212E+03 0.  0.
         23    2    1    2    0    0  0.47865269735E+02 -0.15864966470E+02  0.21578649607E+03  0.23942543586E+03  0.90652888780E+02 0.  0.
          5    1    3    3  502    0 -0.55188639105E+02  0.61809852235E+02  0.27386432111E+03  0.28615622044E+03  0.41800000000E+01 0. -1.
         -5    1    3    3    0  502  0.73233693694E+01 -0.45944885765E+02  0.28163636053E+03  0.28548393342E+03  0.41800000000E+01 0. -1.
        -11    1    4    4    0    0  0.18466573812E+02 -0.40472729753E+02  0.41049180474E+02  0.60531738944E+02  0.00000000000E+00 0.  1.
         11    1    4    4    0    0  0.29398695924E+02  0.24607763283E+02  0.17473731559E+03  0.17889369692E+03  0.00000000000E+00 0. -1.
</event>
<event>
 8    1  0.7281309E-009  0.9227340E+02  0.7561462E-02  0.1297438E+00
          1   -1    0    0  501    0  0.00000000000E+00  0.00000000000E+00  0.56792231410E+02  0.56792231410E+02  0.00000000000E+00 0. -1.
         -1   -1    0    0    0  501 -0.00000000000E+00 -0.00000000000E+00 -0.26286075233E+03  0.26286075233E+03  0.00000000000E+00 0.  1.
         25    2    1    2    0    0 -0.52042650154E+02  0.26586818270E+02 -0.10226788384E+03  0.17182198247E+03  0.12509507286E+03 0.  0.
         23    2    1    2    0    0  0.52042650154E+02 -0.26586818270E+02 -0.10380063708E+03  0.14783100128E+03  0.87545053193E+02 0.  0.
          5    1    3    3  502    0 -0.66883996842E+02  0.12378470831E+02 -0.12408245333E+03  0.14156490808E+03  0.41800000000E+01 0. -1.
         -5    1    3    3    0  502  0.14841346688E+02  0.14208347439E+02  0.21814569493E+02  0.30257074390E+02  0.41800000000E+01 0. -1.
        -11    1    4    4    0    0 -0.12428101095E+02 -0.28331264952E+02 -0.66457466781E+02  0.73305614802E+02  0.00000000000E+00 0. -1.
         11    1    4    4    0    0  0.64470751249E+02  0.17444466816E+01 -0.37343170301E+02  0.74525386473E+02  0.00000000000E+00 0.  1.
</event>
<event>
 8    1  0.7281309E-009  0.9783664E+02  0.7561462E-02  0.1284912E+00
         -2   -1    0    0    0  501 -0.00000000000E+00  0.00000000000E+00  0.90042349977E+02  0.90042349977E+02  0.00000000000E+00 0.  1.
          2   -1    0    0  501    0  0.00000000000E+00 -0.00000000000E+00 -0.27067741216E+03  0.27067741216E+03  0.00000000000E+00 0. -1.
         25    2    1    2    0    0  0.90908531641E+02  0.10198096415E+02 -0.16434131348E+03  0.22587939435E+03  0.12508025895E+03 0.  0.
         23    2    1    2    0    0 -0.90908531641E+02 -0.10198096415E+02 -0.16293748696E+02  0.13484036778E+03  0.97714258129E+02 0.  0.
          5    1    3    3  502    0  0.11392605442E+01  0.96753986270E+01 -0.12880479484E+03  0.12924031424E+03  0.41800000000E+01 0. -1.
         -5    1    3    3    0  502  0.89769271097E+02  0.52269778806E+00 -0.35536518648E+02  0.96639080107E+02  0.41800000000E+01 0. -1.
        -11    1    4    4    0    0 -0.22680687600E+02  0.88831805034E+01 -0.50575823362E+02  0.56135892214E+02  0.00000000000E+00 0. -1.
         11    1    4    4    0    0 -0.68227844041E+02 -0.19081276918E+02  0.34282074666E+02  0.78704475570E+02  0.00000000000E+00 0.  1.
</event>
<event>
 8    1  0.7281309E-009  0.1927679E+03  0.7561462E-02  0.1155988E+00
          2   -1    0    0  501    0  0.00000000000E+00  0.00000000000E+00  0.15901599710E+03  0.15901599710E+03  0.00000000000E+00 0. -1.
         -2   -1    0    0    0  501 -0.00000000000E+00 -0.00000000000E+00 -0.28403228771E+03  0.28403228771E+03  0.00000000000E+00 0.  1.
         25    2    1    2    0    0 -0.13278423815E+03  0.12361434976E+03 -0.76778411835E+02  0.23335503050E+03  0.12508990514E+03 0.  0.
         23    2    1    2    0    0  0.13278423815E+03 -0.12361434976E+03 -0.48237878773E+02  0.20969325432E+03  0.93446276491E+02 0.  0.
          5    1    3    3  502    0 -0.10018463755E+03  0.13466663727E+03 -0.23139937372E+02  0.16948449456E+03  0.41800000000E+01 0.  1.
         -5    1    3    3    0  502 -0.32599600598E+02 -0.11052287508E+02 -0.53638474463E+02  0.63870535938E+02  0.41800000000E+01 0.  1.
        -11    1    4    4    0    0  0.54695734492E+02 -0.35401295838E+02  0.26324401016E+02  0.70269831417E+02  0.00000000000E+00 0. -1.
         11    1    4    4    0    0  0.78088503655E+02 -0.88213053926E+02 -0.74562279788E+02  0.13942342290E+03  0.00000000000E+00 0.  1.
</event>
<event>
 8    1  0.7281309E-009  0.9584691E+02  0.7561462E-02  0.1289280E+00
          2   -1    0    0  501    0  0.00000000000E+00  0.00000000000E+00  0.37232961709E+03  0.37232961709E+03  0.00000000000E+00 0. -1.
         -2   -1    0    0    0  501 -0.00000000000E+00 -0.00000000000E+00 -0.33994510676E+02  0.33994510676E+02  0.00000000000E+00 0.  1.
         25    2    1    2    0    0 -0.23937095504E+02  0.75222380117E+00  0.15583032408E+03  0.20125513178E+03  0.12508792021E+03 0.  0.
         23    2    1    2    0    0  0.23937095504E+02 -0.75222380117E+00  0.18250478233E+03  0.20506899598E+03  0.90397716553E+02 0.  0.
          5    1    3    3  502    0 -0.61601973900E+02  0.24110388104E+02  0.40612607691E+02  0.77736544214E+02  0.41800000000E+01 0.  1.
         -5    1    3    3    0  502  0.37664878397E+02 -0.23358164303E+02  0.11521771639E+03  0.12351858757E+03  0.41800000000E+01 0.  1.
        -11    1    4    4    0    0 -0.16124435875E+02 -0.28092724259E+02  0.26977140243E+02  0.42154058929E+02  0.00000000000E+00 0.  1.
         11    1    4    4    0    0  0.40061531379E+02  0.27340500457E+02  0.15552764209E+03  0.16291493705E+03  0.00000000000E+00 0. -1.
</event>
<event>
 8    1  0.7281309E-009  0.1103655E+03  0.7561462E-02  0.1259894E+00
          3   -1    0    0  501    0  0.00000000000E+00  0.00000000000E+00  0.12612218149E+03  0.12612218149E+03  0.00000000000E+00 0.  1.
         -3   -1    0    0    0  501 -0.00000000000E+00 -0.00000000000E+00 -0.13070154131E+03  0.13070154131E+03  0.00000000000E+00 0. -1.
         25    2    1    2    0    0 -0.29705413473E+02  0.17810054479E+02  0.57403343935E+02  0.14192170656E+03  0.12508803807E+03 0.  0.
         23    2    1    2    0    0  0.29705413473E+02 -0.17810054479E+02 -0.61982703753E+02  0.11490201624E+03  0.90338298305E+02 0.  0.
          5    1    3    3  502    0 -0.33401147735E+02 -0.50692841398E+02  0.31023981814E+02  0.68303445642E+02  0.41800000000E+01 0.  1.
         -5    1    3    3    0  502  0.36957342620E+01  0.68502895876E+02  0.26379362121E+02  0.73618260921E+02  0.41800000000E+01 0.  1.
        -11    1    4    4    0    0  0.56937306471E+02  0.27878903678E+01 -0.56607346863E+02  0.80336921274E+02  0.00000000000E+00 0.  1.
         11    1    4    4    0    0 -0.27231892998E+02 -0.20597944846E+02 -0.53753568906E+01  0.34565094964E+02  0.00000000000E+00 0. -1.
</event>
<event>
 8    1  0.7281309E-009  0.8754112E+02  0.7561462E-02  0.1308918E+00
         -2   -1    0    0    0  501 -0.00000000000E+00  0.00000000000E+00  0.25659258254E+03  0.25659258254E+03  0.00000000000E+00 0.  1.
          2   -1    0    0  501    0  0.00000000000E+00 -0.00000000000E+00 -0.72957410428E+02  0.72957410428E+02  0.00000000000E+00 0. -1.
         25    2    1    2    0    0  0.53891792388E+02  0.29462953323E+02  0.36387121821E+02  0.14402684023E+03  0.12508923682E+03 0.  0.
         23    2    1    2    0    0 -0.53891792388E+02 -0.29462953323E+02  0.14724805029E+03  0.18552315274E+03  0.94680837455E+02 0.  0.
          5    1    3    3  502    0  0.57648662540E+02  0.28654432466E+02  0.78457467977E+02  0.10157505340E+03  0.41800000000E+01 0. -1.
         -5    1    3    3    0  502 -0.37568701512E+01  0.80852085703E+00 -0.42070346156E+02  0.42451786829E+02  0.41800000000E+01 0. -1.
        -11    1    4    4    0    0 -0.48671538642E+02 -0.58094083516E+02  0.13309656434E+03  0.15316179893E+03  0.00000000000E+00 0.  1.
         11    1    4    4    0    0 -0.52202537464E+01  0.28631130193E+02  0.14151485952E+02  0.32361353803E+02  0.00000000000E+00 0. -1.
</event>
<event>
 8    1  0.7281309E-009  0.9551028E+02  0.7561462E-02  0.1290031E+00
          2   -1    0    0  501    0  0.00000000000E+00  0.00000000000E+00  0.16021012508E+03  0.16021012508E+03  0.00000000000E+00 0. -1.
         -2   -1    0    0    0  501 -0.00000000000E+00 -0.00000000000E+00 -0.82751028396E+02  0.82751028396E+02  0.00000000000E+00 0.  1.
         25    2    1    2    0    0  0.21155743450E+02  0.31759708891E+02  0.55028112209E+02  0.14188470679E+03  0.12508769843E+03 0.  0.
         23    2    1    2    0    0 -0.21155743450E+02 -0.31759708891E+02  0.22430984475E+02  0.10107644669E+03  0.90868335630E+02 0.  0.
          5    1    3    3  502    0  0.65688153582E+02 -0.43303092003E+01  0.52588138578E+02  0.84360356909E+02  0.41800000000E+01 0. -1.
         -5    1    3    3    0  502 -0.44532410132E+02  0.36090018091E+02  0.24399736312E+01  0.57524349882E+02  0.41800000000E+01 0. -1.
        -11    1    4    4    0    0  0.22689638696E+01  0.15061081166E+02 -0.25755979973E+02  0.29922480968E+02  0.00000000000E+00 0.  1.
         11    1    4    4    0    0 -0.23424707319E+02 -0.46820790057E+02  0.48186964448E+02  0.71153965717E+02  0.00000000000E+00 0. -1.
</event>
<event>
 8    1  0.7281309E-009  0.1045748E+03  0.7561462E-02  0.1270960E+00
         -1   -1    0    0    0  501 -0.00000000000E+00  0.00000000000E+00  0.20869545592E+03  0.20869545592E+03  0.00000000000E+00 0.  1.
          1   -1    0    0  501    0  0.00000000000E+00 -0.00000000000E+00 -0.82061929451E+02  0.82061929451E+02  0.00000000000E+00 0. -1.
         25    2    1    2    0    0 -0.61381303703E+02 -0.11442145900E+02  0.28118071294E+02  0.14260697629E+03  0.12509011394E+03 0.  0.
         23    2    1    2    0    0  0.61381303703E+02  0.11442145900E+02  0.98515455179E+02  0.14815040909E+03  0.91349119624E+02 0.  0.
          5    1    3    3  502    0 -0.36405022458E+02 -0.53950877600E+02  0.55868298090E+02  0.85876434401E+02  0.41800000000E+01 0. -1.
         -5    1    3    3    0  502 -0.24976281245E+02  0.42508731700E+02 -0.27750226796E+02  0.56730541887E+02  0.41800000000E+01 0. -1.
        -11    1    4    4    0    0  0.24227208049E+02 -0.30151529984E+02  0.80886912461E+02  0.89659160032E+02  0.00000000000E+00 0.  1.
         11    1    4    4    0    0  0.37154095654E+02  0.41593675884E+02  0.17628542717E+02  0.58491249053E+02  0.00000000000E+00 0. -1.
</event>
<event>
 8    1  0.7281309E-009  0.2301739E+03  0.7561462E-02  0.1126517E+00
         -3   -1    0    0    0  501 -0.00000000000E+00  0.00000000000E+00  0.69981136798E+03  0.69981136798E+03  0.00000000000E+00 0.  1.
          3   -1    0    0  501    0  0.00000000000E+00 -0.00000000000E+00 -0.81068314022E+02  0.81068314022E+02  0.00000000000E+00 0. -1.
         25    2    1    2    0    0 -0.18906695542E+03  0.90277958260E+02  0.36460499337E+03  0.43872218549E+03  0.12507570296E+03 0.  0.
         23    2    1    2    0    0  0.18906695542E+03 -0.90277958260E+02  0.25413806058E+03  0.34215749651E+03  0.92677803186E+02 0.  0.
          5    1    3    3  502    0 -0.25359043786E+02 -0.21063700365E+02  0.11722739339E+03  0.12184619295E+03  0.41800000000E+01 0.  1.
         -5    1    3    3    0  502 -0.16370791163E+03  0.11134165863E+03  0.24737759998E+03  0.31687599254E+03  0.41800000000E+01 0.  1.
        -11    1    4    4    0    0  0.16514002364E+03 -0.10971490929E+03  0.21904954612E+03  0.29545099827E+03  0.00000000000E+00 0. -1.
         11    1    4    4    0    0  0.23926931782E+02  0.19436951034E+02  0.35088514468E+02  0.46706498237E+02  0.00000000000E+00 0.  1.
</event>
<event>
 8    1  0.7281309E-009  0.1166667E+03  0.7561462E-02  0.1248700E+00
          1   -1    0    0  501    0  0.00000000000E+00  0.00000000000E+00  0.61297424135E+02  0.61297424135E+02  0.00000000000E+00 0. -1.
         -1   -1    0    0    0  501 -0.00000000000E+00 -0.00000000000E+00 -0.30660839835E+03  0.30660839835E+03  0.00000000000E+00 0.  1.
         25    2    1    2    0    0  0.27796684569E+02 -0.55669516913E+02 -0.20750687362E+03  0.25015792088E+03  0.12509249374E+03 0.  0.
         23    2    1    2    0    0 -0.27796684569E+02  0.55669516913E+02 -0.37804100591E+02  0.11774790161E+03  0.92540086048E+02 0.  0.
          5    1    3    3  502    0  0.76296128711E+02 -0.34251080039E+02 -0.10169870861E+03  0.13173585493E+03  0.41800000000E+01 0. -1.
         -5    1    3    3    0  502 -0.48499444142E+02 -0.21418436873E+02 -0.10580816501E+03  0.11842206595E+03  0.41800000000E+01 0. -1.
        -11    1    4    4    0    0 -0.34518401323E+02 -0.54330193412E+01  0.13718891079E+02  0.37539921437E+02  0.00000000000E+00 0. -1.
         11    1    4    4    0    0  0.67217167543E+01  0.61102536254E+02 -0.51522991670E+02  0.80207980173E+02  0.00000000000E+00 0.  1.
</event>
<event>
 8    1  0.7281309E-009  0.1004439E+03  0.7561462E-02  0.1279365E+00
          1   -1    0    0  501    0  0.00000000000E+00  0.00000000000E+00  0.37951513056E+02  0.37951513056E+02  0.00000000000E+00 0. -1.
         -1   -1    0    0    0  501 -0.00000000000E+00 -0.00000000000E+00 -0.69845908461E+03  0.69845908461E+03  0.00000000000E+00 0.  1.
         25    2    1    2    0    0  0.20826556565E+02  0.64874443609E+02 -0.57545058933E+03  0.59281892402E+03  0.12509379295E+03 0.  0.
         23    2    1    2    0    0 -0.20826556565E+02 -0.64874443609E+02 -0.85056982226E+02  0.14359167364E+03  0.93495666322E+02 0.  0.
          5    1    3    3  502    0 -0.27198554568E+02  0.33454027266E+02 -0.47564593728E+03  0.47761434585E+03  0.41800000000E+01 0.  1.
         -5    1    3    3    0  502  0.48025111133E+02  0.31420416343E+02 -0.99804652050E+02  0.11520457818E+03  0.41800000000E+01 0.  1.
        -11    1    4    4    0    0 -0.32936469070E+02  0.10964486722E+01 -0.66150652879E+02  0.73904817642E+02  0.00000000000E+00 0.  1.
         11    1    4    4    0    0  0.12109912505E+02 -0.65970892282E+02 -0.18906329348E+02  0.69686855997E+02  0.00000000000E+00 0. -1.
</event>
<event>
 8    1  0.7281309E-009  0.1743072E+03  0.7561462E-02  0.1173429E+00
         -3   -1    0    0    0  501 -0.00000000000E+00  0.00000000000E+00  0.20973762906E+03  0.20973762906E+03  0.00000000000E+00 0.  1.
          3   -1    0    0  501    0  0.00000000000E+00 -0.00000000000E+00 -0.18519854218E+03  0.18519854218E+03  0.00000000000E+00 0. -1.
         25    2    1    2    0    0 -0.14631632164E+03  0.71705100026E+02 -0.11801490282E+02  0.20575896683E+03  0.12508952758E+03 0.  0.
         23    2    1    2    0    0  0.14631632164E+03 -0.71705100026E+02  0.36340577160E+02  0.18917720440E+03  0.88979153569E+02 0.  0.
          5    1    3    3  502    0 -0.13767314825E+03  0.69135364823E+02 -0.53312682100E+02  0.16307455010E+03  0.41800000000E+01 0.  1.
         -5    1    3    3    0  502 -0.86431733942E+01  0.25697352026E+01  0.41511191818E+02  0.42684416729E+02  0.41800000000E+01 0.  1.
        -11    1    4    4    0    0  0.71862826114E+02  0.11645382748E+02  0.24396263479E+02  0.76779283588E+02  0.00000000000E+00 0. -1.
         11    1    4    4    0    0  0.74453495526E+02 -0.83350482774E+02  0.11944313682E+02  0.11239792082E+03  0.00000000000E+00 0.  1.
</event>
<event>
 8    1  0.7281309E-009  0.1943143E+03  0.7561462E-02  0.1154627E+00
          1   -1    0    0  501    0  0.00000000000E+00  0.00000000000E+00  0.77257947660E+02  0.77257947660E+02  0.00000000000E+00 0. -1.
         -1   -1    0    0    0  501 -0.00000000000E+00 -0.00000000000E+00 -0.60977798674E+03  0.60977798674E+03  0.00000000000E+00 0.  1.
         25    2    1    2    0    0  0.18376258976E+03  0.60243098602E+01 -0.21618783081E+03  0.31014208016E+03  0.12508377188E+03 0.  0.
         23    2    1    2    0    0 -0.18376258976E+03 -0.60243098602E+01 -0.31633220827E+03  0.37689385424E+03  0.90431906278E+02 0.  0.
          5    1    3    3  502    0  0.60806398201E+02 -0.77491396601E+01 -0.48876948655E+00  0.61442481422E+02  0.41800000000E+01 0.  1.
         -5    1    3    3    0  502  0.12295619156E+03  0.13773449520E+02 -0.21569906132E+03  0.24869959874E+03  0.41800000000E+01 0.  1.
        -11    1    4    4    0    0 -0.14842556576E+03 -0.40678099296E+02 -0.25778524955E+03  0.30023006381E+03  0.00000000000E+00 0.  1.
         11    1    4    4    0    0 -0.35337024000E+02  0.34653789435E+02 -0.58546958724E+02  0.76663790431E+02  0.00000000000E+00 0. -1.
</event>
<event>
 8    1  0.7281309E-009  0.1302147E+03  0.7561462E-02  0.1227138E+00
         -1   -1    0    0    0  501 -0.00000000000E+00  0.00000000000E+00  0.15662979065E+03  0.15662979065E+03  0.00000000000E+00 0.  1.
          1   -1    0    0  501    0  0.00000000000E+00 -0.00000000000E+00 -0.13074885132E+03  0.13074885132E+03  0.00000000000E+00 0. -1.
         25    2    1    2    0    0 -0.84939168380E+02 -0.35170363341E+02  0.19842932025E+02  0.15650141786E+03  0.12508930833E+03 0.  0.
         23    2    1    2    0    0  0.84939168380E+02  0.35170363341E+02  0.60380073044E+01  0.13087722411E+03  0.92955760852E+02 0.  0.
          5    1    3    3  502    0  0.12410325676E+02 -0.46576409692E+02 -0.17614814936E+02  0.51489146704E+02  0.41800000000E+01 0. -1.
         -5    1    3    3    0  502 -0.97349494055E+02  0.11406046350E+02  0.37457746961E+02  0.10501227116E+03  0.41800000000E+01 0. -1.
        -11    1    4    4    0    0  0.33037636894E+01 -0.16830614179E+02 -0.24030406944E+02  0.29523632670E+02  0.00000000000E+00 0.  1.
         11    1    4    4    0    0  0.81635404691E+02  0.52000977520E+02  0.30068414248E+02  0.10135359144E+03  0.00000000000E+00 0. -1.
</event>
<event>
 8    1  0.7281309E-009  0.7877764E+02  0.7561462E-02  0.1332557E+00
         -1   -1    0    0    0  501 -0.00000000000E+00  0.00000000000E+00  0.10777853433E+03  0.10777853433E+03  0.00000000000E+00 0.  1.
          1   -1    0    0  501    0  0.00000000000E+00 -0.00000000000E+00 -0.13269185896E+03  0.13269185896E+03  0.00000000000E+00 0. -1.
         25    2    1    2    0    0 -0.68922224723E+01  0.57775271897E+01  0.35582088765E+02  0.13035682273E+03  0.12508370653E+03 0.  0.
         23    2    1    2    0    0  0.68922224723E+01 -0.57775271897E+01 -0.60495413395E+02  0.11011357056E+03  0.91566483102E+02 0.  0.
          5    1    3    3  502    0 -0.57506264331E+01 -0.45157548013E+02  0.58577377440E+02  0.74303804712E+02  0.41800000000E+01 0.  1.
         -5    1    3    3    0  502 -0.11415960392E+01  0.50935075203E+02 -0.22995288675E+02  0.56053018016E+02  0.41800000000E+01 0.  1.
        -11    1    4    4    0    0 -0.81749064008E+01 -0.30606516742E+02  0.10526705027E+02  0.33382622433E+02  0.00000000000E+00 0.  1.
         11    1    4    4    0    0  0.15067128873E+02  0.24828989553E+02 -0.71022118422E+02  0.76730948123E+02  0.00000000000E+00 0. -1.
</event>
<event>
 8    1  0.7281309E-009  0.1473157E+03  0.7561462E-02  0.1203811E+00
          1   -1    0    0  501    0  0.00000000000E+00  0.00000000000E+00  0.15530973792E+03  0.15530973792E+03  0.00000000000E+00 0. -1.
         -1   -1    0    0    0  501 -0.00000000000E+00 -0.00000000000E+00 -0.16910543777E+03  0.16910543777E+03  0.00000000000E+00 0.  1.
         25    2    1    2    0    0  0.84048254023E+02 -0.85800891976E+02 -0.17056462123E+02  0.17425454545E+03  0.12509125326E+03 0.  0.
         23    2    1    2    0    0 -0.84048254023E+02  0.85800891976E+02  0.32607622664E+01  0.15016063023E+03  0.90064866807E+02 0.  0.
          5    1    3    3  502    0  0.59575209918E+02  0.16373644014E+02 -0.29094924188E+02  0.68419944962E+02  0.41800000000E+01 0. -1.
         -5    1    3    3    0  502  0.24473044105E+02 -0.10217453599E+03  0.12038462065E+02  0.10583460049E+03  0.41800000000E+01 0. -1.
        -11    1    4    4    0    0 -0.68794521914E+02  0.88473011972E+02  0.32829943311E+02  0.11678169921E+03  0.00000000000E+00 0. -1.
         11    1    4    4    0    0 -0.15253732109E+02 -0.26721199958E+01 -0.29569181044E+02  0.33378931022E+02  0.00000000000E+00 0.  1.
</event>
<event>
 8    1  0.7281309E-009  0.2009398E+03  0.7561462E-02  0.1148948E+00
         -1   -1    0    0    0  501 -0.00000000000E+00  0.00000000000E+00  0.47045368094E+02  0.47045368094E+02  0.00000000000E+00 0.  1.
          1   -1    0    0  501    0  0.00000000000E+00 -0.00000000000E+00 -0.11025661068E+04  0.11025661068E+04  0.00000000000E+00 0. -1.
         25    2    1    2    0    0  0.18716605254E+03 -0.60385593158E+02 -0.64048625168E+03  0.68157885281E+03  0.12509813318E+03 0.  0.
         23    2    1    2    0    0 -0.18716605254E+03  0.60385593158E+02 -0.41503448698E+03  0.46803262204E+03  0.90129677813E+02 0.  0.
          5    1    3    3  502    0  0.11171769275E+03 -0.64446243489E+02 -0.54325417591E+03  0.55836971015E+03  0.41800000000E+01 0. -1.
         -5    1    3    3    0  502  0.75448359788E+02  0.40606503310E+01 -0.97232075767E+02  0.12320914265E+03  0.41800000000E+01 0. -1.
        -11    1    4    4    0    0 -0.10618960334E+03  0.26938878581E+02 -0.32251136437E+03  0.34061050363E+03  0.00000000000E+00 0. -1.
         11    1    4    4    0    0 -0.80976449200E+02  0.33446714577E+02 -0.92523122610E+02  0.12742211840E+03  0.00000000000E+00 0.  1.
</event>
<event>
 8    1  0.7281309E-009  0.1473050E+03  0.7561462E-02  0.1203824E+00
         -1   -1    0    0    0  501 -0.00000000000E+00  0.00000000000E+00  0.25430057127E+03  0.25430057127E+03  0.00000000000E+00 0.  1.
          1   -1    0    0  501    0  0.00000000000E+00 -0.00000000000E+00 -0.10319685921E+03  0.10319685921E+03  0.00000000000E+00 0. -1.
         25    2    1    2    0    0 -0.44913672935E+02 -0.89653050230E+02  0.78435238133E+01  0.16051484410E+03  0.12509431194E+03 0.  0.
         23    2    1    2    0    0  0.44913672935E+02  0.89653050230E+02  0.14326018825E+03  0.19698258638E+03  0.90684896033E+02 0.  0.
          5    1    3    3  502    0 -0.81387514235E+02 -0.91955187307E+02 -0.15503814191E+00  0.12287058388E+03  0.41800000000E+01 0.  1.
         -5    1    3    3    0  502  0.36473841300E+02  0.23021370773E+01  0.79985619552E+01  0.37644260221E+02  0.41800000000E+01 0.  1.
        -11    1    4    4    0    0  0.71883830204E+02  0.52361978488E+02  0.88717464265E+02  0.12561787413E+03  0.00000000000E+00 0. -1.
         11    1    4    4    0    0 -0.26970157269E+02  0.37291071742E+02  0.54542723985E+02  0.71364712250E+02  0.00000000000E+00 0.  1.
</event>
<event>
 8    1  0.7281309E-009  0.9627894E+02  0.7561462E-02  0.1288321E+00
          2   -1    0    0  501    0  0.00000000000E+00  0.00000000000E+00  0.34957284696E+03  0.34957284696E+03  0.00000000000E+00 0. -1.
         -2   -1    0    0    0  501 -0.00000000000E+00 -0.00000000000E+00 -0.51347129409E+02  0.51347129409E+02  0.00000000000E+00 0.  1.
         25    2    1    2    0    0  0.61193514622E+02 -0.26845741098E+02  0.10234272729E+03  0.17488472105E+03  0.12508114079E+03 0.  0.
         23    2    1    2    0    0 -0.61193514622E+02  0.26845741098E+02  0.19588299026E+03  0.22603525532E+03  0.90865013766E+02 0.  0.
          5    1    3    3  502    0  0.83025593882E+02 -0.49577109791E+01  0.18336724465E+02  0.85273301811E+02  0.41800000000E+01 0.  1.
         -5    1    3    3    0  502 -0.21832079260E+02 -0.21888030118E+02  0.84006002828E+02  0.89611419241E+02  0.41800000000E+01 0.  1.
        -11    1    4    4    0    0 -0.41849098423E+02  0.37331089651E+02  0.19617154375E+03  0.20402997787E+03  0.00000000000E+00 0. -1.
         11    1    4    4    0    0 -0.19344416200E+02 -0.10485348553E+02 -0.28855348947E+00  0.22005277447E+02  0.00000000000E+00 0.  1.
</event>
<event>
 8    1  0.7281309E-009  0.1914087E+03  0.7561462E-02  0.1157197E+00
          2   -1    0    0  501    0  0.00000000000E+00  0.00000000000E+00  0.72925819600E+03  0.72925819600E+03  0.00000000000E+00 0.  1.
         -2   -1    0    0    0  501 -0.00000000000E+00 -0.00000000000E+00 -0.63478041680E+02  0.63478041680E+02  0.00000000000E+00 0. -1.
         25    2    1    2    0    0  0.17874515587E+02 -0.16146858054E+03  0.18145663907E+03  0.27379765507E+03  0.12508814193E+03 0.  0.
         23    2    1    2    0    0 -0.17874515587E+02  0.16146858054E+03  0.48432351525E+03  0.51893858260E+03  0.91303802115E+02 0.  0.
          5    1    3    3  502    0  0.35417945372E+02  0.42610527136E+01  0.17422329929E+02  0.39919887334E+02  0.41800000000E+01 0. -1.
         -5    1    3    3    0  502 -0.17543429785E+02 -0.16572963326E+03  0.16403430914E+03  0.23387776774E+03  0.41800000000E+01 0. -1.
        -11    1    4    4    0    0  0.74949473634E+01 -0.67407764629E+01  0.71752378124E+01  0.12373210617E+02  0.00000000000E+00 0. -1.
         11    1    4    4    0    0 -0.25369462951E+02  0.16820935701E+03  0.47714827744E+03  0.50656537199E+03  0.00000000000E+00 0.  1.
</event>
<event>
 8    1  0.7281309E-009  0.2312477E+03  0.7561462E-02  0.1125765E+00
         -1   -1    0    0    0  501 -0.00000000000E+00  0.00000000000E+00  0.97572249502E+02  0.97572249502E+02  0.00000000000E+00 0.  1.
          1   -1    0    0  501    0  0.00000000000E+00 -0.00000000000E+00 -0.66554914238E+03  0.66554914238E+03  0.00000000000E+00 0. -1.
         25    2    1    2    0    0  0.41907091649E+02 -0.22715140047E+03 -0.32919517967E+03  0.42115466668E+03  0.12509126221E+03 0.  0.
         23    2    1    2    0    0 -0.41907091649E+02  0.22715140047E+03 -0.23878171321E+03  0.34196672520E+03  0.81059061899E+02 0.  0.
          5    1    3    3  502    0  0.36404522470E+02 -0.17509755094E+03 -0.14699055463E+03  0.23153431096E+03  0.41800000000E+01 0.  1.
         -5    1    3    3    0  502  0.55025691788E+01 -0.52053849537E+02 -0.18220462504E+03  0.18962035572E+03  0.41800000000E+01 0.  1.
        -11    1    4    4    0    0 -0.11388549594E+02  0.80434192954E+02 -0.14193463783E+03  0.16353837431E+03  0.00000000000E+00 0. -1.
         11    1    4    4    0    0 -0.30518542055E+02  0.14671720752E+03 -0.96847075384E+02  0.17842835089E+03  0.00000000000E+00 0.  1.
</event>
<event>
 8    1  0.7281309E-009  0.1061038E+03  0.7561462E-02  0.1267960E+00
          2   -1    0    0  501    0  0.00000000000E+00  0.00000000000E+00  0.25417090873E+03  0.25417090873E+03  0.00000000000E+00 0. -1.
         -2   -1    0    0    0  501 -0.00000000000E+00 -0.00000000000E+00 -0.78905772465E+02  0.78905772465E+02  0.00000000000E+00 0.  1.
         25    2    1    2    0    0 -0.85668461787E+02  0.24626010703E+02  0.11135708413E+03  0.18972085563E+03  0.12509227444E+03 0.  0.
         23    2    1    2    0    0  0.85668461787E+02 -0.24626010703E+02  0.63908052126E+02  0.14335582556E+03  0.92309955305E+02 0.  0.
          5    1    3    3  502    0  0.65802858400E+01 -0.14279265580E+02  0.84400161276E+02  0.85953808587E+02  0.41800000000E+01 0. -1.
         -5    1    3    3    0  502 -0.92248747627E+02  0.38905276283E+02  0.26956922859E+02  0.10376704704E+03  0.41800000000E+01 0. -1.
        -11    1    4    4    0    0  0.10722577243E+02 -0.17403302466E+02 -0.21385740800E+02  0.29583754140E+02  0.00000000000E+00 0.  1.
         11    1    4    4    0    0  0.74945884544E+02 -0.72227082376E+01  0.85293792926E+02  0.11377207142E+03  0.00000000000E+00 0. -1.
</event>
<event>
 8    1  0.7281309E-009  0.8370902E+02  0.7561462E-02  0.1318844E+00
         -2   -1    0    0    0  501 -0.00000000000E+00  0.00000000000E+00  0.15789474823E+02  0.15789474823E+02  0.00000000000E+00 0.  1.
          2   -1    0    0  501    0  0.00000000000E+00 -0.00000000000E+00 -0.10143489055E+04  0.10143489055E+04  0.00000000000E+00 0. -1.
         25    2    1    2    0    0  0.27238523005E+01 -0.52794710381E+02 -0.70572846356E+03  0.71867661530E+03  0.12509481321E+03 0.  0.
         23    2    1    2    0    0 -0.27238523005E+01  0.52794710381E+02 -0.29283096708E+03  0.31146176498E+03  0.91998668186E+02 0.  0.
          5    1    3    3  502    0  0.15128993863E+02 -0.15588190440E+02 -0.65014300396E+03  0.65051923579E+03  0.41800000000E+01 0.  1.
         -5    1    3    3    0  502 -0.12405141562E+02 -0.37206519941E+02 -0.55585459600E+02  0.68157379514E+02  0.41800000000E+01 0.  1.
        -11    1    4    4    0    0 -0.21841412273E+02 -0.20592424196E+02 -0.73679853512E+02  0.79560141012E+02  0.00000000000E+00 0.  1.
         11    1    4    4    0    0  0.19117559973E+02  0.73387134578E+02 -0.21915111357E+03  0.23190162397E+03  0.00000000000E+00 0. -1.
</event>
<event>
 8    1  0.7281309E-009  0.2226630E+03  0.7561462E-02  0.1131913E+00
          2   -1    0    0  501    0  0.00000000000E+00  0.00000000000E+00  0.12093180909E+04  0.12093180909E+04  0.00000000000E+00 0. -1.
         -2   -1    0    0    0  501 -0.00000000000E+00 -0.00000000000E+00 -0.53450701802E+02  0.53450701802E+02  0.00000000000E+00 0.  1.
         25    2    1    2    0    0 -0.92511931830E+02 -0.17998807184E+03  0.86354004015E+03  0.89571333365E+03  0.12508721595E+03 0.  0.
         23    2    1    2    0    0  0.92511931830E+02  0.17998807184E+03  0.29232734896E+03  0.36705545907E+03  0.91215500571E+02 0.  0.
          5    1    3    3  502    0 -0.69027083285E+02 -0.18626786928E+03  0.83344417401E+03  0.85680051409E+03  0.41800000000E+01 0. -1.
         -5    1    3    3    0  502 -0.23484848545E+02  0.62797974396E+01  0.30095866136E+02  0.38912819553E+02  0.41800000000E+01 0. -1.
        -11    1    4    4    0    0  0.20069401156E+01  0.10336489852E+03  0.13786269103E+03  0.17232078120E+03  0.00000000000E+00 0.  1.
         11    1    4    4    0    0  0.90504991715E+02  0.76623173323E+02  0.15446465793E+03  0.19473467787E+03  0.00000000000E+00 0. -1.
</event>
<event>
 8    1  0.7281309E-009  0.1025242E+03  0.7561462E-02  0.1275076E+00
         -1   -1    0    0    0  501 -0.00000000000E+00  0.00000000000E+00  0.73651585540E+02  0.73651585540E+02  0.00000000000E+00 0.  1.
          1   -1    0    0  501    0  0.00000000000E+00 -0.00000000000E+00 -0.22376709791E+03  0.22376709791E+03  0.00000000000E+00 0. -1.
         25    2    1    2    0    0 -0.41491834942E+02  0.10595860589E+01 -0.22629434821E+02  0.13372127002E+03  0.12508633677E+03 0.  0.
         23    2    1    2    0    0  0.41491834942E+02 -0.10595860589E+01 -0.12748607755E+03  0.16369741343E+03  0.93922564410E+02 0.  0.
          5    1    3    3  502    0 -0.11624268620E+02  0.54153097117E+02 -0.42028043359E+02  0.69652784416E+02  0.41800000000E+01 0.  1.
         -5    1    3    3    0  502 -0.29867566322E+02 -0.53093511058E+02  0.19398608538E+02  0.64068485604E+02  0.41800000000E+01 0.  1.
        -11    1    4    4    0    0  0.33911892805E+02  0.36677296757E+02 -0.11119753960E+03  0.12190214676E+03  0.00000000000E+00 0. -1.
         11    1    4    4    0    0  0.75799421368E+01 -0.37736882816E+02 -0.16288537944E+02  0.41795266668E+02  0.00000000000E+00 0.  1.
</event>
<event>
 8    1  0.7281309E-009  0.1182932E+03  0.7561462E-02  0.1245940E+00
          1   -1    0    0  501    0  0.00000000000E+00  0.00000000000E+00  0.35176491525E+02  0.35176491525E+02  0.00000000000E+00 0. -1.
         -1   -1    0    0    0  501 -0.00000000000E+00 -0.00000000000E+00 -0.45186965999E+03  0.45186965999E+03  0.00000000000E+00 0.  1.
         25    2    1    2    0    0 -0.47062312765E+02 -0.41864657693E+02 -0.23940220763E+03  0.27736499394E+03  0.12510160669E+03 0.  0.
         23    2    1    2    0    0  0.47062312765E+02  0.41864657693E+02 -0.17729096083E+03  0.20968115757E+03  0.92555886918E+02 0.  0.
          5    1    3    3  502    0 -0.68364432890E+02  0.20063868982E+02 -0.15336001839E+03  0.16915384171E+03  0.41800000000E+01 0. -1.
         -5    1    3    3    0  502  0.21302120126E+02 -0.61928526674E+02 -0.86042189242E+02  0.10821115223E+03  0.41800000000E+01 0. -1.
        -11    1    4    4    0    0  0.36939652562E+02  0.64762811949E+02 -0.16647661154E+03  0.18240948970E+03  0.00000000000E+00 0.  1.
         11    1    4    4    0    0  0.10122660202E+02 -0.22898154257E+02 -0.10814349286E+02  0.27271667870E+02  0.00000000000E+00 0. -1.
</event>
<event>
 8    1  0.7281309E-009  0.2376430E+03  0.7561462E-02  0.1121373E+00
         -1   -1    0    0    0  501 -0.00000000000E+00  0.00000000000E+00  0.15316549383E+03  0.15316549383E+03  0.00000000000E+00 0.  1.
          1   -1    0    0  501    0  0.00000000000E+00 -0.00000000000E+00 -0.40174445358E+03  0.40174445358E+03  0.00000000000E+00 0. -1.
         25    2    1    2    0    0 -0.11509530766E+03 -0.18618687454E+03 -0.78112746681E+02  0.26394045396E+03  0.12510187826E+03 0.  0.
         23    2    1    2    0    0  0.11509530766E+03  0.18618687454E+03 -0.17046621307E+03  0.29096949346E+03  0.87704242923E+02 0.  0.
          5    1    3    3  502    0 -0.11911769512E+03 -0.75374081038E+02 -0.47893451507E+02  0.14893465843E+03  0.41800000000E+01 0. -1.
         -5    1    3    3    0  502  0.40223874566E+01 -0.11081279350E+03 -0.30219295174E+02  0.11500579553E+03  0.41800000000E+01 0. -1.
        -11    1    4    4    0    0  0.79660856201E+02  0.16160204501E+03 -0.94091600509E+02  0.20325919966E+03  0.00000000000E+00 0.  1.
         11    1    4    4    0    0  0.35434451462E+02  0.24584829533E+02 -0.76374612559E+02  0.87710293792E+02  0.00000000000E+00 0. -1.
</event>
<event>
 8    1  0.7281309E-009  0.1422282E+03  0.7561462E-02  0.1210362E+00
          2   -1    0    0  501    0  0.00000000000E+00  0.00000000000E+00  0.57270001363E+03  0.57270001363E+03  0.00000000000E+00 0. -1.
         -2   -1    0    0    0  501 -0.00000000000E+00 -0.00000000000E+00 -0.10397527701E+03  0.10397527701E+03  0.00000000000E+00 0.  1.
         25    2    1    2    0    0  0.48426408832E+02 -0.11061608575E+03  0.49337204796E+03  0.52311017567E+03  0.12508893908E+03 0.  0.
         23    2    1    2    0    0 -0.48426408832E+02  0.11061608575E+03 -0.24647311344E+02  0.15356511497E+03  0.91617242260E+02 0.  0.
          5    1    3    3  502    0 -0.39035042933E+01  0.85322063389E+01 -0.23815874594E+01  0.10544204551E+02  0.41800000000E+01 0. -1.
         -5    1    3    3    0  502  0.52329913125E+02 -0.11914829209E+03  0.49575363542E+03  0.51256597112E+03  0.41800000000E+01 0. -1.
        -11    1    4    4    0    0  0.21870661457E+02  0.26764111131E+02 -0.27405154252E+02  0.44109930365E+02  0.00000000000E+00 0.  1.
         11    1    4    4    0    0 -0.70297070289E+02  0.83851974622E+02  0.27578429083E+01  0.10945518460E+03  0.00000000000E+00 0. -1.
</event>
<event>
 8    1  0.7281309E-009  0.1174601E+03  0.7561462E-02  0.1247347E+00
          1   -1    0    0  501    0  0.00000000000E+00  0.00000000000E+00  0.81623894462E+02  0.81623894462E+02  0.00000000000E+00 0. -1.
         -1   -1    0    0    0  501 -0.00000000000E+00 -0.00000000000E+00 -0.24334014402E+03  0.24334014402E+03  0.00000000000E+00 0.  1.
         25    2    1    2    0    0  0.67223820041E+02 -0.13811379797E+02 -0.15386372262E+03  0.20986751547E+03  0.12514205017E+03 0.  0.
         23    2    1    2    0    0 -0.67223820041E+02  0.13811379797E+02 -0.78525269456E+01  0.11509652302E+03  0.92063843272E+02 0.  0.
          5    1    3    3  502    0  0.96516630835E+02 -0.26174565717E+02 -0.76049371257E+02  0.12570420513E+03  0.41800000000E+01 0. -1.
         -5    1    3    3    0  502 -0.29292810794E+02  0.12363185920E+02 -0.77814351360E+02  0.84163310343E+02  0.41800000000E+01 0. -1.
        -11    1    4    4    0    0  0.99818615911E+01  0.22940386282E+02  0.20500130106E+02  0.32344307350E+02  0.00000000000E+00 0. -1.
         11    1    4    4    0    0 -0.77205681632E+02 -0.91290064854E+01 -0.28352657051E+02  0.82752215665E+02  0.00000000000E+00 0.  1.
</event>
<event>
 8    1  0.7281309E-009  0.1122363E+03  0.7561462E-02  0.1256484E+00
          1   -1    0    0  501    0  0.00000000000E+00  0.00000000000E+00  0.66224381083E+02  0.66224381083E+02  0.00000000000E+00 0. -1.
         -1   -1    0    0    0  501 -0.00000000000E+00 -0.00000000000E+00 -0.38497080753E+03  0.38497080753E+03  0.00000000000E+00 0.  1.
         25    2    1    2    0    0  0.77140455627E+02  0.75621624564E+01 -0.50204730680E+02  0.15548580094E+03  0.12508990013E+03 0.  0.
         23    2    1    2    0    0 -0.77140455627E+02 -0.75621624564E+01 -0.26854169576E+03  0.29570938767E+03  0.96548243890E+02 0.  0.
          5    1    3    3  502    0  0.10365997676E+02 -0.54518605175E+02 -0.14781085204E+02  0.57581985879E+02  0.41800000000E+01 0. -1.
         -5    1    3    3    0  502  0.66774457951E+02  0.62080767631E+02 -0.35423645475E+02  0.97903815059E+02  0.41800000000E+01 0. -1.
        -11    1    4    4    0    0 -0.60214024912E+02 -0.69260602648E+01 -0.27178657550E+03  0.27846299885E+03  0.00000000000E+00 0.  1.
         11    1    4    4    0    0 -0.16926430715E+02 -0.63610219166E+00  0.32448797396E+01  0.17246388818E+02  0.00000000000E+00 0. -1.
</event>
<event>
 8    1  0.7281309E-009  0.1600630E+03  0.7561462E-02  0.1188626E+00
         -1   -1    0    0    0  501 -0.00000000000E+00  0.00000000000E+00  0.24052630153E+03  0.24052630153E+03  0.00000000000E+00 0.  1.
          1   -1    0    0  501    0  0.00000000000E+00 -0.00000000000E+00 -0.11254772153E+03  0.11254772153E+03  0.00000000000E+00 0. -1.
         25    2    1    2    0    0 -0.10957049691E+03  0.46662906090E+02  0.32443405880E+02  0.17573519725E+03  0.12508862606E+03 0.  0.
         23    2    1    2    0    0  0.10957049691E+03 -0.46662906090E+02  0.95535174112E+02  0.17733882581E+03  0.90216234958E+02 0.  0.
          5    1    3    3  502    0 -0.11824443768E+03 -0.64191497427E+01  0.26862422017E+02  0.12149903145E+03  0.41800000000E+01 0. -1.
         -5    1    3    3    0  502  0.86739407732E+01  0.53082055833E+02  0.55809838634E+01  0.54236165802E+02  0.41800000000E+01 0. -1.
        -11    1    4    4    0    0 -0.10400030082E+02 -0.23224406471E+02  0.27398945079E+02  0.37392992299E+02  0.00000000000E+00 0.  1.
         11    1    4    4    0    0  0.11997052699E+03 -0.23438499620E+02  0.68136229033E+02  0.13994583351E+03  0.00000000000E+00 0. -1.
</event>
<event>
 8    1  0.7281309E-009  0.9873976E+02  0.7561462E-02  0.1282969E+00
          1   -1    0    0  501    0  0.00000000000E+00  0.00000000000E+00  0.39672662802E+03  0.39672662802E+03  0.00000000000E+00 0. -1.
         -1   -1    0    0    0  501 -0.00000000000E+00 -0.00000000000E+00 -0.33391934378E+02  0.33391934378E+02  0.00000000000E+00 0.  1.
         25    2    1    2    0    0 -0.22283017310E+02 -0.32225003668E+02  0.19426301988E+03  0.23435352442E+03  0.12509384395E+03 0.  0.
         23    2    1    2    0    0  0.22283017310E+02  0.32225003668E+02  0.16907167377E+03  0.19576503799E+03  0.90574474904E+02 0.  0.
          5    1    3    3  502    0  0.10679071076E+02  0.44534779542E+02  0.52859509068E+02  0.70064179485E+02  0.41800000000E+01 0.  1.
         -5    1    3    3    0  502 -0.32962088386E+02 -0.76759783210E+02  0.14140351081E+03  0.16428934493E+03  0.41800000000E+01 0.  1.
        -11    1    4    4    0    0 -0.13874485357E+02 -0.61035194427E+01 -0.33058498343E+01  0.15513959412E+02  0.00000000000E+00 0.  1.
         11    1    4    4    0    0  0.36157502667E+02  0.38328523111E+02  0.17237752361E+03  0.18025107857E+03  0.00000000000E+00 0. -1.
</event>
<event>
 8    1  0.7281309E-009  0.9077320E+02  0.7561462E-02  0.1300990E+00
          2   -1    0    0  501    0  0.00000000000E+00  0.00000000000E+00  0.44311674597E+03  0.44311674597E+03  0.00000000000E+00 0. -1.
         -2   -1    0    0    0  501 -0.00000000000E+00 -0.00000000000E+00 -0.32014783339E+02  0.32014783339E+02  0.00000000000E+00 0.  1.
         25    2    1    2    0    0  0.33724121765E+02 -0.36982782815E+02  0.22652460858E+03  0.26355992354E+03  0.12508154296E+03 0.  0.
         23    2    1    2    0    0 -0.33724121765E+02  0.36982782815E+02  0.18457735404E+03  0.21157160576E+03  0.90491447805E+02 0.  0.
          5    1    3    3  502    0  0.13707203857E+02 -0.54997933590E+02  0.28336013379E+02  0.63506394882E+02  0.41800000000E+01 0. -1.
         -5    1    3    3    0  502  0.20016917907E+02  0.18015150774E+02  0.19818859521E+03  0.20005352866E+03  0.41800000000E+01 0. -1.
        -11    1    4    4    0    0  0.14302784645E+02  0.46368503499E+02  0.12731052705E+03  0.13624455242E+03  0.00000000000E+00 0.  1.
         11    1    4    4    0    0 -0.48026906409E+02 -0.93857206832E+01  0.57266826991E+02  0.75327053345E+02  0.00000000000E+00 0. -1.
</event>
<event>
 8    1  0.7281309E-009  0.1017304E+03  0.7561462E-02  0.1276699E+00
          1   -1    0    0  501    0  0.00000000000E+00  0.00000000000E+00  0.34038272534E+03  0.34038272534E+03  0.00000000000E+00 0. -1.
         -1   -1    0    0    0  501 -0.00000000000E+00 -0.00000000000E+00 -0.45095219275E+02  0.45095219275E+02  0.00000000000E+00 0.  1.
         25    2    1    2    0    0 -0.51717904854E+02 -0.39269062588E+01  0.21421281522E+03  0.25343065137E+03  0.12509917097E+03 0.  0.
         23    2    1    2    0    0  0.51717904854E+02  0.39269062588E+01  0.81074690845E+02  0.13204729324E+03  0.90405861983E+02 0.  0.
          5    1    3    3  502    0 -0.45557199894E+02 -0.41001601627E+02  0.20568876192E+03  0.21466701884E+03  0.41800000000E+01 0.  1.
         -5    1    3    3    0  502 -0.61607049608E+01  0.37074695368E+02  0.85240532940E+01  0.38763632529E+02  0.41800000000E+01 0.  1.
        -11    1    4    4    0    0  0.72308053298E+02  0.23271535053E+02  0.60086836878E+02  0.96852707146E+02  0.00000000000E+00 0. -1.
         11    1    4    4    0    0 -0.20590148444E+02 -0.19344628794E+02  0.20987853968E+02  0.35194586094E+02  0.00000000000E+00 0.  1.
</event>
<event>
 8    1  0.7281309E-009  0.1105776E+03  0.7561462E-02  0.1259504E+00
          2   -1    0    0  501    0  0.00000000000E+00  0.00000000000E+00  0.21814729700E+03  0.21814729700E+03  0.00000000000E+00 0. -1.
         -2   -1    0    0    0  501 -0.00000000000E+00 -0.00000000000E+00 -0.74080633311E+02  0.74080633311E+02  0.00000000000E+00 0.  1.
         25    2    1    2    0    0 -0.52070940424E+01  0.64863281931E+02  0.97509392169E+02  0.17142471440E+03  0.12507594483E+03 0.  0.
         23    2    1    2    0    0  0.52070940424E+01 -0.64863281931E+02  0.46557271524E+02  0.12080321591E+03  0.90506785777E+02 0.  0.
          5    1    3    3  502    0 -0.26074948390E+01  0.92225407585E+02  0.27915975621E+02  0.96483671823E+02  0.41800000000E+01 0. -1.
         -5    1    3    3    0  502 -0.25995992034E+01 -0.27362125654E+02  0.69593416548E+02  0.74941042581E+02  0.41800000000E+01 0. -1.
        -11    1    4    4    0    0 -0.35791265411E+02 -0.23875238634E+02 -0.48810892043E+01  0.43299731309E+02  0.00000000000E+00 0.  1.
         11    1    4    4    0    0  0.40998359454E+02 -0.40988043297E+02  0.51438360728E+02  0.77503484603E+02  0.00000000000E+00 0. -1.
</event>
<event>
 8    1  0.7281309E-009  0.1202804E+03  0.7561462E-02  0.1242635E+00
          2   -1    0    0  501    0  0.00000000000E+00  0.00000000000E+00  0.43733091043E+03  0.43733091043E+03  0.00000000000E+00 0. -1.
         -2   -1    0    0    0  501 -0.00000000000E+00 -0.00000000000E+00 -0.44846543439E+02  0.44846543439E+02  0.00000000000E+00 0.  1.
         25    2    1    2    0    0  0.71533860544E+02 -0.18894904050E+02  0.13201121457E+03  0.19633610150E+03  0.12508714314E+03 0.  0.
         23    2    1    2    0    0 -0.71533860544E+02  0.18894904050E+02  0.26047315243E+03  0.28584135237E+03  0.91569126816E+02 0.  0.
          5    1    3    3  502    0  0.36695958742E+02 -0.66278041217E+02  0.10951359282E+03  0.13322939446E+03  0.41800000000E+01 0. -1.
         -5    1    3    3    0  502  0.34837901802E+02  0.47383137167E+02  0.22497621751E+02  0.63106707046E+02  0.41800000000E+01 0. -1.
        -11    1    4    4    0    0 -0.44338572764E+02  0.48373669328E+02  0.94218795379E+02  0.11481769168E+03  0.00000000000E+00 0.  1.
         11    1    4    4    0    0 -0.27195287780E+02 -0.29478765278E+02  0.16625435705E+03  0.17102366070E+03  0.00000000000E+00 0. -1.
</event>
<event>
 8    1  0.7281309E-009  0.1656950E+03  0.7561462E-02  0.1182413E+00
          1   -1    0    0  501    0  0.00000000000E+00  0.00000000000E+00  0.17139081271E+03  0.17139081271E+03  0.00000000000E+00 0. -1.
         -1   -1    0    0    0  501 -0.00000000000E+00 -0.00000000000E+00 -0.25285848099E+03  0.25285848099E+03  0.00000000000E+00 0.  1.
         25    2    1    2    0    0  0.14689829972E+03 -0.59570896463E+02 -0.12692311191E+03  0.23850498468E+03  0.12508936490E+03 0.  0.
         23    2    1    2    0    0 -0.14689829972E+03  0.59570896463E+02  0.45455443632E+02  0.18574430902E+03  0.85480692613E+02 0.  0.
          5    1    3    3  502    0  0.21702311373E+02  0.37718939017E+01 -0.90847180506E+02  0.93572966761E+02  0.41800000000E+01 0.  1.
         -5    1    3    3    0  502  0.12519598835E+03 -0.63342790365E+02 -0.36075931404E+02  0.14493201791E+03  0.41800000000E+01 0.  1.
        -11    1    4    4    0    0 -0.14100965501E+03  0.37718763571E+02  0.13505214458E+02  0.14659065028E+03  0.00000000000E+00 0. -1.
         11    1    4    4    0    0 -0.58886447137E+01  0.21852132892E+02  0.31950229174E+02  0.39153658740E+02  0.00000000000E+00 0.  1.
</event>
<event>
 8    1  0.7281309E-009  0.1384454E+03  0.7561462E-02  0.1215436E+00
          2   -1    0    0  501    0  0.00000000000E+00  0.00000000000E+00  0.38158203241E+03  0.38158203241E+03  0.00000000000E+00 0. -1.
         -2   -1    0    0    0  501 -0.00000000000E+00 -0.00000000000E+00 -0.11029192068E+03  0.11029192068E+03  0.00000000000E+00 0.  1.
         25    2    1    2    0    0  0.13939691089E+02  0.85519843536E+02 -0.39136336896E+02  0.15712172012E+03  0.12509046104E+03 0.  0.
         23    2    1    2    0    0 -0.13939691089E+02 -0.85519843536E+02  0.31042644862E+03  0.33475223296E+03  0.90479383520E+02 0.  0.
          5    1    3    3  502    0  0.67094162407E+02  0.25989951954E+02 -0.22370143075E+02  0.75465223334E+02  0.41800000000E+01 0. -1.
         -5    1    3    3    0  502 -0.53154471318E+02  0.59529891582E+02 -0.16766193821E+02  0.81656496791E+02  0.41800000000E+01 0. -1.
        -11    1    4    4    0    0 -0.37274385518E+02 -0.10736123726E+01  0.81175362690E+02  0.89330688832E+02  0.00000000000E+00 0.  1.
         11    1    4    4    0    0  0.23334694429E+02 -0.84446231164E+02  0.22925108593E+03  0.24542154413E+03  0.00000000000E+00 0. -1.
</event>
<event>
 8    1  0.7281309E-009  0.1891433E+03  0.7561462E-02  0.1159236E+00
          1   -1    0    0  501    0  0.00000000000E+00  0.00000000000E+00  0.68045519749E+03  0.68045519749E+03  0.00000000000E+00 0. -1.
         -1   -1    0    0    0  501 -0.00000000000E+00 -0.00000000000E+00 -0.63971586687E+02  0.63971586687E+02  0.00000000000E+00 0.  1.
         25    2    1    2    0    0 -0.16541493196E+03  0.71354162868E+01  0.20666918505E+03  0.29287090966E+03  0.12509278073E+03 0.  0.
         23    2    1    2    0    0  0.16541493196E+03 -0.71354162868E+01  0.40981442575E+03  0.45155587452E+03  0.92422023238E+02 0.  0.
          5    1    3    3  502    0 -0.16233132688E+03  0.45569371175E+02  0.16500588366E+03  0.23595008226E+03  0.41800000000E+01 0.  1.
         -5    1    3    3    0  502 -0.30836050815E+01 -0.38433954888E+02  0.41663301388E+02  0.56920827394E+02  0.41800000000E+01 0.  1.
        -11    1    4    4    0    0  0.11810756489E+03  0.14183457669E+02  0.36182301521E+03  0.38087591377E+03  0.00000000000E+00 0. -1.
         11    1    4    4    0    0  0.47307367069E+02 -0.21318873956E+02  0.47991410542E+02  0.70679960750E+02  0.00000000000E+00 0.  1.
</event>
<event>
 8    1  0.7281309E-009  0.1034847E+03  0.7561462E-02  0.1273134E+00
          1   -1    0    0  501    0  0.00000000000E+00  0.00000000000E+00  0.17406857896E+03  0.17406857896E+03  0.00000000000E+00 0. -1.
         -1   -1    0    0    0  501 -0.00000000000E+00 -0.00000000000E+00 -0.11942325319E+03  0.11942325319E+03  0.00000000000E+00 0.  1.
         25    2    1    2    0    0 -0.19369021021E+02  0.78462548925E+02 -0.21078750423E+02  0.15040563162E+03  0.12508401075E+03 0.  0.
         23    2    1    2    0    0  0.19369021021E+02 -0.78462548925E+02  0.75724076196E+02  0.14308620052E+03  0.90597982901E+02 0.  0.
          5    1    3    3  502    0  0.12593886210E+02  0.78592513225E+02 -0.60076291445E+02  0.99809930862E+02  0.41800000000E+01 0.  1.
         -5    1    3    3    0  502 -0.31962907231E+02 -0.12996429987E+00  0.38997541023E+02  0.50595700758E+02  0.41800000000E+01 0.  1.
        -11    1    4    4    0    0  0.34211416791E+02 -0.70076415287E+02  0.14225457219E+02  0.79268459373E+02  0.00000000000E+00 0.  1.
         11    1    4    4    0    0 -0.14842395770E+02 -0.83861336380E+01  0.61498618977E+02  0.63817741152E+02  0.00000000000E+00 0. -1.
</event>
<event>
 8    1  0.7281309E-009  0.1091362E+03  0.7561462E-02  0.1262178E+00
         -2   -1    0    0    0  501 -0.00000000000E+00  0.00000000000E+00  0.82491606028E+03  0.82491606028E+03  0.00000000000E+00 0.  1.
          2   -1    0    0  501    0  0.00000000000E+00 -0.00000000000E+00 -0.19247001030E+02  0.19247001030E+02  0.00000000000E+00 0. -1.
         25    2    1    2    0    0 -0.55944302547E+02 -0.36680502895E+02  0.54924726707E+03  0.56727012435E+03  0.12509040455E+03 0.  0.
         23    2    1    2    0    0  0.55944302547E+02  0.36680502895E+02  0.25642179218E+03  0.27689293696E+03  0.80264181028E+02 0.  0.
          5    1    3    3  502    0  0.29487409845E+01  0.28513898444E+02  0.32655494526E+03  0.32783737150E+03  0.41800000000E+01 0.  1.
         -5    1    3    3    0  502 -0.58893043531E+02 -0.65194401339E+02  0.22269232181E+03  0.23943275284E+03  0.41800000000E+01 0.  1.
        -11    1    4    4    0    0 -0.25636650801E+01  0.42476185303E+02  0.14215396861E+03  0.14838648688E+03  0.00000000000E+00 0.  1.
         11    1    4    4    0    0  0.58507967627E+02 -0.57956824077E+01  0.11426782357E+03  0.12850645008E+03  0.00000000000E+00 0. -1.
</event>
<event>
 8    1  0.7281309E-009  0.1158135E+03  0.7561462E-02  0.1250168E+00
          1   -1    0    0  501    0  0.00000000000E+00  0.00000000000E+00  0.11364145400E+04  0.11364145400E+04  0.00000000000E+00 0. -1.
         -1   -1    0    0    0  501 -0.00000000000E+00 -0.00000000000E+00 -0.24288904258E+02  0.24288904258E+02  0.00000000000E+00 0.  1.
         25    2    1    2    0    0  0.71127523965E+02 -0.85446063199E+02  0.79206585665E+03  0.80955303336E+03  0.12509051988E+03 0.  0.
         23    2    1    2    0    0 -0.71127523965E+02  0.85446063199E+02  0.32005977912E+03  0.35115041093E+03  0.92239874808E+02 0.  0.
          5    1    3    3  502    0  0.65211734018E+02 -0.56384422413E+02  0.76283546204E+03  0.76770253868E+03  0.41800000000E+01 0. -1.
         -5    1    3    3    0  502  0.59157899469E+01 -0.29061640786E+02  0.29230394610E+02  0.41850494680E+02  0.41800000000E+01 0. -1.
        -11    1    4    4    0    0 -0.44085796095E+02  0.28974180096E+02  0.45886877981E+02  0.69918996706E+02  0.00000000000E+00 0.  1.
         11    1    4    4    0    0 -0.27041727869E+02  0.56471883104E+02  0.27417290114E+03  0.28123141423E+03  0.00000000000E+00 0. -1.
</event>
<event>
 8    1  0.7281309E-009  0.9978690E+02  0.7561462E-02  0.1280745E+00
         -4   -1    0    0    0  501 -0.00000000000E+00  0.00000000000E+00  0.38862180702E+03  0.38862180702E+03  0.00000000000E+00 0. -1.
          4   -1    0    0  501    0  0.00000000000E+00 -0.00000000000E+00 -0.32981438263E+02  0.32981438263E+02  0.00000000000E+00 0.  1.
         25    2    1    2    0    0 -0.11260413672E+02  0.23238113188E+02  0.21491893074E+03  0.25000898112E+03  0.12509011563E+03 0.  0.
         23    2    1    2    0    0  0.11260413672E+02 -0.23238113188E+02  0.14072143801E+03  0.17159426416E+03  0.94737857040E+02 0.  0.
          5    1    3    3  502    0 -0.11448558030E+02  0.66301209313E+02  0.63791571021E+02  0.92810326854E+02  0.41800000000E+01 0.  1.
         -5    1    3    3    0  502  0.18814435797E+00 -0.43063096126E+02  0.15112735972E+03  0.15719865427E+03  0.41800000000E+01 0.  1.
        -11    1    4    4    0    0  0.18435604228E+02 -0.54129104239E+02  0.51686692920E+02  0.77080124896E+02  0.00000000000E+00 0.  1.
         11    1    4    4    0    0 -0.71751905553E+01  0.30890991051E+02  0.89034745092E+02  0.94514139266E+02  0.00000000000E+00 0. -1.
</event>
<event>
 8    1  0.7281309E-009  0.1683415E+03  0.7561462E-02  0.1179589E+00
          1   -1    0    0  501    0  0.00000000000E+00  0.00000000000E+00  0.12752226572E+04  0.12752226572E+04  0.00000000000E+00 0. -1.
         -1   -1    0    0    0  501 -0.00000000000E+00 -0.00000000000E+00 -0.85116819235E+02  0.85116819235E+02  0.00000000000E+00 0.  1.
         25    2    1    2    0    0 -0.14983319950E+03  0.40992360124E+02  0.11613304280E+04  0.11783307831E+04  0.12507881512E+03 0.  0.
         23    2    1    2    0    0  0.14983319950E+03 -0.40992360124E+02  0.28775409979E+02  0.18200869341E+03  0.90381297825E+02 0.  0.
          5    1    3    3  502    0 -0.24969576500E+02 -0.18605315174E+02  0.57598847812E+03  0.57684472506E+03  0.41800000000E+01 0.  1.
         -5    1    3    3    0  502 -0.12486362300E+03  0.59597675298E+02  0.58534194991E+03  0.60148605800E+03  0.41800000000E+01 0.  1.
        -11    1    4    4    0    0  0.13665330488E+03 -0.14710884456E+02 -0.46131610373E+01  0.13752024255E+03  0.00000000000E+00 0.  1.
         11    1    4    4    0    0  0.13179894620E+02 -0.26281475668E+02  0.33388571016E+02  0.44488450861E+02  0.00000000000E+00 0. -1.
</event>
<event>
 8    1  0.7281309E-009  0.1091235E+03  0.7561462E-02  0.1262202E+00
          2   -1    0    0  501    0  0.00000000000E+00  0.00000000000E+00  0.16545098594E+03  0.16545098594E+03  0.00000000000E+00 0. -1.
         -2   -1    0    0    0  501 -0.00000000000E+00 -0.00000000000E+00 -0.14291486278E+03  0.14291486278E+03  0.00000000000E+00 0.  1.
         25    2    1    2    0    0 -0.76939469036E+01  0.99474230273E+02 -0.22501989765E+02  0.16158283702E+03  0.12509338260E+03 0.  0.
         23    2    1    2    0    0  0.76939469036E+01 -0.99474230273E+02  0.45038112919E+02  0.14678301170E+03  0.97788044261E+02 0.  0.
          5    1    3    3  502    0  0.23876259724E+02  0.21151547640E+02  0.43653960515E+02  0.54227340102E+02  0.41800000000E+01 0. -1.
         -5    1    3    3    0  502 -0.31570206628E+02  0.78322682633E+02 -0.66155950280E+02  0.10735549692E+03  0.41800000000E+01 0. -1.
        -11    1    4    4    0    0 -0.51116840710E+01 -0.55260936786E+02 -0.26669794588E+02  0.61572545764E+02  0.00000000000E+00 0.  1.
         11    1    4    4    0    0  0.12805630975E+02 -0.44213293487E+02  0.71707907507E+02  0.85210465934E+02  0.00000000000E+00 0. -1.
</event>
<event>
 8    1  0.7281309E-009  0.1110989E+03  0.7561462E-02  0.1258548E+00
          1   -1    0    0  501    0  0.00000000000E+00  0.00000000000E+00  0.42153055866E+03  0.42153055866E+03  0.00000000000E+00 0. -1.
         -1   -1    0    0    0  501 -0.00000000000E+00 -0.00000000000E+00 -0.48674922719E+02  0.48674922719E+02  0.00000000000E+00 0.  1.
         25    2    1    2    0    0  0.68959844783E+02 -0.38821855116E+02  0.28201862109E+03  0.31850297237E+03  0.12508814548E+03 0.  0.
         23    2    1    2    0    0 -0.68959844783E+02  0.38821855116E+02  0.90837014851E+02  0.15170250901E+03  0.92193770646E+02 0.  0.
          5    1    3    3  502    0 -0.12707807326E+02 -0.95407144975E+00 -0.74425723310E+01  0.15338282246E+02  0.41800000000E+01 0.  1.
         -5    1    3    3    0  502  0.81667652109E+02 -0.37867783666E+02  0.28946119342E+03  0.30316469012E+03  0.41800000000E+01 0.  1.
        -11    1    4    4    0    0 -0.71687240560E+02 -0.76711172629E+01  0.70651877346E+02  0.10094352021E+03  0.00000000000E+00 0.  1.
         11    1    4    4    0    0  0.27273957772E+01  0.46492972379E+02  0.20185137505E+02  0.50758988804E+02  0.00000000000E+00 0. -1.
</event>
<event>
 8    1  0.7281309E-009  0.1249977E+03  0.7561462E-02  0.1235073E+00
         -1   -1    0    0    0  501 -0.00000000000E+00  0.00000000000E+00  0.21742869129E+02  0.21742869129E+02  0.00000000000E+00 0.  1.
          1   -1    0    0  501    0  0.00000000000E+00 -0.00000000000E+00 -0.11001219257E+04  0.11001219257E+04  0.00000000000E+00 0. -1.
         25    2    1    2    0    0  0.25424804904E+02 -0.10409294896E+03 -0.50106355445E+03  0.52743799281E+03  0.12507752766E+03 0.  0.
         23    2    1    2    0    0 -0.25424804904E+02  0.10409294896E+03 -0.57731550207E+03  0.59442680198E+03  0.92564956920E+02 0.  0.
          5    1    3    3  502    0  0.23206326211E+02 -0.10022179955E+03 -0.18825891960E+03  0.21457361415E+03  0.41800000000E+01 0.  1.
         -5    1    3    3    0  502  0.22184786931E+01 -0.38711494129E+01 -0.31280463485E+03  0.31286437866E+03  0.41800000000E+01 0.  1.
        -11    1    4    4    0    0 -0.19722539539E+01  0.11502914776E+03 -0.49208545276E+03  0.50535501129E+03  0.00000000000E+00 0.  1.
         11    1    4    4    0    0 -0.23452550950E+02 -0.10936198801E+02 -0.85230049315E+02  0.89071790689E+02  0.00000000000E+00 0. -1.
</event>
<event>
 8    1  0.7281309E-009  0.1570775E+03  0.7561462E-02  0.1192036E+00
          2   -1    0    0  501    0  0.00000000000E+00  0.00000000000E+00  0.18600787785E+04  0.18600787785E+04  0.00000000000E+00 0. -1.
         -2   -1    0    0    0  501 -0.00000000000E+00 -0.00000000000E+00 -0.21446709443E+02  0.21446709443E+02  0.00000000000E+00 0.  1.
         25    2    1    2    0    0 -0.11786338458E+03  0.62831015882E+02  0.14329376221E+04  0.14445749959E+04  0.12508867233E+03 0.  0.
         23    2    1    2    0    0  0.11786338458E+03 -0.62831015882E+02  0.40569444694E+03  0.43695049203E+03  0.92185867838E+02 0.  0.
          5    1    3    3  502    0 -0.40933346119E+02  0.66005685692E+02  0.11033230756E+04  0.11060612871E+04  0.41800000000E+01 0. -1.
         -5    1    3    3    0  502 -0.76930038462E+02 -0.31746698102E+01  0.32961454654E+03  0.33851370879E+03  0.41800000000E+01 0. -1.
        -11    1    4    4    0    0 -0.13544857251E+02  0.14741450090E+00  0.16363227771E+02  0.21242413048E+02  0.00000000000E+00 0.  1.
         11    1    4    4    0    0  0.13140824183E+03 -0.62978430383E+02  0.38933121917E+03  0.41570807898E+03  0.00000000000E+00 0. -1.
</event>
<event>
 8    1  0.7281309E-009  0.1223526E+03  0.7561462E-02  0.1239266E+00
          2   -1    0    0  501    0  0.00000000000E+00  0.00000000000E+00  0.63615246955E+02  0.63615246955E+02  0.00000000000E+00 0. -1.
         -2   -1    0    0    0  501 -0.00000000000E+00 -0.00000000000E+00 -0.32515123521E+03  0.32515123521E+03  0.00000000000E+00 0.  1.
         25    2    1    2    0    0 -0.50331003119E+02 -0.65788790400E+02 -0.19836294407E+03  0.24870878573E+03  0.12508728033E+03 0.  0.
         23    2    1    2    0    0  0.50331003119E+02  0.65788790400E+02 -0.63173044183E+02  0.14005769643E+03  0.93615970870E+02 0.  0.
          5    1    3    3  502    0  0.35996324862E+02  0.19727487066E+01 -0.27249732914E+02  0.45383339287E+02  0.41800000000E+01 0. -1.
         -5    1    3    3    0  502 -0.86327327981E+02 -0.67761539106E+02 -0.17111321116E+03  0.20332544644E+03  0.41800000000E+01 0. -1.
        -11    1    4    4    0    0 -0.10709497481E+02  0.18488721035E+02 -0.58969867401E+02  0.62721379155E+02  0.00000000000E+00 0.  1.
         11    1    4    4    0    0  0.61040500600E+02  0.47300069365E+02 -0.42031767828E+01  0.77336317280E+02  0.00000000000E+00 0. -1.
</event>
<event>
 8    1  0.7281309E-009  0.1135459E+03  0.7561462E-02  0.1254141E+00
         -2   -1    0    0    0  501 -0.00000000000E+00  0.00000000000E+00  0.12062591009E+02  0.12062591009E+02  0.00000000000E+00 0.  1.
          2   -1    0    0  501    0  0.00000000000E+00 -0.00000000000E+00 -0.13419860391E+04  0.13419860391E+04  0.00000000000E+00 0. -1.
         25    2    1    2    0    0 -0.39229900224E+02  0.36889311214E+02 -0.95217749437E+03  0.96186890297E+03  0.12509995749E+03 0.  0.
         23    2    1    2    0    0  0.39229900224E+02 -0.36889311214E+02 -0.37774595367E+03  0.39217972709E+03  0.90626301214E+02 0.  0.
          5    1    3    3  502    0 -0.14550673694E+02  0.77196603058E+02 -0.40036944407E+03  0.40802475632E+03  0.41800000000E+01 0. -1.
         -5    1    3    3    0  502 -0.24679226530E+02 -0.40307291844E+02 -0.55180805030E+03  0.55384414665E+03  0.41800000000E+01 0. -1.
        -11    1    4    4    0    0  0.53589842489E+02 -0.55712135742E+02 -0.32938829049E+03  0.33833764082E+03  0.00000000000E+00 0. -1.
         11    1    4    4    0    0 -0.14359942265E+02  0.18822824528E+02 -0.48357663187E+02  0.53842086271E+02  0.00000000000E+00 0.  1.
</event>
<event>
 8    1  0.7281309E-009  0.1419511E+03  0.7561462E-02  0.1210728E+00
         -1   -1    0    0    0  501 -0.00000000000E+00  0.00000000000E+00  0.55246497494E+02  0.55246497494E+02  0.00000000000E+00 0.  1.
          1   -1    0    0  501    0  0.00000000000E+00 -0.00000000000E+00 -0.46859757957E+03  0.46859757957E+03  0.00000000000E+00 0. -1.
         25    2    1    2    0    0 -0.25610962686E+02 -0.11252096211E+03 -0.17853475136E+03  0.24664746161E+03  0.12507367649E+03 0.  0.
         23    2    1    2    0    0  0.25610962686E+02  0.11252096211E+03 -0.23481633071E+03  0.27719661545E+03  0.91555262688E+02 0.  0.
          5    1    3    3  502    0 -0.40854233710E+02 -0.11357333866E+03 -0.19134798965E+03  0.22627305896E+03  0.41800000000E+01 0.  1.
         -5    1    3    3    0  502  0.15243271024E+02  0.10523765501E+01  0.12813238289E+02  0.20374402650E+02  0.41800000000E+01 0.  1.
        -11    1    4    4    0    0 -0.33038490717E+02  0.22952145831E+02 -0.62338717957E+02  0.74192038816E+02  0.00000000000E+00 0.  1.
         11    1    4    4    0    0  0.58649453403E+02  0.89568816281E+02 -0.17247761276E+03  0.20300457664E+03  0.00000000000E+00 0. -1.
</event>
<event>
 8    1  0.7281309E-009  0.1990000E+03  0.7561462E-02  0.1150585E+00
         -1   -1    0    0    0  501 -0.00000000000E+00  0.00000000000E+00  0.54919740975E+02  0.54919740975E+02  0.00000000000E+00 0.  1.
          1   -1    0    0  501    0  0.00000000000E+00 -0.00000000000E+00 -0.88833031934E+03  0.88833031934E+03  0.00000000000E+00 0. -1.
         25    2    1    2    0    0  0.24105867660E+02  0.18031451865E+03 -0.57952670191E+03  0.62015849107E+03  0.12510370629E+03 0.  0.
         23    2    1    2    0    0 -0.24105867660E+02 -0.18031451865E+03 -0.25388387646E+03  0.32309156925E+03  0.82684465917E+02 0.  0.
          5    1    3    3  502    0 -0.47874877683E+01 -0.92852248204E+01 -0.14174287673E+03  0.14218878628E+03  0.41800000000E+01 0. -1.
         -5    1    3    3    0  502  0.28893355429E+02  0.18959974347E+03 -0.43778382518E+03  0.47796970479E+03  0.41800000000E+01 0. -1.
        -11    1    4    4    0    0 -0.41874349867E+02 -0.59257904479E+02 -0.13057034903E+03  0.14937729568E+03  0.00000000000E+00 0.  1.
         11    1    4    4    0    0  0.17768482207E+02 -0.12105661417E+03 -0.12331352743E+03  0.17371427357E+03  0.00000000000E+00 0. -1.
</event>
<event>
 8    1  0.7281309E-009  0.1017105E+03  0.7561462E-02  0.1276740E+00
          2   -1    0    0  501    0  0.00000000000E+00  0.00000000000E+00  0.24207546246E+03  0.24207546246E+03  0.00000000000E+00 0.  1.
         -2   -1    0    0    0  501 -0.00000000000E+00 -0.00000000000E+00 -0.70763671056E+02  0.70763671056E+02  0.00000000000E+00 0. -1.
         25    2    1    2    0    0  0.37624966794E+02  0.69862964543E+01  0.23528861012E+02  0.13290831239E+03  0.12508623320E+03 0.  0.
         23    2    1    2    0    0 -0.37624966794E+02 -0.69862964543E+01  0.14778293039E+03  0.17993082113E+03  0.95241059494E+02 0.  0.
          5    1    3    3  502    0 -0.41875221906E+02  0.12369028043E+02 -0.12131950756E+02  0.45510259212E+02  0.41800000000E+01 0.  1.
         -5    1    3    3    0  502  0.79500188699E+02 -0.53827315888E+01  0.35660811768E+02  0.87398053174E+02  0.41800000000E+01 0.  1.
        -11    1    4    4    0    0 -0.58030914144E+02  0.49094865458E+00  0.14715970560E+03  0.15818914938E+03  0.00000000000E+00 0.  1.
         11    1    4    4    0    0  0.20405947351E+02 -0.74772451088E+01  0.62322479114E+00  0.21741671758E+02  0.00000000000E+00 0. -1.
</event>
<event>
 7    1  0.7281309E-009  0.1466355E+03  0.7561462E-02  0.1204669E+00
          1   -1    0    0  501    0  0.00000000000E+00  0.00000000000E+00  0.17126160380E+03  0.17126160380E+03  0.00000000000E+00 0. -1.
         -1   -1    0    0    0  501 -0.00000000000E+00 -0.00000000000E+00 -0.25486504471E+03  0.25486504471E+03  0.00000000000E+00 0.  1.
         23    2    1    2    0    0 -0.70628836746E+02  0.10644074125E+03 -0.16612098961E+03  0.22942327230E+03  0.93385173891E+02 0.  0.
          5    1    1    2  502    0  0.14728915664E+02  0.19725043932E+02  0.48446995715E+02  0.54503230258E+02  0.41800000000E+01 0.  1.
         -5    1    1    2    0  502  0.55899921081E+02 -0.12616578518E+03  0.34070552983E+02  0.14220014595E+03  0.41800000000E+01 0.  1.
        -11    1    3    3    0    0 -0.21385686265E+02  0.55097195420E+02 -0.14281619015E+03  0.15456232623E+03  0.00000000000E+00 0.  1.
         11    1    3    3    0    0 -0.49243150481E+02  0.51343545833E+02 -0.23304799461E+02  0.74860946066E+02  0.00000000000E+00 0. -1.
</event>
<event>
 8    1  0.7281309E-009  0.1271859E+03  0.7561462E-02  0.1231692E+00
         -2   -1    0    0    0  501 -0.00000000000E+00  0.00000000000E+00  0.80230631161E+02  0.80230631161E+02  0.00000000000E+00 0.  1.
          2   -1    0    0  501    0  0.00000000000E+00 -0.00000000000E+00 -0.43544363113E+03  0.43544363113E+03  0.00000000000E+00 0. -1.
         25    2    1    2    0    0 -0.64154016667E+02  0.42300676792E+02 -0.36792808281E+03  0.39613620673E+03  0.12509090713E+03 0.  0.
         23    2    1    2    0    0  0.64154016667E+02 -0.42300676792E+02  0.12715082840E+02  0.11953805557E+03  0.90678488547E+02 0.  0.
          5    1    3    3  502    0 -0.29374340018E+02  0.85674819909E+02 -0.21360847828E+03  0.23205404761E+03  0.41800000000E+01 0. -1.
         -5    1    3    3    0  502 -0.34779676649E+02 -0.43374143116E+02 -0.15431960453E+03  0.16408215912E+03  0.41800000000E+01 0. -1.
        -11    1    4    4    0    0  0.21238443229E+02  0.22042568963E+02  0.27085071345E+02  0.40872330580E+02  0.00000000000E+00 0.  1.
         11    1    4    4    0    0  0.42915573438E+02 -0.64343245756E+02 -0.14369988505E+02  0.78665724985E+02  0.00000000000E+00 0. -1.
</event>
<event>
 8    1  0.7281309E-009  0.2873651E+03  0.7561462E-02  0.1091733E+00
          1   -1    0    0  501    0  0.00000000000E+00  0.00000000000E+00  0.40159237553E+03  0.40159237553E+03  0.00000000000E+00 0. -1.
         -1   -1    0    0    0  501 -0.00000000000E+00 -0.00000000000E+00 -0.22271829890E+03  0.22271829890E+03  0.00000000000E+00 0.  1.
         25    2    1    2    0    0 -0.17715435673E+03  0.20917813763E+03  0.42854413733E+02  0.30434032923E+03  0.12508947138E+03 0.  0.
         23    2    1    2    0    0  0.17715435673E+03 -0.20917813763E+03  0.13601966289E+03  0.31997034520E+03  0.93490714751E+02 0.  0.
          5    1    3    3  502    0 -0.55369171039E+02  0.16021398933E+01 -0.13421732667E+02  0.57148291852E+02  0.41800000000E+01 0. -1.
         -5    1    3    3    0  502 -0.12178518569E+03  0.20757599773E+03  0.56276146400E+02  0.24719203738E+03  0.41800000000E+01 0. -1.
        -11    1    4    4    0    0  0.70731081758E+02 -0.12150851405E+03  0.11256582184E+03  0.18010627185E+03  0.00000000000E+00 0. -1.
         11    1    4    4    0    0  0.10642327497E+03 -0.87669623582E+02  0.23453841051E+02  0.13986407335E+03  0.00000000000E+00 0.  1.
</event>
<event>
 8    1  0.7281309E-009  0.8500324E+02  0.7561462E-02  0.1315424E+00
         -1   -1    0    0    0  501 -0.00000000000E+00  0.00000000000E+00  0.42235274398E+02  0.42235274398E+02  0.00000000000E+00 0.  1.
          1   -1    0    0  501    0  0.00000000000E+00 -0.00000000000E+00 -0.31875650116E+03  0.31875650116E+03  0.00000000000E+00 0. -1.
         25    2    1    2    0    0  0.24872518571E+02  0.29703410742E+02 -0.13378228677E+03  0.18720652455E+03  0.12509055837E+03 0.  0.
         23    2    1    2    0    0 -0.24872518571E+02 -0.29703410742E+02 -0.14273893999E+03  0.17378525100E+03  0.91246773560E+02 0.  0.
          5    1    3    3  502    0  0.42983857088E+02  0.31099997438E+02 -0.15205787056E+03  0.16110211113E+03  0.41800000000E+01 0. -1.
         -5    1    3    3    0  502 -0.18111338517E+02 -0.13965866966E+01  0.18275583795E+02  0.26104413426E+02  0.41800000000E+01 0. -1.
        -11    1    4    4    0    0 -0.55548176141E+02 -0.14539265754E+00 -0.92704450188E+02  0.10807282774E+03  0.00000000000E+00 0. -1.
         11    1    4    4    0    0  0.30675657569E+02 -0.29558018084E+02 -0.50034489805E+02  0.65712423258E+02  0.00000000000E+00 0.  1.
</event>
<event>
 8    1  0.7281309E-009  0.1418560E+03  0.7561462E-02  0.1210853E+00
         -1   -1    0    0    0  501 -0.00000000000E+00  0.00000000000E+00  0.15017393958E+03  0.15017393958E+03  0.00000000000E+00 0.  1.
          1   -1    0    0  501    0  0.00000000000E+00 -0.00000000000E+00 -0.18014770511E+03  0.18014770511E+03  0.00000000000E+00 0. -1.
         25    2    1    2    0    0  0.78907649827E+02 -0.91932339460E+02  0.68052580255E+01  0.17427728891E+03  0.12509312392E+03 0.  0.
         23    2    1    2    0    0 -0.78907649827E+02  0.91932339460E+02 -0.36779023558E+02  0.15604435579E+03  0.91209496000E+02 0.  0.
          5    1    3    3  502    0  0.89657036743E+02 -0.83725931008E+02 -0.37034796144E+02  0.12820867477E+03  0.41800000000E+01 0.  1.
         -5    1    3    3    0  502 -0.10749386916E+02 -0.82064084521E+01  0.43840054170E+02  0.46068614135E+02  0.41800000000E+01 0.  1.
        -11    1    4    4    0    0 -0.18094877412E+02 -0.15195344120E+02  0.80401351384E+01  0.24959303767E+02  0.00000000000E+00 0.  1.
         11    1    4    4    0    0 -0.60812772416E+02  0.10712768358E+03 -0.44819158696E+02  0.13108505202E+03  0.00000000000E+00 0. -1.
</event>
<event>
 8    1  0.7281309E-009  0.7669288E+02  0.7561462E-02  0.1338707E+00
          1   -1    0    0  501    0  0.00000000000E+00  0.00000000000E+00  0.32706979398E+03  0.32706979398E+03  0.00000000000E+00 0. -1.
         -1   -1    0    0    0  501 -0.00000000000E+00 -0.00000000000E+00 -0.50405312894E+02  0.50405312894E+02  0.00000000000E+00 0.  1.
         25    2    1    2    0    0  0.13773176933E+00  0.67194953767E+02  0.17738445447E+03  0.22721791513E+03  0.12509018941E+03 0.  0.
         23    2    1    2    0    0 -0.13773176933E+00 -0.67194953767E+02  0.99280026616E+02  0.15025719175E+03  0.90584320964E+02 0.  0.
          5    1    3    3  502    0 -0.19455712704E+02  0.37822562686E+02 -0.34916865521E+01  0.42880476676E+02  0.41800000000E+01 0.  1.
         -5    1    3    3    0  502  0.19593444473E+02  0.29372391080E+02  0.18087614102E+03  0.18433743845E+03  0.41800000000E+01 0.  1.
        -11    1    4    4    0    0  0.13417490069E+02 -0.11189948715E+02  0.90257613996E+02  0.91933023861E+02  0.00000000000E+00 0. -1.
         11    1    4    4    0    0 -0.13555221838E+02 -0.56005005052E+02  0.90224126202E+01  0.58324167885E+02  0.00000000000E+00 0.  1.
</event>
<event>
 8    1  0.7281309E-009  0.1111424E+03  0.7561462E-02  0.1258469E+00
         -4   -1    0    0    0  501 -0.00000000000E+00  0.00000000000E+00  0.11659983764E+03  0.11659983764E+03  0.00000000000E+00 0.  1.
          4   -1    0    0  501    0  0.00000000000E+00 -0.00000000000E+00 -0.21546154242E+03  0.21546154242E+03  0.00000000000E+00 0. -1.
         25    2    1    2    0    0 -0.70588727690E+02 -0.42515435973E+01  0.42727190969E+02  0.14991372834E+03  0.12509064312E+03 0.  0.
         23    2    1    2    0    0  0.70588727690E+02  0.42515435973E+01 -0.14158889575E+03  0.18214765172E+03  0.90163781683E+02 0.  0.
          5    1    3    3  502    0 -0.90923020313E+02 -0.34437672201E+02  0.51787250612E+01  0.97453786395E+02  0.41800000000E+01 0.  1.
         -5    1    3    3    0  502  0.20334292623E+02  0.30186128604E+02  0.37548465908E+02  0.52459941942E+02  0.41800000000E+01 0.  1.
        -11    1    4    4    0    0  0.92632074913E+01  0.22514910509E+02 -0.10634511318E+03  0.10909633956E+03  0.00000000000E+00 0. -1.
         11    1    4    4    0    0  0.61325520199E+02 -0.18263366912E+02 -0.35243782574E+02  0.73051312163E+02  0.00000000000E+00 0.  1.
</event>
<event>
 8    1  0.7281309E-009  0.1457872E+03  0.7561462E-02  0.1205747E+00
          2   -1    0    0  501    0  0.00000000000E+00  0.00000000000E+00  0.84279382002E+03  0.84279382002E+03  0.00000000000E+00 0. -1.
         -2   -1    0    0    0  501 -0.00000000000E+00 -0.00000000000E+00 -0.56223342191E+02  0.56223342191E+02  0.00000000000E+00 0.  1.
         25    2    1    2    0    0  0.75794347318E+02  0.10291774722E+03  0.12287416476E+03  0.21698388571E+03  0.12508837081E+03 0.  0.
         23    2    1    2    0    0 -0.75794347318E+02 -0.10291774722E+03  0.66369631307E+03  0.68203327651E+03  0.91322223490E+02 0.  0.
          5    1    3    3  502    0 -0.16155701567E+02  0.29595540101E+02 -0.13761403967E+02  0.36657213835E+02  0.41800000000E+01 0.  1.
         -5    1    3    3    0  502  0.91950048885E+02  0.73322207116E+02  0.13663556873E+03  0.18032667187E+03  0.41800000000E+01 0.  1.
        -11    1    4    4    0    0  0.32397003228E+01 -0.36611384731E+02  0.66404310961E+02  0.75897441751E+02  0.00000000000E+00 0.  1.
         11    1    4    4    0    0 -0.79034047641E+02 -0.66306362486E+02  0.59729200211E+03  0.60613583476E+03  0.00000000000E+00 0. -1.
</event>
<event>
 8    1  0.7281309E-009  0.1630567E+03  0.7561462E-02  0.1185288E+00
          2   -1    0    0  501    0  0.00000000000E+00  0.00000000000E+00  0.93240176861E+02  0.93240176861E+02  0.00000000000E+00 0. -1.
         -2   -1    0    0    0  501 -0.00000000000E+00 -0.00000000000E+00 -0.39700099104E+03  0.39700099104E+03  0.00000000000E+00 0.  1.
         25    2    1    2    0    0  0.92949467807E+02  0.12794032139E+03 -0.13659089226E+03  0.24353266156E+03  0.12507100380E+03 0.  0.
         23    2    1    2    0    0 -0.92949467807E+02 -0.12794032139E+03 -0.16716992192E+03  0.24670850634E+03  0.88943661411E+02 0.  0.
          5    1    3    3  502    0  0.66526393527E+02  0.11597931384E+03 -0.15816125578E+03  0.20714588459E+03  0.41800000000E+01 0. -1.
         -5    1    3    3    0  502  0.26423074280E+02  0.11961007556E+02  0.21570363512E+02  0.36386776969E+02  0.41800000000E+01 0. -1.
        -11    1    4    4    0    0 -0.59663266469E+02 -0.11021540510E+03 -0.72461357926E+02  0.14476805338E+03  0.00000000000E+00 0. -1.
         11    1    4    4    0    0 -0.33286201337E+02 -0.17724916291E+02 -0.94708563989E+02  0.10194045296E+03  0.00000000000E+00 0.  1.
</event>
<event>
 8    1  0.7281309E-009  0.1071766E+03  0.7561462E-02  0.1265889E+00
         -2   -1    0    0    0  501 -0.00000000000E+00  0.00000000000E+00  0.11992398274E+03  0.11992398274E+03  0.00000000000E+00 0.  1.
          2   -1    0    0  501    0  0.00000000000E+00 -0.00000000000E+00 -0.13380760583E+03  0.13380760583E+03  0.00000000000E+00 0. -1.
         25    2    1    2    0    0  0.60858555596E+02 -0.16331219525E+01 -0.25698669327E+02  0.14147421093E+03  0.12509236538E+03 0.  0.
         23    2    1    2    0    0 -0.60858555596E+02  0.16331219525E+01  0.11815046240E+02  0.11225737764E+03  0.93571858163E+02 0.  0.
          5    1    3    3  502    0 -0.19370228883E+02 -0.20492512864E+02 -0.48147612441E+02  0.55953675788E+02  0.41800000000E+01 0.  1.
         -5    1    3    3    0  502  0.80228784479E+02  0.18859390912E+02  0.22448943113E+02  0.85520535145E+02  0.41800000000E+01 0.  1.
        -11    1    4    4    0    0 -0.57420610890E+02  0.36662944908E+02  0.27823664292E+02  0.73589770886E+02  0.00000000000E+00 0.  1.
         11    1    4    4    0    0 -0.34379447060E+01 -0.35029822956E+02 -0.16008618052E+02  0.38667606753E+02  0.00000000000E+00 0. -1.
</event>
<event>
 8    1  0.7281309E-009  0.1484857E+03  0.7561462E-02  0.1202346E+00
          2   -1    0    0  501    0  0.00000000000E+00  0.00000000000E+00  0.58213370054E+03  0.58213370054E+03  0.00000000000E+00 0. -1.
         -2   -1    0    0    0  501 -0.00000000000E+00 -0.00000000000E+00 -0.49942672560E+02  0.49942672560E+02  0.00000000000E+00 0.  1.
         25    2    1    2    0    0  0.65331563914E+02  0.84904345312E+02  0.14208345371E+03  0.21751576774E+03  0.12509372606E+03 0.  0.
         23    2    1    2    0    0 -0.65331563914E+02 -0.84904345312E+02  0.39010757427E+03  0.41456060536E+03  0.90551725105E+02 0.  0.
          5    1    3    3  502    0 -0.26677166054E+02 -0.13247865268E+02  0.27315930514E+02  0.40630156075E+02  0.41800000000E+01 0.  1.
         -5    1    3    3    0  502  0.92008729969E+02  0.98152210580E+02  0.11476752320E+03  0.17688561166E+03  0.41800000000E+01 0.  1.
        -11    1    4    4    0    0 -0.13162532085E+02 -0.78659791057E+02  0.29834071474E+03  0.30881676938E+03  0.00000000000E+00 0.  1.
         11    1    4    4    0    0 -0.52169031829E+02 -0.62445542550E+01  0.91766859530E+02  0.10574383598E+03  0.00000000000E+00 0. -1.
</event>
<event>
 8    1  0.7281309E-009  0.9722599E+02  0.7561462E-02  0.1286240E+00
         -2   -1    0    0    0  501 -0.00000000000E+00  0.00000000000E+00  0.16918971448E+03  0.16918971448E+03  0.00000000000E+00 0.  1.
          2   -1    0    0  501    0  0.00000000000E+00 -0.00000000000E+00 -0.91630297527E+02  0.91630297527E+02  0.00000000000E+00 0. -1.
         25    2    1    2    0    0  0.75217950883E+01 -0.67931083533E+01 -0.17897263014E+02  0.12677073379E+03  0.12509109960E+03 0.  0.
         23    2    1    2    0    0 -0.75217950883E+01  0.67931083533E+01  0.95456679965E+02  0.13404927822E+03  0.93565525270E+02 0.  0.
          5    1    3    3  502    0 -0.50373706591E+02  0.17286168757E+02 -0.32127098941E+02  0.62337347011E+02  0.41800000000E+01 0.  1.
         -5    1    3    3    0  502  0.57895501679E+02 -0.24079277111E+02  0.14229835927E+02  0.64433386775E+02  0.41800000000E+01 0.  1.
        -11    1    4    4    0    0 -0.16718056772E+02 -0.33189356974E+02  0.83373106092E+02  0.91280346504E+02  0.00000000000E+00 0.  1.
         11    1    4    4    0    0  0.91962616835E+01  0.39982465327E+02  0.12083573873E+02  0.42768931716E+02  0.00000000000E+00 0. -1.
</event>
<event>
 8    1  0.7281309E-009  0.1225718E+03  0.7561462E-02  0.1238914E+00
         -2   -1    0    0    0  501 -0.00000000000E+00  0.00000000000E+00  0.21491558944E+02  0.21491558944E+02  0.00000000000E+00 0. -1.
          2   -1    0    0  501    0  0.00000000000E+00 -0.00000000000E+00 -0.91362823265E+03  0.91362823265E+03  0.00000000000E+00 0.  1.
         25    2    1    2    0    0  0.31705957405E+02  0.78941137753E+02 -0.40523485942E+03  0.43255014641E+03  0.12508943564E+03 0.  0.
         23    2    1    2    0    0 -0.31705957405E+02 -0.78941137753E+02 -0.48690181429E+03  0.50256964519E+03  0.90916998057E+02 0.  0.
          5    1    3    3  502    0  0.21904378010E+02 -0.14556917796E+02 -0.24712083590E+03  0.24855157527E+03  0.41800000000E+01 0.  1.
         -5    1    3    3    0  502  0.98015793946E+01  0.93498055550E+02 -0.15811402351E+03  0.18399857114E+03  0.41800000000E+01 0.  1.
        -11    1    4    4    0    0 -0.58113994663E+02 -0.22908926766E+02 -0.25457315686E+03  0.26212506079E+03  0.00000000000E+00 0.  1.
         11    1    4    4    0    0  0.26408037258E+02 -0.56032210988E+02 -0.23232865743E+03  0.24044458439E+03  0.00000000000E+00 0. -1.
</event>
<event>
 8    1  0.7281309E-009  0.9633876E+02  0.7561462E-02  0.1288189E+00
          1   -1    0    0  501    0  0.00000000000E+00  0.00000000000E+00  0.61708504846E+03  0.61708504846E+03  0.00000000000E+00 0. -1.
         -1   -1    0    0    0  501 -0.00000000000E+00 -0.00000000000E+00 -0.24481281415E+02  0.24481281415E+02  0.00000000000E+00 0.  1.
         25    2    1    2    0    0 -0.42584299226E+02 -0.22853983626E+02  0.41745666178E+03  0.43846603231E+03  0.12508664961E+03 0.  0.
         23    2    1    2    0    0  0.42584299226E+02  0.22853983626E+02  0.17514710526E+03  0.20310029757E+03  0.90760648316E+02 0.  0.
          5    1    3    3  502    0 -0.70764874316E+02 -0.14921127825E+02  0.39431736503E+03  0.40091640557E+03  0.41800000000E+01 0.  1.
         -5    1    3    3    0  502  0.28180575090E+02 -0.79328558011E+01  0.23139296751E+02  0.37549626731E+02  0.41800000000E+01 0.  1.
        -11    1    4    4    0    0  0.59459578788E+02  0.35790139898E+02  0.81385058493E+02  0.10695748393E+03  0.00000000000E+00 0.  1.
         11    1    4    4    0    0 -0.16875279562E+02 -0.12936156272E+02  0.93762046766E+02  0.96142813632E+02  0.00000000000E+00 0. -1.
</event>
<event>
 8    1  0.7281309E-009  0.6858391E+02  0.7561462E-02  0.1364976E+00
         -2   -1    0    0    0  501 -0.00000000000E+00  0.00000000000E+00  0.67454079852E+02  0.67454079852E+02  0.00000000000E+00 0.  1.
          2   -1    0    0  501    0  0.00000000000E+00 -0.00000000000E+00 -0.20339655509E+03  0.20339655509E+03  0.00000000000E+00 0. -1.
         25    2    1    2    0    0 -0.51672575532E+01 -0.85862175576E+01 -0.12806521841E+03  0.17930061208E+03  0.12509030994E+03 0.  0.
         23    2    1    2    0    0  0.51672575532E+01  0.85862175576E+01 -0.78772568215E+01  0.91550022862E+02  0.90658324651E+02 0.  0.
          5    1    3    3  502    0 -0.29992568941E+01 -0.29960790000E+02  0.15467949097E+02  0.34108273609E+02  0.41800000000E+01 0. -1.
         -5    1    3    3    0  502 -0.21680006591E+01  0.21374572442E+02 -0.14353316751E+03  0.14519233847E+03  0.41800000000E+01 0. -1.
        -11    1    4    4    0    0 -0.29614113099E+02 -0.23311233079E+02  0.13106278641E+02  0.39902178163E+02  0.00000000000E+00 0.  1.
         11    1    4    4    0    0  0.34781370652E+02  0.31897450637E+02 -0.20983535463E+02  0.51647844699E+02  0.00000000000E+00 0. -1.
</event>
<event>
 8    1  0.7281309E-009  0.6653780E+02  0.7561462E-02  0.1372279E+00
         -1   -1    0    0    0  501 -0.00000000000E+00  0.00000000000E+00  0.24496784876E+03  0.24496784876E+03  0.00000000000E+00 0.  1.
          1   -1    0    0  501    0  0.00000000000E+00 -0.00000000000E+00 -0.70430705089E+02  0.70430705089E+02  0.00000000000E+00 0. -1.
         25    2    1    2    0    0 -0.40831898916E+02 -0.41582309048E+02  0.15115674084E+03  0.20467509212E+03  0.12508877103E+03 0.  0.
         23    2    1    2    0    0  0.40831898916E+02  0.41582309048E+02  0.23380402829E+02  0.11072346173E+03  0.91195994135E+02 0.  0.
          5    1    3    3  502    0 -0.45416687700E+02 -0.29396995519E+02  0.13838839286E+01  0.54279336786E+02  0.41800000000E+01 0. -1.
         -5    1    3    3    0  502  0.45847887839E+01 -0.12185313529E+02  0.14977285691E+03  0.15039575533E+03  0.41800000000E+01 0. -1.
        -11    1    4    4    0    0  0.10319618881E+02  0.31275404138E+02 -0.32472423835E+02  0.46250445917E+02  0.00000000000E+00 0. -1.
         11    1    4    4    0    0  0.30512280036E+02  0.10306904910E+02  0.55852826663E+02  0.64473015813E+02  0.00000000000E+00 0.  1.
</event>
<event>
 8    1  0.7281309E-009  0.6304952E+02  0.7561462E-02  0.1385462E+00
         -1   -1    0    0    0  501 -0.00000000000E+00  0.00000000000E+00  0.14200190388E+02  0.14200190388E+02  0.00000000000E+00 0.  1.
          1   -1    0    0  501    0  0.00000000000E+00 -0.00000000000E+00 -0.23714686422E+04  0.23714686422E+04  0.00000000000E+00 0. -1.
         25    2    1    2    0    0 -0.31908009421E+02  0.91082366019E+01 -0.21370285629E+04  0.21409444339E+04  0.12510359413E+03 0.  0.
         23    2    1    2    0    0  0.31908009421E+02 -0.91082366019E+01 -0.22023988890E+03  0.24472439870E+03  0.10140681247E+03 0.  0.
          5    1    3    3  502    0 -0.32587745565E+02  0.43891828348E+01 -0.21333629887E+04  0.21336204771E+04  0.41800000000E+01 0. -1.
         -5    1    3    3    0  502  0.67973614436E+00  0.47190537671E+01 -0.36655742172E+01  0.73239568557E+01  0.41800000000E+01 0. -1.
        -11    1    4    4    0    0  0.52117507273E+02  0.15871474688E+02 -0.58968801388E+02  0.80283608603E+02  0.00000000000E+00 0.  1.
         11    1    4    4    0    0 -0.20209497852E+02 -0.24979711290E+02 -0.16127108751E+03  0.16444079010E+03  0.00000000000E+00 0. -1.
</event>
<event>
 8    1  0.7281309E-009  0.1081379E+03  0.7561462E-02  0.1264057E+00
         -1   -1    0    0    0  501 -0.00000000000E+00  0.00000000000E+00  0.39038848221E+02  0.39038848221E+02  0.00000000000E+00 0.  1.
          1   -1    0    0  501    0  0.00000000000E+00 -0.00000000000E+00 -0.39634593309E+03  0.39634593309E+03  0.00000000000E+00 0. -1.
         25    2    1    2    0    0 -0.28041640233E+02 -0.21883806087E+02 -0.28977910717E+03  0.31762365450E+03  0.12509044883E+03 0.  0.
         23    2    1    2    0    0  0.28041640233E+02  0.21883806087E+02 -0.67527977699E+02  0.11776112681E+03  0.89679544269E+02 0.  0.
          5    1    3    3  502    0  0.32104254879E+02  0.27371701086E+02 -0.50170702767E+02  0.65684587369E+02  0.41800000000E+01 0.  1.
         -5    1    3    3    0  502 -0.60145895112E+02 -0.49255507172E+02 -0.23960840441E+03  0.25193906713E+03  0.41800000000E+01 0.  1.
        -11    1    4    4    0    0 -0.14391289371E+02  0.45321739289E+02 -0.39114502236E+02  0.61572019190E+02  0.00000000000E+00 0. -1.
         11    1    4    4    0    0  0.42432929604E+02 -0.23437933202E+02 -0.28413475463E+02  0.56189107623E+02  0.00000000000E+00 0.  1.
</event>
<event>
 8    1  0.7281309E-009  0.1214736E+03  0.7561462E-02  0.1240686E+00
         -2   -1    0    0    0  501 -0.00000000000E+00  0.00000000000E+00  0.67244566787E+03  0.67244566787E+03  0.00000000000E+00 0.  1.
          2   -1    0    0  501    0  0.00000000000E+00 -0.00000000000E+00 -0.34575547613E+02  0.34575547613E+02  0.00000000000E+00 0. -1.
         25    2    1    2    0    0 -0.34603450935E+02  0.10033579795E+03  0.35456621408E+03  0.39067803356E+03  0.12508978607E+03 0.  0.
         23    2    1    2    0    0  0.34603450935E+02 -0.10033579795E+03  0.28330390618E+03  0.31634318192E+03  0.92451253762E+02 0.  0.
          5    1    3    3  502    0  0.25586712121E+02  0.32348503878E+02  0.24129531253E+02  0.47966782452E+02  0.41800000000E+01 0. -1.
         -5    1    3    3    0  502 -0.60190163056E+02  0.67987294072E+02  0.33043668282E+03  0.34271125111E+03  0.41800000000E+01 0. -1.
        -11    1    4    4    0    0  0.33169497913E+02 -0.48618826913E+02  0.24499967199E+03  0.25196992915E+03  0.00000000000E+00 0.  1.
         11    1    4    4    0    0  0.14339530217E+01 -0.51716971037E+02  0.38304234187E+02  0.64373252762E+02  0.00000000000E+00 0. -1.
</event>
<event>
 8    1  0.7281309E-009  0.8950211E+02  0.7561462E-02  0.1304062E+00
          1   -1    0    0  501    0  0.00000000000E+00  0.00000000000E+00  0.64451669376E+03  0.64451669376E+03  0.00000000000E+00 0.  1.
         -1   -1    0    0    0  501 -0.00000000000E+00 -0.00000000000E+00 -0.22185806348E+02  0.22185806348E+02  0.00000000000E+00 0. -1.
         25    2    1    2    0    0  0.31196313064E+02  0.39250862182E+02  0.34987377795E+03  0.37493040313E+03  0.12508919441E+03 0.  0.
         23    2    1    2    0    0 -0.31196313064E+02 -0.39250862182E+02  0.27245710946E+03  0.29177209698E+03  0.91565495423E+02 0.  0.
          5    1    3    3  502    0  0.50324981429E+02  0.32927681026E+02  0.62555575512E+02  0.86876397031E+02  0.41800000000E+01 0.  1.
         -5    1    3    3    0  502 -0.19128668364E+02  0.63231811558E+01  0.28731820244E+03  0.28805400609E+03  0.41800000000E+01 0.  1.
        -11    1    4    4    0    0 -0.44722891035E+02 -0.59105494899E+02  0.24130872415E+03  0.25243513397E+03  0.00000000000E+00 0.  1.
         11    1    4    4    0    0  0.13526577971E+02  0.19854632717E+02  0.31148385306E+02  0.39336963013E+02  0.00000000000E+00 0. -1.
</event>
<event>
 8    1  0.7281309E-009  0.1189213E+03  0.7561462E-02  0.1244887E+00
         -1   -1    0    0    0  501 -0.00000000000E+00  0.00000000000E+00  0.20373630742E+03  0.20373630742E+03  0.00000000000E+00 0.  1.
          1   -1    0    0  501    0  0.00000000000E+00 -0.00000000000E+00 -0.90354077523E+02  0.90354077523E+02  0.00000000000E+00 0. -1.
         25    2    1    2    0    0 -0.19555116524E+02  0.54510592782E+02  0.62403502277E+01  0.13798452623E+03  0.12508788990E+03 0.  0.
         23    2    1    2    0    0  0.19555116524E+02 -0.54510592782E+02  0.10714187967E+03  0.15610585872E+03  0.97651674023E+02 0.  0.
          5    1    3    3  502    0 -0.70457992247E+02  0.15864947262E+02 -0.66672086802E+01  0.72649496177E+02  0.41800000000E+01 0. -1.
         -5    1    3    3    0  502  0.50902875724E+02  0.38645645519E+02  0.12907558908E+02  0.65335030049E+02  0.41800000000E+01 0. -1.
        -11    1    4    4    0    0  0.52008879715E+02 -0.25506593411E+02  0.94395838168E+02  0.11075235501E+03  0.00000000000E+00 0.  1.
         11    1    4    4    0    0 -0.32453763192E+02 -0.29003999371E+02  0.12746041503E+02  0.45353503710E+02  0.00000000000E+00 0. -1.
</event>
<event>
 8    1  0.7281309E-009  0.7636239E+02  0.7561462E-02  0.1339703E+00
         -1   -1    0    0    0  501 -0.00000000000E+00  0.00000000000E+00  0.69950799226E+03  0.69950799226E+03  0.00000000000E+00 0.  1.
          1   -1    0    0  501    0  0.00000000000E+00 -0.00000000000E+00 -0.18212715937E+02  0.18212715937E+02  0.00000000000E+00 0. -1.
         25    2    1    2    0    0  0.27936804701E+02  0.70592803549E+01  0.44417909004E+03  0.46235646769E+03  0.12509252853E+03 0.  0.
         23    2    1    2    0    0 -0.27936804701E+02 -0.70592803549E+01  0.23711618628E+03  0.25536424050E+03  0.90313404510E+02 0.  0.
          5    1    3    3  502    0 -0.18680523680E+02 -0.10041602342E+02  0.38228652170E+03  0.38289718309E+03  0.41800000000E+01 0.  1.
         -5    1    3    3    0  502  0.46617328381E+02  0.17100882697E+02  0.61892568336E+02  0.79459284603E+02  0.41800000000E+01 0.  1.
        -11    1    4    4    0    0  0.24469108345E+02  0.96041450816E+01  0.25146580904E+02  0.36377567223E+02  0.00000000000E+00 0. -1.
         11    1    4    4    0    0 -0.52405913046E+02 -0.16663425436E+02  0.21196960538E+03  0.21898667328E+03  0.00000000000E+00 0.  1.
</event>
<event>
 8    1  0.7281309E-009  0.8477320E+02  0.7561462E-02  0.1316027E+00
         -2   -1    0    0    0  501 -0.00000000000E+00  0.00000000000E+00  0.40205695954E+02  0.40205695954E+02  0.00000000000E+00 0.  1.
          2   -1    0    0  501    0  0.00000000000E+00 -0.00000000000E+00 -0.30880085868E+03  0.30880085868E+03  0.00000000000E+00 0. -1.
         25    2    1    2    0    0 -0.18196179989E+02  0.14955276577E+02 -0.17694361251E+03  0.21796479558E+03  0.12507937017E+03 0.  0.
         23    2    1    2    0    0  0.18196179989E+02 -0.14955276577E+02 -0.91651550216E+02  0.13104175905E+03  0.90648633161E+02 0.  0.
          5    1    3    3  502    0  0.36722011192E+02  0.13534914593E+02 -0.15284175754E+03  0.15782830945E+03  0.41800000000E+01 0. -1.
         -5    1    3    3    0  502 -0.54918191181E+02  0.14203619843E+01 -0.24101854975E+02  0.60136486129E+02  0.41800000000E+01 0. -1.
        -11    1    4    4    0    0  0.35655050973E+02 -0.33991437972E+02 -0.17104489340E+02  0.52146563365E+02  0.00000000000E+00 0.  1.
         11    1    4    4    0    0 -0.17458870983E+02  0.19036161394E+02 -0.74547060877E+02  0.78895195684E+02  0.00000000000E+00 0. -1.
</event>
<event>
 8    1  0.7281309E-009  0.1700558E+03  0.7561462E-02  0.1177790E+00
         -4   -1    0    0    0  501 -0.00000000000E+00  0.00000000000E+00  0.39920473948E+03  0.39920473948E+03  0.00000000000E+00 0. -1.
          4   -1    0    0  501    0  0.00000000000E+00 -0.00000000000E+00 -0.95894486184E+02  0.95894486184E+02  0.00000000000E+00 0.  1.
         25    2    1    2    0    0  0.11633907031E+03  0.10843195991E+03  0.20098749523E+03  0.28519495232E+03  0.12509163993E+03 0.  0.
         23    2    1    2    0    0 -0.11633907031E+03 -0.10843195991E+03  0.10232275807E+03  0.20990427335E+03  0.91091096931E+02 0.  0.
          5    1    3    3  502    0  0.10766701252E+03  0.97450638719E+02  0.21850150176E+03  0.26239129414E+03  0.41800000000E+01 0. -1.
         -5    1    3    3    0  502  0.86720577949E+01  0.10981321191E+02 -0.17514006530E+02  0.22803658177E+02  0.41800000000E+01 0. -1.
        -11    1    4    4    0    0  0.11572127929E+02 -0.24898860111E+02  0.30669436580E+02  0.41164082885E+02  0.00000000000E+00 0. -1.
         11    1    4    4    0    0 -0.12791119824E+03 -0.83533099799E+02  0.71653321491E+02  0.16874019046E+03  0.00000000000E+00 0.  1.
</event>
<event>
 8    1  0.7281309E-009  0.9998233E+02  0.7561462E-02  0.1280333E+00
          1   -1    0    0  501    0  0.00000000000E+00  0.00000000000E+00  0.32957816509E+03  0.32957816509E+03  0.00000000000E+00 0. -1.
         -1   -1    0    0    0  501 -0.00000000000E+00 -0.00000000000E+00 -0.78382392367E+02  0.78382392367E+02  0.00000000000E+00 0.  1.
         25    2    1    2    0    0  0.82640511284E+02  0.46172802254E+02  0.22638843705E+03  0.27542754432E+03  0.12508887226E+03 0.  0.
         23    2    1    2    0    0 -0.82640511284E+02 -0.46172802254E+02  0.24807335669E+02  0.13253301314E+03  0.89376808492E+02 0.  0.
          5    1    3    3  502    0 -0.88715038414E+00  0.10907691249E+02  0.16599451140E+03  0.16640737658E+03  0.41800000000E+01 0.  1.
         -5    1    3    3    0  502  0.83527661668E+02  0.35265111005E+02  0.60393925656E+02  0.10902016774E+03  0.41800000000E+01 0.  1.
        -11    1    4    4    0    0 -0.62707761230E+02 -0.45619527109E+02 -0.22874530607E+02  0.80849543738E+02  0.00000000000E+00 0.  1.
         11    1    4    4    0    0 -0.19932750054E+02 -0.55327514587E+00  0.47681866276E+02  0.51683469404E+02  0.00000000000E+00 0. -1.
</event>
<event>
 8    1  0.7281309E-009  0.1088300E+03  0.7561462E-02  0.1262752E+00
         -2   -1    0    0    0  501 -0.00000000000E+00  0.00000000000E+00  0.29097983059E+02  0.29097983059E+02  0.00000000000E+00 0. -1.
          2   -1    0    0  501    0  0.00000000000E+00 -0.00000000000E+00 -0.42194264682E+03  0.42194264682E+03  0.00000000000E+00 0.  1.
         25    2    1    2    0    0  0.53641468048E+01  0.17616433318E+02 -0.25701819387E+03  0.28643499491E+03  0.12509013364E+03 0.  0.
         23    2    1    2    0    0 -0.53641468048E+01 -0.17616433318E+02 -0.13582646989E+03  0.16460563497E+03  0.91143142078E+02 0.  0.
          5    1    3    3  502    0  0.63533343673E+02  0.19006162438E+02 -0.15969872931E+03  0.17297073889E+03  0.41800000000E+01 0. -1.
         -5    1    3    3    0  502 -0.58169196869E+02 -0.13897291199E+01 -0.97319464565E+02  0.11346425602E+03  0.41800000000E+01 0. -1.
        -11    1    4    4    0    0 -0.42799681715E+02  0.12767174530E+02 -0.69278392783E+02  0.82427599789E+02  0.00000000000E+00 0.  1.
         11    1    4    4    0    0  0.37435534910E+02 -0.30383607848E+02 -0.66548077108E+02  0.82178035184E+02  0.00000000000E+00 0. -1.
</event>
<event>
 8    1  0.7281309E-009  0.7337176E+02  0.7561462E-02  0.1348989E+00
          3   -1    0    0  501    0  0.00000000000E+00  0.00000000000E+00  0.28721497767E+03  0.28721497767E+03  0.00000000000E+00 0. -1.
         -3   -1    0    0    0  501 -0.00000000000E+00 -0.00000000000E+00 -0.45334786973E+02  0.45334786973E+02  0.00000000000E+00 0.  1.
         25    2    1    2    0    0 -0.28933017577E+02 -0.23998501593E+02  0.13183120558E+03  0.18557811350E+03  0.12508685727E+03 0.  0.
         23    2    1    2    0    0  0.28933017577E+02  0.23998501593E+02  0.11004898512E+03  0.14697165115E+03  0.89871238612E+02 0.  0.
          5    1    3    3  502    0 -0.38014837242E+02 -0.18534669431E+02 -0.96979596076E+01  0.43591107373E+02  0.41800000000E+01 0.  1.
         -5    1    3    3    0  502  0.90818196657E+01 -0.54638321618E+01  0.14152916519E+03  0.14198700613E+03  0.41800000000E+01 0.  1.
        -11    1    4    4    0    0 -0.12071381877E+02  0.45134172376E+02  0.77571836383E+02  0.90554964393E+02  0.00000000000E+00 0. -1.
         11    1    4    4    0    0  0.41004399454E+02 -0.21135670783E+02  0.32477148738E+02  0.56416686753E+02  0.00000000000E+00 0.  1.
</event>
<event>
 8    1  0.7281309E-009  0.1458090E+03  0.7561462E-02  0.1205720E+00
         -1   -1    0    0    0  501 -0.00000000000E+00  0.00000000000E+00  0.24712918015E+03  0.24712918015E+03  0.00000000000E+00 0.  1.
          1   -1    0    0  501    0  0.00000000000E+00 -0.00000000000E+00 -0.10947250603E+03  0.10947250603E+03  0.00000000000E+00 0. -1.
         25    2    1    2    0    0 -0.82302665619E+02 -0.89008601892E+02  0.11285569483E+03  0.20755985304E+03  0.12509366394E+03 0.  0.
         23    2    1    2    0    0  0.82302665619E+02  0.89008601892E+02  0.24800979290E+02  0.14904183314E+03  0.83078995376E+02 0.  0.
          5    1    3    3  502    0 -0.10784307171E+03 -0.41431708383E+02  0.54055543632E+02  0.12761735295E+03  0.41800000000E+01 0.  1.
         -5    1    3    3    0  502  0.25540406095E+02 -0.47576893509E+02  0.58800151197E+02  0.79942500088E+02  0.41800000000E+01 0.  1.
        -11    1    4    4    0    0  0.64945208754E+02  0.62263816581E+02  0.54732170859E+02  0.10531036759E+03  0.00000000000E+00 0.  1.
         11    1    4    4    0    0  0.17357456865E+02  0.26744785311E+02 -0.29931191568E+02  0.43731465547E+02  0.00000000000E+00 0. -1.
</event>
<event>
 8    1  0.7281309E-009  0.8610591E+02  0.7561462E-02  0.1312566E+00
         -2   -1    0    0    0  501 -0.00000000000E+00  0.00000000000E+00  0.33305195254E+02  0.33305195254E+02  0.00000000000E+00 0.  1.
          2   -1    0    0  501    0  0.00000000000E+00 -0.00000000000E+00 -0.84970735713E+03  0.84970735713E+03  0.00000000000E+00 0. -1.
         25    2    1    2    0    0  0.56373954502E+02  0.37157338801E+01 -0.73656730443E+03  0.74924620506E+03  0.12508657969E+03 0.  0.
         23    2    1    2    0    0 -0.56373954502E+02 -0.37157338801E+01 -0.79834857445E+02  0.13376634732E+03  0.91257886171E+02 0.  0.
          5    1    3    3  502    0 -0.41233597637E+01 -0.29130235650E+02 -0.43060782574E+02  0.52318984324E+02  0.41800000000E+01 0. -1.
         -5    1    3    3    0  502  0.60497314266E+02  0.32845969530E+02 -0.69350652186E+03  0.69692722074E+03  0.41800000000E+01 0. -1.
        -11    1    4    4    0    0 -0.53133605776E+02  0.14461401115E+02 -0.34420309646E+01  0.55173904721E+02  0.00000000000E+00 0.  1.
         11    1    4    4    0    0 -0.32403487263E+01 -0.18177134995E+02 -0.76392826481E+02  0.78592442603E+02  0.00000000000E+00 0. -1.
</event>
<event>
 8    1  0.7281309E-009  0.1071989E+03  0.7561462E-02  0.1265847E+00
          2   -1    0    0  501    0  0.00000000000E+00  0.00000000000E+00  0.57678127787E+02  0.57678127787E+02  0.00000000000E+00 0. -1.
         -2   -1    0    0    0  501 -0.00000000000E+00 -0.00000000000E+00 -0.23296418402E+03  0.23296418402E+03  0.00000000000E+00 0.  1.
         25    2    1    2    0    0  0.33584571376E+02 -0.17285719497E+02 -0.78874633164E+02  0.15262955621E+03  0.12509138315E+03 0.  0.
         23    2    1    2    0    0 -0.33584571376E+02  0.17285719497E+02 -0.96411423069E+02  0.13801275560E+03  0.91244937809E+02 0.  0.
          5    1    3    3  502    0  0.11882422579E+02 -0.70861986190E+02 -0.51713393597E+02  0.88624830214E+02  0.41800000000E+01 0. -1.
         -5    1    3    3    0  502  0.21702148797E+02  0.53576266693E+02 -0.27161239568E+02  0.64004725998E+02  0.41800000000E+01 0. -1.
        -11    1    4    4    0    0 -0.18925905045E+02  0.47366064140E+02 -0.90711520779E+02  0.10406879415E+03  0.00000000000E+00 0.  1.
         11    1    4    4    0    0 -0.14658666332E+02 -0.30080344643E+02 -0.56999022891E+01  0.33943961445E+02  0.00000000000E+00 0. -1.
</event>
<event>
 7    1  0.7281309E-009  0.1523198E+03  0.7561462E-02  0.1197651E+00
         -2   -1    0    0    0  501 -0.00000000000E+00  0.00000000000E+00  0.32167349916E+03  0.32167349916E+03  0.00000000000E+00 0.  1.
          2   -1    0    0  501    0  0.00000000000E+00 -0.00000000000E+00 -0.11137957495E+03  0.11137957495E+03  0.00000000000E+00 0. -1.
         23    2    1    2    0    0  0.63717054433E+02  0.12394350002E+03  0.17753012771E+03  0.24286127533E+03  0.89681651331E+02 0.  0.
          5    1    1    2  502    0 -0.50353204721E+02 -0.44257355122E+02  0.73533452065E+02  0.99593170853E+02  0.41800000000E+01 0.  1.
         -5    1    1    2    0  502 -0.13363849712E+02 -0.79686144894E+02 -0.40769655567E+02  0.90598627926E+02  0.41800000000E+01 0.  1.
        -11    1    3    3    0    0  0.15720008518E+02  0.10300625196E+03  0.15280962535E+03  0.18495455715E+03  0.00000000000E+00 0.  1.
         11    1    3    3    0    0  0.47997045915E+02  0.20937248051E+02  0.24720502360E+02  0.57906718172E+02  0.00000000000E+00 0. -1.
</event>
<event>
 8    1  0.7281309E-009  0.1070502E+03  0.7561462E-02  0.1266132E+00
         -2   -1    0    0    0  501 -0.00000000000E+00  0.00000000000E+00  0.10410105476E+02  0.10410105476E+02  0.00000000000E+00 0.  1.
          2   -1    0    0  501    0  0.00000000000E+00 -0.00000000000E+00 -0.17164452954E+04  0.17164452954E+04  0.00000000000E+00 0. -1.
         25    2    1    2    0    0  0.61164735209E+01  0.33778295506E+02 -0.13919975835E+04  0.13980281150E+04  0.12508778264E+03 0.  0.
         23    2    1    2    0    0 -0.61164735209E+01 -0.33778295506E+02 -0.31403760641E+03  0.32882728586E+03  0.91265443580E+02 0.  0.
          5    1    3    3  502    0  0.17405323076E+02 -0.44615702149E+02 -0.40344855632E+03  0.40630249341E+03  0.41800000000E+01 0.  1.
         -5    1    3    3    0  502 -0.11288849555E+02  0.78393997655E+02 -0.98854902720E+03  0.99172562162E+03  0.41800000000E+01 0.  1.
        -11    1    4    4    0    0 -0.41281603963E+02 -0.56140953346E+01 -0.77021000648E+02  0.87566679925E+02  0.00000000000E+00 0.  1.
         11    1    4    4    0    0  0.35165130442E+02 -0.28164200171E+02 -0.23701660576E+03  0.24126060594E+03  0.00000000000E+00 0. -1.
</event>
<event>
 8    1  0.7281309E-009  0.1196761E+03  0.7561462E-02  0.1243632E+00
          2   -1    0    0  501    0  0.00000000000E+00  0.00000000000E+00  0.25136055320E+03  0.25136055320E+03  0.00000000000E+00 0. -1.
         -2   -1    0    0    0  501 -0.00000000000E+00 -0.00000000000E+00 -0.73262114074E+02  0.73262114074E+02  0.00000000000E+00 0.  1.
         25    2    1    2    0    0  0.62884672389E+02  0.49685920554E+02  0.82041992269E+02  0.16970698172E+03  0.12508556442E+03 0.  0.
         23    2    1    2    0    0 -0.62884672389E+02 -0.49685920554E+02  0.96056446856E+02  0.15491568555E+03  0.91372074095E+02 0.  0.
          5    1    3    3  502    0  0.97394381429E+02  0.42287513926E+02  0.37411530918E+02  0.11265431378E+03  0.41800000000E+01 0. -1.
         -5    1    3    3    0  502 -0.34509709040E+02  0.73984066281E+01  0.44630461352E+02  0.57052667941E+02  0.41800000000E+01 0. -1.
        -11    1    4    4    0    0 -0.34653965068E+02 -0.58484783143E+02  0.16375934966E+02  0.69925234360E+02  0.00000000000E+00 0.  1.
         11    1    4    4    0    0 -0.28230707320E+02  0.87988625894E+01  0.79680511889E+02  0.84990451191E+02  0.00000000000E+00 0. -1.
</event>
<event>
 8    1  0.7281309E-009  0.1084774E+03  0.7561462E-02  0.1263416E+00
         -2   -1    0    0    0  501 -0.00000000000E+00  0.00000000000E+00  0.22276512558E+02  0.22276512558E+02  0.00000000000E+00 0.  1.
          2   -1    0    0  501    0  0.00000000000E+00 -0.00000000000E+00 -0.83079641361E+03  0.83079641361E+03  0.00000000000E+00 0. -1.
         25    2    1    2    0    0  0.18323570603E+02  0.65428468438E+02 -0.57704720729E+03  0.59434656184E+03  0.12509084062E+03 0.  0.
         23    2    1    2    0    0 -0.18323570603E+02 -0.65428468438E+02 -0.23147269376E+03  0.25872636433E+03  0.93504470048E+02 0.  0.
          5    1    3    3  502    0  0.62977598359E+02  0.95777446505E+00 -0.28655960991E+03  0.29342968095E+03  0.41800000000E+01 0. -1.
         -5    1    3    3    0  502 -0.44654027756E+02  0.64470693973E+02 -0.29048759738E+03  0.30091688089E+03  0.41800000000E+01 0. -1.
        -11    1    4    4    0    0  0.80741629089E+01 -0.30278743194E+02 -0.99415059440E+01  0.32875947690E+02  0.00000000000E+00 0.  1.
         11    1    4    4    0    0 -0.26397733512E+02 -0.35149725244E+02 -0.22153118782E+03  0.22585041664E+03  0.00000000000E+00 0. -1.
</event>
<event>
 8    1  0.7281309E-009  0.1104865E+03  0.7561462E-02  0.1259672E+00
         -2   -1    0    0    0  501 -0.00000000000E+00  0.00000000000E+00  0.39938473012E+03  0.39938473012E+03  0.00000000000E+00 0.  1.
          2   -1    0    0  501    0  0.00000000000E+00 -0.00000000000E+00 -0.44068523136E+02  0.44068523136E+02  0.00000000000E+00 0. -1.
         25    2    1    2    0    0  0.57734808489E+02 -0.26771466550E+02  0.26596164295E+03  0.30072114316E+03  0.12509033093E+03 0.  0.
         23    2    1    2    0    0 -0.57734808489E+02  0.26771466550E+02  0.89354564036E+02  0.14273211009E+03  0.91313731745E+02 0.  0.
          5    1    3    3  502    0  0.28846020448E+02  0.43493327234E+02  0.52673226557E+02  0.74267783092E+02  0.41800000000E+01 0. -1.
         -5    1    3    3    0  502  0.28888788041E+02 -0.70264793784E+02  0.21328841639E+03  0.22645336007E+03  0.41800000000E+01 0. -1.
        -11    1    4    4    0    0 -0.13456049082E+02  0.43241566738E+02  0.83681723451E+02  0.95150035158E+02  0.00000000000E+00 0.  1.
         11    1    4    4    0    0 -0.44278759407E+02 -0.16470100188E+02  0.56728405844E+01  0.47582074935E+02  0.00000000000E+00 0. -1.
</event>
<event>
 8    1  0.7281309E-009  0.2332635E+03  0.7561462E-02  0.1124364E+00
          2   -1    0    0  501    0  0.00000000000E+00  0.00000000000E+00  0.16491640872E+04  0.16491640872E+04  0.00000000000E+00 0. -1.
         -2   -1    0    0    0  501 -0.00000000000E+00 -0.00000000000E+00 -0.39003624881E+02  0.39003624881E+02  0.00000000000E+00 0.  1.
         25    2    1    2    0    0 -0.83972310015E+02 -0.21026839653E+03  0.93452411742E+03  0.96966273652E+03  0.12508536736E+03 0.  0.
         23    2    1    2    0    0  0.83972310015E+02  0.21026839653E+03  0.67563634493E+03  0.71850497559E+03  0.92199685091E+02 0.  0.
          5    1    3    3  502    0 -0.60796241476E+02 -0.20676829450E+03  0.66446216034E+03  0.69855332331E+03  0.41800000000E+01 0. -1.
         -5    1    3    3    0  502 -0.23176068538E+02 -0.35001020268E+01  0.27006195708E+03  0.27110941321E+03  0.41800000000E+01 0. -1.
        -11    1    4    4    0    0  0.25597502400E+02  0.43570537842E+02  0.28968000259E+03  0.29405463403E+03  0.00000000000E+00 0. -1.
         11    1    4    4    0    0  0.58374807615E+02  0.16669785869E+03  0.38595634234E+03  0.42445034156E+03  0.00000000000E+00 0.  1.
</event>
<event>
 8    1  0.7281309E-009  0.9437623E+02  0.7561462E-02  0.1292587E+00
         -2   -1    0    0    0  501 -0.00000000000E+00  0.00000000000E+00  0.11931065285E+03  0.11931065285E+03  0.00000000000E+00 0.  1.
          2   -1    0    0  501    0  0.00000000000E+00 -0.00000000000E+00 -0.12766327943E+03  0.12766327943E+03  0.00000000000E+00 0. -1.
         25    2    1    2    0    0 -0.35747299284E+02 -0.21172828107E+02 -0.46999250908E+02  0.13994012395E+03  0.12509256832E+03 0.  0.
         23    2    1    2    0    0  0.35747299284E+02  0.21172828107E+02  0.38646624326E+02  0.10703380833E+03  0.90755256036E+02 0.  0.
          5    1    3    3  502    0  0.24370146796E+02  0.12265322814E+01 -0.67951946073E+02  0.72321143598E+02  0.41800000000E+01 0.  1.
         -5    1    3    3    0  502 -0.60117446080E+02 -0.22399360388E+02  0.20952695165E+02  0.67618980351E+02  0.41800000000E+01 0.  1.
        -11    1    4    4    0    0  0.42596885272E+02  0.52517482262E+02  0.28521470459E+02  0.73389746254E+02  0.00000000000E+00 0. -1.
         11    1    4    4    0    0 -0.68495859876E+01 -0.31344654155E+02  0.10125153867E+02  0.33644062079E+02  0.00000000000E+00 0.  1.
</event>
<event>
 8    1  0.7281309E-009  0.1049519E+03  0.7561462E-02  0.1270214E+00
          3   -1    0    0  501    0  0.00000000000E+00  0.00000000000E+00  0.68218468675E+02  0.68218468675E+02  0.00000000000E+00 0. -1.
         -3   -1    0    0    0  501 -0.00000000000E+00 -0.00000000000E+00 -0.17617209119E+03  0.17617209119E+03  0.00000000000E+00 0.  1.
         25    2    1    2    0    0 -0.31112968095E+01 -0.19458252231E+02 -0.55899628189E+02  0.13842680744E+03  0.12509559880E+03 0.  0.
         23    2    1    2    0    0  0.31112968095E+01  0.19458252231E+02 -0.52053994329E+02  0.10596375243E+03  0.90168701641E+02 0.  0.
          5    1    3    3  502    0 -0.39509408206E+02  0.34759742987E+02 -0.50025978560E+02  0.72727601364E+02  0.41800000000E+01 0. -1.
         -5    1    3    3    0  502  0.36398111397E+02 -0.54217995218E+02 -0.58736496287E+01  0.65699206073E+02  0.41800000000E+01 0. -1.
        -11    1    4    4    0    0 -0.90742292545E+01  0.54151943333E+02 -0.25103368015E+02  0.60373451856E+02  0.00000000000E+00 0.  1.
         11    1    4    4    0    0  0.12185526064E+02 -0.34693691102E+02 -0.26950626313E+02  0.45590300574E+02  0.00000000000E+00 0. -1.
</event>
<event>
 8    1  0.7281309E-009  0.1066406E+03  0.7561462E-02  0.1266921E+00
         -1   -1    0    0    0  501 -0.00000000000E+00  0.00000000000E+00  0.30122015534E+02  0.30122015534E+02  0.00000000000E+00 0.  1.
          1   -1    0    0  501    0  0.00000000000E+00 -0.00000000000E+00 -0.70299523232E+03  0.70299523232E+03  0.00000000000E+00 0. -1.
         25    2    1    2    0    0  0.19057831249E+02  0.76657778408E+02 -0.50453279634E+03  0.52577533785E+03  0.12508695928E+03 0.  0.
         23    2    1    2    0    0 -0.19057831249E+02 -0.76657778408E+02 -0.16834042045E+03  0.20734191001E+03  0.91719979108E+02 0.  0.
          5    1    3    3  502    0  0.27717488151E+02  0.14611473666E+02 -0.41621542675E+03  0.41741407281E+03  0.41800000000E+01 0. -1.
         -5    1    3    3    0  502 -0.86596569021E+01  0.62046304741E+02 -0.88317369589E+02  0.10836126504E+03  0.41800000000E+01 0. -1.
        -11    1    4    4    0    0 -0.52419007102E+02 -0.26743599638E+02 -0.10286558719E+03  0.11850865562E+03  0.00000000000E+00 0. -1.
         11    1    4    4    0    0  0.33361175853E+02 -0.49914178770E+02 -0.65474833255E+02  0.88833254394E+02  0.00000000000E+00 0.  1.
</event>
<event>
 8    1  0.7281309E-009  0.1036223E+03  0.7561462E-02  0.1272858E+00
          1   -1    0    0  501    0  0.00000000000E+00  0.00000000000E+00  0.11338505765E+03  0.11338505765E+03  0.00000000000E+00 0. -1.
         -1   -1    0    0    0  501 -0.00000000000E+00 -0.00000000000E+00 -0.12700710552E+03  0.12700710552E+03  0.00000000000E+00 0.  1.
         25    2    1    2    0    0  0.36305431293E+01  0.45379977533E+02 -0.70309808779E+01  0.13330260444E+03  0.12509047307E+03 0.  0.
         23    2    1    2    0    0 -0.36305431293E+01 -0.45379977533E+02 -0.65910669907E+01  0.10708955873E+03  0.96706815790E+02 0.  0.
          5    1    3    3  502    0 -0.48091681025E+02  0.24032778963E+02  0.34037644285E+02  0.63768470869E+02  0.41800000000E+01 0. -1.
         -5    1    3    3    0  502  0.51722224154E+02  0.21347198570E+02 -0.41068625163E+02  0.69534133568E+02  0.41800000000E+01 0. -1.
        -11    1    4    4    0    0  0.15958110146E+01  0.25794404617E+02  0.18123631404E+02  0.31565233052E+02  0.00000000000E+00 0. -1.
         11    1    4    4    0    0 -0.52263541440E+01 -0.71174382151E+02 -0.24714698395E+02  0.75524325676E+02  0.00000000000E+00 0.  1.
</event>
<event>
 8    1  0.7281309E-009  0.8540032E+02  0.7561462E-02  0.1314389E+00
         -2   -1    0    0    0  501 -0.00000000000E+00  0.00000000000E+00  0.13602185829E+03  0.13602185829E+03  0.00000000000E+00 0. -1.
          2   -1    0    0  501    0  0.00000000000E+00 -0.00000000000E+00 -0.17602998400E+03  0.17602998400E+03  0.00000000000E+00 0.  1.
         25    2    1    2    0    0  0.22129870779E+02  0.18604362660E+02  0.86239546597E+02  0.15466513634E+03  0.12509273165E+03 0.  0.
         23    2    1    2    0    0 -0.22129870779E+02 -0.18604362660E+02 -0.12624767231E+03  0.15738670595E+03  0.89421736488E+02 0.  0.
          5    1    3    3  502    0  0.18961258822E+02 -0.32961483609E+02  0.94711287757E+02  0.10214543145E+03  0.41800000000E+01 0.  1.
         -5    1    3    3    0  502  0.31686119569E+01  0.51565846269E+02 -0.84717411601E+01  0.52519704887E+02  0.41800000000E+01 0.  1.
        -11    1    4    4    0    0 -0.36245439892E+02  0.18730685191E+02 -0.23326335001E+02  0.46996684833E+02  0.00000000000E+00 0.  1.
         11    1    4    4    0    0  0.14115569113E+02 -0.37335047851E+02 -0.10292133731E+03  0.11039002112E+03  0.00000000000E+00 0. -1.
</event>
<event>
 8    1  0.7281309E-009  0.1530984E+03  0.7561462E-02  0.1196717E+00
          1   -1    0    0  501    0  0.00000000000E+00  0.00000000000E+00  0.14153229790E+03  0.14153229790E+03  0.00000000000E+00 0. -1.
         -1   -1    0    0    0  501 -0.00000000000E+00 -0.00000000000E+00 -0.20819317154E+03  0.20819317154E+03  0.00000000000E+00 0.  1.
         25    2    1    2    0    0  0.11385776140E+03 -0.54343907096E+02 -0.77220167699E+02  0.19372173172E+03  0.12509318516E+03 0.  0.
         23    2    1    2    0    0 -0.11385776140E+03  0.54343907096E+02  0.10559294062E+02  0.15600373771E+03  0.91152714827E+02 0.  0.
          5    1    3    3  502    0  0.12066714022E+03 -0.78569711293E+02 -0.41655968777E+02  0.14995482786E+03  0.41800000000E+01 0. -1.
         -5    1    3    3    0  502 -0.68093788246E+01  0.24225804198E+02 -0.35564198922E+02  0.43766903866E+02  0.41800000000E+01 0. -1.
        -11    1    4    4    0    0 -0.89051844097E+02  0.64368516579E+02 -0.23828528571E+02  0.11243369440E+03  0.00000000000E+00 0.  1.
         11    1    4    4    0    0 -0.24805917303E+02 -0.10024609484E+02  0.34387822633E+02  0.43570043309E+02  0.00000000000E+00 0. -1.
</event>
<event>
 8    1  0.7281309E-009  0.9956258E+02  0.7561462E-02  0.1281218E+00
          3   -1    0    0  501    0  0.00000000000E+00  0.00000000000E+00  0.42465583873E+02  0.42465583873E+02  0.00000000000E+00 0. -1.
         -3   -1    0    0    0  501 -0.00000000000E+00 -0.00000000000E+00 -0.28253057905E+03  0.28253057905E+03  0.00000000000E+00 0.  1.
         25    2    1    2    0    0 -0.15312892271E+02 -0.27664638377E+01 -0.13482862263E+03  0.18458020406E+03  0.12509578833E+03 0.  0.
         23    2    1    2    0    0  0.15312892271E+02  0.27664638377E+01 -0.10523637255E+03  0.14041595886E+03  0.91650474109E+02 0.  0.
          5    1    3    3  502    0 -0.69970690989E+02 -0.98564957912E+01 -0.76044741788E+02  0.10389092001E+03  0.41800000000E+01 0. -1.
         -5    1    3    3    0  502  0.54657798719E+02  0.70900319535E+01 -0.58783880843E+02  0.80689284052E+02  0.41800000000E+01 0. -1.
        -11    1    4    4    0    0 -0.83118678201E+00 -0.33425966285E+02 -0.93172796500E+02  0.98990686942E+02  0.00000000000E+00 0.  1.
         11    1    4    4    0    0  0.16144079053E+02  0.36192430122E+02 -0.12063576046E+02  0.41425271920E+02  0.00000000000E+00 0. -1.
</event>
<event>
 8    1  0.7281309E-009  0.1513021E+03  0.7561462E-02  0.1198882E+00
          2   -1    0    0  501    0  0.00000000000E+00  0.00000000000E+00  0.93992607733E+02  0.93992607733E+02  0.00000000000E+00 0. -1.
         -2   -1    0    0    0  501 -0.00000000000E+00 -0.00000000000E+00 -0.28399525640E+03  0.28399525640E+03  0.00000000000E+00 0.  1.
         25    2    1    2    0    0 -0.96117092900E+02  0.75115317609E+02 -0.11445595896E+03  0.20887351482E+03  0.12508865722E+03 0.  0.
         23    2    1    2    0    0  0.96117092900E+02 -0.75115317609E+02 -0.75546689710E+02  0.16911434931E+03  0.89507286464E+02 0.  0.
          5    1    3    3  502    0 -0.71045032233E+02  0.10936088770E+03 -0.97908191077E+02  0.16312782302E+03  0.41800000000E+01 0.  1.
         -5    1    3    3    0  502 -0.25072060667E+02 -0.34245570088E+02 -0.16547767880E+02  0.45745691803E+02  0.41800000000E+01 0.  1.
        -11    1    4    4    0    0  0.45899399396E+02 -0.95361724789E+01 -0.72654073511E+02  0.86465645479E+02  0.00000000000E+00 0.  1.
         11    1    4    4    0    0  0.50217693504E+02 -0.65579145130E+02 -0.28926161995E+01  0.82648703833E+02  0.00000000000E+00 0. -1.
</event>
<event>
 8    1  0.7281309E-009  0.1174000E+03  0.7561462E-02  0.1247449E+00
          1   -1    0    0  501    0  0.00000000000E+00  0.00000000000E+00  0.27642302238E+02  0.27642302238E+02  0.00000000000E+00 0. -1.
         -1   -1    0    0    0  501 -0.00000000000E+00 -0.00000000000E+00 -0.72516796447E+03  0.72516796447E+03  0.00000000000E+00 0.  1.
         25    2    1    2    0    0 -0.26170699685E+02 -0.83530472358E+02 -0.44499578646E+03  0.47045795353E+03  0.12508873145E+03 0.  0.
         23    2    1    2    0    0  0.26170699685E+02  0.83530472358E+02 -0.25252987577E+03  0.28235231318E+03  0.91045292390E+02 0.  0.
          5    1    3    3  502    0 -0.30209065729E+02  0.19510703439E+01 -0.30356382533E+03  0.30509811991E+03  0.41800000000E+01 0.  1.
         -5    1    3    3    0  502  0.40383660444E+01 -0.85481542702E+02 -0.14143196113E+03  0.16535983361E+03  0.41800000000E+01 0.  1.
        -11    1    4    4    0    0 -0.11215980275E+02  0.80251608070E+02 -0.21276723037E+03  0.22767523609E+03  0.00000000000E+00 0.  1.
         11    1    4    4    0    0  0.37386679959E+02  0.32788642881E+01 -0.39762645408E+02  0.54677077091E+02  0.00000000000E+00 0. -1.
</event>
<event>
 8    1  0.7281309E-009  0.2259458E+03  0.7561462E-02  0.1129526E+00
          1   -1    0    0  501    0  0.00000000000E+00  0.00000000000E+00  0.95738585768E+03  0.95738585768E+03  0.00000000000E+00 0. -1.
         -1   -1    0    0    0  501 -0.00000000000E+00 -0.00000000000E+00 -0.68791159341E+02  0.68791159341E+02  0.00000000000E+00 0.  1.
         25    2    1    2    0    0 -0.21735055446E+03 -0.48157577015E+02  0.59052569305E+03  0.64337331370E+03  0.12509280907E+03 0.  0.
         23    2    1    2    0    0  0.21735055446E+03  0.48157577015E+02  0.29806900530E+03  0.38280370333E+03  0.90183854496E+02 0.  0.
          5    1    3    3  502    0 -0.62182962762E+01 -0.65285805237E+00  0.17222134852E+03  0.17238549452E+03  0.41800000000E+01 0.  1.
         -5    1    3    3    0  502 -0.21113225819E+03 -0.47504718963E+02  0.41830434452E+03  0.47098781918E+03  0.41800000000E+01 0.  1.
        -11    1    4    4    0    0  0.10350438342E+03 -0.19771010630E+01  0.76568621580E+02  0.12876265036E+03  0.00000000000E+00 0.  1.
         11    1    4    4    0    0  0.11384617104E+03  0.50134678078E+02  0.22150038372E+03  0.25404105297E+03  0.00000000000E+00 0. -1.
</event>
<event>
 8    1  0.7281309E-009  0.1094582E+03  0.7561462E-02  0.1261576E+00
          2   -1    0    0  501    0  0.00000000000E+00  0.00000000000E+00  0.52587085236E+02  0.52587085236E+02  0.00000000000E+00 0. -1.
         -2   -1    0    0    0  501 -0.00000000000E+00 -0.00000000000E+00 -0.30420716747E+03  0.30420716747E+03  0.00000000000E+00 0.  1.
         25    2    1    2    0    0 -0.18854382134E+00 -0.50872791013E+02 -0.82390574060E+02  0.15818895348E+03  0.12508981531E+03 0.  0.
         23    2    1    2    0    0  0.18854382134E+00  0.50872791013E+02 -0.16922950817E+03  0.19860529922E+03  0.90649666461E+02 0.  0.
          5    1    3    3  502    0  0.58277075129E+02 -0.76251050247E+01 -0.19832746289E+02  0.62170490891E+02  0.41800000000E+01 0.  1.
         -5    1    3    3    0  502 -0.58465618950E+02 -0.43247685989E+02 -0.62557827772E+02  0.96018462590E+02  0.41800000000E+01 0.  1.
        -11    1    4    4    0    0 -0.31708118065E+02  0.44472896841E+02 -0.46799137707E+02  0.71926369259E+02  0.00000000000E+00 0. -1.
         11    1    4    4    0    0  0.31896661887E+02  0.63998941727E+01 -0.12243037046E+03  0.12667892997E+03  0.00000000000E+00 0.  1.
</event>
<event>
 8    1  0.7281309E-009  0.1291795E+03  0.7561462E-02  0.1228678E+00
         -2   -1    0    0    0  501 -0.00000000000E+00  0.00000000000E+00  0.23922229818E+02  0.23922229818E+02  0.00000000000E+00 0.  1.
          2   -1    0    0  501    0  0.00000000000E+00 -0.00000000000E+00 -0.90847851321E+03  0.90847851321E+03  0.00000000000E+00 0. -1.
         25    2    1    2    0    0 -0.40589453002E+02 -0.87504265624E+02 -0.54234209614E+03  0.56487781509E+03  0.12508995377E+03 0.  0.
         23    2    1    2    0    0  0.40589453002E+02  0.87504265624E+02 -0.34221418725E+03  0.36752292794E+03  0.93048656132E+02 0.  0.
          5    1    3    3  502    0  0.35540260689E+02 -0.57358363495E+02 -0.15745701706E+03  0.17135716096E+03  0.41800000000E+01 0.  1.
         -5    1    3    3    0  502 -0.76129713691E+02 -0.30145902129E+02 -0.38488507908E+03  0.39352065413E+03  0.41800000000E+01 0.  1.
        -11    1    4    4    0    0  0.48439984969E+02  0.46952914940E+02 -0.30351554618E+03  0.31092232975E+03  0.00000000000E+00 0. -1.
         11    1    4    4    0    0 -0.78505319671E+01  0.40551350683E+02 -0.38698641069E+02  0.56600598186E+02  0.00000000000E+00 0.  1.
</event>
<event>
 8    1  0.7281309E-009  0.3320996E+03  0.7561462E-02  0.1070212E+00
         -1   -1    0    0    0  501 -0.00000000000E+00  0.00000000000E+00  0.27881168546E+03  0.27881168546E+03  0.00000000000E+00 0.  1.
          1   -1    0    0  501    0  0.00000000000E+00 -0.00000000000E+00 -0.42743300667E+03  0.42743300667E+03  0.00000000000E+00 0. -1.
         25    2    1    2    0    0 -0.27254846719E+03  0.18150486786E+03 -0.89277216555E+02  0.36172342703E+03  0.12508689875E+03 0.  0.
         23    2    1    2    0    0  0.27254846719E+03 -0.18150486786E+03 -0.59344104652E+02  0.34452126509E+03  0.89143117054E+02 0.  0.
          5    1    3    3  502    0 -0.83216650641E+02  0.28098720789E+02 -0.78331512377E+02  0.11776182440E+03  0.41800000000E+01 0. -1.
         -5    1    3    3    0  502 -0.18933181655E+03  0.15340614707E+03 -0.10945704178E+02  0.24396160263E+03  0.41800000000E+01 0. -1.
        -11    1    4    4    0    0  0.18632472631E+03 -0.15493799159E+03 -0.73420609597E+02  0.25320598490E+03  0.00000000000E+00 0. -1.
         11    1    4    4    0    0  0.86223740881E+02 -0.26566876273E+02  0.14076504945E+02  0.91315280199E+02  0.00000000000E+00 0.  1.
</event>
<event>
 8    1  0.7281309E-009  0.9505470E+02  0.7561462E-02  0.1291053E+00
         -1   -1    0    0    0  501 -0.00000000000E+00  0.00000000000E+00  0.70127597331E+03  0.70127597331E+03  0.00000000000E+00 0.  1.
          1   -1    0    0  501    0  0.00000000000E+00 -0.00000000000E+00 -0.28140260481E+02  0.28140260481E+02  0.00000000000E+00 0. -1.
         25    2    1    2    0    0  0.57465864515E+02 -0.10507604046E+02  0.54463889945E+03  0.56186480460E+03  0.12509113689E+03 0.  0.
         23    2    1    2    0    0 -0.57465864515E+02  0.10507604046E+02  0.12849681339E+03  0.16755142920E+03  0.90273556750E+02 0.  0.
          5    1    3    3  502    0  0.78490978058E+02 -0.19102673057E+02  0.19035640255E+03  0.20683031244E+03  0.41800000000E+01 0.  1.
         -5    1    3    3    0  502 -0.21025113542E+02  0.85950690113E+01  0.35428249690E+03  0.35503449215E+03  0.41800000000E+01 0.  1.
        -11    1    4    4    0    0 -0.17676625059E+02 -0.26453704884E+02  0.10253405780E+03  0.10735685625E+03  0.00000000000E+00 0.  1.
         11    1    4    4    0    0 -0.39789239456E+02  0.36961308930E+02  0.25962755586E+02  0.60194572945E+02  0.00000000000E+00 0. -1.
</event>
<event>
 8    1  0.7281309E-009  0.1137054E+03  0.7561462E-02  0.1253858E+00
          2   -1    0    0  501    0  0.00000000000E+00  0.00000000000E+00  0.42631478363E+03  0.42631478363E+03  0.00000000000E+00 0. -1.
         -2   -1    0    0    0  501 -0.00000000000E+00 -0.00000000000E+00 -0.54028747252E+02  0.54028747252E+02  0.00000000000E+00 0.  1.
         25    2    1    2    0    0 -0.60218222291E+02  0.17362291396E+02  0.33491659385E+03  0.36296648288E+03  0.12509140417E+03 0.  0.
         23    2    1    2    0    0  0.60218222291E+02 -0.17362291396E+02  0.37369442522E+02  0.11737704800E+03  0.91941354703E+02 0.  0.
          5    1    3    3  502    0 -0.90868407838E+02  0.14184648257E+02  0.15418689023E+03  0.17958101600E+03  0.41800000000E+01 0. -1.
         -5    1    3    3    0  502  0.30650185547E+02  0.31776431383E+01  0.18072970363E+03  0.18338546688E+03  0.41800000000E+01 0. -1.
        -11    1    4    4    0    0  0.41571904341E+02  0.31365350875E+02  0.39184035061E+02  0.65172057431E+02  0.00000000000E+00 0. -1.
         11    1    4    4    0    0  0.18646317950E+02 -0.48727642271E+02 -0.18145925390E+01  0.52204990570E+02  0.00000000000E+00 0.  1.
</event>
<event>
 8    1  0.7281309E-009  0.9274649E+02  0.7561462E-02  0.1296334E+00
         -2   -1    0    0    0  501 -0.00000000000E+00  0.00000000000E+00  0.17013363370E+03  0.17013363370E+03  0.00000000000E+00 0.  1.
          2   -1    0    0  501    0  0.00000000000E+00 -0.00000000000E+00 -0.10030843056E+03  0.10030843056E+03  0.00000000000E+00 0. -1.
         25    2    1    2    0    0  0.49919595732E+02 -0.47511894989E+01 -0.15356532738E+02  0.13563746931E+03  0.12508860916E+03 0.  0.
         23    2    1    2    0    0 -0.49919595732E+02  0.47511894989E+01  0.85181735885E+02  0.13480459495E+03  0.91661392372E+02 0.  0.
          5    1    3    3  502    0  0.28948796889E+02  0.59904390613E+02 -0.79517264812E+01  0.67136213849E+02  0.41800000000E+01 0. -1.
         -5    1    3    3    0  502  0.20970798842E+02 -0.64655580111E+02 -0.74048062572E+01  0.68501255458E+02  0.41800000000E+01 0. -1.
        -11    1    4    4    0    0 -0.31923677389E+02 -0.68302502038E+00  0.10364699645E+03  0.10845408049E+03  0.00000000000E+00 0.  1.
         11    1    4    4    0    0 -0.17995918343E+02  0.54342145192E+01 -0.18465260568E+02  0.26350514460E+02  0.00000000000E+00 0. -1.
</event>
<event>
 8    1  0.7281309E-009  0.1214963E+03  0.7561462E-02  0.1240649E+00
         -1   -1    0    0    0  501 -0.00000000000E+00  0.00000000000E+00  0.23674033835E+02  0.23674033835E+02  0.00000000000E+00 0.  1.
          1   -1    0    0  501    0  0.00000000000E+00 -0.00000000000E+00 -0.15339534748E+04  0.15339534748E+04  0.00000000000E+00 0. -1.
         25    2    1    2    0    0  0.88363367178E+02 -0.76647525446E+01 -0.13247895257E+04  0.13336347142E+04  0.12508969035E+03 0.  0.
         23    2    1    2    0    0 -0.88363367178E+02  0.76647525446E+01 -0.18548991528E+03  0.22399279437E+03  0.88878738568E+02 0.  0.
          5    1    3    3  502    0  0.45000154254E+02 -0.65337042087E+02 -0.78966589802E+03  0.79365209371E+03  0.41800000000E+01 0.  1.
         -5    1    3    3    0  502  0.43363212923E+02  0.57672289542E+02 -0.53512362764E+03  0.53998262053E+03  0.41800000000E+01 0.  1.
        -11    1    4    4    0    0 -0.25284063097E+02 -0.75420476431E+01  0.11352747671E+01  0.26409376709E+02  0.00000000000E+00 0.  1.
         11    1    4    4    0    0 -0.63079304080E+02  0.15206800188E+02 -0.18662519005E+03  0.19758341766E+03  0.00000000000E+00 0. -1.
</event>
<event>
 8    1  0.7281309E-009  0.1588297E+03  0.7561462E-02  0.1190024E+00
         -1   -1    0    0    0  501 -0.00000000000E+00  0.00000000000E+00  0.41992313798E+02  0.41992313798E+02  0.00000000000E+00 0. -1.
          1   -1    0    0  501    0  0.00000000000E+00 -0.00000000000E+00 -0.91052375569E+03  0.91052375569E+03  0.00000000000E+00 0.  1.
         25    2    1    2    0    0  0.14240258510E+03 -0.48066952858E+02 -0.30530739221E+03  0.36255889717E+03  0.12508965577E+03 0.  0.
         23    2    1    2    0    0 -0.14240258510E+03  0.48066952858E+02 -0.56322404968E+03  0.58995717231E+03  0.90770076684E+02 0.  0.
          5    1    3    3  502    0  0.41661916967E+02  0.18517903432E+02 -0.19035846975E+03  0.19578673979E+03  0.41800000000E+01 0. -1.
         -5    1    3    3    0  502  0.10074066814E+03 -0.66584856291E+02 -0.11494892246E+03  0.16677215739E+03  0.41800000000E+01 0. -1.
        -11    1    4    4    0    0 -0.72115007129E+02  0.32270851480E+02 -0.14095330649E+03  0.16158532334E+03  0.00000000000E+00 0. -1.
         11    1    4    4    0    0 -0.70287577974E+02  0.15796101378E+02 -0.42227074319E+03  0.42837184897E+03  0.00000000000E+00 0.  1.
</event>
<event>
 8    1  0.7281309E-009  0.2282899E+03  0.7561462E-02  0.1127849E+00
         -1   -1    0    0    0  501 -0.00000000000E+00  0.00000000000E+00  0.34503971297E+03  0.34503971297E+03  0.00000000000E+00 0.  1.
          1   -1    0    0  501    0  0.00000000000E+00 -0.00000000000E+00 -0.17511597175E+03  0.17511597175E+03  0.00000000000E+00 0. -1.
         25    2    1    2    0    0 -0.10283115551E+03 -0.17931453025E+03  0.16873805669E+03  0.29470141345E+03  0.12509374089E+03 0.  0.
         23    2    1    2    0    0  0.10283115551E+03  0.17931453025E+03  0.11856845274E+01  0.22545427126E+03  0.90001529332E+02 0.  0.
          5    1    3    3  502    0 -0.12566553609E+03 -0.17697289047E+03  0.16041762652E+03  0.26993058037E+03  0.41800000000E+01 0. -1.
         -5    1    3    3    0  502  0.22834380575E+02 -0.23416397776E+01  0.83204301697E+01  0.24770833076E+02  0.41800000000E+01 0. -1.
        -11    1    4    4    0    0  0.30262968023E+02  0.98786611539E+01  0.23803320520E+02  0.39749632042E+02  0.00000000000E+00 0.  1.
         11    1    4    4    0    0  0.72568187490E+02  0.16943586909E+03 -0.22617635992E+02  0.18570463922E+03  0.00000000000E+00 0. -1.
</event>
<event>
 8    1  0.7281309E-009  0.1594147E+03  0.7561462E-02  0.1189359E+00
          2   -1    0    0  501    0  0.00000000000E+00  0.00000000000E+00  0.24274452703E+03  0.24274452703E+03  0.00000000000E+00 0. -1.
         -2   -1    0    0    0  501 -0.00000000000E+00 -0.00000000000E+00 -0.12973688103E+03  0.12973688103E+03  0.00000000000E+00 0.  1.
         25    2    1    2    0    0 -0.12351811370E+03 -0.64469989172E+02  0.73239486469E+02  0.20106063528E+03  0.12509297649E+03 0.  0.
         23    2    1    2    0    0  0.12351811370E+03  0.64469989172E+02  0.39768159525E+02  0.17142077277E+03  0.91599513697E+02 0.  0.
          5    1    3    3  502    0 -0.52108517085E+02 -0.65778501864E+02 -0.17180427001E+02  0.85759829362E+02  0.41800000000E+01 0. -1.
         -5    1    3    3    0  502 -0.71409596617E+02  0.13085126918E+01  0.90419913470E+02  0.11530080592E+03  0.41800000000E+01 0. -1.
        -11    1    4    4    0    0  0.83829122743E+02 -0.42170205892E+01  0.37834004039E+02  0.92068001739E+02  0.00000000000E+00 0. -1.
         11    1    4    4    0    0  0.39688990959E+02  0.68687009761E+02  0.19341554856E+01  0.79352771034E+02  0.00000000000E+00 0.  1.
</event>
<event>
 7    1  0.7281309E-009  0.1607049E+03  0.7561462E-02  0.1187903E+00
         -2   -1    0    0    0  501 -0.00000000000E+00  0.00000000000E+00  0.10937362742E+03  0.10937362742E+03  0.00000000000E+00 0.  1.
          2   -1    0    0  501    0  0.00000000000E+00 -0.00000000000E+00 -0.29681956067E+03  0.29681956067E+03  0.00000000000E+00 0. -1.
         23    2    1    2    0    0  0.11984287499E+03 -0.67416817156E+02 -0.13740563361E+03  0.21374474707E+03  0.88877257096E+02 0.  0.
          5    1    1    2  502    0 -0.90981491482E+02 -0.48323701227E+00 -0.71171800905E+02  0.11558876656E+03  0.41800000000E+01 0. -1.
         -5    1    1    2    0  502 -0.28861383508E+02  0.67900054168E+02  0.21131501269E+02  0.76859674472E+02  0.41800000000E+01 0. -1.
        -11    1    3    3    0    0  0.64227504032E+02  0.58000184715E+01 -0.26598925716E+02  0.69758980337E+02  0.00000000000E+00 0.  1.
         11    1    3    3    0    0  0.55615370959E+02 -0.73216835627E+02 -0.11080670789E+03  0.14398576673E+03  0.00000000000E+00 0. -1.
</event>
<event>
 8    1  0.7281309E-009  0.1100524E+03  0.7561462E-02  0.1260473E+00
         -1   -1    0    0    0  501 -0.00000000000E+00  0.00000000000E+00  0.26302622078E+03  0.26302622078E+03  0.00000000000E+00 0.  1.
          1   -1    0    0  501    0  0.00000000000E+00 -0.00000000000E+00 -0.13198572245E+03  0.13198572245E+03  0.00000000000E+00 0. -1.
         25    2    1    2    0    0 -0.80900721893E+02  0.58479458640E+02 -0.51328174663E+02  0.16806953363E+03  0.12509201706E+03 0.  0.
         23    2    1    2    0    0  0.80900721893E+02 -0.58479458640E+02  0.18236867299E+03  0.22694240960E+03  0.90993134373E+02 0.  0.
          5    1    3    3  502    0 -0.23359918014E+02  0.42945580257E+02  0.36985193742E+02  0.61444166439E+02  0.41800000000E+01 0. -1.
         -5    1    3    3    0  502 -0.57540803879E+02  0.15533878382E+02 -0.88313368405E+02  0.10662536719E+03  0.41800000000E+01 0. -1.
        -11    1    4    4    0    0  0.65417105862E+02 -0.17845485335E+02  0.41463399934E+02  0.79480013967E+02  0.00000000000E+00 0.  1.
         11    1    4    4    0    0  0.15483616031E+02 -0.40633973305E+02  0.14090527305E+03  0.14746239564E+03  0.00000000000E+00 0. -1.
</event>
<event>
 8    1  0.7281309E-009  0.7839145E+02  0.7561462E-02  0.1333679E+00
         -1   -1    0    0    0  501 -0.00000000000E+00  0.00000000000E+00  0.37210489712E+02  0.37210489712E+02  0.00000000000E+00 0.  1.
          1   -1    0    0  501    0  0.00000000000E+00 -0.00000000000E+00 -0.47298339066E+03  0.47298339066E+03  0.00000000000E+00 0. -1.
         25    2    1    2    0    0 -0.74015899778E+02 -0.41037021666E+01 -0.21169792241E+03  0.25682499473E+03  0.12509146164E+03 0.  0.
         23    2    1    2    0    0  0.74015899778E+02  0.41037021666E+01 -0.22407497854E+03  0.25336888564E+03  0.92146635376E+02 0.  0.
          5    1    3    3  502    0 -0.62737261995E+02  0.54955915332E+01 -0.22670675078E+03  0.23532868252E+03  0.41800000000E+01 0. -1.
         -5    1    3    3    0  502 -0.11278637783E+02 -0.95992936998E+01  0.15008828368E+02  0.21496312213E+02  0.41800000000E+01 0. -1.
        -11    1    4    4    0    0  0.73360134142E+01 -0.76172901960E+01  0.69323264154E+01  0.12645052482E+02  0.00000000000E+00 0.  1.
         11    1    4    4    0    0  0.66679886364E+02  0.11720992363E+02 -0.23100730495E+03  0.24072383315E+03  0.00000000000E+00 0. -1.
</event>
<event>
 8    1  0.7281309E-009  0.1558636E+03  0.7561462E-02  0.1193447E+00
         -1   -1    0    0    0  501 -0.00000000000E+00  0.00000000000E+00  0.62004729633E+02  0.62004729633E+02  0.00000000000E+00 0.  1.
          1   -1    0    0  501    0  0.00000000000E+00 -0.00000000000E+00 -0.51853410347E+03  0.51853410347E+03  0.00000000000E+00 0. -1.
         25    2    1    2    0    0  0.67211604534E+02 -0.10845176260E+03 -0.34696374391E+03  0.39026987279E+03  0.12509016516E+03 0.  0.
         23    2    1    2    0    0 -0.67211604534E+02  0.10845176260E+03 -0.10956562992E+03  0.19026896031E+03  0.88985759553E+02 0.  0.
          5    1    3    3  502    0  0.10216440510E+03 -0.98579507943E+02 -0.27086230809E+03  0.30584203014E+03  0.41800000000E+01 0.  1.
         -5    1    3    3    0  502 -0.34952800568E+02 -0.98722546578E+01 -0.76101435823E+02  0.84427842646E+02  0.41800000000E+01 0.  1.
        -11    1    4    4    0    0 -0.42737141127E+02  0.33538506813E+02  0.11864374948E+01  0.54338773494E+02  0.00000000000E+00 0.  1.
         11    1    4    4    0    0 -0.24474463407E+02  0.74913255787E+02 -0.11075206741E+03  0.13593018682E+03  0.00000000000E+00 0. -1.
</event>
<event>
 8    1  0.7281309E-009  0.1321130E+03  0.7561462E-02  0.1224354E+00
          2   -1    0    0  501    0  0.00000000000E+00  0.00000000000E+00  0.43558742589E+02  0.43558742589E+02  0.00000000000E+00 0.  1.
         -2   -1    0    0    0  501 -0.00000000000E+00 -0.00000000000E+00 -0.53101373895E+03  0.53101373895E+03  0.00000000000E+00 0. -1.
         25    2    1    2    0    0  0.53470738200E+02 -0.90724969003E+02 -0.23372152156E+03  0.28524382630E+03  0.12509256956E+03 0.  0.
         23    2    1    2    0    0 -0.53470738200E+02  0.90724969003E+02 -0.25373347479E+03  0.28932865523E+03  0.90775848455E+02 0.  0.
          5    1    3    3  502    0  0.57499017774E+02 -0.16305222719E+02 -0.18890392432E+03  0.19817709847E+03  0.41800000000E+01 0. -1.
         -5    1    3    3    0  502 -0.40282795741E+01 -0.74419746285E+02 -0.44817597241E+02  0.87066727835E+02  0.41800000000E+01 0. -1.
        -11    1    4    4    0    0 -0.34999196466E+02 -0.20623631808E+01 -0.12335756241E+03  0.12824307115E+03  0.00000000000E+00 0. -1.
         11    1    4    4    0    0 -0.18471541734E+02  0.92787332184E+02 -0.13037591239E+03  0.16108558408E+03  0.00000000000E+00 0.  1.
</event>
<event>
 8    1  0.7281309E-009  0.9053100E+02  0.7561462E-02  0.1301571E+00
          2   -1    0    0  501    0  0.00000000000E+00  0.00000000000E+00  0.60983088160E+03  0.60983088160E+03  0.00000000000E+00 0. -1.
         -2   -1    0    0    0  501 -0.00000000000E+00 -0.00000000000E+00 -0.23587010149E+02  0.23587010149E+02  0.00000000000E+00 0.  1.
         25    2    1    2    0    0  0.17362501012E+02  0.45348250714E+02  0.38426128157E+03  0.40701669086E+03  0.12509170172E+03 0.  0.
         23    2    1    2    0    0 -0.17362501012E+02 -0.45348250714E+02  0.20198258988E+03  0.22640120089E+03  0.90014536967E+02 0.  0.
          5    1    3    3  502    0 -0.24419563405E+02 -0.34341986943E+02  0.15542443171E+03  0.16108976850E+03  0.41800000000E+01 0.  1.
         -5    1    3    3    0  502  0.41782064417E+02  0.79690237658E+02  0.22883684986E+03  0.24592692236E+03  0.41800000000E+01 0.  1.
        -11    1    4    4    0    0 -0.13789174083E+02 -0.32505035710E+02  0.20856565269E+03  0.21153333107E+03  0.00000000000E+00 0. -1.
         11    1    4    4    0    0 -0.35733269292E+01 -0.12843215004E+02 -0.65830628162E+01  0.14867869821E+02  0.00000000000E+00 0.  1.
</event>
<event>
 8    1  0.7281309E-009  0.2483063E+03  0.7561462E-02  0.1114380E+00
         -1   -1    0    0    0  501 -0.00000000000E+00  0.00000000000E+00  0.50690808679E+02  0.50690808679E+02  0.00000000000E+00 0.  1.
          1   -1    0    0  501    0  0.00000000000E+00 -0.00000000000E+00 -0.14174501168E+04  0.14174501168E+04  0.00000000000E+00 0. -1.
         25    2    1    2    0    0 -0.20171365776E+03 -0.12884429532E+03 -0.57040533341E+03  0.63111002230E+03  0.12509341989E+03 0.  0.
         23    2    1    2    0    0  0.20171365776E+03  0.12884429532E+03 -0.79635397474E+03  0.83703090321E+03  0.95665185323E+02 0.  0.
          5    1    3    3  502    0 -0.17593704707E+03 -0.12045702803E+03 -0.35624694974E+03  0.41520248281E+03  0.41800000000E+01 0.  1.
         -5    1    3    3    0  502 -0.25776610689E+02 -0.83872672906E+01 -0.21415838367E+03  0.21590753949E+03  0.41800000000E+01 0.  1.
        -11    1    4    4    0    0  0.10547159023E+03  0.14496201687E+02 -0.28302247113E+03  0.30238405278E+03  0.00000000000E+00 0.  1.
         11    1    4    4    0    0  0.96242067521E+02  0.11434809364E+03 -0.51333150361E+03  0.53464685043E+03  0.00000000000E+00 0. -1.
</event>
<event>
 8    1  0.7281309E-009  0.3484581E+03  0.7561462E-02  0.1063250E+00
          2   -1    0    0  501    0  0.00000000000E+00  0.00000000000E+00  0.21011933058E+04  0.21011933058E+04  0.00000000000E+00 0. -1.
         -2   -1    0    0    0  501 -0.00000000000E+00 -0.00000000000E+00 -0.61592796439E+02  0.61592796439E+02  0.00000000000E+00 0.  1.
         25    2    1    2    0    0 -0.28560845548E+03 -0.18611206946E+03  0.92887271798E+03  0.99732837574E+03  0.12509784420E+03 0.  0.
         23    2    1    2    0    0  0.28560845548E+03  0.18611206946E+03  0.11107277914E+04  0.11654577265E+04  0.91463618218E+02 0.  0.
          5    1    3    3  502    0 -0.29386840061E+03 -0.18108075014E+03  0.84495043148E+03  0.91274727006E+03  0.41800000000E+01 0. -1.
         -5    1    3    3    0  502  0.82599451292E+01 -0.50313193203E+01  0.83922286502E+02  0.84581105688E+02  0.41800000000E+01 0. -1.
        -11    1    4    4    0    0  0.44941645592E+02  0.35438657362E+02  0.96133948683E+02  0.11188112456E+03  0.00000000000E+00 0.  1.
         11    1    4    4    0    0  0.24066680989E+03  0.15067341209E+03  0.10145938427E+04  0.10535766019E+04  0.00000000000E+00 0. -1.
</event>
<event>
 8    1  0.7281309E-009  0.2105731E+03  0.7561462E-02  0.1141113E+00
          1   -1    0    0  501    0  0.00000000000E+00  0.00000000000E+00  0.10265549837E+04  0.10265549837E+04  0.00000000000E+00 0. -1.
         -1   -1    0    0    0  501 -0.00000000000E+00 -0.00000000000E+00 -0.53446516127E+02  0.53446516127E+02  0.00000000000E+00 0.  1.
         25    2    1    2    0    0  0.19226127055E+03  0.59774825384E+02  0.39133832107E+03  0.45752673135E+03  0.12509037716E+03 0.  0.
         23    2    1    2    0    0 -0.19226127055E+03 -0.59774825384E+02  0.58177014646E+03  0.62247476844E+03  0.92091846130E+02 0.  0.
          5    1    3    3  502    0  0.44796539159E+02  0.53297844534E+02  0.50607551290E+02  0.86174165503E+02  0.41800000000E+01 0.  1.
         -5    1    3    3    0  502  0.14746473139E+03  0.64769808496E+01  0.34073076978E+03  0.37135256585E+03  0.41800000000E+01 0.  1.
        -11    1    4    4    0    0 -0.53632946685E+02 -0.31661657091E+02  0.81388021913E+02  0.10248396758E+03  0.00000000000E+00 0.  1.
         11    1    4    4    0    0 -0.13862832386E+03 -0.28113168293E+02  0.50038212455E+03  0.51999080086E+03  0.00000000000E+00 0. -1.
</event>
<event>
 8    1  0.7281309E-009  0.7216456E+02  0.7561462E-02  0.1352883E+00
         -3   -1    0    0    0  501 -0.00000000000E+00  0.00000000000E+00  0.44778246190E+02  0.44778246190E+02  0.00000000000E+00 0.  1.
          3   -1    0    0  501    0  0.00000000000E+00 -0.00000000000E+00 -0.30508978091E+03  0.30508978091E+03  0.00000000000E+00 0. -1.
         25    2    1    2    0    0  0.11659251570E+02  0.41901575224E+02 -0.15879766159E+03  0.20678394744E+03  0.12510484979E+03 0.  0.
         23    2    1    2    0    0 -0.11659251570E+02 -0.41901575224E+02 -0.10151387313E+03  0.14308407966E+03  0.90974212053E+02 0.  0.
          5    1    3    3  502    0  0.10017329365E+02 -0.55278008030E+00 -0.16347623209E+03  0.16383712434E+03  0.41800000000E+01 0. -1.
         -5    1    3    3    0  502  0.16419222056E+01  0.42454355304E+02  0.46785705040E+01  0.42946823105E+02  0.41800000000E+01 0. -1.
        -11    1    4    4    0    0 -0.37518495507E+02 -0.51037258084E+02 -0.96148025486E+02  0.11513853405E+03  0.00000000000E+00 0. -1.
         11    1    4    4    0    0  0.25859243937E+02  0.91356828598E+01 -0.53658476474E+01  0.27945545607E+02  0.00000000000E+00 0.  1.
</event>
<event>
 8    1  0.7281309E-009  0.2277487E+03  0.7561462E-02  0.1128234E+00
         -2   -1    0    0    0  501 -0.00000000000E+00  0.00000000000E+00  0.65890752556E+02  0.65890752556E+02  0.00000000000E+00 0.  1.
          2   -1    0    0  501    0  0.00000000000E+00 -0.00000000000E+00 -0.10708054618E+04  0.10708054618E+04  0.00000000000E+00 0. -1.
         25    2    1    2    0    0  0.40291847731E+02 -0.21319408833E+03 -0.74855517023E+03  0.78933931505E+03  0.12508620668E+03 0.  0.
         23    2    1    2    0    0 -0.40291847731E+02  0.21319408833E+03 -0.25635953897E+03  0.34735689927E+03  0.88664818034E+02 0.  0.
          5    1    3    3  502    0 -0.80799131859E+01 -0.52493627953E+02 -0.38773567579E+03  0.39137870746E+03  0.41800000000E+01 0. -1.
         -5    1    3    3    0  502  0.48371760917E+02 -0.16070046038E+03 -0.36081949444E+03  0.39796060758E+03  0.41800000000E+01 0. -1.
        -11    1    4    4    0    0  0.27290287309E+02  0.39894747465E+02 -0.55465352761E+02  0.73571434766E+02  0.00000000000E+00 0.  1.
         11    1    4    4    0    0 -0.67582135040E+02  0.17329934086E+03 -0.20089418621E+03  0.27378546450E+03  0.00000000000E+00 0. -1.
</event>
<event>
 8    1  0.7281309E-009  0.1099832E+03  0.7561462E-02  0.1260601E+00
         -2   -1    0    0    0  501 -0.00000000000E+00  0.00000000000E+00  0.17171925994E+02  0.17171925994E+02  0.00000000000E+00 0.  1.
          2   -1    0    0  501    0  0.00000000000E+00 -0.00000000000E+00 -0.90041513200E+03  0.90041513200E+03  0.00000000000E+00 0. -1.
         25    2    1    2    0    0  0.29083321904E+02  0.36887731060E+02 -0.63454161838E+03  0.64845894236E+03  0.12509752255E+03 0.  0.
         23    2    1    2    0    0 -0.29083321904E+02 -0.36887731060E+02 -0.24870158762E+03  0.26912811564E+03  0.91492724434E+02 0.  0.
          5    1    3    3  502    0  0.71072451073E+02  0.49128918003E+01 -0.24013800853E+03  0.25051779448E+03  0.41800000000E+01 0.  1.
         -5    1    3    3    0  502 -0.41989129169E+02  0.31974839260E+02 -0.39440360985E+03  0.39794114788E+03  0.41800000000E+01 0.  1.
        -11    1    4    4    0    0  0.20879496829E+02 -0.40500378318E+02 -0.69884714649E+02  0.83427257976E+02  0.00000000000E+00 0.  1.
         11    1    4    4    0    0 -0.49962818733E+02  0.36126472582E+01 -0.17881687298E+03  0.18570085766E+03  0.00000000000E+00 0. -1.
</event>
<event>
 8    1  0.7281309E-009  0.1816609E+03  0.7561462E-02  0.1166205E+00
          2   -1    0    0  501    0  0.00000000000E+00  0.00000000000E+00  0.30301840148E+03  0.30301840148E+03  0.00000000000E+00 0. -1.
         -2   -1    0    0    0  501 -0.00000000000E+00 -0.00000000000E+00 -0.14144887833E+03  0.14144887833E+03  0.00000000000E+00 0.  1.
         25    2    1    2    0    0  0.17482787896E+03 -0.41636184475E+01  0.64346970860E+02  0.22443356070E+03  0.12509103697E+03 0.  0.
         23    2    1    2    0    0 -0.17482787896E+03  0.41636184475E+01  0.97222552290E+02  0.22003371912E+03  0.91545015688E+02 0.  0.
          5    1    3    3  502    0  0.32630823292E+02  0.79767901286E+01  0.73956126679E+02  0.81334991749E+02  0.41800000000E+01 0.  1.
         -5    1    3    3    0  502  0.14219705566E+03 -0.12140408576E+02 -0.96091558194E+01  0.14309856895E+03  0.41800000000E+01 0.  1.
        -11    1    4    4    0    0 -0.16091995184E+03 -0.16525448833E+02  0.54740230783E+02  0.17077708929E+03  0.00000000000E+00 0.  1.
         11    1    4    4    0    0 -0.13907927112E+02  0.20689067281E+02  0.42482321507E+02  0.49256629829E+02  0.00000000000E+00 0. -1.
</event>
<event>
 8    1  0.7281309E-009  0.1506653E+03  0.7561462E-02  0.1199658E+00
          3   -1    0    0  501    0  0.00000000000E+00  0.00000000000E+00  0.16211258903E+03  0.16211258903E+03  0.00000000000E+00 0. -1.
         -3   -1    0    0    0  501 -0.00000000000E+00 -0.00000000000E+00 -0.23056020786E+03  0.23056020786E+03  0.00000000000E+00 0.  1.
         25    2    1    2    0    0  0.88889607243E+02  0.11554054696E+03 -0.10400087032E+03  0.21843629620E+03  0.12508898514E+03 0.  0.
         23    2    1    2    0    0 -0.88889607243E+02 -0.11554054696E+03  0.35553251488E+02  0.17423650070E+03  0.88562657012E+02 0.  0.
          5    1    3    3  502    0  0.50172680658E+02  0.59116056615E+02 -0.12463128672E+03  0.14684153385E+03  0.41800000000E+01 0.  1.
         -5    1    3    3    0  502  0.38716926585E+02  0.56424490342E+02  0.20630416403E+02  0.71594762347E+02  0.41800000000E+01 0.  1.
        -11    1    4    4    0    0 -0.42484320825E+02 -0.95599792406E+02 -0.11451871586E+02  0.10523964646E+03  0.00000000000E+00 0.  1.
         11    1    4    4    0    0 -0.46405286418E+02 -0.19940754551E+02  0.47005123074E+02  0.68996854239E+02  0.00000000000E+00 0. -1.
</event>
<event>
 8    1  0.7281309E-009  0.1174144E+03  0.7561462E-02  0.1247424E+00
          2   -1    0    0  501    0  0.00000000000E+00  0.00000000000E+00  0.33490980027E+03  0.33490980027E+03  0.00000000000E+00 0. -1.
         -2   -1    0    0    0  501 -0.00000000000E+00 -0.00000000000E+00 -0.52432359259E+02  0.52432359259E+02  0.00000000000E+00 0.  1.
         25    2    1    2    0    0  0.38770442415E+02  0.59125004917E+02  0.11675742569E+03  0.18514656610E+03  0.12509213035E+03 0.  0.
         23    2    1    2    0    0 -0.38770442415E+02 -0.59125004917E+02  0.16572001533E+03  0.20219559343E+03  0.91766121805E+02 0.  0.
          5    1    3    3  502    0 -0.38957029899E+02  0.38577428916E+01  0.66450712429E+02  0.77237956608E+02  0.41800000000E+01 0. -1.
         -5    1    3    3    0  502  0.77727472313E+02  0.55267262025E+02  0.50306713257E+02  0.10790860949E+03  0.41800000000E+01 0. -1.
        -11    1    4    4    0    0 -0.31221304918E+02 -0.75642915366E+02  0.16481417227E+03  0.18401177111E+03  0.00000000000E+00 0. -1.
         11    1    4    4    0    0 -0.75491374970E+01  0.16517910449E+02  0.90584305696E+00  0.18183822320E+02  0.00000000000E+00 0.  1.
</event>
<event>
 8    1  0.7281309E-009  0.1016233E+03  0.7561462E-02  0.1276919E+00
          2   -1    0    0  501    0  0.00000000000E+00  0.00000000000E+00  0.46260240161E+02  0.46260240161E+02  0.00000000000E+00 0.  1.
         -2   -1    0    0    0  501 -0.00000000000E+00 -0.00000000000E+00 -0.29113916365E+03  0.29113916365E+03  0.00000000000E+00 0. -1.
         25    2    1    2    0    0  0.16569172958E+02  0.15797689364E+02 -0.17677768425E+03  0.21776502415E+03  0.12508857506E+03 0.  0.
         23    2    1    2    0    0 -0.16569172958E+02 -0.15797689364E+02 -0.68101239232E+02  0.11963437966E+03  0.95658253853E+02 0.  0.
          5    1    3    3  502    0  0.36511703796E+02  0.54383081051E+02 -0.46674438374E+02  0.80539428954E+02  0.41800000000E+01 0. -1.
         -5    1    3    3    0  502 -0.19942530838E+02 -0.38585391686E+02 -0.13010324588E+03  0.13722559519E+03  0.41800000000E+01 0. -1.
        -11    1    4    4    0    0 -0.46688291166E+02 -0.34916667569E+02 -0.58720003246E+02  0.82746655445E+02  0.00000000000E+00 0. -1.
         11    1    4    4    0    0  0.30119118208E+02  0.19118978205E+02 -0.93812359864E+01  0.36887724216E+02  0.00000000000E+00 0.  1.
</event>
<event>
 8    1  0.7281309E-009  0.1858528E+03  0.7561462E-02  0.1162256E+00
         -2   -1    0    0    0  501 -0.00000000000E+00  0.00000000000E+00  0.25178988592E+03  0.25178988592E+03  0.00000000000E+00 0.  1.
          2   -1    0    0  501    0  0.00000000000E+00 -0.00000000000E+00 -0.18523161586E+03  0.18523161586E+03  0.00000000000E+00 0. -1.
         25    2    1    2    0    0  0.12288913628E+03  0.96099581499E+02 -0.69268272279E+02  0.21161656593E+03  0.12508640234E+03 0.  0.
         23    2    1    2    0    0 -0.12288913628E+03 -0.96099581499E+02  0.13582654234E+03  0.22540493585E+03  0.89563754493E+02 0.  0.
          5    1    3    3  502    0  0.11011852574E+03  0.12452933550E+02 -0.60807518324E+02  0.12647605287E+03  0.41800000000E+01 0. -1.
         -5    1    3    3    0  502  0.12770610544E+02  0.83646647949E+02 -0.84607539556E+01  0.85140513061E+02  0.41800000000E+01 0. -1.
        -11    1    4    4    0    0 -0.16643490759E+02 -0.62465865732E+02  0.28376406411E+02  0.70598941969E+02  0.00000000000E+00 0. -1.
         11    1    4    4    0    0 -0.10624564552E+03 -0.33633715766E+02  0.10745013593E+03  0.15480599388E+03  0.00000000000E+00 0.  1.
</event>
<event>
 8    1  0.7281309E-009  0.1182917E+03  0.7561462E-02  0.1245942E+00
         -3   -1    0    0    0  501 -0.00000000000E+00  0.00000000000E+00  0.25671899900E+03  0.25671899900E+03  0.00000000000E+00 0.  1.
          3   -1    0    0  501    0  0.00000000000E+00 -0.00000000000E+00 -0.73179803530E+02  0.73179803530E+02  0.00000000000E+00 0. -1.
         25    2    1    2    0    0 -0.66787644943E+02  0.60146682682E+01  0.16143864391E+03  0.21495864725E+03  0.12509204023E+03 0.  0.
         23    2    1    2    0    0  0.66787644943E+02 -0.60146682682E+01  0.22100551561E+02  0.11494015528E+03  0.90697514657E+02 0.  0.
          5    1    3    3  502    0 -0.75027284389E+02 -0.38702947642E+02  0.14216699225E+03  0.16539630481E+03  0.41800000000E+01 0.  1.
         -5    1    3    3    0  502  0.82396394463E+01  0.44717615910E+02  0.19271651661E+02  0.49562342445E+02  0.41800000000E+01 0.  1.
        -11    1    4    4    0    0 -0.18634824428E+01 -0.32691252714E+02  0.25052757862E+02  0.41229009779E+02  0.00000000000E+00 0.  1.
         11    1    4    4    0    0  0.68651127385E+02  0.26676584446E+02 -0.29522063010E+01  0.73711145501E+02  0.00000000000E+00 0. -1.
</event>
<event>
 7    1  0.7281309E-009  0.1563057E+03  0.7561462E-02  0.1192932E+00
         -1   -1    0    0    0  501 -0.00000000000E+00  0.00000000000E+00  0.46778972338E+02  0.46778972338E+02  0.00000000000E+00 0.  1.
          1   -1    0    0  501    0  0.00000000000E+00 -0.00000000000E+00 -0.95232300356E+03  0.95232300356E+03  0.00000000000E+00 0. -1.
         25    2    1    2    0    0  0.77664974016E+02 -0.40099026184E+02 -0.74153879404E+03  0.75707797832E+03  0.12508997598E+03 0.  0.
          5    1    3    3  502    0 -0.27721423622E+02  0.12234735741E+02 -0.91925998817E+02  0.96881513948E+02  0.41800000000E+01 0. -1.
         -5    1    3    3    0  502  0.10538639764E+03 -0.52333761924E+02 -0.64961279522E+03  0.66019646437E+03  0.41800000000E+01 0. -1.
        -11    1    1    2    0    0  0.10697293018E+02  0.70142586769E+02 -0.26299548107E+02  0.75670871458E+02  0.00000000000E+00 0.  1.
         11    1    1    2    0    0 -0.88362267034E+02 -0.30043560586E+02 -0.13770568907E+03  0.16635312612E+03  0.00000000000E+00 0. -1.
</event>
<event>
 8    1  0.7281309E-009  0.1119069E+03  0.7561462E-02  0.1257079E+00
         -2   -1    0    0    0  501 -0.00000000000E+00  0.00000000000E+00  0.50274638463E+02  0.50274638463E+02  0.00000000000E+00 0.  1.
          2   -1    0    0  501    0  0.00000000000E+00 -0.00000000000E+00 -0.36733109980E+03  0.36733109980E+03  0.00000000000E+00 0. -1.
         25    2    1    2    0    0  0.33586320804E+02 -0.21136245578E+02 -0.26424741594E+03  0.29503923559E+03  0.12508665749E+03 0.  0.
         23    2    1    2    0    0 -0.33586320804E+02  0.21136245578E+02 -0.52809045393E+02  0.12256650267E+03  0.10324229017E+03 0.  0.
          5    1    3    3  502    0  0.50632619040E+02 -0.55661228940E+02 -0.94192871407E+02  0.12063002919E+03  0.41800000000E+01 0.  1.
         -5    1    3    3    0  502 -0.17046298236E+02  0.34524983362E+02 -0.17005454454E+03  0.17440920640E+03  0.41800000000E+01 0.  1.
        -11    1    4    4    0    0 -0.69489849417E+02  0.24451501598E+02 -0.42582166004E+02  0.85087930777E+02  0.00000000000E+00 0. -1.
         11    1    4    4    0    0  0.35903528613E+02 -0.33152560203E+01 -0.10226879389E+02  0.37478571896E+02  0.00000000000E+00 0.  1.
</event>
<event>
 8    1  0.7281309E-009  0.1019520E+03  0.7561462E-02  0.1276244E+00
         -1   -1    0    0    0  501 -0.00000000000E+00  0.00000000000E+00  0.37878877842E+03  0.37878877842E+03  0.00000000000E+00 0. -1.
          1   -1    0    0  501    0  0.00000000000E+00 -0.00000000000E+00 -0.39068295952E+02  0.39068295952E+02  0.00000000000E+00 0.  1.
         25    2    1    2    0    0 -0.29327644542E+02 -0.50685553539E+02  0.22844434443E+03  0.26695150610E+03  0.12508857676E+03 0.  0.
         23    2    1    2    0    0  0.29327644542E+02  0.50685553539E+02  0.11127613804E+03  0.15090556827E+03  0.83432461106E+02 0.  0.
          5    1    3    3  502    0  0.70710929718E+01  0.20410691814E+02  0.16051611495E+03  0.16201695051E+03  0.41800000000E+01 0. -1.
         -5    1    3    3    0  502 -0.36398737514E+02 -0.71096245353E+02  0.67928229480E+02  0.10493455559E+03  0.41800000000E+01 0. -1.
        -11    1    4    4    0    0 -0.13134833497E+02  0.57441886334E+02  0.65415480896E+02  0.88041349929E+02  0.00000000000E+00 0.  1.
         11    1    4    4    0    0  0.42462478039E+02 -0.67563327944E+01  0.45860657144E+02  0.62864218342E+02  0.00000000000E+00 0. -1.
</event>
<event>
 8    1  0.7281309E-009  0.1091233E+03  0.7561462E-02  0.1262202E+00
         -1   -1    0    0    0  501 -0.00000000000E+00  0.00000000000E+00  0.28340203088E+02  0.28340203088E+02  0.00000000000E+00 0.  1.
          1   -1    0    0  501    0  0.00000000000E+00 -0.00000000000E+00 -0.42517801985E+03  0.42517801985E+03  0.00000000000E+00 0. -1.
         25    2    1    2    0    0  0.58954120044E+00  0.17955525896E+02 -0.23790295283E+03  0.26937999198E+03  0.12508004096E+03 0.  0.
         23    2    1    2    0    0 -0.58954120044E+00 -0.17955525896E+02 -0.15893486394E+03  0.18413823096E+03  0.91235128414E+02 0.  0.
          5    1    3    3  502    0 -0.50675625070E+02  0.44967241277E+02 -0.13864767101E+03  0.15437202091E+03  0.41800000000E+01 0. -1.
         -5    1    3    3    0  502  0.51265166271E+02 -0.27011715382E+02 -0.99255281818E+02  0.11500797107E+03  0.41800000000E+01 0. -1.
        -11    1    4    4    0    0 -0.42023329795E+02 -0.26883012383E+02 -0.97195352690E+02  0.10925014044E+03  0.00000000000E+00 0.  1.
         11    1    4    4    0    0  0.41433788595E+02  0.89274864871E+01 -0.61739511250E+02  0.74888090519E+02  0.00000000000E+00 0. -1.
</event>
<event>
 8    1  0.7281309E-009  0.9279991E+02  0.7561462E-02  0.1296210E+00
          2   -1    0    0  501    0  0.00000000000E+00  0.00000000000E+00  0.17040527231E+03  0.17040527231E+03  0.00000000000E+00 0. -1.
         -2   -1    0    0    0  501 -0.00000000000E+00 -0.00000000000E+00 -0.84992438965E+02  0.84992438965E+02  0.00000000000E+00 0.  1.
         25    2    1    2    0    0  0.38938620523E+02 -0.33751603827E+02  0.52648216302E+02  0.14517150747E+03  0.12509014738E+03 0.  0.
         23    2    1    2    0    0 -0.38938620523E+02  0.33751603827E+02  0.32764617040E+02  0.11022620380E+03  0.91765510655E+02 0.  0.
          5    1    3    3  502    0 -0.32573271074E+02 -0.48292789172E+02  0.65803877232E+01  0.58770616613E+02  0.41800000000E+01 0. -1.
         -5    1    3    3    0  502  0.71511891597E+02  0.14541185345E+02  0.46067828579E+02  0.86400890857E+02  0.41800000000E+01 0. -1.
        -11    1    4    4    0    0 -0.73223681207E+01  0.16580922841E+02  0.61541507374E+02  0.64155289782E+02  0.00000000000E+00 0. -1.
         11    1    4    4    0    0 -0.31616252402E+02  0.17170680986E+02 -0.28776890333E+02  0.46070914021E+02  0.00000000000E+00 0.  1.
</event>
<event>
 8    1  0.7281309E-009  0.1025006E+03  0.7561462E-02  0.1275124E+00
         -1   -1    0    0    0  501 -0.00000000000E+00  0.00000000000E+00  0.21609281144E+02  0.21609281144E+02  0.00000000000E+00 0.  1.
          1   -1    0    0  501    0  0.00000000000E+00 -0.00000000000E+00 -0.57892309349E+03  0.57892309349E+03  0.00000000000E+00 0. -1.
         25    2    1    2    0    0  0.26503749987E+02  0.13105638622E+02 -0.33333263342E+03  0.35725755862E+03  0.12509241447E+03 0.  0.
         23    2    1    2    0    0 -0.26503749987E+02 -0.13105638622E+02 -0.22398117892E+03  0.24327481601E+03  0.90226720367E+02 0.  0.
          5    1    3    3  502    0 -0.43388788429E+02  0.16257878951E+02 -0.21282023844E+03  0.21784589021E+03  0.41800000000E+01 0. -1.
         -5    1    3    3    0  502  0.69892538417E+02 -0.31522403296E+01 -0.12051239498E+03  0.13941166841E+03  0.41800000000E+01 0. -1.
        -11    1    4    4    0    0  0.36713831317E+01 -0.44612980490E+02 -0.15765687094E+03  0.16388863914E+03  0.00000000000E+00 0.  1.
         11    1    4    4    0    0 -0.30175133119E+02  0.31507341868E+02 -0.66324307974E+02  0.79386176873E+02  0.00000000000E+00 0. -1.
</event>
<event>
 8    1  0.7281309E-009  0.1408391E+03  0.7561462E-02  0.1212204E+00
          1   -1    0    0  501    0  0.00000000000E+00  0.00000000000E+00  0.98872009129E+02  0.98872009129E+02  0.00000000000E+00 0. -1.
         -1   -1    0    0    0  501 -0.00000000000E+00 -0.00000000000E+00 -0.23834398281E+03  0.23834398281E+03  0.00000000000E+00 0.  1.
         25    2    1    2    0    0 -0.29084079165E+02 -0.88298441593E+02 -0.13174127812E+03  0.20407429823E+03  0.12509219156E+03 0.  0.
         23    2    1    2    0    0  0.29084079165E+02  0.88298441593E+02 -0.77306955608E+01  0.13314169371E+03  0.94997097328E+02 0.  0.
          5    1    3    3  502    0  0.43807787301E+02 -0.65562578897E+02 -0.74426302301E+02  0.10850954269E+03  0.41800000000E+01 0.  1.
         -5    1    3    3    0  502 -0.72891866466E+02 -0.22735862696E+02 -0.57314975821E+02  0.95564755547E+02  0.41800000000E+01 0.  1.
        -11    1    4    4    0    0 -0.19192455156E+02 -0.61675914669E+01 -0.17379931992E+02  0.26616753285E+02  0.00000000000E+00 0. -1.
         11    1    4    4    0    0  0.48276534321E+02  0.94466033060E+02  0.96492364307E+01  0.10652494042E+03  0.00000000000E+00 0.  1.
</event>
<event>
 7    1  0.7281309E-009  0.1512418E+03  0.7561462E-02  0.1198955E+00
         -1   -1    0    0    0  501 -0.00000000000E+00  0.00000000000E+00  0.78128788664E+03  0.78128788664E+03  0.00000000000E+00 0.  1.
          1   -1    0    0  501    0  0.00000000000E+00 -0.00000000000E+00 -0.53624716564E+02  0.53624716564E+02  0.00000000000E+00 0. -1.
         23    2    1    2    0    0  0.13782533651E+03  0.43130495153E+02  0.15396794665E+03  0.23019193470E+03  0.91793982409E+02 0.  0.
          5    1    1    2  502    0 -0.41925295132E+02 -0.33922900622E+02  0.41867378007E+03  0.42215364510E+03  0.41800000000E+01 0.  1.
         -5    1    1    2    0  502 -0.95900041381E+02 -0.92075945306E+01  0.15502144335E+03  0.18256702340E+03  0.41800000000E+01 0.  1.
        -11    1    3    3    0    0  0.62080019902E+02  0.44198922837E+02  0.24245487216E+02  0.79970727778E+02  0.00000000000E+00 0.  1.
         11    1    3    3    0    0  0.75745316611E+02 -0.10684276843E+01  0.12972245944E+03  0.15022120692E+03  0.00000000000E+00 0. -1.
</event>
<event>
 8    1  0.7281309E-009  0.1325156E+03  0.7561462E-02  0.1223770E+00
          1   -1    0    0  501    0  0.00000000000E+00  0.00000000000E+00  0.61645890796E+02  0.61645890796E+02  0.00000000000E+00 0. -1.
         -1   -1    0    0    0  501 -0.00000000000E+00 -0.00000000000E+00 -0.29335737552E+03  0.29335737552E+03  0.00000000000E+00 0.  1.
         25    2    1    2    0    0 -0.83251312006E+02  0.63909310482E+01 -0.14612069393E+03  0.20969057450E+03  0.12508898787E+03 0.  0.
         23    2    1    2    0    0  0.83251312006E+02 -0.63909310482E+01 -0.85590790788E+02  0.14531269181E+03  0.82573421779E+02 0.  0.
          5    1    3    3  502    0 -0.11315099021E+03  0.19129293944E+02 -0.95324776002E+02  0.14924262726E+03  0.41800000000E+01 0.  1.
         -5    1    3    3    0  502  0.29899678208E+02 -0.12738362896E+02 -0.50795917933E+02  0.60447947234E+02  0.41800000000E+01 0.  1.
        -11    1    4    4    0    0  0.75040842887E+02  0.29486195238E+02 -0.58859984270E+02  0.99825154941E+02  0.00000000000E+00 0. -1.
         11    1    4    4    0    0  0.82104691183E+01 -0.35877126286E+02 -0.26730806518E+02  0.45487536873E+02  0.00000000000E+00 0.  1.
</event>
<event>
 8    1  0.7281309E-009  0.1031033E+03  0.7561462E-02  0.1273902E+00
          1   -1    0    0  501    0  0.00000000000E+00  0.00000000000E+00  0.37829178277E+03  0.37829178277E+03  0.00000000000E+00 0. -1.
         -1   -1    0    0    0  501 -0.00000000000E+00 -0.00000000000E+00 -0.42722801930E+02  0.42722801930E+02  0.00000000000E+00 0.  1.
         25    2    1    2    0    0  0.77922583945E+00  0.19845411700E+01  0.77104551721E+02  0.14695923058E+03  0.12508939987E+03 0.  0.
         23    2    1    2    0    0 -0.77922583945E+00 -0.19845411700E+01  0.25846442912E+03  0.27405535412E+03  0.91092976702E+02 0.  0.
          5    1    3    3  502    0  0.50635008502E+02 -0.27860987705E+02  0.65690882456E+02  0.87595109223E+02  0.41800000000E+01 0. -1.
         -5    1    3    3    0  502 -0.49855782663E+02  0.29845528875E+02  0.11413669266E+02  0.59364121360E+02  0.41800000000E+01 0. -1.
        -11    1    4    4    0    0  0.48148033127E+01  0.43707530631E+02  0.10500011584E+03  0.11383564860E+03  0.00000000000E+00 0.  1.
         11    1    4    4    0    0 -0.55940291521E+01 -0.45692071801E+02  0.15346431328E+03  0.16021970552E+03  0.00000000000E+00 0. -1.
</event>
<event>
 7    1  0.7281309E-009  0.5290278E+02  0.7561462E-02  0.1430285E+00
         -2   -1    0    0    0  501 -0.00000000000E+00  0.00000000000E+00  0.24612178498E+03  0.24612178498E+03  0.00000000000E+00 0. -1.
          2   -1    0    0  501    0  0.00000000000E+00 -0.00000000000E+00 -0.50745081093E+02  0.50745081093E+02  0.00000000000E+00 0.  1.
         23    2    1    2    0    0  0.14704810625E+02 -0.21515194983E+02  0.95034858563E+02  0.13445217279E+03  0.91469270010E+02 0.  0.
          5    1    1    2  502    0 -0.60309386610E+01 -0.64562391186E+01 -0.28547407459E+02  0.30174196216E+02  0.41800000000E+01 0.  1.
         -5    1    1    2    0  502 -0.86738719640E+01  0.27971434101E+02  0.12888925278E+03  0.13224049706E+03  0.41800000000E+01 0.  1.
        -11    1    3    3    0    0  0.32294227800E+02 -0.32415185232E+02  0.98693770777E+01  0.46808823813E+02  0.00000000000E+00 0.  1.
         11    1    3    3    0    0 -0.17589417175E+02  0.10899990250E+02  0.85165481485E+02  0.87643348981E+02  0.00000000000E+00 0. -1.
</event>
<event>
 8    1  0.7281309E-009  0.9425466E+02  0.7561462E-02  0.1292864E+00
         -1   -1    0    0    0  501 -0.00000000000E+00  0.00000000000E+00  0.53816745268E+03  0.53816745268E+03  0.00000000000E+00 0. -1.
          1   -1    0    0  501    0  0.00000000000E+00 -0.00000000000E+00 -0.30869157485E+02  0.30869157485E+02  0.00000000000E+00 0.  1.
         25    2    1    2    0    0 -0.54245898700E+02  0.44035828622E+02  0.30174808554E+03  0.33403626547E+03  0.12508616148E+03 0.  0.
         23    2    1    2    0    0  0.54245898700E+02 -0.44035828622E+02  0.20555020966E+03  0.23500034470E+03  0.89958332520E+02 0.  0.
          5    1    3    3  502    0  0.20557651238E+02 -0.97726522928E+01  0.55379350252E+01  0.23796278734E+02  0.41800000000E+01 0.  1.
         -5    1    3    3    0  502 -0.74803549938E+02  0.53808480915E+02  0.29621015051E+03  0.31023998673E+03  0.41800000000E+01 0.  1.
        -11    1    4    4    0    0  0.39824798217E+02 -0.18753592771E+02  0.20072743885E+03  0.20549748540E+03  0.00000000000E+00 0. -1.
         11    1    4    4    0    0  0.14421100482E+02 -0.25282235852E+02  0.48227708023E+01  0.29502859302E+02  0.00000000000E+00 0.  1.
</event>
<event>
 8    1  0.7281309E-009  0.1365121E+03  0.7561462E-02  0.1218101E+00
         -2   -1    0    0    0  501 -0.00000000000E+00  0.00000000000E+00  0.59884885591E+02  0.59884885591E+02  0.00000000000E+00 0. -1.
          2   -1    0    0  501    0  0.00000000000E+00 -0.00000000000E+00 -0.34474958239E+03  0.34474958239E+03  0.00000000000E+00 0.  1.
         25    2    1    2    0    0 -0.48191041870E+02  0.79295001440E+02 -0.15651557692E+03  0.22081705424E+03  0.12511183739E+03 0.  0.
         23    2    1    2    0    0  0.48191041870E+02 -0.79295001440E+02 -0.12834911987E+03  0.18381741373E+03  0.93302043117E+02 0.  0.
          5    1    3    3  502    0 -0.74555761437E+02  0.72947383932E+01 -0.10209501227E+03  0.12669900829E+03  0.41800000000E+01 0.  1.
         -5    1    3    3    0  502  0.26364719567E+02  0.72000263046E+02 -0.54420564650E+02  0.94118045950E+02  0.41800000000E+01 0.  1.
        -11    1    4    4    0    0  0.67840655871E+02 -0.44150953728E+02 -0.48419841326E+02  0.94319363538E+02  0.00000000000E+00 0. -1.
         11    1    4    4    0    0 -0.19649614001E+02 -0.35144047712E+02 -0.79929278547E+02  0.89498050197E+02  0.00000000000E+00 0.  1.
</event>
<event>
 8    1  0.7281309E-009  0.8775831E+02  0.7561462E-02  0.1308373E+00
         -1   -1    0    0    0  501 -0.00000000000E+00  0.00000000000E+00  0.10393177234E+02  0.10393177234E+02  0.00000000000E+00 0.  1.
          1   -1    0    0  501    0  0.00000000000E+00 -0.00000000000E+00 -0.10668585060E+04  0.10668585060E+04  0.00000000000E+00 0. -1.
         25    2    1    2    0    0  0.15454340841E+02  0.19757872962E+02 -0.60662532204E+03  0.61990208525E+03  0.12512035713E+03 0.  0.
         23    2    1    2    0    0 -0.15454340841E+02 -0.19757872962E+02 -0.44984000674E+03  0.45734959799E+03  0.78634680173E+02 0.  0.
          5    1    3    3  502    0 -0.33868781767E+02  0.26266049600E+02 -0.50338416646E+03  0.50522281341E+03  0.41800000000E+01 0.  1.
         -5    1    3    3    0  502  0.49323122608E+02 -0.65081766379E+01 -0.10324115557E+03  0.11467927185E+03  0.41800000000E+01 0.  1.
        -11    1    4    4    0    0  0.84091027592E+01 -0.46170988927E+02 -0.25958512130E+03  0.26379330626E+03  0.00000000000E+00 0.  1.
         11    1    4    4    0    0 -0.23863443600E+02  0.26413115965E+02 -0.19025488544E+03  0.19355629173E+03  0.00000000000E+00 0. -1.
</event>
<event>
 8    1  0.7281309E-009  0.1276381E+03  0.7561462E-02  0.1231003E+00
          1   -1    0    0  501    0  0.00000000000E+00  0.00000000000E+00  0.95687368142E+02  0.95687368142E+02  0.00000000000E+00 0. -1.
         -1   -1    0    0    0  501 -0.00000000000E+00 -0.00000000000E+00 -0.22141402944E+03  0.22141402944E+03  0.00000000000E+00 0.  1.
         25    2    1    2    0    0 -0.93377878022E+02  0.76716428482E+01 -0.43693538041E+02  0.16228210008E+03  0.12509225609E+03 0.  0.
         23    2    1    2    0    0  0.93377878022E+02 -0.76716428482E+01 -0.82033123259E+02  0.15481929750E+03  0.91985321433E+02 0.  0.
          5    1    3    3  502    0  0.24890888604E+02 -0.22880237399E+02 -0.95017398633E+01  0.35366892136E+02  0.41800000000E+01 0.  1.
         -5    1    3    3    0  502 -0.11826876663E+03  0.30551880247E+02 -0.34191798177E+02  0.12691520795E+03  0.41800000000E+01 0.  1.
        -11    1    4    4    0    0  0.25976736622E+02  0.12226167218E+02 -0.79468526483E+02  0.84495660905E+02  0.00000000000E+00 0.  1.
         11    1    4    4    0    0  0.67401141400E+02 -0.19897810066E+02 -0.25645967761E+01  0.70323636596E+02  0.00000000000E+00 0. -1.
</event>
<event>
 8    1  0.7281309E-009  0.1025415E+03  0.7561462E-02  0.1275041E+00
          2   -1    0    0  501    0  0.00000000000E+00  0.00000000000E+00  0.56627099857E+03  0.56627099857E+03  0.00000000000E+00 0. -1.
         -2   -1    0    0    0  501 -0.00000000000E+00 -0.00000000000E+00 -0.24884591703E+02  0.24884591703E+02  0.00000000000E+00 0.  1.
         25    2    1    2    0    0  0.33230332068E+02  0.32414476878E+02  0.27297202756E+03  0.30383182907E+03  0.12508037112E+03 0.  0.
         23    2    1    2    0    0 -0.33230332068E+02 -0.32414476878E+02  0.26841437930E+03  0.28732376120E+03  0.91398640345E+02 0.  0.
          5    1    3    3  502    0 -0.29306722783E+02 -0.82826639407E+01  0.13076863410E+02  0.33406036563E+02  0.41800000000E+01 0.  1.
         -5    1    3    3    0  502  0.62537054850E+02  0.40697140818E+02  0.25989516415E+03  0.27042579250E+03  0.41800000000E+01 0.  1.
        -11    1    4    4    0    0 -0.48758545664E+02  0.13951595152E+02  0.17043975139E+03  0.17782505908E+03  0.00000000000E+00 0. -1.
         11    1    4    4    0    0  0.15528213596E+02 -0.46366072030E+02  0.97974627908E+02  0.10949870212E+03  0.00000000000E+00 0.  1.
</event>
<event>
 8    1  0.7281309E-009  0.1154660E+03  0.7561462E-02  0.1250770E+00
         -2   -1    0    0    0  501 -0.00000000000E+00  0.00000000000E+00  0.10012023199E+02  0.10012023199E+02  0.00000000000E+00 0. -1.
          2   -1    0    0  501    0  0.00000000000E+00 -0.00000000000E+00 -0.18873529038E+04  0.18873529038E+04  0.00000000000E+00 0.  1.
         25    2    1    2    0    0  0.51909812262E+02 -0.34818574614E+02 -0.14133015578E+04  0.14202027276E+04  0.12509009726E+03 0.  0.
         23    2    1    2    0    0 -0.51909812262E+02  0.34818574614E+02 -0.46403932282E+03  0.47716219942E+03  0.91892925136E+02 0.  0.
          5    1    3    3  502    0  0.52144987880E+02  0.26959802050E+02 -0.33538649552E+03  0.34051065250E+03  0.41800000000E+01 0.  1.
         -5    1    3    3    0  502 -0.23517561756E+00 -0.61778376664E+02 -0.10779150623E+04  0.10796920751E+04  0.41800000000E+01 0.  1.
        -11    1    4    4    0    0 -0.65889535329E+02  0.54851415872E+02 -0.38518525480E+03  0.39461093396E+03  0.00000000000E+00 0. -1.
         11    1    4    4    0    0  0.13979723067E+02 -0.20032841258E+02 -0.78854068020E+02  0.82551265461E+02  0.00000000000E+00 0.  1.
</event>
<event>
 8    1  0.7281309E-009  0.1425315E+03  0.7561462E-02  0.1209963E+00
         -2   -1    0    0    0  501 -0.00000000000E+00  0.00000000000E+00  0.37372660056E+03  0.37372660056E+03  0.00000000000E+00 0.  1.
          2   -1    0    0  501    0  0.00000000000E+00 -0.00000000000E+00 -0.19096309053E+03  0.19096309053E+03  0.00000000000E+00 0. -1.
         25    2    1    2    0    0  0.83551367258E+02  0.88221848892E+02  0.31699011537E+03  0.36179493787E+03  0.12509563636E+03 0.  0.
         23    2    1    2    0    0 -0.83551367258E+02 -0.88221848892E+02 -0.13422660534E+03  0.20289475323E+03  0.91572778235E+02 0.  0.
          5    1    3    3  502    0  0.28875026709E+01  0.73824214639E+02  0.71267401183E+02  0.10273688340E+03  0.41800000000E+01 0.  1.
         -5    1    3    3    0  502  0.80663864587E+02  0.14397634253E+02  0.24572271418E+03  0.25905805447E+03  0.41800000000E+01 0.  1.
        -11    1    4    4    0    0 -0.32858311024E+02 -0.65882764706E+02 -0.20546573081E+02  0.76435390717E+02  0.00000000000E+00 0.  1.
         11    1    4    4    0    0 -0.50693056234E+02 -0.22339084187E+02 -0.11368003226E+03  0.12645936251E+03  0.00000000000E+00 0. -1.
</event>
<event>
 7    1  0.7281309E-009  0.1137202E+03  0.7561462E-02  0.1253832E+00
         -1   -1    0    0    0  501 -0.00000000000E+00  0.00000000000E+00  0.82964845442E+02  0.82964845442E+02  0.00000000000E+00 0.  1.
          1   -1    0    0  501    0  0.00000000000E+00 -0.00000000000E+00 -0.26250740381E+03  0.26250740381E+03  0.00000000000E+00 0. -1.
         23    2    1    2    0    0  0.55805756759E+02  0.80452343721E+02 -0.59904944634E+02  0.14653841992E+03  0.91093600348E+02 0.  0.
          5    1    1    2  502    0  0.79009298044E+01  0.85960977573E+01  0.18713515969E+02  0.22449625127E+02  0.41800000000E+01 0. -1.
         -5    1    1    2    0  502 -0.63706686564E+02 -0.89048441478E+02 -0.13835112971E+03  0.17648420420E+03  0.41800000000E+01 0. -1.
        -11    1    3    3    0    0  0.26484675884E+02  0.85703799872E+01 -0.62967253812E+02  0.68845947756E+02  0.00000000000E+00 0. -1.
         11    1    3    3    0    0  0.29321080875E+02  0.71881963734E+02  0.30623091784E+01  0.77692472167E+02  0.00000000000E+00 0.  1.
</event>
<event>
 8    1  0.7281309E-009  0.1080462E+03  0.7561462E-02  0.1264231E+00
          1   -1    0    0  501    0  0.00000000000E+00  0.00000000000E+00  0.32081841637E+02  0.32081841637E+02  0.00000000000E+00 0. -1.
         -1   -1    0    0    0  501 -0.00000000000E+00 -0.00000000000E+00 -0.56846559728E+03  0.56846559728E+03  0.00000000000E+00 0.  1.
         25    2    1    2    0    0  0.24623343760E+02 -0.41733940938E+02 -0.17322297392E+03  0.21909043681E+03  0.12508553044E+03 0.  0.
         23    2    1    2    0    0 -0.24623343760E+02  0.41733940938E+02 -0.36316078172E+03  0.38145700210E+03  0.10618691157E+03 0.  0.
          5    1    3    3  502    0 -0.30512811795E+02  0.65461374635E+00 -0.13727859032E+03  0.14069237351E+03  0.41800000000E+01 0.  1.
         -5    1    3    3    0  502  0.55136155555E+02 -0.42388554684E+02 -0.35944383599E+02  0.78398063304E+02  0.41800000000E+01 0.  1.
        -11    1    4    4    0    0 -0.28133821144E+02  0.76067049039E+02 -0.22936462383E+03  0.24328139778E+03  0.00000000000E+00 0.  1.
         11    1    4    4    0    0  0.35104773842E+01 -0.34333108101E+02 -0.13379615789E+03  0.13817560433E+03  0.00000000000E+00 0. -1.
</event>
<event>
 8    1  0.7281309E-009  0.1272946E+03  0.7561462E-02  0.1231526E+00
         -1   -1    0    0    0  501 -0.00000000000E+00  0.00000000000E+00  0.29542877378E+02  0.29542877378E+02  0.00000000000E+00 0.  1.
          1   -1    0    0  501    0  0.00000000000E+00 -0.00000000000E+00 -0.76128793108E+03  0.76128793108E+03  0.00000000000E+00 0. -1.
         25    2    1    2    0    0  0.96264099866E+02 -0.28044582905E+01 -0.46247746752E+03  0.48868024566E+03  0.12509329568E+03 0.  0.
         23    2    1    2    0    0 -0.96264099866E+02  0.28044582905E+01 -0.26926758618E+03  0.30215056280E+03  0.97546336279E+02 0.  0.
          5    1    3    3  502    0 -0.30296553107E+01 -0.17213801846E+02 -0.28321150191E+01  0.18193049793E+02  0.41800000000E+01 0.  1.
         -5    1    3    3    0  502  0.99293755177E+02  0.14409343555E+02 -0.45964535250E+03  0.47048719586E+03  0.41800000000E+01 0.  1.
        -11    1    4    4    0    0 -0.14586240526E+02 -0.40997822254E+02 -0.70705601909E+02  0.83023261701E+02  0.00000000000E+00 0.  1.
         11    1    4    4    0    0 -0.81677859340E+02  0.43802280545E+02 -0.19856198427E+03  0.21912730110E+03  0.00000000000E+00 0. -1.
</event>
<event>
 8    1  0.7281309E-009  0.1164086E+03  0.7561462E-02  0.1249142E+00
          4   -1    0    0  501    0  0.00000000000E+00  0.00000000000E+00  0.28738660696E+03  0.28738660696E+03  0.00000000000E+00 0. -1.
         -4   -1    0    0    0  501 -0.00000000000E+00 -0.00000000000E+00 -0.50604360856E+02  0.50604360856E+02  0.00000000000E+00 0.  1.
         25    2    1    2    0    0  0.27255638631E+02 -0.43522714268E+02  0.15024312349E+03  0.20213214233E+03  0.12508920943E+03 0.  0.
         23    2    1    2    0    0 -0.27255638631E+02  0.43522714268E+02  0.86539122618E+02  0.13585882548E+03  0.91277073923E+02 0.  0.
          5    1    3    3  502    0  0.25043739107E+02  0.40077960384E+02  0.31937110135E+02  0.57191635584E+02  0.41800000000E+01 0.  1.
         -5    1    3    3    0  502  0.22118995244E+01 -0.83600674652E+02  0.11830601335E+03  0.14494050675E+03  0.41800000000E+01 0.  1.
        -11    1    4    4    0    0 -0.57863249415E+02  0.41022635757E+02  0.44268231760E+02  0.83610338000E+02  0.00000000000E+00 0.  1.
         11    1    4    4    0    0  0.30607610784E+02  0.25000785117E+01  0.42270890857E+02  0.52248487484E+02  0.00000000000E+00 0. -1.
</event>
<event>
 8    1  0.7281309E-009  0.1108535E+03  0.7561462E-02  0.1258997E+00
          2   -1    0    0  501    0  0.00000000000E+00  0.00000000000E+00  0.19200335599E+03  0.19200335599E+03  0.00000000000E+00 0.  1.
         -2   -1    0    0    0  501 -0.00000000000E+00 -0.00000000000E+00 -0.74821103997E+02  0.74821103997E+02  0.00000000000E+00 0. -1.
         25    2    1    2    0    0  0.47781937747E+02 -0.11607186179E+02  0.83258025268E+02  0.15810442527E+03  0.12508904898E+03 0.  0.
         23    2    1    2    0    0 -0.47781937747E+02  0.11607186179E+02  0.33924226724E+02  0.10872003471E+03  0.90836955271E+02 0.  0.
          5    1    3    3  502    0  0.87294813198E+02 -0.15773109321E+02  0.34999507569E+02  0.95454771064E+02  0.41800000000E+01 0. -1.
         -5    1    3    3    0  502 -0.39512875450E+02  0.41659231419E+01  0.48258517700E+02  0.62649654209E+02  0.41800000000E+01 0. -1.
        -11    1    4    4    0    0 -0.66748571005E+02  0.23264104540E+02  0.31750533686E+01  0.70757835291E+02  0.00000000000E+00 0.  1.
         11    1    4    4    0    0  0.18966633257E+02 -0.11656918360E+02  0.30749173355E+02  0.37962199420E+02  0.00000000000E+00 0. -1.
</event>
<event>
 8    1  0.7281309E-009  0.1332502E+03  0.7561462E-02  0.1222711E+00
         -2   -1    0    0    0  501 -0.00000000000E+00  0.00000000000E+00  0.93598048136E+02  0.93598048136E+02  0.00000000000E+00 0.  1.
          2   -1    0    0  501    0  0.00000000000E+00 -0.00000000000E+00 -0.38202094611E+03  0.38202094611E+03  0.00000000000E+00 0. -1.
         25    2    1    2    0    0 -0.81636921350E+02 -0.31501818863E+02 -0.31295910255E+03  0.34820758405E+03  0.12509264647E+03 0.  0.
         23    2    1    2    0    0  0.81636921350E+02  0.31501818863E+02  0.24536204583E+02  0.12741141019E+03  0.89301123129E+02 0.  0.
          5    1    3    3  502    0  0.17883875120E+02  0.23451709222E+02 -0.26063443951E+02  0.39580186525E+02  0.41800000000E+01 0. -1.
         -5    1    3    3    0  502 -0.99520796470E+02 -0.54953528085E+02 -0.28689565860E+03  0.30862739753E+03  0.41800000000E+01 0. -1.
        -11    1    4    4    0    0  0.43403554785E+02  0.60856379413E+02  0.26125398470E+02  0.79182724938E+02  0.00000000000E+00 0.  1.
         11    1    4    4    0    0  0.38233366565E+02 -0.29354560551E+02 -0.15891938866E+01  0.48228685253E+02  0.00000000000E+00 0. -1.
</event>
<event>
 8    1  0.7281309E-009  0.8309429E+02  0.7561462E-02  0.1320493E+00
         -2   -1    0    0    0  501 -0.00000000000E+00  0.00000000000E+00  0.19151593229E+02  0.19151593229E+02  0.00000000000E+00 0.  1.
          2   -1    0    0  501    0  0.00000000000E+00 -0.00000000000E+00 -0.63990212311E+03  0.63990212311E+03  0.00000000000E+00 0. -1.
         25    2    1    2    0    0  0.17977112900E+02  0.21917386762E+02 -0.42418945981E+03  0.44315638501E+03  0.12508930942E+03 0.  0.
         23    2    1    2    0    0 -0.17977112900E+02 -0.21917386762E+02 -0.19656107007E+03  0.21589733132E+03  0.84686805206E+02 0.  0.
          5    1    3    3  502    0 -0.48366693086E+01  0.46035856205E+02 -0.39789438966E+03  0.40059968940E+03  0.41800000000E+01 0.  1.
         -5    1    3    3    0  502  0.22813782209E+02 -0.24118469443E+02 -0.26295070152E+02  0.42556695611E+02  0.41800000000E+01 0.  1.
        -11    1    4    4    0    0  0.31395135842E+02 -0.19204780313E+02 -0.57130323763E+02  0.67958458155E+02  0.00000000000E+00 0.  1.
         11    1    4    4    0    0 -0.49372248743E+02 -0.27126064489E+01 -0.13943074630E+03  0.14793887317E+03  0.00000000000E+00 0. -1.
</event>
<event>
 8    1  0.7281309E-009  0.1157626E+03  0.7561462E-02  0.1250256E+00
         -2   -1    0    0    0  501 -0.00000000000E+00  0.00000000000E+00  0.27478029935E+02  0.27478029935E+02  0.00000000000E+00 0.  1.
          2   -1    0    0  501    0  0.00000000000E+00 -0.00000000000E+00 -0.92928371797E+03  0.92928371797E+03  0.00000000000E+00 0. -1.
         25    2    1    2    0    0  0.26237590162E+02 -0.11063776573E+03 -0.57056826572E+03  0.59508407498E+03  0.12509110322E+03 0.  0.
         23    2    1    2    0    0 -0.26237590162E+02  0.11063776573E+03 -0.33123742231E+03  0.36167767293E+03  0.90351440552E+02 0.  0.
          5    1    3    3  502    0  0.23609440804E+02 -0.10484858502E+03 -0.57585867026E+03  0.58581679046E+03  0.41800000000E+01 0. -1.
         -5    1    3    3    0  502  0.26281493580E+01 -0.57891807027E+01  0.52904045332E+01  0.92672845204E+01  0.41800000000E+01 0. -1.
        -11    1    4    4    0    0 -0.15117537050E+02  0.20138468566E+02 -0.89246770542E+01  0.26716057029E+02  0.00000000000E+00 0.  1.
         11    1    4    4    0    0 -0.11120053112E+02  0.90499297161E+02 -0.32231274526E+03  0.33496161590E+03  0.00000000000E+00 0. -1.
</event>
<event>
 8    1  0.7281309E-009  0.1360112E+03  0.7561462E-02  0.1218799E+00
         -1   -1    0    0    0  501 -0.00000000000E+00  0.00000000000E+00  0.38976714055E+03  0.38976714055E+03  0.00000000000E+00 0.  1.
          1   -1    0    0  501    0  0.00000000000E+00 -0.00000000000E+00 -0.61247918305E+02  0.61247918305E+02  0.00000000000E+00 0. -1.
         25    2    1    2    0    0  0.61384061201E+02 -0.88084048796E+02  0.21045445681E+03  0.26733019463E+03  0.12509017526E+03 0.  0.
         23    2    1    2    0    0 -0.61384061201E+02  0.88084048796E+02  0.11806476544E+03  0.18368486423E+03  0.90961738588E+02 0.  0.
          5    1    3    3  502    0  0.95667866994E+02 -0.47387849506E+02  0.16814594066E+03  0.19921967477E+03  0.41800000000E+01 0. -1.
         -5    1    3    3    0  502 -0.34283805793E+02 -0.40696199290E+02  0.42308516153E+02  0.68110519858E+02  0.41800000000E+01 0. -1.
        -11    1    4    4    0    0 -0.33383820527E+01  0.28225765078E+02 -0.10625540020E+02  0.30343709557E+02  0.00000000000E+00 0.  1.
         11    1    4    4    0    0 -0.58045679148E+02  0.59858283718E+02  0.12869030546E+03  0.15334115467E+03  0.00000000000E+00 0. -1.
</event>
<event>
 8    1  0.7281309E-009  0.9969078E+02  0.7561462E-02  0.1280948E+00
          1   -1    0    0  501    0  0.00000000000E+00  0.00000000000E+00  0.13520699825E+04  0.13520699825E+04  0.00000000000E+00 0. -1.
         -1   -1    0    0    0  501 -0.00000000000E+00 -0.00000000000E+00 -0.11509924009E+02  0.11509924009E+02  0.00000000000E+00 0.  1.
         25    2    1    2    0    0  0.35054707911E+02  0.80638544623E+01  0.10282699871E+04  0.10364746674E+04  0.12508681570E+03 0.  0.
         23    2    1    2    0    0 -0.35054707911E+02 -0.80638544623E+01  0.31229007135E+03  0.32710523908E+03  0.90437218429E+02 0.  0.
          5    1    3    3  502    0 -0.24710093516E+02  0.38001885461E+02  0.18380931127E+03  0.18936226479E+03  0.41800000000E+01 0. -1.
         -5    1    3    3    0  502  0.59764801427E+02 -0.29938030998E+02  0.84446067586E+03  0.84711240261E+03  0.41800000000E+01 0. -1.
        -11    1    4    4    0    0 -0.34443122548E+01  0.34052488280E+02  0.57376763216E+02  0.66809641536E+02  0.00000000000E+00 0.  1.
         11    1    4    4    0    0 -0.31610395656E+02 -0.42116342742E+02  0.25491330813E+03  0.26029559755E+03  0.00000000000E+00 0. -1.
</event>
<event>
 8    1  0.7281309E-009  0.1893919E+03  0.7561462E-02  0.1159011E+00
          2   -1    0    0  501    0  0.00000000000E+00  0.00000000000E+00  0.11285705591E+04  0.11285705591E+04  0.00000000000E+00 0. -1.
         -2   -1    0    0    0  501 -0.00000000000E+00 -0.00000000000E+00 -0.37513280661E+02  0.37513280661E+02  0.00000000000E+00 0.  1.
         25    2    1    2    0    0 -0.88641223204E+02  0.15078739349E+03  0.58984295733E+03  0.62781863530E+03  0.12508964799E+03 0.  0.
         23    2    1    2    0    0  0.88641223204E+02 -0.15078739349E+03  0.50121432114E+03  0.53826520449E+03  0.88991742088E+02 0.  0.
          5    1    3    3  502    0  0.23205720016E+02  0.16483642276E+02  0.17941138090E+03  0.18170341742E+03  0.41800000000E+01 0.  1.
         -5    1    3    3    0  502 -0.11184694322E+03  0.13430375122E+03  0.41043157643E+03  0.44611521788E+03  0.41800000000E+01 0.  1.
        -11    1    4    4    0    0  0.89637217687E+01 -0.10104397951E+02  0.21655895267E+01  0.13679800580E+02  0.00000000000E+00 0.  1.
         11    1    4    4    0    0  0.79677501435E+02 -0.14068299554E+03  0.49904873161E+03  0.52458540391E+03  0.00000000000E+00 0. -1.
</event>
<event>
 8    1  0.7281309E-009  0.1101668E+03  0.7561462E-02  0.1260261E+00
         -1   -1    0    0    0  501 -0.00000000000E+00  0.00000000000E+00  0.19875768970E+02  0.19875768970E+02  0.00000000000E+00 0.  1.
          1   -1    0    0  501    0  0.00000000000E+00 -0.00000000000E+00 -0.63263646966E+03  0.63263646966E+03  0.00000000000E+00 0. -1.
         25    2    1    2    0    0 -0.25406837796E+02 -0.13419739053E+02 -0.34293647133E+03  0.36616744212E+03  0.12509026941E+03 0.  0.
         23    2    1    2    0    0  0.25406837796E+02  0.13419739053E+02 -0.26982422936E+03  0.28634479651E+03  0.91447421687E+02 0.  0.
          5    1    3    3  502    0  0.13793474378E+02  0.49361582732E+02 -0.10440436428E+03  0.11638113879E+03  0.41800000000E+01 0. -1.
         -5    1    3    3    0  502 -0.39200312174E+02 -0.62781321785E+02 -0.23853210705E+03  0.24978630333E+03  0.41800000000E+01 0. -1.
        -11    1    4    4    0    0  0.59590417186E+02  0.10008604752E+02 -0.19178790998E+03  0.20108155659E+03  0.00000000000E+00 0. -1.
         11    1    4    4    0    0 -0.34183579390E+02  0.34111343009E+01 -0.78036319386E+02  0.85263239913E+02  0.00000000000E+00 0.  1.
</event>
<event>
 8    1  0.7281309E-009  0.1311447E+03  0.7561462E-02  0.1225767E+00
          2   -1    0    0  501    0  0.00000000000E+00  0.00000000000E+00  0.73210084196E+03  0.73210084196E+03  0.00000000000E+00 0. -1.
         -2   -1    0    0    0  501 -0.00000000000E+00 -0.00000000000E+00 -0.25141397897E+02  0.25141397897E+02  0.00000000000E+00 0.  1.
         25    2    1    2    0    0 -0.64486739642E+02  0.36902550497E+02  0.46420502746E+03  0.48646701194E+03  0.12507401153E+03 0.  0.
         23    2    1    2    0    0  0.64486739642E+02 -0.36902550497E+02  0.24275441660E+03  0.27077522791E+03  0.94176321074E+02 0.  0.
          5    1    3    3  502    0  0.35453607726E+02 -0.60738621291E+01  0.10094975915E+03  0.10724819986E+03  0.41800000000E+01 0.  1.
         -5    1    3    3    0  502 -0.99940347368E+02  0.42976412626E+02  0.36325526831E+03  0.37921881207E+03  0.41800000000E+01 0.  1.
        -11    1    4    4    0    0  0.45117708017E+02  0.25529896730E+02  0.79371414818E+02  0.94800868635E+02  0.00000000000E+00 0. -1.
         11    1    4    4    0    0  0.19369031625E+02 -0.62432447227E+02  0.16338300178E+03  0.17597435928E+03  0.00000000000E+00 0.  1.
</event>
<event>
 8    1  0.7281309E-009  0.1231570E+03  0.7561462E-02  0.1237978E+00
         -1   -1    0    0    0  501 -0.00000000000E+00  0.00000000000E+00  0.14076217758E+03  0.14076217758E+03  0.00000000000E+00 0.  1.
          1   -1    0    0  501    0  0.00000000000E+00 -0.00000000000E+00 -0.19407419938E+03  0.19407419938E+03  0.00000000000E+00 0. -1.
         25    2    1    2    0    0  0.10778839166E+03  0.55349266854E+02  0.98308653417E+00  0.17414870132E+03  0.12507967458E+03 0.  0.
         23    2    1    2    0    0 -0.10778839166E+03 -0.55349266854E+02 -0.54295108329E+02  0.16068767564E+03  0.90502439726E+02 0.  0.
          5    1    3    3  502    0  0.26490757080E+02  0.18138717571E+01  0.56100687617E+02  0.62207796076E+02  0.41800000000E+01 0.  1.
         -5    1    3    3    0  502  0.81297634584E+02  0.53535395097E+02 -0.55117601083E+02  0.11194090524E+03  0.41800000000E+01 0.  1.
        -11    1    4    4    0    0 -0.96748837511E+02 -0.44385810927E+02 -0.23584510897E+01  0.10647065353E+03  0.00000000000E+00 0.  1.
         11    1    4    4    0    0 -0.11039554154E+02 -0.10963455928E+02 -0.51936657240E+02  0.54217022115E+02  0.00000000000E+00 0. -1.
</event>
<event>
 8    1  0.7281309E-009  0.1647169E+03  0.7561462E-02  0.1183472E+00
         -2   -1    0    0    0  501 -0.00000000000E+00  0.00000000000E+00  0.32342732260E+02  0.32342732260E+02  0.00000000000E+00 0.  1.
          2   -1    0    0  501    0  0.00000000000E+00 -0.00000000000E+00 -0.10409799707E+04  0.10409799707E+04  0.00000000000E+00 0. -1.
         25    2    1    2    0    0 -0.75571712282E+02 -0.98706797751E+02 -0.29980821714E+03  0.34783080668E+03  0.12508871808E+03 0.  0.
         23    2    1    2    0    0  0.75571712282E+02  0.98706797751E+02 -0.70882902129E+03  0.72549189627E+03  0.91901003878E+02 0.  0.
          5    1    3    3  502    0 -0.10409427012E+02  0.29800909024E+02 -0.45982986841E+02  0.55931724703E+02  0.41800000000E+01 0.  1.
         -5    1    3    3    0  502 -0.65162285270E+02 -0.12850770678E+03 -0.25382523030E+03  0.29189908198E+03  0.41800000000E+01 0.  1.
        -11    1    4    4    0    0  0.20991910491E+02  0.96569536675E+02 -0.49730866162E+03  0.50703278063E+03  0.00000000000E+00 0. -1.
         11    1    4    4    0    0  0.54579801791E+02  0.21372610764E+01 -0.21152035967E+03  0.21845911564E+03  0.00000000000E+00 0.  1.
</event>
<event>
 8    1  0.7281309E-009  0.9004686E+02  0.7561462E-02  0.1302738E+00
         -1   -1    0    0    0  501 -0.00000000000E+00  0.00000000000E+00  0.91409795396E+02  0.91409795396E+02  0.00000000000E+00 0.  1.
          1   -1    0    0  501    0  0.00000000000E+00 -0.00000000000E+00 -0.17180693725E+03  0.17180693725E+03  0.00000000000E+00 0. -1.
         25    2    1    2    0    0 -0.76412076837E+01 -0.62650426583E+02 -0.30816651218E+02  0.14346488389E+03  0.12509613467E+03 0.  0.
         23    2    1    2    0    0  0.76412076837E+01  0.62650426583E+02 -0.49580490634E+02  0.11975184876E+03  0.88875284662E+02 0.  0.
          5    1    3    3  502    0  0.13097458987E+02 -0.79030009953E+02  0.22927472628E+02  0.83429175389E+02  0.41800000000E+01 0.  1.
         -5    1    3    3    0  502 -0.20738666671E+02  0.16379583370E+02 -0.53744123846E+02  0.60035708496E+02  0.41800000000E+01 0.  1.
        -11    1    4    4    0    0 -0.55351913203E+01  0.59256976472E+02  0.84820788249E+01  0.60116331099E+02  0.00000000000E+00 0.  1.
         11    1    4    4    0    0  0.13176399004E+02  0.33934501107E+01 -0.58062569459E+02  0.59635517660E+02  0.00000000000E+00 0. -1.
</event>
<event>
 8    1  0.7281309E-009  0.7130002E+02  0.7561462E-02  0.1355727E+00
          2   -1    0    0  501    0  0.00000000000E+00  0.00000000000E+00  0.16926566159E+03  0.16926566159E+03  0.00000000000E+00 0. -1.
         -2   -1    0    0    0  501 -0.00000000000E+00 -0.00000000000E+00 -0.11695664760E+03  0.11695664760E+03  0.00000000000E+00 0.  1.
         25    2    1    2    0    0  0.10489877219E+01  0.89053332697E+01 -0.62046470567E+02  0.13991963710E+03  0.12508930810E+03 0.  0.
         23    2    1    2    0    0 -0.10489877219E+01 -0.89053332697E+01  0.11435548456E+03  0.14630267209E+03  0.90812387237E+02 0.  0.
          5    1    3    3  502    0 -0.22883126737E+02 -0.35465033827E+02  0.17311355834E+02  0.45810059533E+02  0.41800000000E+01 0.  1.
         -5    1    3    3    0  502  0.23932114459E+02  0.44370367096E+02 -0.79357826400E+02  0.94109577566E+02  0.41800000000E+01 0.  1.
        -11    1    4    4    0    0 -0.22932499389E+02  0.52661454056E+01 -0.50658804353E+01  0.24068547115E+02  0.00000000000E+00 0.  1.
         11    1    4    4    0    0  0.21883511667E+02 -0.14171478675E+02  0.11942136500E+03  0.12223412498E+03  0.00000000000E+00 0. -1.
</event>
<event>
 7    1  0.7281309E-009  0.1144384E+03  0.7561462E-02  0.1252565E+00
          2   -1    0    0  501    0  0.00000000000E+00  0.00000000000E+00  0.15175885854E+04  0.15175885854E+04  0.00000000000E+00 0.  1.
         -2   -1    0    0    0  501 -0.00000000000E+00 -0.00000000000E+00 -0.14090475927E+02  0.14090475927E+02  0.00000000000E+00 0. -1.
         23    2    1    2    0    0 -0.62128981550E+02  0.19884405088E+02  0.30398263501E+03  0.32388636480E+03  0.90782900378E+02 0.  0.
          5    1    1    2  502    0  0.85385504542E+02  0.28232989430E+01  0.10931957776E+04  0.10965368831E+04  0.41800000000E+01 0. -1.
         -5    1    1    2    0  502 -0.23256522992E+02 -0.22707704032E+02  0.10631969690E+03  0.11125581348E+03  0.41800000000E+01 0. -1.
        -11    1    3    3    0    0 -0.27058337708E+02 -0.35731515549E+02  0.10041845900E+03  0.10996709395E+03  0.00000000000E+00 0.  1.
         11    1    3    3    0    0 -0.35070643842E+02  0.55615920637E+02  0.20356417601E+03  0.21391927085E+03  0.00000000000E+00 0. -1.
</event>
<event>
 8    1  0.7281309E-009  0.9956909E+02  0.7561462E-02  0.1281205E+00
         -1   -1    0    0    0  501 -0.00000000000E+00  0.00000000000E+00  0.23922685497E+03  0.23922685497E+03  0.00000000000E+00 0.  1.
          1   -1    0    0  501    0  0.00000000000E+00 -0.00000000000E+00 -0.54616935425E+02  0.54616935425E+02  0.00000000000E+00 0. -1.
         25    2    1    2    0    0  0.43637536336E+01  0.34610423582E+02  0.95542649768E+02  0.16122624781E+03  0.12509428960E+03 0.  0.
         23    2    1    2    0    0 -0.43637536336E+01 -0.34610423582E+02  0.89067269774E+02  0.13261754258E+03  0.91855921366E+02 0.  0.
          5    1    3    3  502    0 -0.41608648465E+02  0.59329083816E+02  0.33222291604E+02  0.79827394251E+02  0.41800000000E+01 0. -1.
         -5    1    3    3    0  502  0.45972402099E+02 -0.24718660234E+02  0.62320358164E+02  0.81398853556E+02  0.41800000000E+01 0. -1.
        -11    1    4    4    0    0  0.10647720138E+02  0.17210204048E+02 -0.78408818356E+01  0.21703559512E+02  0.00000000000E+00 0. -1.
         11    1    4    4    0    0 -0.15011473772E+02 -0.51820627630E+02  0.96908151609E+02  0.11091398307E+03  0.00000000000E+00 0.  1.
</event>
<event>
 8    1  0.7281309E-009  0.9392679E+02  0.7561462E-02  0.1293612E+00
          2   -1    0    0  501    0  0.00000000000E+00  0.00000000000E+00  0.48756767941E+03  0.48756767941E+03  0.00000000000E+00 0. -1.
         -2   -1    0    0    0  501 -0.00000000000E+00 -0.00000000000E+00 -0.33244568084E+02  0.33244568084E+02  0.00000000000E+00 0.  1.
         25    2    1    2    0    0 -0.38836503345E+02  0.33976713328E+02  0.17056689492E+03  0.21772258712E+03  0.12508944104E+03 0.  0.
         23    2    1    2    0    0  0.38836503345E+02 -0.33976713328E+02  0.28375621641E+03  0.30308966037E+03  0.93182942827E+02 0.  0.
          5    1    3    3  502    0 -0.12314117311E+02  0.75855695331E+02  0.63924101309E+02  0.10004742439E+03  0.41800000000E+01 0. -1.
         -5    1    3    3    0  502 -0.26522386034E+02 -0.41878982004E+02  0.10664279361E+03  0.11767516273E+03  0.41800000000E+01 0. -1.
        -11    1    4    4    0    0 -0.47954401414E+01 -0.10623672284E+02 -0.30474555505E+01  0.12047640610E+02  0.00000000000E+00 0.  1.
         11    1    4    4    0    0  0.43631943486E+02 -0.23353041044E+02  0.28680367196E+03  0.29104201976E+03  0.00000000000E+00 0. -1.
</event>
<event>
 8    1  0.7281309E-009  0.1831962E+03  0.7561462E-02  0.1164745E+00
         -1   -1    0    0    0  501 -0.00000000000E+00  0.00000000000E+00  0.30002727278E+03  0.30002727278E+03  0.00000000000E+00 0.  1.
          1   -1    0    0  501    0  0.00000000000E+00 -0.00000000000E+00 -0.17116698645E+03  0.17116698645E+03  0.00000000000E+00 0. -1.
         25    2    1    2    0    0 -0.11480183598E+03 -0.11310179608E+03 -0.54632668111E+02  0.21119500441E+03  0.12508846326E+03 0.  0.
         23    2    1    2    0    0  0.11480183598E+03  0.11310179608E+03  0.18349295444E+03  0.25999925483E+03  0.89210259260E+02 0.  0.
          5    1    3    3  502    0 -0.10858303598E+03 -0.41697506159E+02  0.69629594559E+01  0.11659722521E+03  0.41800000000E+01 0. -1.
         -5    1    3    3    0  502 -0.62187999996E+01 -0.71404289926E+02 -0.61595627567E+02  0.94597779195E+02  0.41800000000E+01 0. -1.
        -11    1    4    4    0    0  0.50497604149E+02  0.10079297471E+03  0.82729524762E+02  0.13983349399E+03  0.00000000000E+00 0. -1.
         11    1    4    4    0    0  0.64304231835E+02  0.12308821378E+02  0.10076342968E+03  0.12016576083E+03  0.00000000000E+00 0.  1.
</event>
<event>
 8    1  0.7281309E-009  0.9884701E+02  0.7561462E-02  0.1282739E+00
          2   -1    0    0  501    0  0.00000000000E+00  0.00000000000E+00  0.21741476955E+03  0.21741476955E+03  0.00000000000E+00 0. -1.
         -2   -1    0    0    0  501 -0.00000000000E+00 -0.00000000000E+00 -0.84848489479E+02  0.84848489479E+02  0.00000000000E+00 0.  1.
         25    2    1    2    0    0  0.17988484171E+02 -0.36180427792E+02 -0.49694656507E+01  0.13154541307E+03  0.12508753413E+03 0.  0.
         23    2    1    2    0    0 -0.17988484171E+02  0.36180427792E+02  0.13753574572E+03  0.17071784595E+03  0.92714037009E+02 0.  0.
          5    1    3    3  502    0  0.33805463011E+02  0.40048849864E+02  0.55757843631E+01  0.52870421561E+02  0.41800000000E+01 0. -1.
         -5    1    3    3    0  502 -0.15816978840E+02 -0.76229277656E+02 -0.10545250014E+02  0.78674991512E+02  0.41800000000E+01 0. -1.
        -11    1    4    4    0    0  0.17967938887E+02  0.22234735053E+02  0.74764686957E+00  0.28597014644E+02  0.00000000000E+00 0.  1.
         11    1    4    4    0    0 -0.35956423058E+02  0.13945692739E+02  0.13678809885E+03  0.14212083131E+03  0.00000000000E+00 0. -1.
</event>
<event>
 8    1  0.7281309E-009  0.2593519E+03  0.7561462E-02  0.1107533E+00
          2   -1    0    0  501    0  0.00000000000E+00  0.00000000000E+00  0.15919943359E+04  0.15919943359E+04  0.00000000000E+00 0.  1.
         -2   -1    0    0    0  501 -0.00000000000E+00 -0.00000000000E+00 -0.44455458054E+02  0.44455458054E+02  0.00000000000E+00 0. -1.
         25    2    1    2    0    0 -0.22462825166E+03 -0.88791783003E+02  0.87840577798E+03  0.91955809961E+03  0.12509418691E+03 0.  0.
         23    2    1    2    0    0  0.22462825166E+03  0.88791783003E+02  0.66913309989E+03  0.71689169437E+03  0.88615822035E+02 0.  0.
          5    1    3    3  502    0 -0.22115894758E+03 -0.42706843822E+02  0.74459489517E+03  0.77792942155E+03  0.41800000000E+01 0.  1.
         -5    1    3    3    0  502 -0.34693040811E+01 -0.46084939181E+02  0.13381088282E+03  0.14162867806E+03  0.41800000000E+01 0.  1.
        -11    1    4    4    0    0  0.12481333404E+03  0.76638259002E+02  0.49052562775E+03  0.51192497749E+03  0.00000000000E+00 0.  1.
         11    1    4    4    0    0  0.99814917616E+02  0.12153524000E+02  0.17860747214E+03  0.20496671688E+03  0.00000000000E+00 0. -1.
</event>
<event>
 8    1  0.7281309E-009  0.8857378E+02  0.7561462E-02  0.1306343E+00
          3   -1    0    0  501    0  0.00000000000E+00  0.00000000000E+00  0.48582883519E+02  0.48582883519E+02  0.00000000000E+00 0. -1.
         -3   -1    0    0    0  501 -0.00000000000E+00 -0.00000000000E+00 -0.40863161529E+03  0.40863161529E+03  0.00000000000E+00 0.  1.
         25    2    1    2    0    0  0.39801259973E+02 -0.24452989121E+02 -0.72676461509E+02  0.15202580970E+03  0.12509152564E+03 0.  0.
         23    2    1    2    0    0 -0.39801259973E+02  0.24452989121E+02 -0.28737227026E+03  0.30518868911E+03  0.91516256863E+02 0.  0.
          5    1    3    3  502    0 -0.15442172457E+02 -0.66620869174E+01  0.29632156178E+02  0.34327557036E+02  0.41800000000E+01 0. -1.
         -5    1    3    3    0  502  0.55243432430E+02 -0.17790902203E+02 -0.10230861769E+03  0.11769825267E+03  0.41800000000E+01 0. -1.
        -11    1    4    4    0    0 -0.60280117424E+02  0.42964542324E+02 -0.22792698979E+03  0.23964631675E+03  0.00000000000E+00 0.  1.
         11    1    4    4    0    0  0.20478857452E+02 -0.18511553203E+02 -0.59445280472E+02  0.65542372363E+02  0.00000000000E+00 0. -1.
</event>
<event>
 8    1  0.7281309E-009  0.1079727E+03  0.7561462E-02  0.1264371E+00
          2   -1    0    0  501    0  0.00000000000E+00  0.00000000000E+00  0.33291091907E+03  0.33291091907E+03  0.00000000000E+00 0. -1.
         -2   -1    0    0    0  501 -0.00000000000E+00 -0.00000000000E+00 -0.61636924034E+02  0.61636924034E+02  0.00000000000E+00 0.  1.
         25    2    1    2    0    0  0.21865742794E+02  0.24100593545E+02  0.26760183053E+03  0.29718250803E+03  0.12509098312E+03 0.  0.
         23    2    1    2    0    0 -0.21865742794E+02 -0.24100593545E+02  0.36721645022E+01  0.97365335072E+02  0.91692826133E+02 0.  0.
          5    1    3    3  502    0 -0.47331888921E+02 -0.21841161441E+01  0.58932168658E+02  0.75733420462E+02  0.41800000000E+01 0. -1.
         -5    1    3    3    0  502  0.69197631716E+02  0.26284709689E+02  0.20866966187E+03  0.22144908757E+03  0.41800000000E+01 0. -1.
        -11    1    4    4    0    0 -0.55012721728E+02 -0.26387131388E+02 -0.92582515885E+01  0.61712198772E+02  0.00000000000E+00 0.  1.
         11    1    4    4    0    0  0.33146978934E+02  0.22865378426E+01  0.12930416091E+02  0.35653136300E+02  0.00000000000E+00 0. -1.
</event>
<event>
 8    1  0.7281309E-009  0.1062801E+03  0.7561462E-02  0.1267618E+00
         -1   -1    0    0    0  501 -0.00000000000E+00  0.00000000000E+00  0.24826672191E+02  0.24826672191E+02  0.00000000000E+00 0.  1.
          1   -1    0    0  501    0  0.00000000000E+00 -0.00000000000E+00 -0.52701981127E+03  0.52701981127E+03  0.00000000000E+00 0. -1.
         25    2    1    2    0    0 -0.15544134790E+02 -0.14801971233E+02 -0.38492141015E+03  0.40530408025E+03  0.12508471925E+03 0.  0.
         23    2    1    2    0    0  0.15544134790E+02  0.14801971233E+02 -0.11727172892E+03  0.14654240322E+03  0.85213256342E+02 0.  0.
          5    1    3    3  502    0 -0.42078444885E+02  0.43975077090E+02 -0.15831525542E+03  0.16966318230E+03  0.41800000000E+01 0.  1.
         -5    1    3    3    0  502  0.26534310095E+02 -0.58777048323E+02 -0.22660615473E+03  0.23564089794E+03  0.41800000000E+01 0.  1.
        -11    1    4    4    0    0 -0.15013152070E+02  0.42878814080E+02 -0.50519496199E+02  0.67942673838E+02  0.00000000000E+00 0. -1.
         11    1    4    4    0    0  0.30557286860E+02 -0.28076842847E+02 -0.66752232725E+02  0.78599729378E+02  0.00000000000E+00 0.  1.
</event>
<event>
 8    1  0.7281309E-009  0.1331651E+03  0.7561462E-02  0.1222833E+00
          2   -1    0    0  501    0  0.00000000000E+00  0.00000000000E+00  0.57520888633E+03  0.57520888633E+03  0.00000000000E+00 0. -1.
         -2   -1    0    0    0  501 -0.00000000000E+00 -0.00000000000E+00 -0.37229478640E+02  0.37229478640E+02  0.00000000000E+00 0.  1.
         25    2    1    2    0    0  0.87900601734E+02  0.17254946304E+02  0.36206072680E+03  0.39339573974E+03  0.12509192298E+03 0.  0.
         23    2    1    2    0    0 -0.87900601734E+02 -0.17254946304E+02  0.17591868089E+03  0.21904262523E+03  0.94910697112E+02 0.  0.
          5    1    3    3  502    0  0.69913889164E+02 -0.44918979049E+02  0.14871464269E+03  0.17040887279E+03  0.41800000000E+01 0. -1.
         -5    1    3    3    0  502  0.17986712570E+02  0.62173925352E+02  0.21334608411E+03  0.22298686694E+03  0.41800000000E+01 0. -1.
        -11    1    4    4    0    0 -0.49961249783E+02 -0.48113884187E+02  0.54715981450E+02  0.88345407110E+02  0.00000000000E+00 0.  1.
         11    1    4    4    0    0 -0.37939351951E+02  0.30858937883E+02  0.12120269944E+03  0.13069721812E+03  0.00000000000E+00 0. -1.
</event>
<event>
 8    1  0.7281309E-009  0.1211124E+03  0.7561462E-02  0.1241273E+00
         -1   -1    0    0    0  501 -0.00000000000E+00  0.00000000000E+00  0.38912505652E+02  0.38912505652E+02  0.00000000000E+00 0.  1.
          1   -1    0    0  501    0  0.00000000000E+00 -0.00000000000E+00 -0.54589116224E+03  0.54589116224E+03  0.00000000000E+00 0. -1.
         25    2    1    2    0    0  0.80543801729E+02 -0.43615120823E+02 -0.21360076480E+03  0.26393844008E+03  0.12509448697E+03 0.  0.
         23    2    1    2    0    0 -0.80543801729E+02  0.43615120823E+02 -0.29337789179E+03  0.32086522781E+03  0.92164658431E+02 0.  0.
          5    1    3    3  502    0  0.38086288653E+02  0.31184232162E+02 -0.14699537118E+03  0.15507460549E+03  0.41800000000E+01 0. -1.
         -5    1    3    3    0  502  0.42457513076E+02 -0.74799352985E+02 -0.66605393615E+02  0.10886383459E+03  0.41800000000E+01 0. -1.
        -11    1    4    4    0    0 -0.44210097973E+02  0.53164893067E+02 -0.26475690145E+03  0.27363708719E+03  0.00000000000E+00 0. -1.
         11    1    4    4    0    0 -0.36333703756E+02 -0.95497722441E+01 -0.28620990336E+02  0.47228140620E+02  0.00000000000E+00 0.  1.
</event>
<event>
 8    1  0.7281309E-009  0.2526650E+03  0.7561462E-02  0.1111632E+00
         -1   -1    0    0    0  501 -0.00000000000E+00  0.00000000000E+00  0.65165914077E+02  0.65165914077E+02  0.00000000000E+00 0.  1.
          1   -1    0    0  501    0  0.00000000000E+00 -0.00000000000E+00 -0.11325845006E+04  0.11325845006E+04  0.00000000000E+00 0. -1.
         25    2    1    2    0    0 -0.12756745669E+03  0.19184245506E+03 -0.74972831071E+03  0.79423873604E+03  0.12508255824E+03 0.  0.
         23    2    1    2    0    0  0.12756745669E+03 -0.19184245506E+03 -0.31769027583E+03  0.40351167865E+03  0.93901969534E+02 0.  0.
          5    1    3    3  502    0 -0.12602728375E+03  0.20888411913E+03 -0.68503750656E+03  0.72719275936E+03  0.41800000000E+01 0.  1.
         -5    1    3    3    0  502 -0.15401729381E+01 -0.17041664070E+02 -0.64690804153E+02  0.67045976680E+02  0.41800000000E+01 0.  1.
        -11    1    4    4    0    0  0.17166486853E+02 -0.96000541967E+02 -0.88681436764E+02  0.13181498229E+03  0.00000000000E+00 0.  1.
         11    1    4    4    0    0  0.11040096983E+03 -0.95841913098E+02 -0.22900883906E+03  0.27169669636E+03  0.00000000000E+00 0. -1.
</event>
<event>
 8    1  0.7281309E-009  0.9344387E+02  0.7561462E-02  0.1294720E+00
          1   -1    0    0  501    0  0.00000000000E+00  0.00000000000E+00  0.71284427150E+03  0.71284427150E+03  0.00000000000E+00 0. -1.
         -1   -1    0    0    0  501 -0.00000000000E+00 -0.00000000000E+00 -0.23771877793E+02  0.23771877793E+02  0.00000000000E+00 0.  1.
         25    2    1    2    0    0  0.66479606477E+02  0.17634397526E+02  0.43796435687E+03  0.46064207094E+03  0.12509128497E+03 0.  0.
         23    2    1    2    0    0 -0.66479606477E+02 -0.17634397526E+02  0.25110803684E+03  0.27597407835E+03  0.91520138258E+02 0.  0.
          5    1    3    3  502    0 -0.22080209520E+01  0.81300980950E+01  0.34222949178E+03  0.34235868807E+03  0.41800000000E+01 0. -1.
         -5    1    3    3    0  502  0.68687627429E+02  0.95042994305E+01  0.95734865092E+02  0.11828338287E+03  0.41800000000E+01 0. -1.
        -11    1    4    4    0    0  0.24681789697E+01  0.26198046473E+02  0.28225647587E+02  0.38589075243E+02  0.00000000000E+00 0. -1.
         11    1    4    4    0    0 -0.68947785447E+02 -0.43832443998E+02  0.22288238925E+03  0.23738500311E+03  0.00000000000E+00 0.  1.
</event>
<event>
 8    1  0.7281309E-009  0.1645847E+03  0.7561462E-02  0.1183616E+00
          2   -1    0    0  501    0  0.00000000000E+00  0.00000000000E+00  0.43338914351E+03  0.43338914351E+03  0.00000000000E+00 0. -1.
         -2   -1    0    0    0  501 -0.00000000000E+00 -0.00000000000E+00 -0.11776343426E+03  0.11776343426E+03  0.00000000000E+00 0.  1.
         25    2    1    2    0    0  0.14199061813E+03 -0.79561288866E+01  0.33044421637E+03  0.38087807619E+03  0.12510033239E+03 0.  0.
         23    2    1    2    0    0 -0.14199061813E+03  0.79561288866E+01 -0.14818507120E+02  0.17027450158E+03  0.92461787309E+02 0.  0.
          5    1    3    3  502    0  0.10216369092E+03 -0.57159182777E+02  0.26498044850E+03  0.28971831562E+03  0.41800000000E+01 0.  1.
         -5    1    3    3    0  502  0.39826927210E+02  0.49203053890E+02  0.65463767868E+02  0.91159760567E+02  0.41800000000E+01 0.  1.
        -11    1    4    4    0    0 -0.13690493189E+03  0.17256752449E+02 -0.39401515572E+02  0.14350343310E+03  0.00000000000E+00 0. -1.
         11    1    4    4    0    0 -0.50856862342E+01 -0.93006235621E+01  0.24583008452E+02  0.26771068482E+02  0.00000000000E+00 0.  1.
</event>
<event>
 8    1  0.7281309E-009  0.1045650E+03  0.7561462E-02  0.1270979E+00
         -1   -1    0    0    0  501 -0.00000000000E+00  0.00000000000E+00  0.30644035402E+02  0.30644035402E+02  0.00000000000E+00 0.  1.
          1   -1    0    0  501    0  0.00000000000E+00 -0.00000000000E+00 -0.43453345045E+03  0.43453345045E+03  0.00000000000E+00 0. -1.
         25    2    1    2    0    0  0.36554446855E+02  0.64744094373E+01 -0.22375092692E+03  0.25901756918E+03  0.12508988082E+03 0.  0.
         23    2    1    2    0    0 -0.36554446855E+02 -0.64744094373E+01 -0.18013848813E+03  0.20615991667E+03  0.93133725224E+02 0.  0.
          5    1    3    3  502    0 -0.45257230467E+02  0.29638802087E+01 -0.55071215145E+02  0.71465464617E+02  0.41800000000E+01 0.  1.
         -5    1    3    3    0  502  0.81811677323E+02  0.35105292287E+01 -0.16867971178E+03  0.18755210457E+03  0.41800000000E+01 0.  1.
        -11    1    4    4    0    0 -0.30571913267E+01 -0.36486677511E+02 -0.14365440372E+03  0.14824713071E+03  0.00000000000E+00 0. -1.
         11    1    4    4    0    0 -0.33497255529E+02  0.30012268074E+02 -0.36484084404E+02  0.57912785960E+02  0.00000000000E+00 0.  1.
</event>
<event>
 7    1  0.7281309E-009  0.1356476E+03  0.7561462E-02  0.1219308E+00
          4   -1    0    0  501    0  0.00000000000E+00  0.00000000000E+00  0.23655373859E+03  0.23655373859E+03  0.00000000000E+00 0. -1.
         -4   -1    0    0    0  501 -0.00000000000E+00 -0.00000000000E+00 -0.13595963083E+03  0.13595963083E+03  0.00000000000E+00 0.  1.
         23    2    1    2    0    0 -0.47792054750E+02 -0.94254710530E+02  0.14664608930E+03  0.20235228415E+03  0.90957904766E+02 0.  0.
          5    1    1    2  502    0 -0.22753397511E+02 -0.15218266948E+02  0.84040932279E+01  0.28938105159E+02  0.41800000000E+01 0.  1.
         -5    1    1    2    0  502  0.70545452261E+02  0.10947297748E+03 -0.54456074774E+02  0.14122298011E+03  0.41800000000E+01 0.  1.
        -11    1    3    3    0    0 -0.55251426438E+02 -0.80172622807E+02  0.60254326195E+02  0.11450307156E+03  0.00000000000E+00 0.  1.
         11    1    3    3    0    0  0.74593716882E+01 -0.14082087723E+02  0.86391763102E+02  0.87849212589E+02  0.00000000000E+00 0. -1.
</event>
<event>
 8    1  0.7281309E-009  0.1304719E+03  0.7561462E-02  0.1226757E+00
         -1   -1    0    0    0  501 -0.00000000000E+00  0.00000000000E+00  0.40665658699E+03  0.40665658699E+03  0.00000000000E+00 0.  1.
          1   -1    0    0  501    0  0.00000000000E+00 -0.00000000000E+00 -0.64889933479E+02  0.64889933479E+02  0.00000000000E+00 0. -1.
         25    2    1    2    0    0 -0.74084778886E+02 -0.83565706458E+02  0.12364142550E+03  0.20834240337E+03  0.12509026014E+03 0.  0.
         23    2    1    2    0    0  0.74084778886E+02  0.83565706458E+02  0.21812522800E+03  0.26320411710E+03  0.96052123390E+02 0.  0.
          5    1    3    3  502    0  0.98758836206E+01  0.15372347050E+02 -0.10647157939E+02  0.21556356448E+02  0.41800000000E+01 0. -1.
         -5    1    3    3    0  502 -0.83960662506E+02 -0.98938053508E+02  0.13428858344E+03  0.18678604692E+03  0.41800000000E+01 0. -1.
        -11    1    4    4    0    0  0.27074911442E+02  0.39842601321E+02  0.18459224481E+03  0.19077416113E+03  0.00000000000E+00 0.  1.
         11    1    4    4    0    0  0.47009867444E+02  0.43723105136E+02  0.33532983189E+02  0.72429955967E+02  0.00000000000E+00 0. -1.
</event>
<event>
 8    1  0.7281309E-009  0.7289078E+02  0.7561462E-02  0.1350530E+00
         -3   -1    0    0    0  501 -0.00000000000E+00  0.00000000000E+00  0.86282822882E+02  0.86282822882E+02  0.00000000000E+00 0.  1.
          3   -1    0    0  501    0  0.00000000000E+00 -0.00000000000E+00 -0.17591265042E+03  0.17591265042E+03  0.00000000000E+00 0. -1.
         25    2    1    2    0    0 -0.93758049274E+01  0.22804608665E+02 -0.10661800683E+03  0.16621407757E+03  0.12510701142E+03 0.  0.
         23    2    1    2    0    0  0.93758049274E+01 -0.22804608665E+02  0.16988179297E+02  0.95981395728E+02  0.91191415143E+02 0.  0.
          5    1    3    3  502    0 -0.29179010029E+02  0.17111109245E+02  0.18882615687E+02  0.38964474346E+02  0.41800000000E+01 0.  1.
         -5    1    3    3    0  502  0.19803205102E+02  0.56934994207E+01 -0.12550062252E+03  0.12724960322E+03  0.41800000000E+01 0.  1.
        -11    1    4    4    0    0 -0.15667833035E+02 -0.50770300779E+02 -0.34378244651E+01  0.53243995626E+02  0.00000000000E+00 0. -1.
         11    1    4    4    0    0  0.25043637962E+02  0.27965692114E+02  0.20426003762E+02  0.42737400102E+02  0.00000000000E+00 0.  1.
</event>
<event>
 8    1  0.7281309E-009  0.1142576E+03  0.7561462E-02  0.1252883E+00
          1   -1    0    0  501    0  0.00000000000E+00  0.00000000000E+00  0.55996886401E+02  0.55996886401E+02  0.00000000000E+00 0. -1.
         -1   -1    0    0    0  501 -0.00000000000E+00 -0.00000000000E+00 -0.32846268120E+03  0.32846268120E+03  0.00000000000E+00 0.  1.
         25    2    1    2    0    0  0.76754977000E+02  0.20179405077E+02 -0.12456876932E+03  0.19356088087E+03  0.12509956607E+03 0.  0.
         23    2    1    2    0    0 -0.76754977000E+02 -0.20179405077E+02 -0.14789702548E+03  0.19089868673E+03  0.90940879503E+02 0.  0.
          5    1    3    3  502    0  0.69575388061E+02 -0.32898032456E+02 -0.11583209009E+03  0.13913145100E+03  0.41800000000E+01 0.  1.
         -5    1    3    3    0  502  0.71795889395E+01  0.53077437532E+02 -0.87366792303E+01  0.54429429873E+02  0.41800000000E+01 0.  1.
        -11    1    4    4    0    0 -0.64382677163E+02  0.99492136337E+01 -0.36155668092E+02  0.74507370815E+02  0.00000000000E+00 0.  1.
         11    1    4    4    0    0 -0.12372299838E+02 -0.30128618710E+02 -0.11174135739E+03  0.11639131592E+03  0.00000000000E+00 0. -1.
</event>
<event>
 8    1  0.7281309E-009  0.1135455E+03  0.7561462E-02  0.1254142E+00
          3   -1    0    0  501    0  0.00000000000E+00  0.00000000000E+00  0.12669581811E+02  0.12669581811E+02  0.00000000000E+00 0. -1.
         -3   -1    0    0    0  501 -0.00000000000E+00 -0.00000000000E+00 -0.10650054477E+04  0.10650054477E+04  0.00000000000E+00 0.  1.
         25    2    1    2    0    0 -0.99887942060E+01  0.34904848486E+02 -0.70352547071E+03  0.71548112040E+03  0.12508805399E+03 0.  0.
         23    2    1    2    0    0  0.99887942060E+01 -0.34904848486E+02 -0.34881039522E+03  0.36219390916E+03  0.90540662450E+02 0.  0.
          5    1    3    3  502    0  0.45260511432E+02  0.54540399870E+02 -0.41483443565E+03  0.42086607195E+03  0.41800000000E+01 0.  1.
         -5    1    3    3    0  502 -0.55249305638E+02 -0.19635551385E+02 -0.28869103506E+03  0.29461504845E+03  0.41800000000E+01 0.  1.
        -11    1    4    4    0    0 -0.18287501823E+01 -0.64975124973E+02 -0.22078183494E+03  0.23015153667E+03  0.00000000000E+00 0. -1.
         11    1    4    4    0    0  0.11817544388E+02  0.30070276488E+02 -0.12802856028E+03  0.13204237248E+03  0.00000000000E+00 0.  1.
</event>
<event>
 8    1  0.7281309E-009  0.1217560E+03  0.7561462E-02  0.1240228E+00
          1   -1    0    0  501    0  0.00000000000E+00  0.00000000000E+00  0.40752188522E+03  0.40752188522E+03  0.00000000000E+00 0. -1.
         -1   -1    0    0    0  501 -0.00000000000E+00 -0.00000000000E+00 -0.75618208289E+02  0.75618208289E+02  0.00000000000E+00 0.  1.
         25    2    1    2    0    0  0.43848194482E+02 -0.99395926340E+02  0.57664476661E+02  0.17542872818E+03  0.12509129654E+03 0.  0.
         23    2    1    2    0    0 -0.43848194482E+02  0.99395926340E+02  0.27423920027E+03  0.30771136532E+03  0.87618097756E+02 0.  0.
          5    1    3    3  502    0  0.38955338957E+02 -0.10268621411E+03 -0.72195290850E+01  0.11014341107E+03  0.41800000000E+01 0.  1.
         -5    1    3    3    0  502  0.48928555247E+01  0.32902877715E+01  0.64884005746E+02  0.65285317112E+02  0.41800000000E+01 0.  1.
        -11    1    4    4    0    0 -0.11722323119E+02  0.92856032903E+02  0.24998250955E+03  0.26692866235E+03  0.00000000000E+00 0. -1.
         11    1    4    4    0    0 -0.32125871363E+02  0.65398934363E+01  0.24256690719E+02  0.40782702971E+02  0.00000000000E+00 0.  1.
</event>
<event>
 8    1  0.7281309E-009  0.9680295E+02  0.7561462E-02  0.1287166E+00
          2   -1    0    0  501    0  0.00000000000E+00  0.00000000000E+00  0.85575163605E+02  0.85575163605E+02  0.00000000000E+00 0. -1.
         -2   -1    0    0    0  501 -0.00000000000E+00 -0.00000000000E+00 -0.21223349932E+03  0.21223349932E+03  0.00000000000E+00 0.  1.
         25    2    1    2    0    0  0.86836875538E+01  0.51835053067E+02 -0.44069890059E+01  0.13576372787E+03  0.12510031613E+03 0.  0.
         23    2    1    2    0    0 -0.86836875538E+01 -0.51835053067E+02 -0.12225134670E+03  0.16204493505E+03  0.92471022758E+02 0.  0.
          5    1    3    3  502    0 -0.30567757303E+02 -0.27990708694E+02 -0.18540252132E+02  0.45596939687E+02  0.41800000000E+01 0. -1.
         -5    1    3    3    0  502  0.39251444856E+02  0.79825761761E+02  0.14133263126E+02  0.90166788180E+02  0.41800000000E+01 0. -1.
        -11    1    4    4    0    0 -0.20627169373E+02 -0.19339639497E+02  0.62530030888E+01  0.28958622548E+02  0.00000000000E+00 0. -1.
         11    1    4    4    0    0  0.11943481819E+02 -0.32495413570E+02 -0.12850434979E+03  0.13308631251E+03  0.00000000000E+00 0.  1.
</event>
<event>
 8    1  0.7281309E-009  0.7279921E+02  0.7561462E-02  0.1350825E+00
         -2   -1    0    0    0  501 -0.00000000000E+00  0.00000000000E+00  0.12872547407E+03  0.12872547407E+03  0.00000000000E+00 0.  1.
          2   -1    0    0  501    0  0.00000000000E+00 -0.00000000000E+00 -0.10788464927E+03  0.10788464927E+03  0.00000000000E+00 0. -1.
         25    2    1    2    0    0  0.35885528127E+02  0.38700168578E+00  0.44080589872E+02  0.13739763125E+03  0.12508832787E+03 0.  0.
         23    2    1    2    0    0 -0.35885528127E+02 -0.38700168578E+00 -0.23239765072E+02  0.99212492101E+02  0.89527152356E+02 0.  0.
          5    1    3    3  502    0 -0.17425427191E+02  0.10717452575E+02  0.72863646758E+02  0.75796389896E+02  0.41800000000E+01 0.  1.
         -5    1    3    3    0  502  0.53310955318E+02 -0.10330450890E+02 -0.28783056886E+02  0.61601241353E+02  0.41800000000E+01 0.  1.
        -11    1    4    4    0    0 -0.49867212288E+02  0.12314705825E+02  0.17534097117E+02  0.54275550689E+02  0.00000000000E+00 0.  1.
         11    1    4    4    0    0  0.13981684160E+02 -0.12701707511E+02 -0.40773862188E+02  0.44936941411E+02  0.00000000000E+00 0. -1.
</event>
<event>
 8    1  0.7281309E-009  0.9654566E+02  0.7561462E-02  0.1287732E+00
         -2   -1    0    0    0  501 -0.00000000000E+00  0.00000000000E+00  0.11017788571E+03  0.11017788571E+03  0.00000000000E+00 0.  1.
          2   -1    0    0  501    0  0.00000000000E+00 -0.00000000000E+00 -0.15045761661E+03  0.15045761661E+03  0.00000000000E+00 0. -1.
         25    2    1    2    0    0  0.39039681978E+02  0.34972645592E+02  0.23211621184E+02  0.13760066125E+03  0.12509188587E+03 0.  0.
         23    2    1    2    0    0 -0.39039681978E+02 -0.34972645592E+02 -0.63491352086E+02  0.12303484107E+03  0.91428866436E+02 0.  0.
          5    1    3    3  502    0  0.26697286194E+02 -0.25157178066E+02 -0.36461845366E+02  0.51889953419E+02  0.41800000000E+01 0. -1.
         -5    1    3    3    0  502  0.12342395784E+02  0.60129823658E+02  0.59673466551E+02  0.85710707832E+02  0.41800000000E+01 0. -1.
        -11    1    4    4    0    0  0.13768075772E+02 -0.39318341619E+02 -0.17802653494E+01  0.41697257018E+02  0.00000000000E+00 0. -1.
         11    1    4    4    0    0 -0.52807757750E+02  0.43456960264E+01 -0.61711086737E+02  0.81337584048E+02  0.00000000000E+00 0.  1.
</event>
<event>
 8    1  0.7281309E-009  0.1043128E+03  0.7561462E-02  0.1271480E+00
         -2   -1    0    0    0  501 -0.00000000000E+00  0.00000000000E+00  0.49385482746E+02  0.49385482746E+02  0.00000000000E+00 0.  1.
          2   -1    0    0  501    0  0.00000000000E+00 -0.00000000000E+00 -0.28651124038E+03  0.28651124038E+03  0.00000000000E+00 0. -1.
         25    2    1    2    0    0 -0.37868591059E+02 -0.11759244634E+02 -0.92345278571E+02  0.16046016429E+03  0.12508998292E+03 0.  0.
         23    2    1    2    0    0  0.37868591059E+02  0.11759244634E+02 -0.14478047906E+03  0.17543655884E+03  0.90798067357E+02 0.  0.
          5    1    3    3  502    0  0.46119673342E+02 -0.23737356590E+01 -0.28096764690E+02  0.54217704453E+02  0.41800000000E+01 0. -1.
         -5    1    3    3    0  502 -0.83988264402E+02 -0.93855089753E+01 -0.64248513881E+02  0.10624245984E+03  0.41800000000E+01 0. -1.
        -11    1    4    4    0    0  0.42393491746E+02 -0.19067818142E+02 -0.13500208496E+03  0.14278078574E+03  0.00000000000E+00 0. -1.
         11    1    4    4    0    0 -0.45249006862E+01  0.30827062777E+02 -0.97783940995E+01  0.32655773101E+02  0.00000000000E+00 0.  1.
</event>
<event>
 8    1  0.7281309E-009  0.1304262E+03  0.7561462E-02  0.1226825E+00
          1   -1    0    0  501    0  0.00000000000E+00  0.00000000000E+00  0.78798064813E+02  0.78798064813E+02  0.00000000000E+00 0. -1.
         -1   -1    0    0    0  501 -0.00000000000E+00 -0.00000000000E+00 -0.27351993134E+03  0.27351993134E+03  0.00000000000E+00 0.  1.
         25    2    1    2    0    0  0.82838586520E+02 -0.31902592885E+02 -0.15616982068E+03  0.21889784016E+03  0.12508894710E+03 0.  0.
         23    2    1    2    0    0 -0.82838586520E+02  0.31902592885E+02 -0.38552045845E+02  0.13342015599E+03  0.91840464590E+02 0.  0.
          5    1    3    3  502    0  0.10268448323E+03  0.13435891407E+02 -0.10237061317E+03  0.14567718117E+03  0.41800000000E+01 0.  1.
         -5    1    3    3    0  502 -0.19845896706E+02 -0.45338484292E+02 -0.53799207510E+02  0.73220658989E+02  0.41800000000E+01 0.  1.
        -11    1    4    4    0    0 -0.91900743928E+02  0.22780633149E+02 -0.57311809710E+02  0.11067677043E+03  0.00000000000E+00 0.  1.
         11    1    4    4    0    0  0.90621574080E+01  0.91219597359E+01  0.18759763865E+02  0.22743385557E+02  0.00000000000E+00 0. -1.
</event>
<event>
 8    1  0.7281309E-009  0.2041561E+03  0.7561462E-02  0.1146279E+00
         -3   -1    0    0    0  501 -0.00000000000E+00  0.00000000000E+00  0.67692603302E+03  0.67692603302E+03  0.00000000000E+00 0.  1.
          3   -1    0    0  501    0  0.00000000000E+00 -0.00000000000E+00 -0.72745226305E+02  0.72745226305E+02  0.00000000000E+00 0. -1.
         25    2    1    2    0    0 -0.17625067917E+03 -0.59357686450E+02  0.40960430234E+03  0.46691609582E+03  0.12508924493E+03 0.  0.
         23    2    1    2    0    0  0.17625067917E+03  0.59357686450E+02  0.19457650438E+03  0.28275516350E+03  0.86618875431E+02 0.  0.
          5    1    3    3  502    0 -0.46590940196E+02  0.36084858314E+02  0.15237895576E+03  0.16343087611E+03  0.41800000000E+01 0.  1.
         -5    1    3    3    0  502 -0.12965973898E+03 -0.95442544764E+02  0.25722534658E+03  0.30348521971E+03  0.41800000000E+01 0.  1.
        -11    1    4    4    0    0  0.14899959017E+03  0.38586764836E+02  0.10358332585E+03  0.18552445037E+03  0.00000000000E+00 0. -1.
         11    1    4    4    0    0  0.27251088999E+02  0.20770921614E+02  0.90993178531E+02  0.97230713128E+02  0.00000000000E+00 0.  1.
</event>
<event>
 8    1  0.7281309E-009  0.9901073E+02  0.7561462E-02  0.1282390E+00
         -2   -1    0    0    0  501 -0.00000000000E+00  0.00000000000E+00  0.22702306560E+02  0.22702306560E+02  0.00000000000E+00 0.  1.
          2   -1    0    0  501    0  0.00000000000E+00 -0.00000000000E+00 -0.60894205891E+03  0.60894205891E+03  0.00000000000E+00 0. -1.
         25    2    1    2    0    0  0.92554576757E+01 -0.36068934344E+02 -0.41721985580E+03  0.43715681010E+03  0.12508811704E+03 0.  0.
         23    2    1    2    0    0 -0.92554576757E+01  0.36068934344E+02 -0.16901989655E+03  0.19448755537E+03  0.88718950858E+02 0.  0.
          5    1    3    3  502    0 -0.47429268928E+02  0.26040081154E+01 -0.27603892522E+03  0.28012725152E+03  0.41800000000E+01 0.  1.
         -5    1    3    3    0  502  0.56684726603E+02 -0.38672942459E+02 -0.14118093058E+03  0.15702955858E+03  0.41800000000E+01 0.  1.
        -11    1    4    4    0    0 -0.27328800069E+02  0.51187861633E+02 -0.62055395121E+02  0.84958416624E+02  0.00000000000E+00 0.  1.
         11    1    4    4    0    0  0.18073342393E+02 -0.15118927289E+02 -0.10696450143E+03  0.10952913875E+03  0.00000000000E+00 0. -1.
</event>
<event>
 8    1  0.7281309E-009  0.1054269E+03  0.7561462E-02  0.1269281E+00
         -2   -1    0    0    0  501 -0.00000000000E+00  0.00000000000E+00  0.23040225344E+02  0.23040225344E+02  0.00000000000E+00 0.  1.
          2   -1    0    0  501    0  0.00000000000E+00 -0.00000000000E+00 -0.51361454742E+03  0.51361454742E+03  0.00000000000E+00 0. -1.
         25    2    1    2    0    0 -0.11795274807E+02  0.15985872934E+00 -0.28483817862E+03  0.31132199327E+03  0.12509772753E+03 0.  0.
         23    2    1    2    0    0  0.11795274807E+02 -0.15985872934E+00 -0.20573614345E+03  0.22533277949E+03  0.91150132895E+02 0.  0.
          5    1    3    3  502    0  0.42066299497E+02 -0.38335921532E+02 -0.16134273898E+03  0.17113786330E+03  0.41800000000E+01 0. -1.
         -5    1    3    3    0  502 -0.53861574304E+02  0.38495780262E+02 -0.12349543964E+03  0.14018412997E+03  0.41800000000E+01 0. -1.
        -11    1    4    4    0    0 -0.18526016728E+02  0.35862787283E+02 -0.61134573073E+02  0.73258370391E+02  0.00000000000E+00 0.  1.
         11    1    4    4    0    0  0.30321291536E+02 -0.36022646012E+02 -0.14460157038E+03  0.15207440910E+03  0.00000000000E+00 0. -1.
</event>
<event>
 7    1  0.7281309E-009  0.1450635E+03  0.7561462E-02  0.1206674E+00
         -1   -1    0    0    0  501 -0.00000000000E+00  0.00000000000E+00  0.39370843083E+03  0.39370843083E+03  0.00000000000E+00 0.  1.
          1   -1    0    0  501    0  0.00000000000E+00 -0.00000000000E+00 -0.85471780369E+02  0.85471780369E+02  0.00000000000E+00 0. -1.
         25    2    1    2    0    0 -0.36506968561E+02 -0.74800437939E+02  0.73301367606E+02  0.16718112319E+03  0.12509425722E+03 0.  0.
          5    1    3    3  502    0 -0.42103516560E+02 -0.98477128920E+02  0.87800227568E+02  0.13855252935E+03  0.41800000000E+01 0.  1.
         -5    1    3    3    0  502  0.55965479989E+01  0.23676690981E+02 -0.14498859962E+02  0.28628593845E+02  0.41800000000E+01 0.  1.
        -11    1    1    2    0    0 -0.40753236991E+02  0.69814493051E+02  0.21833318158E+03  0.23281810055E+03  0.00000000000E+00 0.  1.
         11    1    1    2    0    0  0.77260205552E+02  0.49859448876E+01  0.16602101277E+02  0.79180987461E+02  0.00000000000E+00 0. -1.
</event>
<event>
 8    1  0.7281309E-009  0.1214563E+03  0.7561462E-02  0.1240714E+00
          4   -1    0    0  501    0  0.00000000000E+00  0.00000000000E+00  0.28872747694E+03  0.28872747694E+03  0.00000000000E+00 0.  1.
         -4   -1    0    0    0  501 -0.00000000000E+00 -0.00000000000E+00 -0.51967270840E+02  0.51967270840E+02  0.00000000000E+00 0. -1.
         25    2    1    2    0    0  0.16573262426E+02 -0.54319433810E+02  0.12334907254E+03  0.18462812090E+03  0.12508906992E+03 0.  0.
         23    2    1    2    0    0 -0.16573262426E+02  0.54319433810E+02  0.11341113356E+03  0.15606662688E+03  0.90936422257E+02 0.  0.
          5    1    3    3  502    0 -0.51158158678E+02 -0.14526681577E+01  0.45312564379E+02  0.68483343484E+02  0.41800000000E+01 0. -1.
         -5    1    3    3    0  502  0.67731421104E+02 -0.52866765652E+02  0.78036508163E+02  0.11614477742E+03  0.41800000000E+01 0. -1.
        -11    1    4    4    0    0 -0.22598698378E+00  0.77321212406E+02  0.70064975833E+02  0.10434424659E+03  0.00000000000E+00 0. -1.
         11    1    4    4    0    0 -0.16347275442E+02 -0.23001778596E+02  0.43346157725E+02  0.51722380286E+02  0.00000000000E+00 0.  1.
</event>
<event>
 8    1  0.7281309E-009  0.1295929E+03  0.7561462E-02  0.1228061E+00
         -1   -1    0    0    0  501 -0.00000000000E+00  0.00000000000E+00  0.55617411837E+02  0.55617411837E+02  0.00000000000E+00 0.  1.
          1   -1    0    0  501    0  0.00000000000E+00 -0.00000000000E+00 -0.51056621026E+03  0.51056621026E+03  0.00000000000E+00 0. -1.
         25    2    1    2    0    0 -0.85154660475E+02  0.32128922360E+02 -0.91294841103E+02  0.17961828712E+03  0.12507756475E+03 0.  0.
         23    2    1    2    0    0  0.85154660475E+02 -0.32128922360E+02 -0.36365395732E+03  0.38656533498E+03  0.94366168094E+02 0.  0.
          5    1    3    3  502    0 -0.92041214250E+02 -0.34190738772E+01 -0.10584630263E+03  0.14037160456E+03  0.41800000000E+01 0.  1.
         -5    1    3    3    0  502  0.68865537758E+01  0.35547996238E+02  0.14551461523E+02  0.39246682559E+02  0.41800000000E+01 0.  1.
        -11    1    4    4    0    0  0.98564236541E+02 -0.31600522689E+01 -0.28939805854E+03  0.30573866446E+03  0.00000000000E+00 0.  1.
         11    1    4    4    0    0 -0.13409576066E+02 -0.28968870091E+02 -0.74255898779E+02  0.80826670525E+02  0.00000000000E+00 0. -1.
</event>
<event>
 8    1  0.7281309E-009  0.1260917E+03  0.7561462E-02  0.1233373E+00
          2   -1    0    0  501    0  0.00000000000E+00  0.00000000000E+00  0.86308062504E+03  0.86308062504E+03  0.00000000000E+00 0. -1.
         -2   -1    0    0    0  501 -0.00000000000E+00 -0.00000000000E+00 -0.23331624509E+02  0.23331624509E+02  0.00000000000E+00 0.  1.
         25    2    1    2    0    0 -0.52863656100E+02 -0.58935998336E+02  0.59305126183E+03  0.61124843594E+03  0.12508730245E+03 0.  0.
         23    2    1    2    0    0  0.52863656100E+02  0.58935998336E+02  0.24669773870E+03  0.27516381362E+03  0.92667858549E+02 0.  0.
          5    1    3    3  502    0  0.24604249219E+02 -0.54459263751E+02  0.15154777086E+03  0.16295821470E+03  0.41800000000E+01 0. -1.
         -5    1    3    3    0  502 -0.77467905319E+02 -0.44767345849E+01  0.44150349098E+03  0.44829022123E+03  0.41800000000E+01 0. -1.
        -11    1    4    4    0    0 -0.43570444262E+00 -0.19626975188E+02  0.14800275507E+02  0.24585689913E+02  0.00000000000E+00 0. -1.
         11    1    4    4    0    0  0.53299360543E+02  0.78562973524E+02  0.23189746320E+03  0.25057812371E+03  0.00000000000E+00 0.  1.
</event>
<event>
 8    1  0.7281309E-009  0.9732584E+02  0.7561462E-02  0.1286022E+00
          4   -1    0    0  501    0  0.00000000000E+00  0.00000000000E+00  0.94221386610E+02  0.94221386610E+02  0.00000000000E+00 0.  1.
         -4   -1    0    0    0  501 -0.00000000000E+00 -0.00000000000E+00 -0.18559815148E+03  0.18559815148E+03  0.00000000000E+00 0. -1.
         25    2    1    2    0    0 -0.74629332466E+02  0.13951104669E+02 -0.44932015859E+02  0.15307373987E+03  0.12509401746E+03 0.  0.
         23    2    1    2    0    0  0.74629332466E+02 -0.13951104669E+02 -0.46444749010E+02  0.12674579822E+03  0.90239747724E+02 0.  0.
          5    1    3    3  502    0 -0.28043046831E+02 -0.27194001625E+01 -0.84760768827E+02  0.89418498896E+02  0.41800000000E+01 0.  1.
         -5    1    3    3    0  502 -0.46586285635E+02  0.16670504832E+02  0.39828752967E+02  0.63655240975E+02  0.41800000000E+01 0.  1.
        -11    1    4    4    0    0 -0.37304444425E+01  0.27577824075E+02 -0.19770373250E+02  0.34136787414E+02  0.00000000000E+00 0. -1.
         11    1    4    4    0    0  0.78359776909E+02 -0.41528928745E+02 -0.26674375760E+02  0.92609010804E+02  0.00000000000E+00 0.  1.
</event>
<event>
 8    1  0.7281309E-009  0.9782642E+02  0.7561462E-02  0.1284934E+00
         -2   -1    0    0    0  501 -0.00000000000E+00  0.00000000000E+00  0.39499037702E+02  0.39499037702E+02  0.00000000000E+00 0.  1.
          2   -1    0    0  501    0  0.00000000000E+00 -0.00000000000E+00 -0.42777857869E+03  0.42777857869E+03  0.00000000000E+00 0. -1.
         25    2    1    2    0    0  0.91686050985E+01 -0.64945907116E+02 -0.15894159766E+03  0.21262989651E+03  0.12508799803E+03 0.  0.
         23    2    1    2    0    0 -0.91686050985E+01  0.64945907116E+02 -0.22933794333E+03  0.25464771988E+03  0.89148947396E+02 0.  0.
          5    1    3    3  502    0 -0.21520430532E+02 -0.58117333622E+02 -0.13231880185E+02  0.63508333711E+02  0.41800000000E+01 0.  1.
         -5    1    3    3    0  502  0.30689035631E+02 -0.68285734947E+01 -0.14570971748E+03  0.14912156280E+03  0.41800000000E+01 0.  1.
        -11    1    4    4    0    0  0.31545876843E+02  0.93313429444E+01 -0.12751520947E+03  0.13169033735E+03  0.00000000000E+00 0. -1.
         11    1    4    4    0    0 -0.40714481941E+02  0.55614564172E+02 -0.10182273386E+03  0.12295738253E+03  0.00000000000E+00 0.  1.
</event>
<event>
 8    1  0.7281309E-009  0.1223505E+03  0.7561462E-02  0.1239269E+00
          2   -1    0    0  501    0  0.00000000000E+00  0.00000000000E+00  0.21208599593E+03  0.21208599593E+03  0.00000000000E+00 0. -1.
         -2   -1    0    0    0  501 -0.00000000000E+00 -0.00000000000E+00 -0.90911943868E+02  0.90911943868E+02  0.00000000000E+00 0.  1.
         25    2    1    2    0    0  0.35833896299E+02 -0.78743543830E+02  0.45193377453E+02  0.15866340389E+03  0.12508805119E+03 0.  0.
         23    2    1    2    0    0 -0.35833896299E+02  0.78743543830E+02  0.75980674607E+02  0.14433453590E+03  0.87033220793E+02 0.  0.
          5    1    3    3  502    0  0.52994459721E+02  0.38896645409E+01 -0.14461159073E+02  0.55228070517E+02  0.41800000000E+01 0.  1.
         -5    1    3    3    0  502 -0.17160563422E+02 -0.82633208371E+02  0.59654536527E+02  0.10343533338E+03  0.41800000000E+01 0.  1.
        -11    1    4    4    0    0 -0.52997126051E+02  0.69515312209E+02  0.85824304013E+02  0.12250259246E+03  0.00000000000E+00 0. -1.
         11    1    4    4    0    0  0.17163229753E+02  0.92282316211E+01 -0.98436294059E+01  0.21831943438E+02  0.00000000000E+00 0.  1.
</event>
<event>
 8    1  0.7281309E-009  0.1327859E+03  0.7561462E-02  0.1223380E+00
         -2   -1    0    0    0  501 -0.00000000000E+00  0.00000000000E+00  0.83368801070E+02  0.83368801070E+02  0.00000000000E+00 0.  1.
          2   -1    0    0  501    0  0.00000000000E+00 -0.00000000000E+00 -0.26148707779E+03  0.26148707779E+03  0.00000000000E+00 0. -1.
         25    2    1    2    0    0  0.13969821395E+02 -0.10000552934E+03 -0.10187874429E+03  0.19032653519E+03  0.12509456284E+03 0.  0.
         23    2    1    2    0    0 -0.13969821395E+02  0.10000552934E+03 -0.76239532431E+02  0.15452934367E+03  0.88716345409E+02 0.  0.
          5    1    3    3  502    0 -0.20692042990E+02 -0.11909416733E+03 -0.78019739287E+02  0.14393100240E+03  0.41800000000E+01 0. -1.
         -5    1    3    3    0  502  0.34661864384E+02  0.19088637989E+02 -0.23859005004E+02  0.46395532788E+02  0.41800000000E+01 0. -1.
        -11    1    4    4    0    0 -0.53962023335E+00  0.83719547835E+02 -0.94760457455E+02  0.12644681956E+03  0.00000000000E+00 0. -1.
         11    1    4    4    0    0 -0.13430201161E+02  0.16285981501E+02  0.18520925025E+02  0.28082524112E+02  0.00000000000E+00 0.  1.
</event>
<event>
 8    1  0.7281309E-009  0.1061586E+03  0.7561462E-02  0.1267854E+00
          1   -1    0    0  501    0  0.00000000000E+00  0.00000000000E+00  0.14573963140E+03  0.14573963140E+03  0.00000000000E+00 0. -1.
         -1   -1    0    0    0  501 -0.00000000000E+00 -0.00000000000E+00 -0.10531311612E+03  0.10531311612E+03  0.00000000000E+00 0.  1.
         25    2    1    2    0    0  0.11294002368E+02  0.26568177037E+01  0.85024354903E+02  0.15168102455E+03  0.12507349484E+03 0.  0.
         23    2    1    2    0    0 -0.11294002368E+02 -0.26568177037E+01 -0.44597839625E+02  0.99371722980E+02  0.88040665940E+02 0.  0.
          5    1    3    3  502    0 -0.32072185348E+02 -0.48573797558E+02  0.40014946036E+02  0.70758089209E+02  0.41800000000E+01 0.  1.
         -5    1    3    3    0  502  0.43366187716E+02  0.51230615262E+02  0.45009408867E+02  0.80922935338E+02  0.41800000000E+01 0.  1.
        -11    1    4    4    0    0  0.20588017695E+02 -0.35436152704E+02 -0.10429234583E+02  0.42288962213E+02  0.00000000000E+00 0. -1.
         11    1    4    4    0    0 -0.31882020062E+02  0.32779335000E+02 -0.34168605041E+02  0.57082760767E+02  0.00000000000E+00 0.  1.
</event>
<event>
 8    1  0.7281309E-009  0.7350051E+02  0.7561462E-02  0.1348578E+00
          1   -1    0    0  501    0  0.00000000000E+00  0.00000000000E+00  0.36468365529E+03  0.36468365529E+03  0.00000000000E+00 0. -1.
         -1   -1    0    0    0  501 -0.00000000000E+00 -0.00000000000E+00 -0.43368826279E+02  0.43368826279E+02  0.00000000000E+00 0.  1.
         25    2    1    2    0    0  0.55413067870E+02  0.17418395459E+02  0.20492837230E+03  0.24701565451E+03  0.12508831762E+03 0.  0.
         23    2    1    2    0    0 -0.55413067870E+02 -0.17418395459E+02  0.11638645671E+03  0.16103682706E+03  0.94937051640E+02 0.  0.
          5    1    3    3  502    0  0.49899744013E+02  0.17353050226E+01  0.96983498651E+01  0.51034558156E+02  0.41800000000E+01 0. -1.
         -5    1    3    3    0  502  0.55133238566E+01  0.15683090436E+02  0.19523002244E+03  0.19598109635E+03  0.41800000000E+01 0. -1.
        -11    1    4    4    0    0  0.66508530799E+01  0.99147624688E+01 -0.11312757426E+02  0.16447335410E+02  0.00000000000E+00 0.  1.
         11    1    4    4    0    0 -0.62063920950E+02 -0.27333157928E+02  0.12769921414E+03  0.14458949165E+03  0.00000000000E+00 0. -1.
</event>
<event>
 8    1  0.7281309E-009  0.7971363E+02  0.7561462E-02  0.1329866E+00
         -2   -1    0    0    0  501 -0.00000000000E+00  0.00000000000E+00  0.37969080790E+02  0.37969080790E+02  0.00000000000E+00 0.  1.
          2   -1    0    0  501    0  0.00000000000E+00 -0.00000000000E+00 -0.30781409240E+03  0.30781409240E+03  0.00000000000E+00 0. -1.
         25    2    1    2    0    0 -0.28863303475E+01  0.10670269729E+02 -0.15128967841E+03  0.19661670544E+03  0.12508947399E+03 0.  0.
         23    2    1    2    0    0  0.28863303475E+01 -0.10670269729E+02 -0.11855533320E+03  0.14916646776E+03  0.89850333969E+02 0.  0.
          5    1    3    3  502    0 -0.22326459979E+02 -0.44022144037E+02 -0.20777294022E+02  0.53717672397E+02  0.41800000000E+01 0. -1.
         -5    1    3    3    0  502  0.19440129632E+02  0.54692413766E+02 -0.13051238439E+03  0.14289903304E+03  0.41800000000E+01 0. -1.
        -11    1    4    4    0    0  0.20985721282E+01  0.20453960359E+02  0.54834522715E+01  0.21279961188E+02  0.00000000000E+00 0.  1.
         11    1    4    4    0    0  0.78775821932E+00 -0.31124230088E+02 -0.12403878547E+03  0.12788650657E+03  0.00000000000E+00 0. -1.
</event>
<event>
 8    1  0.7281309E-009  0.1060982E+03  0.7561462E-02  0.1267971E+00
         -1   -1    0    0    0  501 -0.00000000000E+00  0.00000000000E+00  0.32105362638E+03  0.32105362638E+03  0.00000000000E+00 0.  1.
          1   -1    0    0  501    0  0.00000000000E+00 -0.00000000000E+00 -0.47004300897E+02  0.47004300897E+02  0.00000000000E+00 0. -1.
         25    2    1    2    0    0 -0.16718072324E+02 -0.51788106849E+02  0.18487063866E+03  0.22975229057E+03  0.12508980785E+03 0.  0.
         23    2    1    2    0    0  0.16718072324E+02  0.51788106849E+02  0.89178686817E+02  0.13830563671E+03  0.90631721872E+02 0.  0.
          5    1    3    3  502    0  0.47888767663E+02 -0.15172790399E+01  0.36989812413E+02  0.60674169350E+02  0.41800000000E+01 0.  1.
         -5    1    3    3    0  502 -0.64606839987E+02 -0.50270827809E+02  0.14788082625E+03  0.16907812122E+03  0.41800000000E+01 0.  1.
        -11    1    4    4    0    0  0.12020738567E+02  0.66041525090E+02  0.99546936081E+02  0.12006487278E+03  0.00000000000E+00 0.  1.
         11    1    4    4    0    0  0.46973337562E+01 -0.14253418241E+02 -0.10368249264E+02  0.18240763931E+02  0.00000000000E+00 0. -1.
</event>
<event>
 8    1  0.7281309E-009  0.1111589E+03  0.7561462E-02  0.1258439E+00
         -1   -1    0    0    0  501 -0.00000000000E+00  0.00000000000E+00  0.48064417369E+03  0.48064417369E+03  0.00000000000E+00 0.  1.
          1   -1    0    0  501    0  0.00000000000E+00 -0.00000000000E+00 -0.45577244934E+02  0.45577244934E+02  0.00000000000E+00 0. -1.
         25    2    1    2    0    0  0.57980691392E+02  0.43216283974E+02  0.36168789664E+03  0.38947922756E+03  0.12508607576E+03 0.  0.
         23    2    1    2    0    0 -0.57980691392E+02 -0.43216283974E+02  0.73379032112E+02  0.13674219106E+03  0.89914051670E+02 0.  0.
          5    1    3    3  502    0 -0.25448912920E+02  0.98796948690E+01  0.15232456634E+02  0.31539747536E+02  0.41800000000E+01 0.  1.
         -5    1    3    3    0  502  0.83429604312E+02  0.33336589105E+02  0.34645544001E+03  0.35793948003E+03  0.41800000000E+01 0.  1.
        -11    1    4    4    0    0 -0.42045743798E+02  0.14815675534E+02  0.60582151216E+02  0.75216659451E+02  0.00000000000E+00 0.  1.
         11    1    4    4    0    0 -0.15934947594E+02 -0.58031959508E+02  0.12796880897E+02  0.61525531610E+02  0.00000000000E+00 0. -1.
</event>
<event>
 8    1  0.7281309E-009  0.1385833E+03  0.7561462E-02  0.1215248E+00
         -1   -1    0    0    0  501 -0.00000000000E+00  0.00000000000E+00  0.41670806610E+02  0.41670806610E+02  0.00000000000E+00 0.  1.
          1   -1    0    0  501    0  0.00000000000E+00 -0.00000000000E+00 -0.66254589570E+03  0.66254589570E+03  0.00000000000E+00 0. -1.
         25    2    1    2    0    0 -0.89348735623E+02  0.72873617786E+02 -0.23504946131E+03  0.29015463354E+03  0.12509077254E+03 0.  0.
         23    2    1    2    0    0  0.89348735623E+02 -0.72873617786E+02 -0.38582562778E+03  0.41406206877E+03  0.96396167020E+02 0.  0.
          5    1    3    3  502    0 -0.91086107712E+02  0.89225164983E+02 -0.24057756122E+03  0.27231019894E+03  0.41800000000E+01 0. -1.
         -5    1    3    3    0  502  0.17373720889E+01 -0.16351547198E+02  0.55280999103E+01  0.17844434599E+02  0.41800000000E+01 0. -1.
        -11    1    4    4    0    0  0.66177080008E+01 -0.44762402998E+02 -0.51720154671E+02  0.68720020231E+02  0.00000000000E+00 0.  1.
         11    1    4    4    0    0  0.82731027622E+02 -0.28111214788E+02 -0.33410547311E+03  0.34534204854E+03  0.00000000000E+00 0. -1.
</event>
<event>
 8    1  0.7281309E-009  0.9187610E+02  0.7561462E-02  0.1298371E+00
         -2   -1    0    0    0  501 -0.00000000000E+00  0.00000000000E+00  0.21916532760E+02  0.21916532760E+02  0.00000000000E+00 0.  1.
          2   -1    0    0  501    0  0.00000000000E+00 -0.00000000000E+00 -0.10724054111E+04  0.10724054111E+04  0.00000000000E+00 0. -1.
         25    2    1    2    0    0 -0.97173902237E+01 -0.11828825176E+02 -0.95487015511E+03  0.96315014919E+03  0.12508736140E+03 0.  0.
         23    2    1    2    0    0  0.97173902237E+01  0.11828825176E+02 -0.95618723222E+02  0.13117179466E+03  0.88480227774E+02 0.  0.
          5    1    3    3  502    0 -0.25962067183E+02  0.37987926436E+02 -0.75726484233E+03  0.75867293698E+03  0.41800000000E+01 0. -1.
         -5    1    3    3    0  502  0.16244676959E+02 -0.49816751612E+02 -0.19760531278E+03  0.20447721220E+03  0.41800000000E+01 0. -1.
        -11    1    4    4    0    0  0.43514644679E+02 -0.10134062356E+02 -0.71163172462E+02  0.84026309191E+02  0.00000000000E+00 0. -1.
         11    1    4    4    0    0 -0.33797254456E+02  0.21962887532E+02 -0.24455550760E+02  0.47145485472E+02  0.00000000000E+00 0.  1.
</event>
<event>
 8    1  0.7281309E-009  0.1821977E+03  0.7561462E-02  0.1165693E+00
          1   -1    0    0  501    0  0.00000000000E+00  0.00000000000E+00  0.50111572114E+03  0.50111572114E+03  0.00000000000E+00 0. -1.
         -1   -1    0    0    0  501 -0.00000000000E+00 -0.00000000000E+00 -0.74011293162E+02  0.74011293162E+02  0.00000000000E+00 0.  1.
         25    2    1    2    0    0 -0.29629067557E+02  0.15465951331E+03  0.25883073507E+03  0.32777713304E+03  0.12508818020E+03 0.  0.
         23    2    1    2    0    0  0.29629067557E+02 -0.15465951331E+03  0.16827369291E+03  0.24734988126E+03  0.89824725611E+02 0.  0.
          5    1    3    3  502    0 -0.52253487717E+02  0.38332130157E+02  0.16251266033E+03  0.17500747512E+03  0.41800000000E+01 0. -1.
         -5    1    3    3    0  502  0.22624420161E+02  0.11632738316E+03  0.96318074736E+02  0.15276965792E+03  0.41800000000E+01 0. -1.
        -11    1    4    4    0    0  0.58032894392E+02 -0.66546731518E+02  0.90518684362E+02  0.12645124169E+03  0.00000000000E+00 0.  1.
         11    1    4    4    0    0 -0.28403826835E+02 -0.88112781795E+02  0.77755008547E+02  0.12089863957E+03  0.00000000000E+00 0. -1.
</event>
<event>
 8    1  0.7281309E-009  0.1773818E+03  0.7561462E-02  0.1170361E+00
          2   -1    0    0  501    0  0.00000000000E+00  0.00000000000E+00  0.71953236073E+02  0.71953236073E+02  0.00000000000E+00 0. -1.
         -2   -1    0    0    0  501 -0.00000000000E+00 -0.00000000000E+00 -0.50994400213E+03  0.50994400213E+03  0.00000000000E+00 0.  1.
         25    2    1    2    0    0 -0.82580254713E+02 -0.12235169837E+03 -0.14603661099E+03  0.24241264194E+03  0.12509100950E+03 0.  0.
         23    2    1    2    0    0  0.82580254713E+02  0.12235169837E+03 -0.29195415507E+03  0.33948459627E+03  0.90681452780E+02 0.  0.
          5    1    3    3  502    0 -0.17666092196E+02  0.22795916084E+02 -0.46187301188E+02  0.54612121316E+02  0.41800000000E+01 0.  1.
         -5    1    3    3    0  502 -0.64914162516E+02 -0.14514761446E+03 -0.99849309801E+02  0.18780052062E+03  0.41800000000E+01 0.  1.
        -11    1    4    4    0    0 -0.14363902630E+02  0.27020439296E+02 -0.97662117169E+02  0.10234410080E+03  0.00000000000E+00 0.  1.
         11    1    4    4    0    0  0.96944157342E+02  0.95331259076E+02 -0.19429203790E+03  0.23714049547E+03  0.00000000000E+00 0. -1.
</event>
<event>
 8    1  0.7281309E-009  0.3008403E+03  0.7561462E-02  0.1084821E+00
         -1   -1    0    0    0  501 -0.00000000000E+00  0.00000000000E+00  0.12811515121E+03  0.12811515121E+03  0.00000000000E+00 0.  1.
          1   -1    0    0  501    0  0.00000000000E+00 -0.00000000000E+00 -0.10638950291E+04  0.10638950291E+04  0.00000000000E+00 0. -1.
         25    2    1    2    0    0  0.28017594057E+03 -0.84449984308E+02 -0.15666794222E+03  0.35470861778E+03  0.12507198681E+03 0.  0.
         23    2    1    2    0    0 -0.28017594057E+03  0.84449984308E+02 -0.77911193572E+03  0.83730156257E+03  0.91804906084E+02 0.  0.
          5    1    3    3  502    0  0.15702523120E+03 -0.13952041085E+01 -0.31045850952E+02  0.16012553540E+03  0.41800000000E+01 0. -1.
         -5    1    3    3    0  502  0.12315070937E+03 -0.83054780199E+02 -0.12562209126E+03  0.19458308238E+03  0.41800000000E+01 0. -1.
        -11    1    4    4    0    0 -0.23008872336E+03  0.86637590053E+02 -0.54511954790E+03  0.59799850680E+03  0.00000000000E+00 0.  1.
         11    1    4    4    0    0 -0.50087217215E+02 -0.21876057448E+01 -0.23399238782E+03  0.23930305577E+03  0.00000000000E+00 0. -1.
</event>
<event>
 8    1  0.7281309E-009  0.1371568E+03  0.7561462E-02  0.1217207E+00
         -2   -1    0    0    0  501 -0.00000000000E+00  0.00000000000E+00  0.34309695455E+02  0.34309695455E+02  0.00000000000E+00 0.  1.
          2   -1    0    0  501    0  0.00000000000E+00 -0.00000000000E+00 -0.73762290148E+03  0.73762290148E+03  0.00000000000E+00 0. -1.
         25    2    1    2    0    0 -0.13401244139E+02  0.11135108090E+03 -0.44694793792E+03  0.47748619446E+03  0.12510775404E+03 0.  0.
         23    2    1    2    0    0  0.13401244139E+02 -0.11135108090E+03 -0.25636526810E+03  0.29444640248E+03  0.91634473210E+02 0.  0.
          5    1    3    3  502    0 -0.44916563950E+02  0.10639910386E+03 -0.41971105156E+03  0.43533103062E+03  0.41800000000E+01 0.  1.
         -5    1    3    3    0  502  0.31515319810E+02  0.49519770444E+01 -0.27236886360E+02  0.42155163836E+02  0.41800000000E+01 0.  1.
        -11    1    4    4    0    0  0.79266788866E+00 -0.11373690169E+03 -0.25756242283E+03  0.28155836479E+03  0.00000000000E+00 0.  1.
         11    1    4    4    0    0  0.12608576251E+02  0.23858207903E+01  0.11971547317E+01  0.12888037685E+02  0.00000000000E+00 0. -1.
</event>
<event>
 8    1  0.7281309E-009  0.1120986E+03  0.7561462E-02  0.1256732E+00
          2   -1    0    0  501    0  0.00000000000E+00  0.00000000000E+00  0.72854094722E+02  0.72854094722E+02  0.00000000000E+00 0. -1.
         -2   -1    0    0    0  501 -0.00000000000E+00 -0.00000000000E+00 -0.22927280241E+03  0.22927280241E+03  0.00000000000E+00 0.  1.
         25    2    1    2    0    0 -0.25605615572E+02 -0.54831549683E+02 -0.13298932076E+03  0.19234233448E+03  0.12508903952E+03 0.  0.
         23    2    1    2    0    0  0.25605615572E+02  0.54831549683E+02 -0.23429386936E+02  0.10978456266E+03  0.88552626369E+02 0.  0.
          5    1    3    3  502    0 -0.51562257421E+02  0.47037288786E+01 -0.95763294008E+01  0.52820166041E+02  0.41800000000E+01 0.  1.
         -5    1    3    3    0  502  0.25956641849E+02 -0.59535278562E+02 -0.12341299136E+03  0.13952216844E+03  0.41800000000E+01 0.  1.
        -11    1    4    4    0    0 -0.27543415157E+02 -0.40607416228E+01 -0.41784770614E+01  0.28152957422E+02  0.00000000000E+00 0. -1.
         11    1    4    4    0    0  0.53149030730E+02  0.58892291306E+02 -0.19250909874E+02  0.81631605239E+02  0.00000000000E+00 0.  1.
</event>
<event>
 8    1  0.7281309E-009  0.1088434E+03  0.7561462E-02  0.1262727E+00
          4   -1    0    0  501    0  0.00000000000E+00  0.00000000000E+00  0.89137801038E+03  0.89137801038E+03  0.00000000000E+00 0. -1.
         -4   -1    0    0    0  501 -0.00000000000E+00 -0.00000000000E+00 -0.16334795461E+02  0.16334795461E+02  0.00000000000E+00 0.  1.
         25    2    1    2    0    0 -0.15048756431E+02  0.90217108055E+01  0.68060278945E+03  0.69222528869E+03  0.12509131449E+03 0.  0.
         23    2    1    2    0    0  0.15048756431E+02 -0.90217108055E+01  0.19444042547E+03  0.21548751715E+03  0.91213675810E+02 0.  0.
          5    1    3    3  502    0  0.13726573822E+02  0.62702259457E+02  0.30685936105E+03  0.31352851870E+03  0.41800000000E+01 0.  1.
         -5    1    3    3    0  502 -0.28775330254E+02 -0.53680548651E+02  0.37374342839E+03  0.37869676999E+03  0.41800000000E+01 0.  1.
        -11    1    4    4    0    0 -0.26416678223E+02  0.26717328882E+02  0.91094211501E+02  0.98538377904E+02  0.00000000000E+00 0. -1.
         11    1    4    4    0    0  0.41465434654E+02 -0.35739039688E+02  0.10334621397E+03  0.11694913925E+03  0.00000000000E+00 0.  1.
</event>
<event>
 8    1  0.7281309E-009  0.4546143E+03  0.7561462E-02  0.1026355E+00
         -2   -1    0    0    0  501 -0.00000000000E+00  0.00000000000E+00  0.13251772283E+03  0.13251772283E+03  0.00000000000E+00 0.  1.
          2   -1    0    0  501    0  0.00000000000E+00 -0.00000000000E+00 -0.16245812222E+04  0.16245812222E+04  0.00000000000E+00 0. -1.
         25    2    1    2    0    0  0.42838638638E+03  0.13458642922E+03 -0.83130127604E+03  0.95306742456E+03  0.12508917320E+03 0.  0.
         23    2    1    2    0    0 -0.42838638638E+03 -0.13458642922E+03 -0.66076222337E+03  0.80403152051E+03  0.90727984481E+02 0.  0.
          5    1    3    3  502    0  0.37702741915E+03  0.13356476918E+03 -0.63812072475E+03  0.75312997159E+03  0.41800000000E+01 0. -1.
         -5    1    3    3    0  502  0.51358967238E+02  0.10216600469E+01 -0.19318055129E+03  0.19993745297E+03  0.41800000000E+01 0. -1.
        -11    1    4    4    0    0 -0.17102331207E+03 -0.99706128045E+02 -0.30301126298E+03  0.36194766298E+03  0.00000000000E+00 0.  1.
         11    1    4    4    0    0 -0.25736307431E+03 -0.34880301178E+02 -0.35775096039E+03  0.44208385753E+03  0.00000000000E+00 0. -1.
</event>
<event>
 8    1  0.7281309E-009  0.8250982E+02  0.7561462E-02  0.1322076E+00
          2   -1    0    0  501    0  0.00000000000E+00  0.00000000000E+00  0.21694724866E+03  0.21694724866E+03  0.00000000000E+00 0. -1.
         -2   -1    0    0    0  501 -0.00000000000E+00 -0.00000000000E+00 -0.68941717534E+02  0.68941717534E+02  0.00000000000E+00 0.  1.
         25    2    1    2    0    0  0.79052139935E+01 -0.12009616525E+02  0.18615432778E+02  0.12728336458E+03  0.12509115582E+03 0.  0.
         23    2    1    2    0    0 -0.79052139935E+01  0.12009616525E+02  0.12939009835E+03  0.15860560161E+03  0.90593686394E+02 0.  0.
          5    1    3    3  502    0  0.61305079514E+02 -0.51192285785E+01  0.34931966744E+02  0.70867721680E+02  0.41800000000E+01 0. -1.
         -5    1    3    3    0  502 -0.53399865521E+02 -0.68903879463E+01 -0.16316533966E+02  0.56415642905E+02  0.41800000000E+01 0. -1.
        -11    1    4    4    0    0  0.78537376663E+01  0.26687476799E+02  0.13376748090E+03  0.13662957791E+03  0.00000000000E+00 0. -1.
         11    1    4    4    0    0 -0.15758951660E+02 -0.14677860274E+02 -0.43773825534E+01  0.21976023700E+02  0.00000000000E+00 0.  1.
</event>
<event>
 8    1  0.7281309E-009  0.8135697E+02  0.7561462E-02  0.1325244E+00
          3   -1    0    0  501    0  0.00000000000E+00  0.00000000000E+00  0.20989940306E+03  0.20989940306E+03  0.00000000000E+00 0. -1.
         -3   -1    0    0    0  501 -0.00000000000E+00 -0.00000000000E+00 -0.85278701386E+02  0.85278701386E+02  0.00000000000E+00 0.  1.
         25    2    1    2    0    0  0.31530652200E+00  0.80667111839E+02  0.36078613079E+02  0.15315354369E+03  0.12508820597E+03 0.  0.
         23    2    1    2    0    0 -0.31530652200E+00 -0.80667111839E+02  0.88542088595E+02  0.14202456076E+03  0.76315084059E+02 0.  0.
          5    1    3    3  502    0 -0.37913355038E+01  0.18639135450E+02 -0.46089552580E+02  0.50035096205E+02  0.41800000000E+01 0. -1.
         -5    1    3    3    0  502  0.41066420258E+01  0.62027976389E+02  0.82168165659E+02  0.10311844748E+03  0.41800000000E+01 0. -1.
        -11    1    4    4    0    0 -0.34459447103E+01 -0.40817224222E+02 -0.40603186449E+01  0.41163169407E+02  0.00000000000E+00 0.  1.
         11    1    4    4    0    0  0.31306381883E+01 -0.39849887617E+02  0.92602407239E+02  0.10086139135E+03  0.00000000000E+00 0. -1.
</event>
<event>
 8    1  0.7281309E-009  0.1269968E+03  0.7561462E-02  0.1231981E+00
          3   -1    0    0  501    0  0.00000000000E+00  0.00000000000E+00  0.79629900633E+02  0.79629900633E+02  0.00000000000E+00 0. -1.
         -3   -1    0    0    0  501 -0.00000000000E+00 -0.00000000000E+00 -0.29403801744E+03  0.29403801744E+03  0.00000000000E+00 0.  1.
         25    2    1    2    0    0 -0.41772917236E+02 -0.96855563398E+02 -0.64520186812E+02  0.17588533534E+03  0.12508724917E+03 0.  0.
         23    2    1    2    0    0  0.41772917236E+02  0.96855563398E+02 -0.14988792999E+03  0.19778258273E+03  0.74334256560E+02 0.  0.
          5    1    3    3  502    0 -0.39581600963E+02 -0.77521132815E+01  0.26486655891E+02  0.48433601305E+02  0.41800000000E+01 0. -1.
         -5    1    3    3    0  502 -0.21913162736E+01 -0.89103450116E+02 -0.91006842704E+02  0.12745173403E+03  0.41800000000E+01 0. -1.
        -11    1    4    4    0    0 -0.45378578616E+01  0.71060960934E+02 -0.11163888901E+03  0.13241409994E+03  0.00000000000E+00 0.  1.
         11    1    4    4    0    0  0.46310775098E+02  0.25794602464E+02 -0.38249040981E+02  0.65368482791E+02  0.00000000000E+00 0. -1.
</event>
<event>
 8    1  0.7281309E-009  0.1324764E+03  0.7561462E-02  0.1223827E+00
         -2   -1    0    0    0  501 -0.00000000000E+00  0.00000000000E+00  0.22416028796E+02  0.22416028796E+02  0.00000000000E+00 0.  1.
          2   -1    0    0  501    0  0.00000000000E+00 -0.00000000000E+00 -0.11913503987E+04  0.11913503987E+04  0.00000000000E+00 0. -1.
         25    2    1    2    0    0 -0.21410596701E+01 -0.12176076323E+03 -0.59260118643E+03  0.61778043677E+03  0.12508490839E+03 0.  0.
         23    2    1    2    0    0  0.21410596701E+01  0.12176076323E+03 -0.57633318347E+03  0.59598599071E+03  0.90604057101E+02 0.  0.
          5    1    3    3  502    0  0.87103768602E+01 -0.11710792197E+03 -0.26434203619E+03  0.28928242351E+03  0.41800000000E+01 0. -1.
         -5    1    3    3    0  502 -0.10851436530E+02 -0.46528412576E+01 -0.32825915023E+03  0.32849801327E+03  0.41800000000E+01 0. -1.
        -11    1    4    4    0    0 -0.22208507951E+02  0.18727340196E+02 -0.40785599024E+02  0.50073907217E+02  0.00000000000E+00 0.  1.
         11    1    4    4    0    0  0.24349567621E+02  0.10303342303E+03 -0.53554758444E+03  0.54591208350E+03  0.00000000000E+00 0. -1.
</event>
<event>
 8    1  0.7281309E-009  0.1377099E+03  0.7561462E-02  0.1216444E+00
         -4   -1    0    0    0  501 -0.00000000000E+00  0.00000000000E+00  0.77055220940E+03  0.77055220940E+03  0.00000000000E+00 0.  1.
          4   -1    0    0  501    0  0.00000000000E+00 -0.00000000000E+00 -0.36241853262E+02  0.36241853262E+02  0.00000000000E+00 0. -1.
         25    2    1    2    0    0 -0.30832439123E+02 -0.11638493715E+03  0.46748660188E+03  0.49868227887E+03  0.12507677412E+03 0.  0.
         23    2    1    2    0    0  0.30832439123E+02  0.11638493715E+03  0.26682375425E+03  0.30811178379E+03  0.96134606556E+02 0.  0.
          5    1    3    3  502    0 -0.63916352974E+02 -0.95330857860E+02  0.42694622818E+03  0.44212422100E+03  0.41800000000E+01 0.  1.
         -5    1    3    3    0  502  0.33083913851E+02 -0.21054079288E+02  0.40540373699E+02  0.56558057870E+02  0.41800000000E+01 0.  1.
        -11    1    4    4    0    0  0.21559309581E+01  0.30693932352E+02  0.18063418584E+03  0.18323611712E+03  0.00000000000E+00 0.  1.
         11    1    4    4    0    0  0.28676508165E+02  0.85691004796E+02  0.86189568413E+02  0.12487566667E+03  0.00000000000E+00 0. -1.
</event>
<event>
 8    1  0.7281309E-009  0.1921929E+03  0.7561462E-02  0.1156498E+00
         -1   -1    0    0    0  501 -0.00000000000E+00  0.00000000000E+00  0.11731557407E+03  0.11731557407E+03  0.00000000000E+00 0.  1.
          1   -1    0    0  501    0  0.00000000000E+00 -0.00000000000E+00 -0.42109767072E+03  0.42109767072E+03  0.00000000000E+00 0. -1.
         25    2    1    2    0    0  0.15390176232E+03  0.79381327283E+02 -0.26249971245E+03  0.33844151304E+03  0.12509760647E+03 0.  0.
         23    2    1    2    0    0 -0.15390176232E+03 -0.79381327283E+02 -0.41282384200E+02  0.19997173176E+03  0.91089575095E+02 0.  0.
          5    1    3    3  502    0  0.14749318395E+03  0.10342494581E+03 -0.25477154266E+03  0.31205283219E+03  0.41800000000E+01 0. -1.
         -5    1    3    3    0  502  0.64085783690E+01 -0.24043618528E+02 -0.77281697875E+01  0.26388680848E+02  0.41800000000E+01 0. -1.
        -11    1    4    4    0    0 -0.19729236204E+02 -0.30176798710E+02  0.23528526694E+02  0.43051986133E+02  0.00000000000E+00 0.  1.
         11    1    4    4    0    0 -0.13417252612E+03 -0.49204528573E+02 -0.64810910894E+02  0.15691974563E+03  0.00000000000E+00 0. -1.
</event>
<event>
 8    1  0.7281309E-009  0.1406195E+03  0.7561462E-02  0.1212498E+00
          2   -1    0    0  501    0  0.00000000000E+00  0.00000000000E+00  0.95208481844E+03  0.95208481844E+03  0.00000000000E+00 0. -1.
         -2   -1    0    0    0  501 -0.00000000000E+00 -0.00000000000E+00 -0.30389488977E+02  0.30389488977E+02  0.00000000000E+00 0.  1.
         25    2    1    2    0    0  0.77982059466E+02 -0.73389722722E+02  0.70703750047E+03  0.72595932983E+03  0.12509064112E+03 0.  0.
         23    2    1    2    0    0 -0.77982059466E+02  0.73389722722E+02  0.21465782899E+03  0.25651497759E+03  0.90855364066E+02 0.  0.
          5    1    3    3  502    0  0.82882177725E+02 -0.36812006892E+01  0.51294704780E+03  0.51962982292E+03  0.41800000000E+01 0.  1.
         -5    1    3    3    0  502 -0.49001182590E+01 -0.69708522032E+02  0.19409045268E+03  0.20632950691E+03  0.41800000000E+01 0.  1.
        -11    1    4    4    0    0 -0.55806679590E+02  0.47234088349E+01  0.43979867242E+02  0.71210426206E+02  0.00000000000E+00 0.  1.
         11    1    4    4    0    0 -0.22175379876E+02  0.68666313887E+02  0.17067796175E+03  0.18530455138E+03  0.00000000000E+00 0. -1.
</event>
<event>
 8    1  0.7281309E-009  0.8978541E+02  0.7561462E-02  0.1303372E+00
         -2   -1    0    0    0  501 -0.00000000000E+00  0.00000000000E+00  0.13209883557E+03  0.13209883557E+03  0.00000000000E+00 0.  1.
          2   -1    0    0  501    0  0.00000000000E+00 -0.00000000000E+00 -0.45187737493E+03  0.45187737493E+03  0.00000000000E+00 0. -1.
         25    2    1    2    0    0  0.51121906851E+02 -0.42704353276E+02  0.84107035292E+02  0.16479786411E+03  0.12508889432E+03 0.  0.
         23    2    1    2    0    0 -0.51121906851E+02  0.42704353276E+02 -0.40388557465E+03  0.41917834639E+03  0.90276339767E+02 0.  0.
          5    1    3    3  502    0  0.15672265587E+02 -0.42149917333E+02 -0.23862386661E+02  0.51079558896E+02  0.41800000000E+01 0. -1.
         -5    1    3    3    0  502  0.35449641263E+02 -0.55443594364E+00  0.10796942195E+03  0.11371830522E+03  0.41800000000E+01 0. -1.
        -11    1    4    4    0    0 -0.19574204195E+02 -0.20328986253E+02 -0.42727322465E+02  0.51205871118E+02  0.00000000000E+00 0.  1.
         11    1    4    4    0    0 -0.31547702655E+02  0.63033339529E+02 -0.36115825219E+03  0.36797247527E+03  0.00000000000E+00 0. -1.
</event>
<event>
 8    1  0.7281309E-009  0.3897124E+03  0.7561462E-02  0.1047401E+00
         -2   -1    0    0    0  501 -0.00000000000E+00  0.00000000000E+00  0.26373412366E+03  0.26373412366E+03  0.00000000000E+00 0.  1.
          2   -1    0    0  501    0  0.00000000000E+00 -0.00000000000E+00 -0.60678959828E+03  0.60678959828E+03  0.00000000000E+00 0. -1.
         25    2    1    2    0    0 -0.31716923203E+03 -0.21753610982E+03 -0.19042269162E+03  0.44701969985E+03  0.12509008652E+03 0.  0.
         23    2    1    2    0    0  0.31716923203E+03  0.21753610982E+03 -0.15263278301E+03  0.42350402210E+03  0.90225326061E+02 0.  0.
          5    1    3    3  502    0 -0.10970070620E+03 -0.12115457481E+03 -0.13393169658E+03  0.21134769383E+03  0.41800000000E+01 0. -1.
         -5    1    3    3    0  502 -0.20746852583E+03 -0.96381535013E+02 -0.56490995040E+02  0.23567200602E+03  0.41800000000E+01 0. -1.
        -11    1    4    4    0    0  0.19237656473E+03  0.15760317530E+03 -0.56694534407E+02  0.25507209521E+03  0.00000000000E+00 0. -1.
         11    1    4    4    0    0  0.12479266729E+03  0.59932934526E+02 -0.95938248600E+02  0.16843192689E+03  0.00000000000E+00 0.  1.
</event>
<event>
 8    1  0.7281309E-009  0.9370182E+02  0.7561462E-02  0.1294127E+00
          1   -1    0    0  501    0  0.00000000000E+00  0.00000000000E+00  0.78148240385E+02  0.78148240385E+02  0.00000000000E+00 0. -1.
         -1   -1    0    0    0  501 -0.00000000000E+00 -0.00000000000E+00 -0.24906303531E+03  0.24906303531E+03  0.00000000000E+00 0.  1.
         25    2    1    2    0    0 -0.42404872267E+02  0.45239641736E+02 -0.39024924109E+02  0.14497075871E+03  0.12509507505E+03 0.  0.
         23    2    1    2    0    0  0.42404872267E+02 -0.45239641736E+02 -0.13188987081E+03  0.18224051698E+03  0.10941603918E+03 0.  0.
          5    1    3    3  502    0 -0.37578330534E+02  0.13339094951E+02  0.41753630043E+02  0.57886962276E+02  0.41800000000E+01 0.  1.
         -5    1    3    3    0  502 -0.48265417331E+01  0.31900546786E+02 -0.80778554152E+02  0.87083796433E+02  0.41800000000E+01 0.  1.
        -11    1    4    4    0    0 -0.31112469121E+02 -0.69247689510E+01 -0.74808498233E+01  0.32739903389E+02  0.00000000000E+00 0. -1.
         11    1    4    4    0    0  0.73517341388E+02 -0.38314872785E+02 -0.12440902099E+03  0.14950061359E+03  0.00000000000E+00 0.  1.
</event>
<event>
 8    1  0.7281309E-009  0.1329092E+03  0.7561462E-02  0.1223202E+00
         -4   -1    0    0    0  501 -0.00000000000E+00  0.00000000000E+00  0.37423884018E+03  0.37423884018E+03  0.00000000000E+00 0.  1.
          4   -1    0    0  501    0  0.00000000000E+00 -0.00000000000E+00 -0.52274732063E+02  0.52274732063E+02  0.00000000000E+00 0. -1.
         25    2    1    2    0    0 -0.13835725080E+01 -0.87825194034E+02  0.17666866177E+03  0.23361280238E+03  0.12509175194E+03 0.  0.
         23    2    1    2    0    0  0.13835725080E+01  0.87825194034E+02  0.14529544634E+03  0.19290076986E+03  0.91568342267E+02 0.  0.
          5    1    3    3  502    0  0.51595500416E+02 -0.21916479553E+02  0.28655126169E+02  0.63095296140E+02  0.41800000000E+01 0. -1.
         -5    1    3    3    0  502 -0.52979072924E+02 -0.65908714481E+02  0.14801353560E+03  0.17051750624E+03  0.41800000000E+01 0. -1.
        -11    1    4    4    0    0  0.45122060954E+02  0.44077314856E+02  0.56508611164E+02  0.84687857484E+02  0.00000000000E+00 0.  1.
         11    1    4    4    0    0 -0.43738488446E+02  0.43747879178E+02  0.88786835181E+02  0.10821291238E+03  0.00000000000E+00 0. -1.
</event>
<event>
 8    1  0.7281309E-009  0.1438191E+03  0.7561462E-02  0.1208281E+00
          2   -1    0    0  501    0  0.00000000000E+00  0.00000000000E+00  0.44287208009E+02  0.44287208009E+02  0.00000000000E+00 0. -1.
         -2   -1    0    0    0  501 -0.00000000000E+00 -0.00000000000E+00 -0.77828360549E+03  0.77828360549E+03  0.00000000000E+00 0.  1.
         25    2    1    2    0    0  0.74616526797E+02 -0.10578495893E+03 -0.55602157175E+03  0.58443609507E+03  0.12508987716E+03 0.  0.
         23    2    1    2    0    0 -0.74616526797E+02  0.10578495893E+03 -0.17797482573E+03  0.23813471842E+03  0.90967147469E+02 0.  0.
          5    1    3    3  502    0  0.15481315511E+02 -0.17873698917E+02 -0.66373219593E+01  0.24913182970E+02  0.41800000000E+01 0. -1.
         -5    1    3    3    0  502  0.59135211286E+02 -0.87911260013E+02 -0.54938424979E+03  0.55952291210E+03  0.41800000000E+01 0. -1.
        -11    1    4    4    0    0 -0.98937393897E+01  0.90566507723E+02 -0.92331608387E+02  0.12971239073E+03  0.00000000000E+00 0. -1.
         11    1    4    4    0    0 -0.64722787408E+02  0.15218451206E+02 -0.85643217342E+02  0.10842232770E+03  0.00000000000E+00 0.  1.
</event>
<event>
 8    1  0.7281309E-009  0.1005720E+03  0.7561462E-02  0.1279098E+00
         -2   -1    0    0    0  501 -0.00000000000E+00  0.00000000000E+00  0.12496609562E+03  0.12496609562E+03  0.00000000000E+00 0. -1.
          2   -1    0    0  501    0  0.00000000000E+00 -0.00000000000E+00 -0.11168883614E+03  0.11168883614E+03  0.00000000000E+00 0.  1.
         25    2    1    2    0    0  0.40055122034E+02  0.28085181884E+02  0.19333916496E+02  0.13570325787E+03  0.12509349954E+03 0.  0.
         23    2    1    2    0    0 -0.40055122034E+02 -0.28085181884E+02 -0.60566570076E+01  0.10095167389E+03  0.88098621581E+02 0.  0.
          5    1    3    3  502    0 -0.38312678832E+02 -0.10547449518E+02 -0.13641155610E+02  0.42221600834E+02  0.41800000000E+01 0.  1.
         -5    1    3    3    0  502  0.78367800866E+02  0.38632631403E+02  0.32975072106E+02  0.93481657035E+02  0.41800000000E+01 0.  1.
        -11    1    4    4    0    0  0.12530595368E+02  0.26462241565E+01 -0.32213158801E+02  0.34665630277E+02  0.00000000000E+00 0.  1.
         11    1    4    4    0    0 -0.52585717402E+02 -0.30731406041E+02  0.26156501793E+02  0.66286043614E+02  0.00000000000E+00 0. -1.
</event>
<event>
 8    1  0.7281309E-009  0.1494390E+03  0.7561462E-02  0.1201164E+00
          2   -1    0    0  501    0  0.00000000000E+00  0.00000000000E+00  0.36165216444E+03  0.36165216444E+03  0.00000000000E+00 0. -1.
         -2   -1    0    0    0  501 -0.00000000000E+00 -0.00000000000E+00 -0.78412193558E+02  0.78412193558E+02  0.00000000000E+00 0.  1.
         25    2    1    2    0    0  0.69939583525E+02 -0.97187210518E+02  0.21272089876E+03  0.27428858116E+03  0.12508855164E+03 0.  0.
         23    2    1    2    0    0 -0.69939583525E+02  0.97187210518E+02  0.70519072119E+02  0.16577577684E+03  0.90397839699E+02 0.  0.
          5    1    3    3  502    0 -0.22546964632E+02  0.37130785842E+01  0.24503612698E+01  0.23358707949E+02  0.41800000000E+01 0. -1.
         -5    1    3    3    0  502  0.92486548157E+02 -0.10090028910E+03  0.21027053749E+03  0.25092987321E+03  0.41800000000E+01 0. -1.
        -11    1    4    4    0    0 -0.62909329021E+02  0.27480651781E+02  0.66536181210E+02  0.95602475440E+02  0.00000000000E+00 0. -1.
         11    1    4    4    0    0 -0.70302545044E+01  0.69706558737E+02  0.39828909085E+01  0.70173301400E+02  0.00000000000E+00 0.  1.
</event>
<event>
 8    1  0.7281309E-009  0.1111715E+03  0.7561462E-02  0.1258416E+00
         -2   -1    0    0    0  501 -0.00000000000E+00  0.00000000000E+00  0.39508010483E+02  0.39508010483E+02  0.00000000000E+00 0.  1.
          2   -1    0    0  501    0  0.00000000000E+00 -0.00000000000E+00 -0.36870968788E+03  0.36870968788E+03  0.00000000000E+00 0. -1.
         25    2    1    2    0    0  0.43349275493E+02  0.31278219666E+02 -0.18683465432E+03  0.23111647811E+03  0.12510056631E+03 0.  0.
         23    2    1    2    0    0 -0.43349275493E+02 -0.31278219666E+02 -0.14236702308E+03  0.17710122025E+03  0.90768861630E+02 0.  0.
          5    1    3    3  502    0 -0.13663205505E+02  0.66913863247E+02 -0.10124632682E+03  0.12219836077E+03  0.41800000000E+01 0. -1.
         -5    1    3    3    0  502  0.57012480998E+02 -0.35635643581E+02 -0.85588327493E+02  0.10891811735E+03  0.41800000000E+01 0. -1.
        -11    1    4    4    0    0 -0.59997573022E+02 -0.12179778973E+02 -0.43660825444E+02  0.75195235639E+02  0.00000000000E+00 0.  1.
         11    1    4    4    0    0  0.16648297529E+02 -0.19098440693E+02 -0.98706197634E+02  0.10190598461E+03  0.00000000000E+00 0. -1.
</event>
<event>
 8    1  0.7281309E-009  0.2961103E+03  0.7561462E-02  0.1087201E+00
          2   -1    0    0  501    0  0.00000000000E+00  0.00000000000E+00  0.18338552596E+04  0.18338552596E+04  0.00000000000E+00 0. -1.
         -2   -1    0    0    0  501 -0.00000000000E+00 -0.00000000000E+00 -0.51698894762E+02  0.51698894762E+02  0.00000000000E+00 0.  1.
         25    2    1    2    0    0  0.15183774066E+03  0.24154850030E+03  0.79236344031E+03  0.85140415293E+03  0.12509529404E+03 0.  0.
         23    2    1    2    0    0 -0.15183774066E+03 -0.24154850030E+03  0.98979292457E+03  0.10341500015E+04  0.91519476305E+02 0.  0.
          5    1    3    3  502    0  0.39921658124E+02  0.43347806351E+01  0.51297712321E+02  0.65279834558E+02  0.41800000000E+01 0. -1.
         -5    1    3    3    0  502  0.11191608254E+03  0.23721371966E+03  0.74106572799E+03  0.78612431837E+03  0.41800000000E+01 0. -1.
        -11    1    4    4    0    0 -0.66145916396E+02 -0.62388659187E+02  0.19880943193E+03  0.21861568396E+03  0.00000000000E+00 0.  1.
         11    1    4    4    0    0 -0.85691824268E+02 -0.17915984111E+03  0.79098349265E+03  0.81553431752E+03  0.00000000000E+00 0. -1.
</event>
<event>
 8    1  0.7281309E-009  0.1007011E+03  0.7561462E-02  0.1278829E+00
          1   -1    0    0  501    0  0.00000000000E+00  0.00000000000E+00  0.17546354478E+03  0.17546354478E+03  0.00000000000E+00 0. -1.
         -1   -1    0    0    0  501 -0.00000000000E+00 -0.00000000000E+00 -0.88876843293E+02  0.88876843293E+02  0.00000000000E+00 0.  1.
         25    2    1    2    0    0  0.36120912932E+02  0.40020205067E+02  0.71034641947E+02  0.15362214947E+03  0.12508999675E+03 0.  0.
         23    2    1    2    0    0 -0.36120912932E+02 -0.40020205067E+02  0.15552059539E+02  0.11071823860E+03  0.95448020611E+02 0.  0.
          5    1    3    3  502    0  0.59437198540E+02  0.20538894895E+02  0.95477879336E+02  0.11440334181E+03  0.41800000000E+01 0.  1.
         -5    1    3    3    0  502 -0.23316285608E+02  0.19481310172E+02 -0.24443237389E+02  0.39218807664E+02  0.41800000000E+01 0.  1.
        -11    1    4    4    0    0  0.12868355899E+02 -0.54995252285E+02  0.18427045167E+02  0.59410675396E+02  0.00000000000E+00 0. -1.
         11    1    4    4    0    0 -0.48989268831E+02  0.14975047218E+02 -0.28749856284E+01  0.51307563206E+02  0.00000000000E+00 0.  1.
</event>
<event>
 8    1  0.7281309E-009  0.9321663E+02  0.7561462E-02  0.1295244E+00
         -3   -1    0    0    0  501 -0.00000000000E+00  0.00000000000E+00  0.30274786424E+03  0.30274786424E+03  0.00000000000E+00 0.  1.
          3   -1    0    0  501    0  0.00000000000E+00 -0.00000000000E+00 -0.56687351492E+02  0.56687351492E+02  0.00000000000E+00 0. -1.
         25    2    1    2    0    0  0.63860578129E+02 -0.31775379232E+02  0.13445263149E+03  0.19700871468E+03  0.12508827035E+03 0.  0.
         23    2    1    2    0    0 -0.63860578129E+02  0.31775379232E+02  0.11160788125E+03  0.16242650105E+03  0.94011706299E+02 0.  0.
          5    1    3    3  502    0  0.70971900479E+02 -0.77435579904E+01  0.15072905239E+03  0.16683432795E+03  0.41800000000E+01 0.  1.
         -5    1    3    3    0  502 -0.71113223497E+01 -0.24031821242E+02 -0.16276420893E+02  0.30174386735E+02  0.41800000000E+01 0.  1.
        -11    1    4    4    0    0 -0.20343668650E+01  0.27457749299E+02  0.94069440149E+02  0.98015948779E+02  0.00000000000E+00 0.  1.
         11    1    4    4    0    0 -0.61826211264E+02  0.43176299329E+01  0.17538441105E+02  0.64410552272E+02  0.00000000000E+00 0. -1.
</event>
<event>
 8    1  0.7281309E-009  0.1219221E+03  0.7561462E-02  0.1239959E+00
          2   -1    0    0  501    0  0.00000000000E+00  0.00000000000E+00  0.13050807414E+04  0.13050807414E+04  0.00000000000E+00 0.  1.
         -2   -1    0    0    0  501 -0.00000000000E+00 -0.00000000000E+00 -0.21237870101E+02  0.21237870101E+02  0.00000000000E+00 0. -1.
         25    2    1    2    0    0 -0.77204151685E+02  0.42866237483E+02  0.10064625701E+04  0.10180420982E+04  0.12507922823E+03 0.  0.
         23    2    1    2    0    0  0.77204151685E+02 -0.42866237483E+02  0.27738030112E+03  0.30827651323E+03  0.10147207401E+03 0.  0.
          5    1    3    3  502    0 -0.11929203077E+01  0.63948577480E+02  0.63776183418E+03  0.64097462755E+03  0.41800000000E+01 0. -1.
         -5    1    3    3    0  502 -0.76011231377E+02 -0.21082339997E+02  0.36870073595E+03  0.37706747068E+03  0.41800000000E+01 0. -1.
        -11    1    4    4    0    0  0.59616914050E+02 -0.53585899962E+02  0.27625419297E+03  0.28764909916E+03  0.00000000000E+00 0.  1.
         11    1    4    4    0    0  0.17587237635E+02  0.10719662479E+02  0.11261081478E+01  0.20627414061E+02  0.00000000000E+00 0. -1.
</event>
<event>
 8    1  0.7281309E-009  0.9707859E+02  0.7561462E-02  0.1286562E+00
         -1   -1    0    0    0  501 -0.00000000000E+00  0.00000000000E+00  0.24155796501E+03  0.24155796501E+03  0.00000000000E+00 0.  1.
          1   -1    0    0  501    0  0.00000000000E+00 -0.00000000000E+00 -0.60547835146E+02  0.60547835146E+02  0.00000000000E+00 0. -1.
         25    2    1    2    0    0  0.21718039781E+02 -0.53040292750E+02  0.10895737835E+03  0.17551095959E+03  0.12508973072E+03 0.  0.
         23    2    1    2    0    0 -0.21718039781E+02  0.53040292750E+02  0.72052751507E+02  0.12659484056E+03  0.86889060013E+02 0.  0.
          5    1    3    3  502    0 -0.29778769854E+02 -0.53673413868E+02  0.79233508168E+01  0.62031140393E+02  0.41800000000E+01 0. -1.
         -5    1    3    3    0  502  0.51496809635E+02  0.63312111792E+00  0.10103402754E+03  0.11347981920E+03  0.41800000000E+01 0. -1.
        -11    1    4    4    0    0  0.46601727902E+01  0.54353789349E+02  0.81901947652E+02  0.98407218517E+02  0.00000000000E+00 0.  1.
         11    1    4    4    0    0 -0.26378212571E+02 -0.13134965994E+01 -0.98491961451E+01  0.28187622044E+02  0.00000000000E+00 0. -1.
</event>
<event>
 8    1  0.7281309E-009  0.4816343E+02  0.7561462E-02  0.1455507E+00
          3   -1    0    0  501    0  0.00000000000E+00  0.00000000000E+00  0.12571458799E+03  0.12571458799E+03  0.00000000000E+00 0. -1.
         -3   -1    0    0    0  501 -0.00000000000E+00 -0.00000000000E+00 -0.10119601761E+03  0.10119601761E+03  0.00000000000E+00 0.  1.
         25    2    1    2    0    0 -0.25398544785E+02  0.83449045168E+01  0.26221149288E+02  0.13057144591E+03  0.12508649131E+03 0.  0.
         23    2    1    2    0    0  0.25398544785E+02 -0.83449045168E+01 -0.17025789064E+01  0.96339159685E+02  0.92539782825E+02 0.  0.
          5    1    3    3  502    0 -0.40408861211E+02  0.11215220648E+02 -0.42615479511E+02  0.59935037604E+02  0.41800000000E+01 0.  1.
         -5    1    3    3    0  502  0.15010316426E+02 -0.28703161316E+01  0.68836628799E+02  0.70636408306E+02  0.41800000000E+01 0.  1.
        -11    1    4    4    0    0  0.29069547909E+01 -0.14685813109E+02 -0.44843117503E+02  0.47276089942E+02  0.00000000000E+00 0.  1.
         11    1    4    4    0    0  0.22491589994E+02  0.63409085925E+01  0.43140538596E+02  0.49063069743E+02  0.00000000000E+00 0. -1.
</event>
<event>
 8    1  0.7281309E-009  0.1654746E+03  0.7561462E-02  0.1182651E+00
         -2   -1    0    0    0  501 -0.00000000000E+00  0.00000000000E+00  0.23563985095E+04  0.23563985095E+04  0.00000000000E+00 0.  1.
          2   -1    0    0  501    0  0.00000000000E+00 -0.00000000000E+00 -0.16619729927E+02  0.16619729927E+02  0.00000000000E+00 0. -1.
         25    2    1    2    0    0 -0.14198166691E+03  0.11118202265E+02  0.17300807956E+04  0.17404330696E+04  0.12508118250E+03 0.  0.
         23    2    1    2    0    0  0.14198166691E+03 -0.11118202265E+02  0.60969798401E+03  0.63258516989E+03  0.90277113889E+02 0.  0.
          5    1    3    3  502    0 -0.13696013186E+03  0.32223640826E+02  0.98315435717E+03  0.99317994501E+03  0.41800000000E+01 0. -1.
         -5    1    3    3    0  502 -0.50215350502E+01 -0.21105438561E+02  0.74692643843E+03  0.74725312457E+03  0.41800000000E+01 0. -1.
        -11    1    4    4    0    0  0.71772394159E+02 -0.50344992047E+02  0.29298084369E+03  0.30581639844E+03  0.00000000000E+00 0.  1.
         11    1    4    4    0    0  0.70209272752E+02  0.39226789782E+02  0.31671714033E+03  0.32676877145E+03  0.00000000000E+00 0. -1.
</event>
<event>
 8    1  0.7281309E-009  0.1141036E+03  0.7561462E-02  0.1253154E+00
         -2   -1    0    0    0  501 -0.00000000000E+00  0.00000000000E+00  0.22400788630E+03  0.22400788630E+03  0.00000000000E+00 0.  1.
          2   -1    0    0  501    0  0.00000000000E+00 -0.00000000000E+00 -0.11125606994E+03  0.11125606994E+03  0.00000000000E+00 0. -1.
         25    2    1    2    0    0  0.37179773890E+02  0.29603436267E+02 -0.51785439295E+02  0.14347812586E+03  0.12508214042E+03 0.  0.
         23    2    1    2    0    0 -0.37179773890E+02 -0.29603436267E+02  0.16453725565E+03  0.19178583038E+03  0.86316841997E+02 0.  0.
          5    1    3    3  502    0  0.79413210525E+02 -0.29738033957E+01 -0.23589187620E+02  0.83001347490E+02  0.41800000000E+01 0. -1.
         -5    1    3    3    0  502 -0.42233436634E+02  0.32577239662E+02 -0.28196251674E+02  0.60476778374E+02  0.41800000000E+01 0. -1.
        -11    1    4    4    0    0  0.73508597760E+01  0.24196572427E+02  0.24057445346E+02  0.34903723774E+02  0.00000000000E+00 0.  1.
         11    1    4    4    0    0 -0.44530633666E+02 -0.53800008694E+02  0.14047981030E+03  0.15688210661E+03  0.00000000000E+00 0. -1.
</event>
<event>
 8    1  0.7281309E-009  0.8738929E+02  0.7561462E-02  0.1309300E+00
          1   -1    0    0  501    0  0.00000000000E+00  0.00000000000E+00  0.10549433721E+03  0.10549433721E+03  0.00000000000E+00 0. -1.
         -1   -1    0    0    0  501 -0.00000000000E+00 -0.00000000000E+00 -0.12041927205E+03  0.12041927205E+03  0.00000000000E+00 0.  1.
         25    2    1    2    0    0 -0.10708103271E+02 -0.25578430140E+02  0.54601177397E+01  0.12824515255E+03  0.12509231272E+03 0.  0.
         23    2    1    2    0    0  0.10708103271E+02  0.25578430140E+02 -0.20385052573E+02  0.97668456714E+02  0.91403815589E+02 0.  0.
          5    1    3    3  502    0 -0.11107712809E+02 -0.68953230492E+02  0.32302459490E+02  0.77063938183E+02  0.41800000000E+01 0. -1.
         -5    1    3    3    0  502  0.39960953740E+00  0.43374800352E+02 -0.26842341751E+02  0.51181214366E+02  0.41800000000E+01 0. -1.
        -11    1    4    4    0    0 -0.44510431593E+01  0.40037861129E+02 -0.48218499411E+02  0.62832044328E+02  0.00000000000E+00 0.  1.
         11    1    4    4    0    0  0.15159146431E+02 -0.14459430989E+02  0.27833446837E+02  0.34836412385E+02  0.00000000000E+00 0. -1.
</event>
<event>
 8    1  0.7281309E-009  0.7272392E+02  0.7561462E-02  0.1351068E+00
          2   -1    0    0  501    0  0.00000000000E+00  0.00000000000E+00  0.14195670709E+03  0.14195670709E+03  0.00000000000E+00 0. -1.
         -2   -1    0    0    0  501 -0.00000000000E+00 -0.00000000000E+00 -0.10045985080E+03  0.10045985080E+03  0.00000000000E+00 0.  1.
         25    2    1    2    0    0  0.25843291748E+02  0.34932323205E+02  0.48485047560E+02  0.14101991340E+03  0.12509065995E+03 0.  0.
         23    2    1    2    0    0 -0.25843291748E+02 -0.34932323205E+02 -0.69881912675E+01  0.10139664449E+03  0.91347149732E+02 0.  0.
          5    1    3    3  502    0  0.98562072086E+01  0.14016484465E+02 -0.42604131897E+02  0.46110639900E+02  0.41800000000E+01 0.  1.
         -5    1    3    3    0  502  0.15987084539E+02  0.20915838740E+02  0.91089179457E+02  0.94909273501E+02  0.41800000000E+01 0.  1.
        -11    1    4    4    0    0 -0.49282297094E+02  0.10174317971E+02 -0.32573584030E+01  0.50426896958E+02  0.00000000000E+00 0. -1.
         11    1    4    4    0    0  0.23439005346E+02 -0.45106641176E+02 -0.37308328645E+01  0.50969747534E+02  0.00000000000E+00 0.  1.
</event>
<event>
 8    1  0.7281309E-009  0.9044546E+02  0.7561462E-02  0.1301777E+00
         -1   -1    0    0    0  501 -0.00000000000E+00  0.00000000000E+00  0.28863388681E+02  0.28863388681E+02  0.00000000000E+00 0.  1.
          1   -1    0    0  501    0  0.00000000000E+00 -0.00000000000E+00 -0.73371945230E+03  0.73371945230E+03  0.00000000000E+00 0. -1.
         25    2    1    2    0    0  0.17800853566E+02  0.55832900748E+02 -0.58474966377E+03  0.60084429559E+03  0.12509002786E+03 0.  0.
         23    2    1    2    0    0 -0.17800853566E+02 -0.55832900748E+02 -0.12010639985E+03  0.16173854540E+03  0.91102286403E+02 0.  0.
          5    1    3    3  502    0 -0.81431420583E+01 -0.27805159850E+02 -0.42822859388E+02  0.51872028715E+02  0.41800000000E+01 0. -1.
         -5    1    3    3    0  502  0.25943995624E+02  0.83638060597E+02 -0.54192680438E+03  0.54897226687E+03  0.41800000000E+01 0. -1.
        -11    1    4    4    0    0  0.62096442631E+01 -0.18928123326E+02 -0.11579940263E+03  0.11750036248E+03  0.00000000000E+00 0. -1.
         11    1    4    4    0    0 -0.24010497829E+02 -0.36904777422E+02 -0.43069972266E+01  0.44238182916E+02  0.00000000000E+00 0.  1.
</event>
<event>
 8    1  0.7281309E-009  0.1266468E+03  0.7561462E-02  0.1232518E+00
         -2   -1    0    0    0  501 -0.00000000000E+00  0.00000000000E+00  0.18829983477E+02  0.18829983477E+02  0.00000000000E+00 0. -1.
          2   -1    0    0  501    0  0.00000000000E+00 -0.00000000000E+00 -0.10786345626E+04  0.10786345626E+04  0.00000000000E+00 0.  1.
         25    2    1    2    0    0 -0.63013909307E+02  0.63569309622E+02 -0.66804165735E+03  0.68552310446E+03  0.12510180215E+03 0.  0.
         23    2    1    2    0    0  0.63013909307E+02 -0.63569309622E+02 -0.39176292179E+03  0.41194144163E+03  0.90585620016E+02 0.  0.
          5    1    3    3  502    0  0.81889752017E+01 -0.18885027264E+02 -0.22267797094E+02  0.30610958120E+02  0.41800000000E+01 0.  1.
         -5    1    3    3    0  502 -0.71202884508E+02  0.82454336886E+02 -0.64577386026E+03  0.65491214634E+03  0.41800000000E+01 0.  1.
        -11    1    4    4    0    0 -0.64124003455E+01 -0.52587341618E+02 -0.11885559952E+03  0.13012763317E+03  0.00000000000E+00 0. -1.
         11    1    4    4    0    0  0.69426309652E+02 -0.10981968004E+02 -0.27290732227E+03  0.28181380846E+03  0.00000000000E+00 0.  1.
</event>
<event>
 8    1  0.7281309E-009  0.8869177E+02  0.7561462E-02  0.1306051E+00
          2   -1    0    0  501    0  0.00000000000E+00  0.00000000000E+00  0.70562939727E+03  0.70562939727E+03  0.00000000000E+00 0.  1.
         -2   -1    0    0    0  501 -0.00000000000E+00 -0.00000000000E+00 -0.21274399630E+02  0.21274399630E+02  0.00000000000E+00 0. -1.
         25    2    1    2    0    0 -0.32703076408E+02 -0.57159001121E+01  0.54958311340E+03  0.56461550202E+03  0.12508758478E+03 0.  0.
         23    2    1    2    0    0  0.32703076408E+02  0.57159001121E+01  0.13477188424E+03  0.16228829488E+03  0.84094394303E+02 0.  0.
          5    1    3    3  502    0 -0.63924785482E+02  0.38645721730E+02  0.30276406034E+03  0.31187083647E+03  0.41800000000E+01 0. -1.
         -5    1    3    3    0  502  0.31221709074E+02 -0.44361621843E+02  0.24681905306E+03  0.25274466555E+03  0.41800000000E+01 0. -1.
        -11    1    4    4    0    0  0.95682425822E+01 -0.14543389021E+02 -0.58329861008E+01  0.18359879008E+02  0.00000000000E+00 0. -1.
         11    1    4    4    0    0  0.23134833826E+02  0.20259289133E+02  0.14060487034E+03  0.14392841587E+03  0.00000000000E+00 0.  1.
</event>
<event>
 8    1  0.7281309E-009  0.1695263E+03  0.7561462E-02  0.1178343E+00
          1   -1    0    0  501    0  0.00000000000E+00  0.00000000000E+00  0.27771176725E+03  0.27771176725E+03  0.00000000000E+00 0. -1.
         -1   -1    0    0    0  501 -0.00000000000E+00 -0.00000000000E+00 -0.15588925744E+03  0.15588925744E+03  0.00000000000E+00 0.  1.
         25    2    1    2    0    0 -0.68397123955E+02  0.14343831215E+03 -0.19363022028E+02  0.20316218143E+03  0.12508888593E+03 0.  0.
         23    2    1    2    0    0  0.68397123955E+02 -0.14343831215E+03  0.14118553184E+03  0.23043884326E+03  0.88971850194E+02 0.  0.
          5    1    3    3  502    0 -0.57381528022E+02  0.13938101057E+03 -0.58766460065E+02  0.16183533327E+03  0.41800000000E+01 0. -1.
         -5    1    3    3    0  502 -0.11015595932E+02  0.40573015775E+01  0.39403438036E+02  0.41326848161E+02  0.41800000000E+01 0. -1.
        -11    1    4    4    0    0  0.70752099983E+02 -0.61250500059E+02  0.10487373549E+03  0.14055598104E+03  0.00000000000E+00 0.  1.
         11    1    4    4    0    0 -0.23549760286E+01 -0.82187812088E+02  0.36311796349E+02  0.89882862227E+02  0.00000000000E+00 0. -1.
</event>
<event>
 8    1  0.7281309E-009  0.1061217E+03  0.7561462E-02  0.1267925E+00
          1   -1    0    0  501    0  0.00000000000E+00  0.00000000000E+00  0.11270875801E+03  0.11270875801E+03  0.00000000000E+00 0. -1.
         -1   -1    0    0    0  501 -0.00000000000E+00 -0.00000000000E+00 -0.16706786131E+03  0.16706786131E+03  0.00000000000E+00 0.  1.
         25    2    1    2    0    0  0.39080394841E+02 -0.72701760936E+02 -0.25269115284E+02  0.15198512879E+03  0.12509247732E+03 0.  0.
         23    2    1    2    0    0 -0.39080394841E+02  0.72701760936E+02 -0.29089988023E+02  0.12779149053E+03  0.93121503131E+02 0.  0.
          5    1    3    3  502    0  0.41863336900E+02 -0.73598592121E+02  0.34843791141E+02  0.91656172294E+02  0.41800000000E+01 0. -1.
         -5    1    3    3    0  502 -0.27829420594E+01  0.89683118502E+00 -0.60112906425E+02  0.60328956493E+02  0.41800000000E+01 0. -1.
        -11    1    4    4    0    0 -0.30866532920E+01  0.84448925046E+02 -0.30663552790E+02  0.89896617510E+02  0.00000000000E+00 0.  1.
         11    1    4    4    0    0 -0.35993741549E+02 -0.11747164111E+02  0.15735647671E+01  0.37894873023E+02  0.00000000000E+00 0. -1.
</event>
<event>
 8    1  0.7281309E-009  0.1112883E+03  0.7561462E-02  0.1258203E+00
         -1   -1    0    0    0  501 -0.00000000000E+00  0.00000000000E+00  0.41066018064E+03  0.41066018064E+03  0.00000000000E+00 0.  1.
          1   -1    0    0  501    0  0.00000000000E+00 -0.00000000000E+00 -0.38861656931E+02  0.38861656931E+02  0.00000000000E+00 0. -1.
         25    2    1    2    0    0  0.50651115489E+02 -0.23007797123E+02  0.15124015426E+03  0.20400014171E+03  0.12509028471E+03 0.  0.
         23    2    1    2    0    0 -0.50651115489E+02  0.23007797123E+02  0.22055836945E+03  0.24552169586E+03  0.92412199276E+02 0.  0.
          5    1    3    3  502    0  0.78574662485E+02 -0.34578381105E+02  0.52642005959E+02  0.10078836846E+03  0.41800000000E+01 0.  1.
         -5    1    3    3    0  502 -0.27923546996E+02  0.11570583982E+02  0.98598148299E+02  0.10321177326E+03  0.41800000000E+01 0.  1.
        -11    1    4    4    0    0 -0.75481889097E+02  0.54004240547E+01  0.13577978181E+03  0.15544397483E+03  0.00000000000E+00 0. -1.
         11    1    4    4    0    0  0.24830773608E+02  0.17607373068E+02  0.84778587642E+02  0.90077721035E+02  0.00000000000E+00 0.  1.
</event>
<event>
 8    1  0.7281309E-009  0.1227528E+03  0.7561462E-02  0.1238624E+00
         -1   -1    0    0    0  501 -0.00000000000E+00  0.00000000000E+00  0.12444564980E+03  0.12444564980E+03  0.00000000000E+00 0.  1.
          1   -1    0    0  501    0  0.00000000000E+00 -0.00000000000E+00 -0.14063041679E+03  0.14063041679E+03  0.00000000000E+00 0. -1.
         25    2    1    2    0    0  0.46890648211E+02 -0.53055725749E+02  0.15986105065E+02  0.14463032355E+03  0.12509489202E+03 0.  0.
         23    2    1    2    0    0 -0.46890648211E+02  0.53055725749E+02 -0.32170872051E+02  0.12044574305E+03  0.91970479426E+02 0.  0.
          5    1    3    3  502    0  0.30768199419E+02  0.38100205192E+02 -0.56460834731E+01  0.49473815193E+02  0.41800000000E+01 0.  1.
         -5    1    3    3    0  502  0.16122448792E+02 -0.91155930941E+02  0.21632188538E+02  0.95156508352E+02  0.41800000000E+01 0.  1.
        -11    1    4    4    0    0 -0.75430781510E+01  0.62720829796E+02 -0.45432595930E+02  0.77813374758E+02  0.00000000000E+00 0. -1.
         11    1    4    4    0    0 -0.39347570060E+02 -0.96651040468E+01  0.13261723879E+02  0.42632368291E+02  0.00000000000E+00 0.  1.
</event>
<event>
 8    1  0.7281309E-009  0.9126090E+02  0.7561462E-02  0.1299827E+00
          3   -1    0    0  501    0  0.00000000000E+00  0.00000000000E+00  0.54846921497E+03  0.54846921497E+03  0.00000000000E+00 0. -1.
         -3   -1    0    0    0  501 -0.00000000000E+00 -0.00000000000E+00 -0.36361937876E+02  0.36361937876E+02  0.00000000000E+00 0.  1.
         25    2    1    2    0    0  0.34703660861E+02 -0.56093365034E+02  0.39764306817E+03  0.42204153758E+03  0.12509292585E+03 0.  0.
         23    2    1    2    0    0 -0.34703660861E+02  0.56093365034E+02  0.11446420892E+03  0.16278961527E+03  0.95118841653E+02 0.  0.
          5    1    3    3  502    0  0.22981552354E+02 -0.31455597198E+02  0.21123546187E+02  0.44511604635E+02  0.41800000000E+01 0. -1.
         -5    1    3    3    0  502  0.11722108507E+02 -0.24637767835E+02  0.37651952199E+03  0.37752993294E+03  0.41800000000E+01 0. -1.
        -11    1    4    4    0    0  0.24528312478E+02  0.50626466821E+02  0.54450775455E+02  0.78291533408E+02  0.00000000000E+00 0. -1.
         11    1    4    4    0    0 -0.59231973338E+02  0.54668982130E+01  0.60013433469E+02  0.84498081862E+02  0.00000000000E+00 0.  1.
</event>
<event>
 8    1  0.7281309E-009  0.1549473E+03  0.7561462E-02  0.1194522E+00
          2   -1    0    0  501    0  0.00000000000E+00  0.00000000000E+00  0.45095899691E+03  0.45095899691E+03  0.00000000000E+00 0. -1.
         -2   -1    0    0    0  501 -0.00000000000E+00 -0.00000000000E+00 -0.61049806419E+02  0.61049806419E+02  0.00000000000E+00 0.  1.
         25    2    1    2    0    0 -0.31902554142E+02  0.11258148361E+03  0.13792196677E+03  0.21991316073E+03  0.12508783287E+03 0.  0.
         23    2    1    2    0    0  0.31902554142E+02 -0.11258148361E+03  0.25198722372E+03  0.29209564260E+03  0.90166180445E+02 0.  0.
          5    1    3    3  502    0  0.28227406054E+01 -0.26660504482E+02  0.28911248810E+02  0.39649502790E+02  0.41800000000E+01 0. -1.
         -5    1    3    3    0  502 -0.34725294747E+02  0.13924198809E+03  0.10901071796E+03  0.18026365794E+03  0.41800000000E+01 0. -1.
        -11    1    4    4    0    0 -0.24578133574E+02 -0.25647383997E+02  0.27831423371E+02  0.45127165685E+02  0.00000000000E+00 0.  1.
         11    1    4    4    0    0  0.56480687716E+02 -0.86934099610E+02  0.22415580035E+03  0.24696847692E+03  0.00000000000E+00 0. -1.
</event>
<event>
 8    1  0.7281309E-009  0.2715281E+03  0.7561462E-02  0.1100408E+00
          1   -1    0    0  501    0  0.00000000000E+00  0.00000000000E+00  0.28384277333E+03  0.28384277333E+03  0.00000000000E+00 0. -1.
         -1   -1    0    0    0  501 -0.00000000000E+00 -0.00000000000E+00 -0.28580148960E+03  0.28580148960E+03  0.00000000000E+00 0.  1.
         25    2    1    2    0    0  0.13950936838E+03 -0.21625603077E+03 -0.56174363970E+02  0.29160341129E+03  0.12508979013E+03 0.  0.
         23    2    1    2    0    0 -0.13950936838E+03  0.21625603077E+03  0.54215647694E+02  0.27804085164E+03  0.90209999538E+02 0.  0.
          5    1    3    3  502    0  0.51199683821E+02 -0.16833354072E+01  0.48960375812E+01  0.51630270438E+02  0.41800000000E+01 0. -1.
         -5    1    3    3    0  502  0.88309684558E+02 -0.21457269537E+03 -0.61070401551E+02  0.23997314085E+03  0.41800000000E+01 0. -1.
        -11    1    4    4    0    0 -0.35549525784E+02  0.31061893697E+02 -0.22416446503E+02  0.52259995191E+02  0.00000000000E+00 0.  1.
         11    1    4    4    0    0 -0.10395984260E+03  0.18519413708E+03  0.76632094197E+02  0.22578085645E+03  0.00000000000E+00 0. -1.
</event>
<event>
 8    1  0.7281309E-009  0.1486115E+03  0.7561462E-02  0.1202190E+00
         -1   -1    0    0    0  501 -0.00000000000E+00  0.00000000000E+00  0.12265077907E+03  0.12265077907E+03  0.00000000000E+00 0.  1.
          1   -1    0    0  501    0  0.00000000000E+00 -0.00000000000E+00 -0.23523084462E+03  0.23523084462E+03  0.00000000000E+00 0. -1.
         25    2    1    2    0    0 -0.90276155329E+02 -0.94949792061E+02 -0.61663245077E+02  0.19134972986E+03  0.12508843308E+03 0.  0.
         23    2    1    2    0    0  0.90276155329E+02  0.94949792061E+02 -0.50916820475E+02  0.16653189383E+03  0.89303425585E+02 0.  0.
          5    1    3    3  502    0 -0.43491571240E+02  0.14978391334E+02  0.15900564778E+02  0.48848432279E+02  0.41800000000E+01 0.  1.
         -5    1    3    3    0  502 -0.46784584089E+02 -0.10992818339E+03 -0.77563809855E+02  0.14250129758E+03  0.41800000000E+01 0.  1.
        -11    1    4    4    0    0  0.35866538540E+02  0.29961594948E+02 -0.65566420495E+02  0.80517459319E+02  0.00000000000E+00 0. -1.
         11    1    4    4    0    0  0.54409616789E+02  0.64988197112E+02  0.14649600020E+02  0.86014434508E+02  0.00000000000E+00 0.  1.
</event>
<event>
 8    1  0.7281309E-009  0.1215112E+03  0.7561462E-02  0.1240625E+00
         -4   -1    0    0    0  501 -0.00000000000E+00  0.00000000000E+00  0.37314023606E+02  0.37314023606E+02  0.00000000000E+00 0.  1.
          4   -1    0    0  501    0  0.00000000000E+00 -0.00000000000E+00 -0.51337916327E+03  0.51337916327E+03  0.00000000000E+00 0. -1.
         25    2    1    2    0    0  0.14776155160E+02 -0.67025056526E+02 -0.29612137727E+03  0.32869235925E+03  0.12506040138E+03 0.  0.
         23    2    1    2    0    0 -0.14776155160E+02  0.67025056526E+02 -0.17994376239E+03  0.22200082762E+03  0.11042606973E+03 0.  0.
          5    1    3    3  502    0  0.52892459221E+02 -0.31521455429E+02 -0.57277598736E+02  0.84198634857E+02  0.41800000000E+01 0.  1.
         -5    1    3    3    0  502 -0.38116304061E+02 -0.35503601097E+02 -0.23884377853E+03  0.24449372440E+03  0.41800000000E+01 0.  1.
        -11    1    4    4    0    0  0.42568752953E+02  0.56510097315E+02 -0.11197466884E+03  0.13245307202E+03  0.00000000000E+00 0. -1.
         11    1    4    4    0    0 -0.57344908113E+02  0.10514959211E+02 -0.67969093553E+02  0.89547755596E+02  0.00000000000E+00 0.  1.
</event>
<event>
 8    1  0.7281309E-009  0.1168917E+03  0.7561462E-02  0.1248315E+00
          1   -1    0    0  501    0  0.00000000000E+00  0.00000000000E+00  0.21451702288E+03  0.21451702288E+03  0.00000000000E+00 0. -1.
         -1   -1    0    0    0  501 -0.00000000000E+00 -0.00000000000E+00 -0.85203717453E+02  0.85203717453E+02  0.00000000000E+00 0.  1.
         25    2    1    2    0    0  0.49853054242E+02 -0.28870991433E+02  0.13506592410E+03  0.19289496546E+03  0.12508718034E+03 0.  0.
         23    2    1    2    0    0 -0.49853054242E+02  0.28870991433E+02 -0.57526186663E+01  0.10682577487E+03  0.89776346509E+02 0.  0.
          5    1    3    3  502    0  0.46066676735E+02 -0.71090126048E+02  0.12153517683E+03  0.14820329393E+03  0.41800000000E+01 0. -1.
         -5    1    3    3    0  502  0.37863775076E+01  0.42219134615E+02  0.13530747272E+02  0.44691671528E+02  0.41800000000E+01 0. -1.
        -11    1    4    4    0    0  0.14722210509E+02  0.38376995177E+02 -0.60967574975E+01  0.41553672438E+02  0.00000000000E+00 0.  1.
         11    1    4    4    0    0 -0.64575264752E+02 -0.95060037442E+01  0.34413883118E+00  0.65272102437E+02  0.00000000000E+00 0. -1.
</event>
<event>
 8    1  0.7281309E-009  0.2030279E+03  0.7561462E-02  0.1147209E+00
         -1   -1    0    0    0  501 -0.00000000000E+00  0.00000000000E+00  0.73393942637E+03  0.73393942637E+03  0.00000000000E+00 0.  1.
          1   -1    0    0  501    0  0.00000000000E+00 -0.00000000000E+00 -0.58788232024E+02  0.58788232024E+02  0.00000000000E+00 0. -1.
         25    2    1    2    0    0 -0.10897144013E+03 -0.13358953194E+03  0.27842115511E+03  0.35055340465E+03  0.12509361331E+03 0.  0.
         23    2    1    2    0    0  0.10897144013E+03  0.13358953194E+03  0.39673003924E+03  0.44217425375E+03  0.91664654241E+02 0.  0.
          5    1    3    3  502    0 -0.98920057357E+02 -0.24516266099E+02  0.15422340752E+03  0.18490147884E+03  0.41800000000E+01 0.  1.
         -5    1    3    3    0  502 -0.10051382769E+02 -0.10907326584E+03  0.12419774759E+03  0.16565192581E+03  0.41800000000E+01 0.  1.
        -11    1    4    4    0    0 -0.42964202973E+01  0.58246514795E+02  0.13827876676E+03  0.15010707195E+03  0.00000000000E+00 0.  1.
         11    1    4    4    0    0  0.11326786042E+03  0.75343017144E+02  0.25845127248E+03  0.29206718180E+03  0.00000000000E+00 0. -1.
</event>
<event>
 8    1  0.7281309E-009  0.1069723E+03  0.7561462E-02  0.1266282E+00
         -1   -1    0    0    0  501 -0.00000000000E+00  0.00000000000E+00  0.50681115199E+02  0.50681115199E+02  0.00000000000E+00 0.  1.
          1   -1    0    0  501    0  0.00000000000E+00 -0.00000000000E+00 -0.28452685623E+03  0.28452685623E+03  0.00000000000E+00 0. -1.
         25    2    1    2    0    0  0.47337171602E+02  0.14389835564E+02 -0.15203073288E+03  0.20299931447E+03  0.12508997862E+03 0.  0.
         23    2    1    2    0    0 -0.47337171602E+02 -0.14389835564E+02 -0.81815008149E+02  0.13220865696E+03  0.91310230718E+02 0.  0.
          5    1    3    3  502    0 -0.37930102635E+02 -0.92795320040E-01 -0.86064521537E+02  0.94144970998E+02  0.41800000000E+01 0. -1.
         -5    1    3    3    0  502  0.85267274237E+02  0.14482630884E+02 -0.65966211343E+02  0.10885434347E+03  0.41800000000E+01 0. -1.
        -11    1    4    4    0    0  0.15999993218E+02 -0.19997364098E+02  0.34537854764E+01  0.25842271339E+02  0.00000000000E+00 0.  1.
         11    1    4    4    0    0 -0.63337164820E+02  0.56075285345E+01 -0.85268793626E+02  0.10636638562E+03  0.00000000000E+00 0. -1.
</event>
<event>
 7    1  0.7281309E-009  0.1460189E+03  0.7561462E-02  0.1205452E+00
         -1   -1    0    0    0  501 -0.00000000000E+00  0.00000000000E+00  0.33224119089E+02  0.33224119089E+02  0.00000000000E+00 0.  1.
          1   -1    0    0  501    0  0.00000000000E+00 -0.00000000000E+00 -0.88212665289E+03  0.88212665289E+03  0.00000000000E+00 0. -1.
         25    2    1    2    0    0  0.13273664471E+03 -0.25537944483E+02 -0.60378523223E+03  0.63124913288E+03  0.12509059779E+03 0.  0.
          5    1    3    3  502    0  0.44981673357E+01 -0.20244340076E+02 -0.30880585956E+03  0.30952964012E+03  0.41800000000E+01 0.  1.
         -5    1    3    3    0  502  0.12823847737E+03 -0.52936044066E+01 -0.29497937267E+03  0.32171949277E+03  0.41800000000E+01 0.  1.
        -11    1    1    2    0    0 -0.75499270390E+02 -0.83342434043E+01 -0.14860237077E+03  0.16688997585E+03  0.00000000000E+00 0.  1.
         11    1    1    2    0    0 -0.57237374316E+02  0.33872187887E+02 -0.96514930806E+02  0.11721166324E+03  0.00000000000E+00 0. -1.
</event>
<event>
 8    1  0.7281309E-009  0.1085065E+03  0.7561462E-02  0.1263361E+00
         -2   -1    0    0    0  501 -0.00000000000E+00  0.00000000000E+00  0.24776124806E+03  0.24776124806E+03  0.00000000000E+00 0.  1.
          2   -1    0    0  501    0  0.00000000000E+00 -0.00000000000E+00 -0.63718219128E+02  0.63718219128E+02  0.00000000000E+00 0. -1.
         25    2    1    2    0    0 -0.16163041430E+02  0.38999293817E+02  0.44930032383E+02  0.13945344754E+03  0.12508544037E+03 0.  0.
         23    2    1    2    0    0  0.16163041430E+02 -0.38999293817E+02  0.13911299655E+03  0.17202601965E+03  0.91969216598E+02 0.  0.
          5    1    3    3  502    0 -0.17419060772E+02 -0.44216686085E+02  0.82853048011E+01  0.48421665421E+02  0.41800000000E+01 0. -1.
         -5    1    3    3    0  502  0.12560193415E+01  0.83215979902E+02  0.36644727581E+02  0.91031782116E+02  0.41800000000E+01 0. -1.
        -11    1    4    4    0    0  0.20204898948E+02  0.19059370345E+02  0.95058068364E+02  0.99032994000E+02  0.00000000000E+00 0.  1.
         11    1    4    4    0    0 -0.40418575180E+01 -0.58058664162E+02  0.44054928188E+02  0.72993025654E+02  0.00000000000E+00 0. -1.
</event>
<event>
 8    1  0.7281309E-009  0.1902845E+03  0.7561462E-02  0.1158205E+00
         -1   -1    0    0    0  501 -0.00000000000E+00  0.00000000000E+00  0.20535110488E+03  0.20535110488E+03  0.00000000000E+00 0.  1.
          1   -1    0    0  501    0  0.00000000000E+00 -0.00000000000E+00 -0.23092428074E+03  0.23092428074E+03  0.00000000000E+00 0. -1.
         25    2    1    2    0    0 -0.12947225045E+03 -0.13012387059E+03 -0.57267464881E+02  0.22940445379E+03  0.12510617712E+03 0.  0.
         23    2    1    2    0    0  0.12947225045E+03  0.13012387059E+03  0.31694289025E+02  0.20687093182E+03  0.89976492165E+02 0.  0.
          5    1    3    3  502    0 -0.13464289998E+03 -0.13242520109E+03 -0.18272856458E+02  0.18978017305E+03  0.41800000000E+01 0. -1.
         -5    1    3    3    0  502  0.51706495312E+01  0.23013304993E+01 -0.38994608423E+02  0.39624280747E+02  0.41800000000E+01 0. -1.
        -11    1    4    4    0    0  0.84758458473E+02  0.71391669004E+02 -0.25230998041E+02  0.11365460812E+03  0.00000000000E+00 0. -1.
         11    1    4    4    0    0  0.44713791975E+02  0.58732201587E+02  0.56925287066E+02  0.93216323697E+02  0.00000000000E+00 0.  1.
</event>
<event>
 8    1  0.7281309E-009  0.3692886E+03  0.7561462E-02  0.1054965E+00
         -1   -1    0    0    0  501 -0.00000000000E+00  0.00000000000E+00  0.12171479970E+03  0.12171479970E+03  0.00000000000E+00 0.  1.
          1   -1    0    0  501    0  0.00000000000E+00 -0.00000000000E+00 -0.12101297843E+04  0.12101297843E+04  0.00000000000E+00 0. -1.
         25    2    1    2    0    0 -0.35661326409E+03 -0.56550500943E+02 -0.42790064070E+03  0.57368951643E+03  0.12509885559E+03 0.  0.
         23    2    1    2    0    0  0.35661326409E+03  0.56550500943E+02 -0.66051434392E+03  0.75815506758E+03  0.90271416812E+02 0.  0.
          5    1    3    3  502    0 -0.93543590496E+02  0.12951193930E+02 -0.47003432327E+02  0.10556955905E+03  0.41800000000E+01 0.  1.
         -5    1    3    3    0  502 -0.26306967359E+03 -0.69501694873E+02 -0.38089720837E+03  0.46811995739E+03  0.41800000000E+01 0.  1.
        -11    1    4    4    0    0  0.16555693307E+03 -0.18636476853E+02 -0.31006449575E+03  0.35198921557E+03  0.00000000000E+00 0. -1.
         11    1    4    4    0    0  0.19105633102E+03  0.75186977796E+02 -0.35044984817E+03  0.40616585201E+03  0.00000000000E+00 0.  1.
</event>
<event>
 8    1  0.7281309E-009  0.1967380E+03  0.7561462E-02  0.1152521E+00
          4   -1    0    0  501    0  0.00000000000E+00  0.00000000000E+00  0.25060283771E+03  0.25060283771E+03  0.00000000000E+00 0. -1.
         -4   -1    0    0    0  501 -0.00000000000E+00 -0.00000000000E+00 -0.16612893200E+03  0.16612893200E+03  0.00000000000E+00 0.  1.
         25    2    1    2    0    0  0.16931385444E+03  0.32385681987E+02  0.36745778738E+02  0.21613671138E+03  0.12509521193E+03 0.  0.
         23    2    1    2    0    0 -0.16931385444E+03 -0.32385681987E+02  0.47728126970E+02  0.20059505833E+03  0.90798621250E+02 0.  0.
          5    1    3    3  502    0  0.98233589957E+02 -0.44115387603E+02  0.98088456194E+01  0.10821132783E+03  0.41800000000E+01 0. -1.
         -5    1    3    3    0  502  0.71080264483E+02  0.76501069591E+02  0.26936933119E+02  0.10792538354E+03  0.41800000000E+01 0. -1.
        -11    1    4    4    0    0 -0.92916117459E+02  0.10634598983E+02 -0.12313076004E+02  0.94329801335E+02  0.00000000000E+00 0. -1.
         11    1    4    4    0    0 -0.76397736981E+02 -0.43020280970E+02  0.60041202974E+02  0.10626525700E+03  0.00000000000E+00 0.  1.
</event>
<event>
 8    1  0.7281309E-009  0.1128947E+03  0.7561462E-02  0.1255301E+00
          2   -1    0    0  501    0  0.00000000000E+00  0.00000000000E+00  0.18661568257E+03  0.18661568257E+03  0.00000000000E+00 0. -1.
         -2   -1    0    0    0  501 -0.00000000000E+00 -0.00000000000E+00 -0.94387529057E+02  0.94387529057E+02  0.00000000000E+00 0.  1.
         25    2    1    2    0    0 -0.23506501281E+02  0.71146094319E+02  0.44164610485E+02  0.15236097973E+03  0.12509609501E+03 0.  0.
         23    2    1    2    0    0  0.23506501281E+02 -0.71146094319E+02  0.48063543026E+02  0.12864223189E+03  0.92867633322E+02 0.  0.
          5    1    3    3  502    0  0.33426896077E+02  0.11122554905E+02  0.58380893967E+02  0.68314491796E+02  0.41800000000E+01 0.  1.
         -5    1    3    3    0  502 -0.56933397358E+02  0.60023539414E+02 -0.14216283482E+02  0.84046487937E+02  0.41800000000E+01 0.  1.
        -11    1    4    4    0    0 -0.26099120498E+02 -0.82457308800E+01 -0.10600241891E+02  0.29351683029E+02  0.00000000000E+00 0.  1.
         11    1    4    4    0    0  0.49605621779E+02 -0.62900363439E+02  0.58663784918E+02  0.99290548864E+02  0.00000000000E+00 0. -1.
</event>
<event>
 8    1  0.7281309E-009  0.1072941E+03  0.7561462E-02  0.1265664E+00
          2   -1    0    0  501    0  0.00000000000E+00  0.00000000000E+00  0.80310700345E+03  0.80310700345E+03  0.00000000000E+00 0. -1.
         -2   -1    0    0    0  501 -0.00000000000E+00 -0.00000000000E+00 -0.19747280650E+02  0.19747280650E+02  0.00000000000E+00 0.  1.
         25    2    1    2    0    0  0.62295671623E+02 -0.24632261335E+02  0.44827620278E+03  0.47019909931E+03  0.12509252580E+03 0.  0.
         23    2    1    2    0    0 -0.62295671623E+02  0.24632261335E+02  0.33508352002E+03  0.35265518479E+03  0.87162004158E+02 0.  0.
          5    1    3    3  502    0 -0.30956514827E+02 -0.75109810701E+01  0.22933161607E+03  0.23157111905E+03  0.41800000000E+01 0.  1.
         -5    1    3    3    0  502  0.93252186449E+02 -0.17121280265E+02  0.21894458671E+03  0.23862798026E+03  0.41800000000E+01 0.  1.
        -11    1    4    4    0    0 -0.23392056778E+02 -0.18241593322E+02  0.30230182635E+02  0.42353370461E+02  0.00000000000E+00 0.  1.
         11    1    4    4    0    0 -0.38903614844E+02  0.42873854657E+02  0.30485333739E+03  0.31030181433E+03  0.00000000000E+00 0. -1.
</event>
<event>
 8    1  0.7281309E-009  0.1476470E+03  0.7561462E-02  0.1203394E+00
         -1   -1    0    0    0  501 -0.00000000000E+00  0.00000000000E+00  0.35402205155E+02  0.35402205155E+02  0.00000000000E+00 0.  1.
          1   -1    0    0  501    0  0.00000000000E+00 -0.00000000000E+00 -0.80175827649E+03  0.80175827649E+03  0.00000000000E+00 0. -1.
         25    2    1    2    0    0 -0.56441334906E+02  0.10728728442E+03 -0.52490204360E+03  0.55304983056E+03  0.12508306850E+03 0.  0.
         23    2    1    2    0    0  0.56441334906E+02 -0.10728728442E+03 -0.24145402774E+03  0.28411065108E+03  0.87878489214E+02 0.  0.
          5    1    3    3  502    0 -0.95936503306E+02  0.64828248556E+02 -0.33718461404E+03  0.35653534302E+03  0.41800000000E+01 0.  1.
         -5    1    3    3    0  502  0.39495168399E+02  0.42459035859E+02 -0.18771742957E+03  0.19651448755E+03  0.41800000000E+01 0.  1.
        -11    1    4    4    0    0  0.14409783323E+02 -0.31251052108E+02 -0.16446485768E+03  0.16802666314E+03  0.00000000000E+00 0. -1.
         11    1    4    4    0    0  0.42031551584E+02 -0.76036232307E+02 -0.76989170058E+02  0.11608398795E+03  0.00000000000E+00 0.  1.
</event>
<event>
 8    1  0.7281309E-009  0.1687129E+03  0.7561462E-02  0.1179197E+00
          4   -1    0    0  501    0  0.00000000000E+00  0.00000000000E+00  0.10639265344E+03  0.10639265344E+03  0.00000000000E+00 0. -1.
         -4   -1    0    0    0  501 -0.00000000000E+00 -0.00000000000E+00 -0.35063235402E+03  0.35063235402E+03  0.00000000000E+00 0.  1.
         25    2    1    2    0    0  0.12305643324E+03  0.84300360502E+02 -0.19476627264E+03  0.27537523267E+03  0.12509269072E+03 0.  0.
         23    2    1    2    0    0 -0.12305643324E+03 -0.84300360502E+02 -0.49473427944E+02  0.18164977478E+03  0.91102053011E+02 0.  0.
          5    1    3    3  502    0  0.92467639053E+02  0.10650368392E+03 -0.19055924657E+03  0.23711515728E+03  0.41800000000E+01 0.  1.
         -5    1    3    3    0  502  0.30588794187E+02 -0.22203323419E+02 -0.42070260694E+01  0.38260075392E+02  0.41800000000E+01 0.  1.
        -11    1    4    4    0    0 -0.88346790904E+02 -0.28968983107E+02 -0.66308560232E+02  0.11419799738E+03  0.00000000000E+00 0. -1.
         11    1    4    4    0    0 -0.34709642336E+02 -0.55331377395E+02  0.16835132288E+02  0.67451777402E+02  0.00000000000E+00 0.  1.
</event>
<event>
 8    1  0.7281309E-009  0.1072919E+03  0.7561462E-02  0.1265669E+00
          1   -1    0    0  501    0  0.00000000000E+00  0.00000000000E+00  0.58054726514E+03  0.58054726514E+03  0.00000000000E+00 0. -1.
         -1   -1    0    0    0  501 -0.00000000000E+00 -0.00000000000E+00 -0.51028606933E+02  0.51028606933E+02  0.00000000000E+00 0.  1.
         25    2    1    2    0    0 -0.48367445313E+02  0.26404357469E+02  0.58816096533E+02  0.14880611457E+03  0.12508927477E+03 0.  0.
         23    2    1    2    0    0  0.48367445313E+02 -0.26404357469E+02  0.47070256168E+03  0.48276975750E+03  0.92027916039E+02 0.  0.
          5    1    3    3  502    0  0.32622197619E+01  0.53006546873E+02 -0.14471166479E+02  0.55201658928E+02  0.41800000000E+01 0.  1.
         -5    1    3    3    0  502 -0.51629665075E+02 -0.26602189404E+02  0.73287263012E+02  0.93604455645E+02  0.41800000000E+01 0.  1.
        -11    1    4    4    0    0 -0.11156950219E+02 -0.40418856802E+02  0.12915444212E+03  0.13579039525E+03  0.00000000000E+00 0.  1.
         11    1    4    4    0    0  0.59524395532E+02  0.14014499332E+02  0.34154811956E+03  0.34697936225E+03  0.00000000000E+00 0. -1.
</event>
<event>
 8    1  0.7281309E-009  0.1643724E+03  0.7561462E-02  0.1183847E+00
          2   -1    0    0  501    0  0.00000000000E+00  0.00000000000E+00  0.10744968918E+04  0.10744968918E+04  0.00000000000E+00 0. -1.
         -2   -1    0    0    0  501 -0.00000000000E+00 -0.00000000000E+00 -0.31092908019E+02  0.31092908019E+02  0.00000000000E+00 0.  1.
         25    2    1    2    0    0 -0.26154673440E+02  0.13518827432E+03  0.39654147569E+03  0.43800205467E+03  0.12506287017E+03 0.  0.
         23    2    1    2    0    0  0.26154673440E+02 -0.13518827432E+03  0.64686250807E+03  0.66758774513E+03  0.91007453798E+02 0.  0.
          5    1    3    3  502    0  0.32390110342E+02  0.60597463714E+02  0.70941764534E+02  0.98850281799E+02  0.41800000000E+01 0. -1.
         -5    1    3    3    0  502 -0.58544783782E+02  0.74590810606E+02  0.32559971115E+03  0.33915177287E+03  0.41800000000E+01 0. -1.
        -11    1    4    4    0    0  0.26595819538E+02  0.30350351060E+01  0.11174073028E+03  0.11490230571E+03  0.00000000000E+00 0.  1.
         11    1    4    4    0    0 -0.44114609771E+00 -0.13822330943E+03  0.53512177779E+03  0.55268543942E+03  0.00000000000E+00 0. -1.
</event>
<event>
 8    1  0.7281309E-009  0.6440503E+02  0.7561462E-02  0.1380224E+00
          2   -1    0    0  501    0  0.00000000000E+00  0.00000000000E+00  0.61192488983E+03  0.61192488983E+03  0.00000000000E+00 0. -1.
         -2   -1    0    0    0  501 -0.00000000000E+00 -0.00000000000E+00 -0.31069871904E+02  0.31069871904E+02  0.00000000000E+00 0.  1.
         25    2    1    2    0    0  0.10579305575E+01  0.22909742103E+02  0.51015773239E+03  0.52576854055E+03  0.12508265592E+03 0.  0.
         23    2    1    2    0    0 -0.10579305575E+01 -0.22909742103E+02  0.70697285535E+02  0.11722622119E+03  0.90652662683E+02 0.  0.
          5    1    3    3  502    0 -0.20081488165E+02 -0.15168434526E+02  0.45333868776E+03  0.45405592804E+03  0.41800000000E+01 0. -1.
         -5    1    3    3    0  502  0.21139418722E+02  0.38078176629E+02  0.56819044636E+02  0.71712612507E+02  0.41800000000E+01 0. -1.
        -11    1    4    4    0    0 -0.27773112396E+02 -0.77708736252E+01  0.80082755257E+02  0.85117447910E+02  0.00000000000E+00 0.  1.
         11    1    4    4    0    0  0.26715181838E+02 -0.15138868478E+02 -0.93854697226E+01  0.32108773277E+02  0.00000000000E+00 0. -1.
</event>
<event>
 8    1  0.7281309E-009  0.9180155E+02  0.7561462E-02  0.1298547E+00
         -3   -1    0    0    0  501 -0.00000000000E+00  0.00000000000E+00  0.16321090852E+03  0.16321090852E+03  0.00000000000E+00 0.  1.
          3   -1    0    0  501    0  0.00000000000E+00 -0.00000000000E+00 -0.80563624447E+02  0.80563624447E+02  0.00000000000E+00 0. -1.
         25    2    1    2    0    0  0.11210236432E+02  0.19731190455E+02  0.79907881603E+02  0.15015868574E+03  0.12508945633E+03 0.  0.
         23    2    1    2    0    0 -0.11210236432E+02 -0.19731190455E+02  0.27394024696E+01  0.93615847221E+02  0.90782339954E+02 0.  0.
          5    1    3    3  502    0  0.61535547639E+02  0.97640383024E+01  0.98393330457E+01  0.63215859893E+02  0.41800000000E+01 0. -1.
         -5    1    3    3    0  502 -0.50325311207E+02  0.99671521522E+01  0.70068548558E+02  0.86942825852E+02  0.41800000000E+01 0. -1.
        -11    1    4    4    0    0 -0.28933418422E+02 -0.35614329057E+02  0.31967911716E+02  0.55923792031E+02  0.00000000000E+00 0.  1.
         11    1    4    4    0    0  0.17723181990E+02  0.15883138602E+02 -0.29228509246E+02  0.37692055190E+02  0.00000000000E+00 0. -1.
</event>
<event>
 8    1  0.7281309E-009  0.1150949E+03  0.7561462E-02  0.1251416E+00
          2   -1    0    0  501    0  0.00000000000E+00  0.00000000000E+00  0.10014748522E+03  0.10014748522E+03  0.00000000000E+00 0. -1.
         -2   -1    0    0    0  501 -0.00000000000E+00 -0.00000000000E+00 -0.16461890081E+03  0.16461890081E+03  0.00000000000E+00 0.  1.
         25    2    1    2    0    0 -0.53707318851E+02  0.15878420013E+02  0.55833972841E+01  0.13716872675E+03  0.12508990748E+03 0.  0.
         23    2    1    2    0    0  0.53707318851E+02 -0.15878420013E+02 -0.70054812870E+02  0.12759765927E+03  0.90757289104E+02 0.  0.
          5    1    3    3  502    0 -0.54251989822E+02  0.64846559514E+02  0.17848115798E+02  0.86512324660E+02  0.41800000000E+01 0. -1.
         -5    1    3    3    0  502  0.54467097096E+00 -0.48968139502E+02 -0.12264718514E+02  0.50656402092E+02  0.41800000000E+01 0. -1.
        -11    1    4    4    0    0  0.57094343300E+02 -0.41475563822E+02 -0.73092049123E+02  0.10159938029E+03  0.00000000000E+00 0.  1.
         11    1    4    4    0    0 -0.33870244496E+01  0.25597143809E+02  0.30372362526E+01  0.25998278979E+02  0.00000000000E+00 0. -1.
</event>
<event>
 8    1  0.7281309E-009  0.1139872E+03  0.7561462E-02  0.1253359E+00
          2   -1    0    0  501    0  0.00000000000E+00  0.00000000000E+00  0.83945423646E+03  0.83945423646E+03  0.00000000000E+00 0.  1.
         -2   -1    0    0    0  501 -0.00000000000E+00 -0.00000000000E+00 -0.62704101391E+02  0.62704101391E+02  0.00000000000E+00 0. -1.
         25    2    1    2    0    0  0.25930034475E+02  0.59702251727E+02  0.77900778559E+03  0.79166844322E+03  0.12509623669E+03 0.  0.
         23    2    1    2    0    0 -0.25930034475E+02 -0.59702251727E+02 -0.22576505266E+01  0.11048989462E+03  0.89253539308E+02 0.  0.
          5    1    3    3  502    0  0.72001528441E+02  0.39059751208E+02  0.34026553978E+03  0.35001142013E+03  0.41800000000E+01 0. -1.
         -5    1    3    3    0  502 -0.46071493967E+02  0.20642500518E+02  0.43874224581E+03  0.44165702309E+03  0.41800000000E+01 0. -1.
        -11    1    4    4    0    0 -0.34358165593E+02  0.64447695158E+00 -0.28015361119E+02  0.44336884781E+02  0.00000000000E+00 0. -1.
         11    1    4    4    0    0  0.84281311185E+01 -0.60346728678E+02  0.25757710592E+02  0.66153009843E+02  0.00000000000E+00 0.  1.
</event>
<event>
 8    1  0.7281309E-009  0.2617516E+03  0.7561462E-02  0.1106095E+00
         -1   -1    0    0    0  501 -0.00000000000E+00  0.00000000000E+00  0.12271975983E+03  0.12271975983E+03  0.00000000000E+00 0.  1.
          1   -1    0    0  501    0  0.00000000000E+00 -0.00000000000E+00 -0.69951884394E+03  0.69951884394E+03  0.00000000000E+00 0. -1.
         25    2    1    2    0    0  0.13752158683E+03 -0.20636235389E+03 -0.45101075854E+03  0.52967217248E+03  0.12507716830E+03 0.  0.
         23    2    1    2    0    0 -0.13752158683E+03  0.20636235389E+03 -0.12578832556E+03  0.29256643130E+03  0.90965960255E+02 0.  0.
          5    1    3    3  502    0  0.15293099536E+03 -0.18638688528E+03 -0.44018120131E+03  0.50190130776E+03  0.41800000000E+01 0. -1.
         -5    1    3    3    0  502 -0.15409408525E+02 -0.19975468608E+02 -0.10829557229E+02  0.27770864714E+02  0.41800000000E+01 0. -1.
        -11    1    4    4    0    0 -0.12629174125E+03  0.13619975682E+03 -0.12030609657E+03  0.22129964875E+03  0.00000000000E+00 0.  1.
         11    1    4    4    0    0 -0.11229845587E+02  0.70162597071E+02 -0.54822289907E+01  0.71266782545E+02  0.00000000000E+00 0. -1.
</event>
<event>
 8    1  0.7281309E-009  0.9871520E+02  0.7561462E-02  0.1283021E+00
          1   -1    0    0  501    0  0.00000000000E+00  0.00000000000E+00  0.36020171341E+03  0.36020171341E+03  0.00000000000E+00 0. -1.
         -1   -1    0    0    0  501 -0.00000000000E+00 -0.00000000000E+00 -0.46510389031E+02  0.46510389031E+02  0.00000000000E+00 0.  1.
         25    2    1    2    0    0 -0.28977901395E+02  0.30122526002E+02  0.89158790642E+02  0.15919809262E+03  0.12509059678E+03 0.  0.
         23    2    1    2    0    0  0.28977901395E+02 -0.30122526002E+02  0.22453253373E+03  0.24751400982E+03  0.95400424586E+02 0.  0.
          5    1    3    3  502    0  0.19353817474E+02  0.66148267203E+02  0.62571474270E+02  0.93181678978E+02  0.41800000000E+01 0.  1.
         -5    1    3    3    0  502 -0.48331718869E+02 -0.36025741201E+02  0.26587316372E+02  0.66016413639E+02  0.41800000000E+01 0.  1.
        -11    1    4    4    0    0  0.39331451711E+02 -0.38196907751E+02  0.22753330902E+03  0.23404566556E+03  0.00000000000E+00 0. -1.
         11    1    4    4    0    0 -0.10353550316E+02  0.80743817490E+01 -0.30007752851E+01  0.13468344260E+02  0.00000000000E+00 0.  1.
</event>
<event>
 8    1  0.7281309E-009  0.1176842E+03  0.7561462E-02  0.1246967E+00
          3   -1    0    0  501    0  0.00000000000E+00  0.00000000000E+00  0.46149995471E+03  0.46149995471E+03  0.00000000000E+00 0. -1.
         -3   -1    0    0    0  501 -0.00000000000E+00 -0.00000000000E+00 -0.44932327075E+02  0.44932327075E+02  0.00000000000E+00 0.  1.
         25    2    1    2    0    0 -0.74269758652E+02 -0.37590883241E+01  0.32848305343E+03  0.35927690397E+03  0.12509456238E+03 0.  0.
         23    2    1    2    0    0  0.74269758652E+02  0.37590883241E+01  0.88084574199E+02  0.14715537781E+03  0.91464119809E+02 0.  0.
          5    1    3    3  502    0 -0.19833834317E+02  0.42578246878E+02  0.39380262425E+02  0.61437493110E+02  0.41800000000E+01 0. -1.
         -5    1    3    3    0  502 -0.54435924335E+02 -0.46337335202E+02  0.28910279101E+03  0.29783941086E+03  0.41800000000E+01 0. -1.
        -11    1    4    4    0    0 -0.17350702237E+02 -0.15169583480E+02  0.93250353356E+01  0.24862007463E+02  0.00000000000E+00 0.  1.
         11    1    4    4    0    0  0.91620460889E+02  0.18928671804E+02  0.78759538863E+02  0.12229337035E+03  0.00000000000E+00 0. -1.
</event>
<event>
 8    1  0.7281309E-009  0.1112107E+03  0.7561462E-02  0.1258344E+00
          2   -1    0    0  501    0  0.00000000000E+00  0.00000000000E+00  0.17622312768E+03  0.17622312768E+03  0.00000000000E+00 0. -1.
         -2   -1    0    0    0  501 -0.00000000000E+00 -0.00000000000E+00 -0.10371398775E+03  0.10371398775E+03  0.00000000000E+00 0.  1.
         25    2    1    2    0    0  0.69818478799E+02 -0.26997901656E+02  0.67527848688E+02  0.16065943235E+03  0.12509171107E+03 0.  0.
         23    2    1    2    0    0 -0.69818478799E+02  0.26997901656E+02  0.49812912357E+01  0.11927768308E+03  0.92729961412E+02 0.  0.
          5    1    3    3  502    0  0.36845173180E+02  0.34439870878E+02 -0.14765032585E+02  0.52717644864E+02  0.41800000000E+01 0.  1.
         -5    1    3    3    0  502  0.32973305619E+02 -0.61437772534E+02  0.82292881273E+02  0.10794178749E+03  0.41800000000E+01 0.  1.
        -11    1    4    4    0    0 -0.70492556434E+02  0.45205177963E+02  0.29451108736E+02  0.88769794599E+02  0.00000000000E+00 0. -1.
         11    1    4    4    0    0  0.67407763583E+00 -0.18207276307E+02 -0.24469817500E+02  0.30507888483E+02  0.00000000000E+00 0.  1.
</event>
<event>
 8    1  0.7281309E-009  0.1112361E+03  0.7561462E-02  0.1258298E+00
         -1   -1    0    0    0  501 -0.00000000000E+00  0.00000000000E+00  0.25286716906E+03  0.25286716906E+03  0.00000000000E+00 0.  1.
          1   -1    0    0  501    0  0.00000000000E+00 -0.00000000000E+00 -0.66137232280E+02  0.66137232280E+02  0.00000000000E+00 0. -1.
         25    2    1    2    0    0  0.49161909907E+00 -0.45323954653E+02  0.16928169979E+03  0.21531183967E+03  0.12509353246E+03 0.  0.
         23    2    1    2    0    0 -0.49161909907E+00  0.45323954653E+02  0.17448236990E+02  0.10369256167E+03  0.91614430177E+02 0.  0.
          5    1    3    3  502    0  0.19614276355E+01  0.43606160567E+02  0.60921004373E+02  0.75061212431E+02  0.41800000000E+01 0.  1.
         -5    1    3    3    0  502 -0.14698085364E+01 -0.88930115220E+02  0.10836069542E+03  0.14025062724E+03  0.41800000000E+01 0.  1.
        -11    1    4    4    0    0  0.36882148228E+02  0.10135814536E+02  0.32507117266E+02  0.50197014524E+02  0.00000000000E+00 0.  1.
         11    1    4    4    0    0 -0.37373767327E+02  0.35188140117E+02 -0.15058880276E+02  0.53495547144E+02  0.00000000000E+00 0. -1.
</event>
<event>
 8    1  0.7281309E-009  0.1829391E+03  0.7561462E-02  0.1164989E+00
          2   -1    0    0  501    0  0.00000000000E+00  0.00000000000E+00  0.48442443142E+03  0.48442443142E+03  0.00000000000E+00 0. -1.
         -2   -1    0    0    0  501 -0.00000000000E+00 -0.00000000000E+00 -0.87856679246E+02  0.87856679246E+02  0.00000000000E+00 0.  1.
         25    2    1    2    0    0 -0.17049553601E+03  0.33288723793E+02  0.24333856005E+03  0.32409359286E+03  0.12508451221E+03 0.  0.
         23    2    1    2    0    0  0.17049553601E+03 -0.33288723793E+02  0.15322919212E+03  0.24818751780E+03  0.89112242387E+02 0.  0.
          5    1    3    3  502    0 -0.12097555119E+03  0.21956085446E+02  0.66069219737E+02  0.13964156928E+03  0.41800000000E+01 0. -1.
         -5    1    3    3    0  502 -0.49519984821E+02  0.11332638347E+02  0.17726934031E+03  0.18445202358E+03  0.41800000000E+01 0. -1.
        -11    1    4    4    0    0  0.11566583078E+03 -0.60653736620E+02  0.81939257123E+02  0.15418009610E+03  0.00000000000E+00 0. -1.
         11    1    4    4    0    0  0.54829705234E+02  0.27365012827E+02  0.71289935000E+02  0.94007421704E+02  0.00000000000E+00 0.  1.
</event>
<event>
 8    1  0.7281309E-009  0.1265334E+03  0.7561462E-02  0.1232692E+00
         -1   -1    0    0    0  501 -0.00000000000E+00  0.00000000000E+00  0.74249944847E+03  0.74249944847E+03  0.00000000000E+00 0.  1.
          1   -1    0    0  501    0  0.00000000000E+00 -0.00000000000E+00 -0.25627718139E+02  0.25627718139E+02  0.00000000000E+00 0. -1.
         25    2    1    2    0    0 -0.26006864515E+02  0.79322106282E+02  0.44747973152E+03  0.47207326858E+03  0.12508679883E+03 0.  0.
         23    2    1    2    0    0  0.26006864515E+02 -0.79322106282E+02  0.26939199881E+03  0.29605389803E+03  0.90041701268E+02 0.  0.
          5    1    3    3  502    0 -0.65065686844E+02  0.76987961596E+01  0.24733150955E+03  0.25589678209E+03  0.41800000000E+01 0.  1.
         -5    1    3    3    0  502  0.39058822328E+02  0.71623310123E+02  0.20014822197E+03  0.21617648649E+03  0.41800000000E+01 0.  1.
        -11    1    4    4    0    0 -0.21368038475E+02 -0.16259499597E+02  0.17374675041E+02  0.31981928150E+02  0.00000000000E+00 0. -1.
         11    1    4    4    0    0  0.47374902990E+02 -0.63062606686E+02  0.25201732377E+03  0.26407196988E+03  0.00000000000E+00 0.  1.
</event>
<event>
 8    1  0.7281309E-009  0.1127187E+03  0.7561462E-02  0.1255616E+00
         -2   -1    0    0    0  501 -0.00000000000E+00  0.00000000000E+00  0.61601290584E+02  0.61601290584E+02  0.00000000000E+00 0.  1.
          2   -1    0    0  501    0  0.00000000000E+00 -0.00000000000E+00 -0.27464465796E+03  0.27464465796E+03  0.00000000000E+00 0. -1.
         25    2    1    2    0    0 -0.70790012832E+01 -0.43705472297E+02 -0.44867059474E+02  0.14007174086E+03  0.12508700569E+03 0.  0.
         23    2    1    2    0    0  0.70790012832E+01  0.43705472297E+02 -0.16817630790E+03  0.19617420768E+03  0.90778679513E+02 0.  0.
          5    1    3    3  502    0  0.22171152910E+02  0.38595582303E+02 -0.92566752703E+01  0.45654544480E+02  0.41800000000E+01 0.  1.
         -5    1    3    3    0  502 -0.29250154193E+02 -0.82301054599E+02 -0.35610384204E+02  0.94417196377E+02  0.41800000000E+01 0.  1.
        -11    1    4    4    0    0  0.44488284302E+02  0.28918403598E+02 -0.56667689416E+02  0.77631878314E+02  0.00000000000E+00 0.  1.
         11    1    4    4    0    0 -0.37409283019E+02  0.14787068699E+02 -0.11150861848E+03  0.11854232937E+03  0.00000000000E+00 0. -1.
</event>
<event>
 8    1  0.7281309E-009  0.1150965E+03  0.7561462E-02  0.1251413E+00
         -2   -1    0    0    0  501 -0.00000000000E+00  0.00000000000E+00  0.38114044719E+03  0.38114044719E+03  0.00000000000E+00 0. -1.
          2   -1    0    0  501    0  0.00000000000E+00 -0.00000000000E+00 -0.45063625522E+02  0.45063625522E+02  0.00000000000E+00 0.  1.
         25    2    1    2    0    0  0.53296068568E+02  0.48287659606E+02  0.19268933106E+03  0.24072609008E+03  0.12509077962E+03 0.  0.
         23    2    1    2    0    0 -0.53296068568E+02 -0.48287659606E+02  0.14338749060E+03  0.18547798262E+03  0.93112515712E+02 0.  0.
          5    1    3    3  502    0  0.89804523441E+02  0.54998005024E+02  0.12578963428E+03  0.16410404468E+03  0.41800000000E+01 0. -1.
         -5    1    3    3    0  502 -0.36508454873E+02 -0.67103454174E+01  0.66899696781E+02  0.76622045406E+02  0.41800000000E+01 0. -1.
        -11    1    4    4    0    0 -0.50376793587E+02 -0.12982961679E+02  0.14063200932E+03  0.14994579244E+03  0.00000000000E+00 0. -1.
         11    1    4    4    0    0 -0.29192749808E+01 -0.35304697928E+02  0.27554812850E+01  0.35532190184E+02  0.00000000000E+00 0.  1.
</event>
<event>
 8    1  0.7281309E-009  0.1171357E+03  0.7561462E-02  0.1247899E+00
          1   -1    0    0  501    0  0.00000000000E+00  0.00000000000E+00  0.25362801790E+03  0.25362801790E+03  0.00000000000E+00 0. -1.
         -1   -1    0    0    0  501 -0.00000000000E+00 -0.00000000000E+00 -0.76072217714E+02  0.76072217714E+02  0.00000000000E+00 0.  1.
         25    2    1    2    0    0 -0.83980161740E+02  0.14179874073E+02  0.12228769818E+03  0.19456395489E+03  0.12508842880E+03 0.  0.
         23    2    1    2    0    0  0.83980161740E+02 -0.14179874073E+02  0.55268102004E+02  0.13513628073E+03  0.89182480762E+02 0.  0.
          5    1    3    3  502    0  0.29152113218E+02 -0.65807116580E+01  0.56537224639E+01  0.30701603358E+02  0.41800000000E+01 0. -1.
         -5    1    3    3    0  502 -0.11313227496E+03  0.20760585731E+02  0.11663397572E+03  0.16386235153E+03  0.41800000000E+01 0. -1.
        -11    1    4    4    0    0  0.18636198873E+02 -0.14564623157E+02  0.64908725624E+02  0.69083853528E+02  0.00000000000E+00 0. -1.
         11    1    4    4    0    0  0.65343962866E+02  0.38474908372E+00 -0.96406236206E+01  0.66052427198E+02  0.00000000000E+00 0.  1.
</event>
<event>
 8    1  0.7281309E-009  0.9427580E+02  0.7561462E-02  0.1292816E+00
          2   -1    0    0  501    0  0.00000000000E+00  0.00000000000E+00  0.39047424043E+03  0.39047424043E+03  0.00000000000E+00 0. -1.
         -2   -1    0    0    0  501 -0.00000000000E+00 -0.00000000000E+00 -0.38858429211E+02  0.38858429211E+02  0.00000000000E+00 0.  1.
         25    2    1    2    0    0  0.38992987064E+02 -0.36323178464E+01  0.12170105521E+03  0.17886227131E+03  0.12508764322E+03 0.  0.
         23    2    1    2    0    0 -0.38992987064E+02  0.36323178464E+01  0.22991475601E+03  0.25047039833E+03  0.91328958370E+02 0.  0.
          5    1    3    3  502    0  0.64498909261E+02 -0.27678020394E+01  0.11550211042E+02  0.65716434772E+02  0.41800000000E+01 0.  1.
         -5    1    3    3    0  502 -0.25505922197E+02 -0.86451580691E+00  0.11015084417E+03  0.11314583654E+03  0.41800000000E+01 0.  1.
        -11    1    4    4    0    0  0.23150085996E+02  0.23271361960E+02  0.97674353014E+02  0.10304252523E+03  0.00000000000E+00 0.  1.
         11    1    4    4    0    0 -0.62143073060E+02 -0.19639044114E+02  0.13224040299E+03  0.14742787310E+03  0.00000000000E+00 0. -1.
</event>
<event>
 8    1  0.7281309E-009  0.1553456E+03  0.7561462E-02  0.1194054E+00
         -2   -1    0    0    0  501 -0.00000000000E+00  0.00000000000E+00  0.13772678103E+03  0.13772678103E+03  0.00000000000E+00 0.  1.
          2   -1    0    0  501    0  0.00000000000E+00 -0.00000000000E+00 -0.30907270880E+03  0.30907270880E+03  0.00000000000E+00 0. -1.
         25    2    1    2    0    0  0.13115106794E+03 -0.14841092187E+01 -0.21492463554E+03  0.28114502251E+03  0.12508844677E+03 0.  0.
         23    2    1    2    0    0 -0.13115106794E+03  0.14841092187E+01  0.43578707771E+02  0.16565446733E+03  0.91320827704E+02 0.  0.
          5    1    3    3  502    0  0.86154253104E+02  0.56951745855E+02 -0.15358608064E+03  0.18512755940E+03  0.41800000000E+01 0.  1.
         -5    1    3    3    0  502  0.44996814835E+02 -0.58435855074E+02 -0.61338554900E+02  0.96017463103E+02  0.41800000000E+01 0.  1.
        -11    1    4    4    0    0 -0.38068513638E+02  0.11678984344E+02  0.58568712346E+02  0.70823050427E+02  0.00000000000E+00 0.  1.
         11    1    4    4    0    0 -0.93082554301E+02 -0.10194875126E+02 -0.14990004575E+02  0.94831416900E+02  0.00000000000E+00 0. -1.
</event>
<event>
 8    1  0.7281309E-009  0.1092318E+03  0.7561462E-02  0.1261999E+00
         -2   -1    0    0    0  501 -0.00000000000E+00  0.00000000000E+00  0.33051489340E+03  0.33051489340E+03  0.00000000000E+00 0.  1.
          2   -1    0    0  501    0  0.00000000000E+00 -0.00000000000E+00 -0.51530634762E+02  0.51530634762E+02  0.00000000000E+00 0. -1.
         25    2    1    2    0    0  0.57440841342E+02 -0.26706598518E+02  0.10405275622E+03  0.17460361712E+03  0.12508698724E+03 0.  0.
         23    2    1    2    0    0 -0.57440841342E+02  0.26706598518E+02  0.17493150242E+03  0.20744191104E+03  0.91751965967E+02 0.  0.
          5    1    3    3  502    0  0.23797055602E+02 -0.72693442996E+02  0.84888275665E+02  0.11434215432E+03  0.41800000000E+01 0.  1.
         -5    1    3    3    0  502  0.33643785740E+02  0.45986844478E+02  0.19164480555E+02  0.60261462801E+02  0.41800000000E+01 0.  1.
        -11    1    4    4    0    0 -0.15654461129E+02  0.38288651679E+02  0.18865790840E+02  0.45464283395E+02  0.00000000000E+00 0. -1.
         11    1    4    4    0    0 -0.41786380213E+02 -0.11582053160E+02  0.15606571158E+03  0.16197762765E+03  0.00000000000E+00 0.  1.
</event>
<event>
 8    1  0.7281309E-009  0.4481011E+03  0.7561462E-02  0.1028290E+00
          1   -1    0    0  501    0  0.00000000000E+00  0.00000000000E+00  0.24733166488E+03  0.24733166488E+03  0.00000000000E+00 0. -1.
         -1   -1    0    0    0  501 -0.00000000000E+00 -0.00000000000E+00 -0.85455389863E+03  0.85455389863E+03  0.00000000000E+00 0.  1.
         25    2    1    2    0    0  0.39025890288E+03 -0.21493897262E+03 -0.34180041541E+03  0.57530493539E+03  0.12508985367E+03 0.  0.
         23    2    1    2    0    0 -0.39025890288E+03  0.21493897262E+03 -0.26542181834E+03  0.52658062811E+03  0.91310695058E+02 0.  0.
          5    1    3    3  502    0  0.32842883775E+03 -0.18489135098E+03 -0.33809160866E+03  0.50633360681E+03  0.41800000000E+01 0. -1.
         -5    1    3    3    0  502  0.61830065123E+02 -0.30047621634E+02 -0.37088067428E+01  0.68971328583E+02  0.41800000000E+01 0. -1.
        -11    1    4    4    0    0 -0.33871284467E+03  0.21022916461E+03 -0.25654167247E+03  0.47406362707E+03  0.00000000000E+00 0.  1.
         11    1    4    4    0    0 -0.51546058209E+02  0.47098080047E+01 -0.88801458715E+01  0.52517001047E+02  0.00000000000E+00 0. -1.
</event>
<event>
 8    1  0.7281309E-009  0.9206761E+02  0.7561462E-02  0.1297921E+00
          4   -1    0    0  501    0  0.00000000000E+00  0.00000000000E+00  0.35304958584E+03  0.35304958584E+03  0.00000000000E+00 0. -1.
         -4   -1    0    0    0  501 -0.00000000000E+00 -0.00000000000E+00 -0.34603707237E+02  0.34603707237E+02  0.00000000000E+00 0.  1.
         25    2    1    2    0    0  0.14168377823E+02 -0.11979279666E+02  0.16341184556E+03  0.20664258894E+03  0.12511387703E+03 0.  0.
         23    2    1    2    0    0 -0.14168377823E+02  0.11979279666E+02  0.15503403305E+03  0.18101070414E+03  0.91570069002E+02 0.  0.
          5    1    3    3  502    0  0.54553939722E+02  0.30010744700E+02  0.53600001507E+02  0.82263051841E+02  0.41800000000E+01 0. -1.
         -5    1    3    3    0  502 -0.40385561899E+02 -0.41990024365E+02  0.10981184405E+03  0.12437953710E+03  0.41800000000E+01 0. -1.
        -11    1    4    4    0    0 -0.38082518840E+02  0.97077324044E+01  0.20455622222E+02  0.44305200486E+02  0.00000000000E+00 0.  1.
         11    1    4    4    0    0  0.23914141017E+02  0.22715472611E+01  0.13457841083E+03  0.13670550365E+03  0.00000000000E+00 0. -1.
</event>
<event>
 8    1  0.7281309E-009  0.1006052E+03  0.7561462E-02  0.1279028E+00
         -2   -1    0    0    0  501 -0.00000000000E+00  0.00000000000E+00  0.60706541734E+02  0.60706541734E+02  0.00000000000E+00 0.  1.
          2   -1    0    0  501    0  0.00000000000E+00 -0.00000000000E+00 -0.25983356205E+03  0.25983356205E+03  0.00000000000E+00 0. -1.
         25    2    1    2    0    0  0.61165575011E+02  0.19098364242E+02 -0.11097433721E+03  0.17907487290E+03  0.12508609636E+03 0.  0.
         23    2    1    2    0    0 -0.61165575011E+02 -0.19098364242E+02 -0.88152683110E+02  0.14146523089E+03  0.90197233478E+02 0.  0.
          5    1    3    3  502    0  0.27656626587E+02 -0.25258779059E+02 -0.11707703510E+03  0.12299349357E+03  0.41800000000E+01 0. -1.
         -5    1    3    3    0  502  0.33508948425E+02  0.44357143301E+02  0.61026978854E+01  0.56081379332E+02  0.41800000000E+01 0. -1.
        -11    1    4    4    0    0 -0.70741669217E+02 -0.42473997229E+02 -0.79982617422E+02  0.11491580959E+03  0.00000000000E+00 0. -1.
         11    1    4    4    0    0  0.95760942061E+01  0.23375632987E+02 -0.81700656886E+01  0.26549421296E+02  0.00000000000E+00 0.  1.
</event>
<event>
 8    1  0.7281309E-009  0.2420671E+03  0.7561462E-02  0.1118423E+00
          2   -1    0    0  501    0  0.00000000000E+00  0.00000000000E+00  0.51591291750E+03  0.51591291750E+03  0.00000000000E+00 0.  1.
         -2   -1    0    0    0  501 -0.00000000000E+00 -0.00000000000E+00 -0.12588478879E+03  0.12588478879E+03  0.00000000000E+00 0. -1.
         25    2    1    2    0    0 -0.18370064426E+03  0.12745692101E+03  0.27983914810E+03  0.37940527468E+03  0.12508884936E+03 0.  0.
         23    2    1    2    0    0  0.18370064426E+03 -0.12745692101E+03  0.11018898061E+03  0.26239243161E+03  0.81957204117E+02 0.  0.
          5    1    3    3  502    0  0.16575660106E+02  0.98691927226E+00  0.82343559176E+01  0.19000093026E+02  0.41800000000E+01 0. -1.
         -5    1    3    3    0  502 -0.20027630436E+03  0.12647000174E+03  0.27160479218E+03  0.36040518165E+03  0.41800000000E+01 0. -1.
        -11    1    4    4    0    0  0.46575453289E+02 -0.60599072852E+01  0.52358848572E+02  0.70338071833E+02  0.00000000000E+00 0.  1.
         11    1    4    4    0    0  0.13712519097E+03 -0.12139701372E+03  0.57830132034E+02  0.19205435978E+03  0.00000000000E+00 0. -1.
</event>
<event>
 7    1  0.7281309E-009  0.1072888E+03  0.7561462E-02  0.1265675E+00
          1   -1    0    0  501    0  0.00000000000E+00  0.00000000000E+00  0.70320433082E+03  0.70320433082E+03  0.00000000000E+00 0. -1.
         -1   -1    0    0    0  501 -0.00000000000E+00 -0.00000000000E+00 -0.17043461845E+02  0.17043461845E+02  0.00000000000E+00 0.  1.
         25    2    1    2    0    0  0.26710206081E+01 -0.63608807762E+02  0.47763453944E+03  0.49783053320E+03  0.12508905527E+03 0.  0.
          5    1    3    3  502    0  0.40214066831E+02  0.20582373416E+02  0.11464301330E+03  0.12329354470E+03  0.41800000000E+01 0. -1.
         -5    1    3    3    0  502 -0.37543046223E+02 -0.84191181178E+02  0.36299152614E+03  0.37453698850E+03  0.41800000000E+01 0. -1.
        -11    1    1    2    0    0 -0.18844215874E+02  0.55947647894E+02  0.14937322331E+03  0.16061632426E+03  0.00000000000E+00 0.  1.
         11    1    1    2    0    0  0.16173195266E+02  0.76611598673E+01  0.59153106225E+02  0.61800935200E+02  0.00000000000E+00 0. -1.
</event>
<event>
 8    1  0.7281309E-009  0.1479186E+03  0.7561462E-02  0.1203054E+00
         -2   -1    0    0    0  501 -0.00000000000E+00  0.00000000000E+00  0.20636846832E+03  0.20636846832E+03  0.00000000000E+00 0.  1.
          2   -1    0    0  501    0  0.00000000000E+00 -0.00000000000E+00 -0.11312045058E+03  0.11312045058E+03  0.00000000000E+00 0. -1.
         25    2    1    2    0    0  0.75802897724E+02  0.75953245024E+02  0.46098034931E+02  0.17114011981E+03  0.12509571157E+03 0.  0.
         23    2    1    2    0    0 -0.75802897724E+02 -0.75953245024E+02  0.47149982807E+02  0.14834879908E+03  0.90935529784E+02 0.  0.
          5    1    3    3  502    0  0.10673961920E+03  0.34571372251E+02  0.38804907236E+02  0.11879317872E+03  0.41800000000E+01 0. -1.
         -5    1    3    3    0  502 -0.30936721475E+02  0.41381872773E+02  0.72931276959E+01  0.52346941089E+02  0.41800000000E+01 0. -1.
        -11    1    4    4    0    0 -0.59652144615E+02 -0.60255670704E+01 -0.41986013985E+01  0.60102529642E+02  0.00000000000E+00 0. -1.
         11    1    4    4    0    0 -0.16150753109E+02 -0.69927677953E+02  0.51348584206E+02  0.88246269439E+02  0.00000000000E+00 0.  1.
</event>
<event>
 8    1  0.7281309E-009  0.1587783E+03  0.7561462E-02  0.1190083E+00
          1   -1    0    0  501    0  0.00000000000E+00  0.00000000000E+00  0.24058446376E+03  0.24058446376E+03  0.00000000000E+00 0. -1.
         -1   -1    0    0    0  501 -0.00000000000E+00 -0.00000000000E+00 -0.10892022921E+03  0.10892022921E+03  0.00000000000E+00 0.  1.
         25    2    1    2    0    0 -0.10725395909E+03 -0.46448722797E+02  0.91535085631E+02  0.19413007737E+03  0.12508764706E+03 0.  0.
         23    2    1    2    0    0  0.10725395909E+03  0.46448722797E+02  0.40129148916E+02  0.15537461561E+03  0.94180820722E+02 0.  0.
          5    1    3    3  502    0 -0.62009017045E+02 -0.87007788612E+02  0.39386329954E+02  0.11394836050E+03  0.41800000000E+01 0. -1.
         -5    1    3    3    0  502 -0.45244942045E+02  0.40559065815E+02  0.52148755677E+02  0.80181716863E+02  0.41800000000E+01 0. -1.
        -11    1    4    4    0    0  0.72979039700E+01  0.49192934997E+02  0.18554629549E+02  0.53079925901E+02  0.00000000000E+00 0.  1.
         11    1    4    4    0    0  0.99956055120E+02 -0.27442121999E+01  0.21574519367E+02  0.10229468970E+03  0.00000000000E+00 0. -1.
</event>
