<event>
 7    1  0.2480409E-009  0.1185401E+03  0.7561462E-02  0.1245525E+00
         -2   -1    0    0    0  501 -0.00000000000E+00  0.00000000000E+00  0.29544036434E+03  0.29544036434E+03  0.00000000000E+00 0. -1.
          2   -1    0    0  501    0  0.00000000000E+00 -0.00000000000E+00 -0.76870435066E+02  0.76870435066E+02  0.00000000000E+00 0.  1.
         25    2    1    2    0    0 -0.72684341762E+00  0.98837619676E+02  0.80235220214E+02  0.17847633272E+03  0.12508679951E+03 0.  0.
          5    1    3    3  502    0  0.46691726844E+02  0.34590527301E+02  0.79438608371E+02  0.98511861390E+02  0.41800000000E+01 0.  1.
         -5    1    3    3    0  502 -0.47418570261E+02  0.64247092375E+02  0.79661184329E+00  0.79964471328E+02  0.41800000000E+01 0.  1.
        -11    1    1    2    0    0 -0.63710533066E+00 -0.50354963070E+02  0.13628254850E+03  0.14528923303E+03  0.00000000000E+00 0. -1.
         11    1    1    2    0    0  0.13639487483E+01 -0.48482656606E+02  0.20521605582E+01  0.48545233656E+02  0.00000000000E+00 0.  1.
</event>
<event>
 7    1  0.2480409E-009  0.7013798E+02  0.7561462E-02  0.1359624E+00
          2   -1    0    0  501    0  0.00000000000E+00  0.00000000000E+00  0.16619441311E+03  0.16619441311E+03  0.00000000000E+00 0. -1.
         -2   -1    0    0    0  501 -0.00000000000E+00 -0.00000000000E+00 -0.76542461053E+02  0.76542461053E+02  0.00000000000E+00 0.  1.
         25    2    1    2    0    0 -0.13441692025E+01  0.29749416795E+02  0.43850041957E+02  0.13585672141E+03  0.12508951988E+03 0.  0.
          5    1    3    3  502    0  0.29699123182E+02  0.83466890839E+01  0.78518343717E+02  0.84464831951E+02  0.41800000000E+01 0. -1.
         -5    1    3    3    0  502 -0.31043292384E+02  0.21402727712E+02 -0.34668301760E+02  0.51391889462E+02  0.41800000000E+01 0. -1.
        -11    1    1    2    0    0  0.32398694302E+02 -0.22118152388E+02 -0.11827490152E+02  0.40972888363E+02  0.00000000000E+00 0.  1.
         11    1    1    2    0    0 -0.31054525099E+02 -0.76312644076E+01  0.57629400255E+02  0.65907264390E+02  0.00000000000E+00 0. -1.
</event>
<event>
 7    1  0.2480409E-009  0.7738670E+02  0.7561462E-02  0.1336636E+00
         -3   -1    0    0    0  501 -0.00000000000E+00  0.00000000000E+00  0.96288129797E+02  0.96288129797E+02  0.00000000000E+00 0.  1.
          3   -1    0    0  501    0  0.00000000000E+00 -0.00000000000E+00 -0.17229907193E+03  0.17229907193E+03  0.00000000000E+00 0. -1.
         25    2    1    2    0    0  0.32506644453E+02  0.39433319682E+02 -0.33230475518E+02  0.13914984283E+03  0.12508695224E+03 0.  0.
          5    1    3    3  502    0  0.19807625107E+02  0.11787087435E+02 -0.79911072364E+02  0.83273821391E+02  0.41800000000E+01 0.  1.
         -5    1    3    3    0  502  0.12699019346E+02  0.27646232247E+02  0.46680596846E+02  0.55876021438E+02  0.41800000000E+01 0.  1.
        -11    1    1    2    0    0  0.29673520877E+02 -0.18786109089E+02  0.18527785341E+02  0.39707865287E+02  0.00000000000E+00 0.  1.
         11    1    1    2    0    0 -0.62180165330E+02 -0.20647210593E+02 -0.61308251952E+02  0.89729493608E+02  0.00000000000E+00 0. -1.
</event>
<event>
 7    1  0.2480409E-009  0.6704198E+02  0.7561462E-02  0.1370451E+00
          1   -1    0    0  501    0  0.00000000000E+00  0.00000000000E+00  0.51320761664E+03  0.51320761664E+03  0.00000000000E+00 0. -1.
         -1   -1    0    0    0  501 -0.00000000000E+00 -0.00000000000E+00 -0.27619320297E+02  0.27619320297E+02  0.00000000000E+00 0.  1.
         25    2    1    2    0    0  0.53554922853E+01  0.45040942395E+02  0.31062158880E+03  0.33792076134E+03  0.12508917510E+03 0.  0.
          5    1    3    3  502    0  0.85840384691E+01  0.24503254145E+02  0.31514285359E+03  0.31623817883E+03  0.41800000000E+01 0. -1.
         -5    1    3    3    0  502 -0.32285461838E+01  0.20537688250E+02 -0.45212647901E+01  0.21682582512E+02  0.41800000000E+01 0. -1.
        -11    1    1    2    0    0  0.31893222542E+02 -0.56918455035E+01  0.12524284701E+03  0.12936516331E+03  0.00000000000E+00 0. -1.
         11    1    1    2    0    0 -0.37248714827E+02 -0.39349096891E+02  0.49723860530E+02  0.73541012288E+02  0.00000000000E+00 0.  1.
</event>
<event>
 7    1  0.2480409E-009  0.1569436E+03  0.7561462E-02  0.1192191E+00
         -1   -1    0    0    0  501 -0.00000000000E+00  0.00000000000E+00  0.62229194273E+02  0.62229194273E+02  0.00000000000E+00 0.  1.
          1   -1    0    0  501    0  0.00000000000E+00 -0.00000000000E+00 -0.52967362995E+03  0.52967362995E+03  0.00000000000E+00 0. -1.
         25    2    1    2    0    0  0.98407513609E+02 -0.10558332748E+03 -0.20286733671E+03  0.27862783691E+03  0.12508572030E+03 0.  0.
          5    1    3    3  502    0  0.17056161793E+02 -0.82345713423E+02 -0.36160297658E+02  0.91633884022E+02  0.41800000000E+01 0. -1.
         -5    1    3    3    0  502  0.81351351816E+02 -0.23237614062E+02 -0.16670703905E+03  0.18699395289E+03  0.41800000000E+01 0. -1.
        -11    1    1    2    0    0 -0.68339787064E+02  0.63706579386E+02 -0.84530510250E+02  0.12599310265E+03  0.00000000000E+00 0. -1.
         11    1    1    2    0    0 -0.30067726545E+02  0.41876748098E+02 -0.18004658872E+03  0.18728188466E+03  0.00000000000E+00 0.  1.
</event>
<event>
 7    1  0.2480409E-009  0.1250081E+03  0.7561462E-02  0.1235057E+00
          2   -1    0    0  501    0  0.00000000000E+00  0.00000000000E+00  0.66105543177E+03  0.66105543177E+03  0.00000000000E+00 0. -1.
         -2   -1    0    0    0  501 -0.00000000000E+00 -0.00000000000E+00 -0.45476719376E+02  0.45476719376E+02  0.00000000000E+00 0.  1.
         25    2    1    2    0    0 -0.98187444498E+02  0.10327050045E+02  0.51508978031E+03  0.53917728939E+03  0.12508894994E+03 0.  0.
          5    1    3    3  502    0  0.16505773795E+02 -0.14113548049E+02  0.18264444458E+02  0.28682662681E+02  0.41800000000E+01 0.  1.
         -5    1    3    3    0  502 -0.11469321829E+03  0.24440598094E+02  0.49682533585E+03  0.51049462671E+03  0.41800000000E+01 0.  1.
        -11    1    1    2    0    0  0.33711542936E+02 -0.27867344913E+02  0.89530279138E+02  0.99643002374E+02  0.00000000000E+00 0. -1.
         11    1    1    2    0    0  0.64475901562E+02  0.17540294868E+02  0.10958652948E+02  0.67711859380E+02  0.00000000000E+00 0.  1.
</event>
<event>
 7    1  0.2480409E-009  0.9186712E+02  0.7561462E-02  0.1298392E+00
         -1   -1    0    0    0  501 -0.00000000000E+00  0.00000000000E+00  0.95410619268E+02  0.95410619268E+02  0.00000000000E+00 0.  1.
          1   -1    0    0  501    0  0.00000000000E+00 -0.00000000000E+00 -0.16144085422E+03  0.16144085422E+03  0.00000000000E+00 0. -1.
         25    2    1    2    0    0 -0.33371658975E+02  0.26765033494E+02 -0.78680090622E+02  0.15384304437E+03  0.12508833280E+03 0.  0.
          5    1    3    3  502    0 -0.51257080198E+02  0.34391466236E+02  0.10255162156E+02  0.62711258727E+02  0.41800000000E+01 0. -1.
         -5    1    3    3    0  502  0.17885421223E+02 -0.76264327421E+01 -0.88935252778E+02  0.91131785648E+02  0.41800000000E+01 0. -1.
        -11    1    1    2    0    0  0.24135585916E+02 -0.61484724313E+02  0.47488401188E+01  0.66222725056E+02  0.00000000000E+00 0. -1.
         11    1    1    2    0    0  0.92360730585E+01  0.34719690820E+02  0.79010155526E+01  0.36785704056E+02  0.00000000000E+00 0.  1.
</event>
<event>
 7    1  0.2480409E-009  0.2143505E+03  0.7561462E-02  0.1138166E+00
         -1   -1    0    0    0  501 -0.00000000000E+00  0.00000000000E+00  0.17643050640E+03  0.17643050640E+03  0.00000000000E+00 0.  1.
          1   -1    0    0  501    0  0.00000000000E+00 -0.00000000000E+00 -0.27783910007E+03  0.27783910007E+03  0.00000000000E+00 0. -1.
         25    2    1    2    0    0  0.31838736041E+02 -0.19006523212E+03 -0.18956334520E+02  0.23053552293E+03  0.12509511236E+03 0.  0.
          5    1    3    3  502    0 -0.26367026173E+02 -0.16229253708E+03 -0.57591305405E+01  0.16457438332E+03  0.41800000000E+01 0.  1.
         -5    1    3    3    0  502  0.58205762214E+02 -0.27772695041E+02 -0.13197203979E+02  0.65961139602E+02  0.41800000000E+01 0.  1.
        -11    1    1    2    0    0 -0.40739906692E+02  0.86075252733E+02 -0.80706957874E+01  0.95571048236E+02  0.00000000000E+00 0.  1.
         11    1    1    2    0    0  0.89011706509E+01  0.10398997939E+03 -0.74381563362E+02  0.12816303531E+03  0.00000000000E+00 0. -1.
</event>
<event>
 7    1  0.2480409E-009  0.1709262E+03  0.7561462E-02  0.1176885E+00
         -1   -1    0    0    0  501 -0.00000000000E+00  0.00000000000E+00  0.83065585782E+02  0.83065585782E+02  0.00000000000E+00 0.  1.
          1   -1    0    0  501    0  0.00000000000E+00 -0.00000000000E+00 -0.60046015212E+03  0.60046015212E+03  0.00000000000E+00 0. -1.
         25    2    1    2    0    0  0.13875535896E+03  0.25245726755E+02 -0.64337498696E+02  0.19919464937E+03  0.12509515673E+03 0.  0.
          5    1    3    3  502    0  0.26989723704E+02 -0.37957688842E+02  0.13893590021E+02  0.48782533468E+02  0.41800000000E+01 0.  1.
         -5    1    3    3    0  502  0.11176563526E+03  0.63203415597E+02 -0.78231088718E+02  0.15041211590E+03  0.41800000000E+01 0.  1.
        -11    1    1    2    0    0 -0.41810232258E+01  0.23215838040E+02 -0.32812218357E+02  0.40411604331E+02  0.00000000000E+00 0.  1.
         11    1    1    2    0    0 -0.13457433574E+03 -0.48461564795E+02 -0.42024484929E+03  0.44391948420E+03  0.00000000000E+00 0. -1.
</event>
<event>
 7    1  0.2480409E-009  0.1062139E+03  0.7561462E-02  0.1267746E+00
          1   -1    0    0  501    0  0.00000000000E+00  0.00000000000E+00  0.84787417478E+03  0.84787417478E+03  0.00000000000E+00 0. -1.
         -1   -1    0    0    0  501 -0.00000000000E+00 -0.00000000000E+00 -0.37055936963E+02  0.37055936963E+02  0.00000000000E+00 0.  1.
         25    2    1    2    0    0  0.76745437975E+02 -0.49530314468E+02  0.69103178760E+03  0.70817715489E+03  0.12508731726E+03 0.  0.
          5    1    3    3  502    0  0.60021937178E+02 -0.69454326860E+02  0.24989970391E+03  0.26625902966E+03  0.41800000000E+01 0.  1.
         -5    1    3    3    0  502  0.16723500796E+02  0.19924012392E+02  0.44113208368E+03  0.44191812523E+03  0.41800000000E+01 0.  1.
        -11    1    1    2    0    0 -0.40140949007E+02  0.39316128122E+02  0.12626446582E+03  0.13820191405E+03  0.00000000000E+00 0.  1.
         11    1    1    2    0    0 -0.36604488968E+02  0.10214186346E+02 -0.64780155972E+01  0.38551042806E+02  0.00000000000E+00 0. -1.
</event>
<event>
 7    1  0.2480409E-009  0.7090264E+02  0.7561462E-02  0.1357050E+00
          1   -1    0    0  501    0  0.00000000000E+00  0.00000000000E+00  0.40584046440E+02  0.40584046440E+02  0.00000000000E+00 0. -1.
         -1   -1    0    0    0  501 -0.00000000000E+00 -0.00000000000E+00 -0.10906038129E+04  0.10906038129E+04  0.00000000000E+00 0.  1.
         25    2    1    2    0    0 -0.24294089531E+01  0.10796427299E+02 -0.10285663493E+04  0.10362041769E+04  0.12509155207E+03 0.  0.
          5    1    3    3  502    0 -0.25019908665E+02  0.30390176390E+01 -0.40790516303E+02  0.48130760207E+02  0.41800000000E+01 0.  1.
         -5    1    3    3    0  502  0.22590499712E+02  0.77574096603E+01 -0.98777583299E+03  0.98807341666E+03  0.41800000000E+01 0.  1.
        -11    1    1    2    0    0 -0.43236480774E+02  0.53638576246E+01 -0.15187240894E+02  0.46139099735E+02  0.00000000000E+00 0. -1.
         11    1    1    2    0    0  0.45665889727E+02 -0.16160284924E+02 -0.62661762271E+01  0.48844582687E+02  0.00000000000E+00 0.  1.
</event>
<event>
 7    1  0.2480409E-009  0.7725273E+02  0.7561462E-02  0.1337034E+00
         -1   -1    0    0    0  501 -0.00000000000E+00  0.00000000000E+00  0.24603818425E+02  0.24603818425E+02  0.00000000000E+00 0.  1.
          1   -1    0    0  501    0  0.00000000000E+00 -0.00000000000E+00 -0.58097983584E+03  0.58097983584E+03  0.00000000000E+00 0. -1.
         25    2    1    2    0    0 -0.27465158274E+02  0.19038889952E+02 -0.40590440414E+03  0.42605433806E+03  0.12508836650E+03 0.  0.
          5    1    3    3  502    0  0.18272483499E+02  0.36800413364E+02 -0.34623555297E+03  0.34868995486E+03  0.41800000000E+01 0.  1.
         -5    1    3    3    0  502 -0.45737641773E+02 -0.17761523412E+02 -0.59668851164E+02  0.77364383201E+02  0.41800000000E+01 0.  1.
        -11    1    1    2    0    0  0.39601186534E+02  0.20254189183E+01 -0.15006514310E+03  0.15521566761E+03  0.00000000000E+00 0. -1.
         11    1    1    2    0    0 -0.12136028261E+02 -0.21064308870E+02 -0.40647017723E+00  0.24313648598E+02  0.00000000000E+00 0.  1.
</event>
<event>
 7    1  0.2480409E-009  0.2700406E+03  0.7561462E-02  0.1101256E+00
         -2   -1    0    0    0  501 -0.00000000000E+00  0.00000000000E+00  0.23606043357E+03  0.23606043357E+03  0.00000000000E+00 0.  1.
          2   -1    0    0  501    0  0.00000000000E+00 -0.00000000000E+00 -0.50908908859E+03  0.50908908859E+03  0.00000000000E+00 0. -1.
         25    2    1    2    0    0 -0.25151085394E+03  0.43353143372E+02  0.84498480787E+02  0.29651906670E+03  0.12508540671E+03 0.  0.
          5    1    3    3  502    0 -0.11510779060E+03 -0.42580051070E+02  0.31712033546E+02  0.12683055499E+03  0.41800000000E+01 0. -1.
         -5    1    3    3    0  502 -0.13640306334E+03  0.85933194442E+02  0.52786447241E+02  0.16968851171E+03  0.41800000000E+01 0. -1.
        -11    1    1    2    0    0  0.17195538326E+03 -0.39077285237E+02 -0.17026124017E+03  0.24512155751E+03  0.00000000000E+00 0.  1.
         11    1    1    2    0    0  0.79555470686E+02 -0.42758581355E+01 -0.18726589563E+03  0.20350889795E+03  0.00000000000E+00 0. -1.
</event>
<event>
 7    1  0.2480409E-009  0.2417728E+03  0.7561462E-02  0.1118617E+00
         -2   -1    0    0    0  501 -0.00000000000E+00  0.00000000000E+00  0.12475382640E+03  0.12475382640E+03  0.00000000000E+00 0.  1.
          2   -1    0    0  501    0  0.00000000000E+00 -0.00000000000E+00 -0.54312825792E+03  0.54312825792E+03  0.00000000000E+00 0. -1.
         25    2    1    2    0    0  0.38129359468E+02 -0.23485316661E+03 -0.22633361668E+03  0.35140253954E+03  0.12508789244E+03 0.  0.
          5    1    3    3  502    0 -0.10515811125E+02 -0.12208594537E+03 -0.18463468344E+03  0.22163708867E+03  0.41800000000E+01 0.  1.
         -5    1    3    3    0  502  0.48645170593E+02 -0.11276722124E+03 -0.41698933231E+02  0.12976545087E+03  0.41800000000E+01 0.  1.
        -11    1    1    2    0    0 -0.19391905656E+02  0.95782099339E+02 -0.13103696087E+03  0.16346541430E+03  0.00000000000E+00 0. -1.
         11    1    1    2    0    0 -0.18737453812E+02  0.13907106727E+03 -0.61003853982E+02  0.15301413049E+03  0.00000000000E+00 0.  1.
</event>
<event>
 7    1  0.2480409E-009  0.1014073E+03  0.7561462E-02  0.1277364E+00
          1   -1    0    0  501    0  0.00000000000E+00  0.00000000000E+00  0.54009383914E+03  0.54009383914E+03  0.00000000000E+00 0. -1.
         -1   -1    0    0    0  501 -0.00000000000E+00 -0.00000000000E+00 -0.19758388831E+02  0.19758388831E+02  0.00000000000E+00 0.  1.
         25    2    1    2    0    0  0.98910222319E+01 -0.16327167094E+02  0.29752844484E+03  0.32331873867E+03  0.12508965817E+03 0.  0.
          5    1    3    3  502    0 -0.22970836501E+02 -0.62750129254E+02  0.12797544621E+03  0.14443138607E+03  0.41800000000E+01 0.  1.
         -5    1    3    3    0  502  0.32861858733E+02  0.46422962160E+02  0.16955299863E+03  0.17888735260E+03  0.41800000000E+01 0.  1.
        -11    1    1    2    0    0  0.33384453027E+02  0.11394635502E+02  0.85756968455E+02  0.92728728347E+02  0.00000000000E+00 0. -1.
         11    1    1    2    0    0 -0.43275475259E+02  0.49325315920E+01  0.13705003701E+03  0.14380476095E+03  0.00000000000E+00 0.  1.
</event>
<event>
 7    1  0.2480409E-009  0.1810206E+03  0.7561462E-02  0.1166819E+00
         -2   -1    0    0    0  501 -0.00000000000E+00  0.00000000000E+00  0.94655325203E+03  0.94655325203E+03  0.00000000000E+00 0.  1.
          2   -1    0    0  501    0  0.00000000000E+00 -0.00000000000E+00 -0.36272606949E+02  0.36272606949E+02  0.00000000000E+00 0. -1.
         25    2    1    2    0    0 -0.10322092455E+03 -0.10259965432E+03  0.57361153733E+03  0.60486297408E+03  0.12509106014E+03 0.  0.
          5    1    3    3  502    0  0.28316150199E+02 -0.17246970411E+02  0.13403816129E+03  0.13814109972E+03  0.41800000000E+01 0. -1.
         -5    1    3    3    0  502 -0.13153707475E+03 -0.85352683904E+02  0.43957337604E+03  0.46672187436E+03  0.41800000000E+01 0. -1.
        -11    1    1    2    0    0  0.72588228334E+00  0.61232931506E+02  0.12273770110E+03  0.13716611125E+03  0.00000000000E+00 0.  1.
         11    1    1    2    0    0  0.10249504226E+03  0.41366722809E+02  0.21393140665E+03  0.24079677364E+03  0.00000000000E+00 0. -1.
</event>
<event>
 7    1  0.2480409E-009  0.1526023E+03  0.7561462E-02  0.1197311E+00
         -2   -1    0    0    0  501 -0.00000000000E+00  0.00000000000E+00  0.10088582789E+03  0.10088582789E+03  0.00000000000E+00 0. -1.
          2   -1    0    0  501    0  0.00000000000E+00 -0.00000000000E+00 -0.26317348408E+03  0.26317348408E+03  0.00000000000E+00 0.  1.
         25    2    1    2    0    0  0.30156287558E+02 -0.11315947188E+03 -0.11832954376E+03  0.20823986633E+03  0.12508994063E+03 0.  0.
          5    1    3    3  502    0 -0.40291896567E+02 -0.59653841273E+02 -0.89859885180E+02  0.11521410101E+03  0.41800000000E+01 0. -1.
         -5    1    3    3    0  502  0.70448184125E+02 -0.53505630608E+02 -0.28469658583E+02  0.93025765319E+02  0.41800000000E+01 0. -1.
        -11    1    1    2    0    0  0.28750524560E+02  0.22910532467E+02 -0.29390801061E+02  0.47067019742E+02  0.00000000000E+00 0.  1.
         11    1    1    2    0    0 -0.58906812118E+02  0.90248939414E+02 -0.14567311367E+02  0.10875242590E+03  0.00000000000E+00 0. -1.
</event>
<event>
 7    1  0.2480409E-009  0.2359174E+03  0.7561462E-02  0.1122543E+00
          3   -1    0    0  501    0  0.00000000000E+00  0.00000000000E+00  0.11879258357E+04  0.11879258357E+04  0.00000000000E+00 0. -1.
         -3   -1    0    0    0  501 -0.00000000000E+00 -0.00000000000E+00 -0.54403018565E+02  0.54403018565E+02  0.00000000000E+00 0.  1.
         25    2    1    2    0    0  0.66885926926E+01 -0.21775383797E+03  0.40537812942E+03  0.47690684724E+03  0.12508893599E+03 0.  0.
          5    1    3    3  502    0  0.57392304345E+02 -0.17248570758E+03  0.31544875232E+03  0.36410243566E+03  0.41800000000E+01 0. -1.
         -5    1    3    3    0  502 -0.50703711652E+02 -0.45268130393E+02  0.89929377100E+02  0.11280441157E+03  0.41800000000E+01 0. -1.
        -11    1    1    2    0    0 -0.24015583424E+02  0.15293859512E+03  0.37057817575E+03  0.40161567010E+03  0.00000000000E+00 0.  1.
         11    1    1    2    0    0  0.17326990732E+02  0.64815242852E+02  0.35756651191E+03  0.36380633688E+03  0.00000000000E+00 0. -1.
</event>
<event>
 7    1  0.2782839E-009  0.9822527E+02  0.7561462E-02  0.1284073E+00
          1   -1    0    0  501    0  0.00000000000E+00  0.00000000000E+00  0.22992836155E+03  0.22992836155E+03  0.00000000000E+00 0. -1.
         -1   -1    0    0    0  501 -0.00000000000E+00 -0.00000000000E+00 -0.81823036220E+02  0.81823036220E+02  0.00000000000E+00 0.  1.
         25    2    1    2    0    0  0.44289681002E+02 -0.20595345443E+02  0.15782239379E+03  0.20722503452E+03  0.12509421591E+03 0.  0.
          5    1    3    3  502    0  0.83639608678E+02  0.90726284799E+01  0.10870458096E+03  0.13752110765E+03  0.41800000000E+01 0. -1.
         -5    1    3    3    0  502 -0.39349927676E+02 -0.29667973923E+02  0.49117812832E+02  0.69703926878E+02  0.41800000000E+01 0. -1.
        -11    1    1    2    0    0 -0.34831592269E+02 -0.52610973740E+01 -0.46652688512E+02  0.58458466546E+02  0.00000000000E+00 0.  1.
         11    1    1    2    0    0 -0.94580887328E+01  0.25856442817E+02  0.36935620051E+02  0.46067896698E+02  0.00000000000E+00 0. -1.
</event>
<event>
 7    1  0.2480409E-009  0.1542847E+03  0.7561462E-02  0.1195305E+00
         -1   -1    0    0    0  501 -0.00000000000E+00  0.00000000000E+00  0.20996386652E+03  0.20996386652E+03  0.00000000000E+00 0.  1.
          1   -1    0    0  501    0  0.00000000000E+00 -0.00000000000E+00 -0.18156013707E+03  0.18156013707E+03  0.00000000000E+00 0. -1.
         25    2    1    2    0    0  0.87121044379E+02 -0.12711206904E+03  0.64311440495E+02  0.20864439086E+03  0.12509582723E+03 0.  0.
          5    1    3    3  502    0  0.18178206312E+02 -0.27746386106E+02  0.79917787278E+02  0.86629292102E+02  0.41800000000E+01 0. -1.
         -5    1    3    3    0  502  0.68942838066E+02 -0.99365682933E+02 -0.15606346784E+02  0.12201509876E+03  0.41800000000E+01 0. -1.
        -11    1    1    2    0    0 -0.52989984053E+02  0.79489012531E+02 -0.66870219596E+02  0.11661075333E+03  0.00000000000E+00 0. -1.
         11    1    1    2    0    0 -0.34131060325E+02  0.47623056508E+02  0.30962508558E+02  0.66268859401E+02  0.00000000000E+00 0.  1.
</event>
<event>
 7    1  0.2480409E-009  0.2862384E+03  0.7561462E-02  0.1092330E+00
          1   -1    0    0  501    0  0.00000000000E+00  0.00000000000E+00  0.15782120418E+04  0.15782120418E+04  0.00000000000E+00 0. -1.
         -1   -1    0    0    0  501 -0.00000000000E+00 -0.00000000000E+00 -0.60047800201E+02  0.60047800201E+02  0.00000000000E+00 0.  1.
         25    2    1    2    0    0  0.48114200555E+02 -0.27507761111E+03  0.94006199960E+03  0.98860807929E+03  0.12508678160E+03 0.  0.
          5    1    3    3  502    0 -0.11742180876E+02 -0.10271179358E+03  0.18668876164E+03  0.21344263275E+03  0.41800000000E+01 0. -1.
         -5    1    3    3    0  502  0.59856381431E+02 -0.17236581754E+03  0.75337323795E+03  0.77516544654E+03  0.41800000000E+01 0. -1.
        -11    1    1    2    0    0 -0.50031553732E+02  0.10396297383E+03  0.31820496623E+03  0.33847578470E+03  0.00000000000E+00 0. -1.
         11    1    1    2    0    0  0.19173531770E+01  0.17111463728E+03  0.25989727580E+03  0.31117597803E+03  0.00000000000E+00 0.  1.
</event>
<event>
 7    1  0.2480409E-009  0.1913010E+03  0.7561462E-02  0.1157293E+00
          2   -1    0    0  501    0  0.00000000000E+00  0.00000000000E+00  0.34768817311E+03  0.34768817311E+03  0.00000000000E+00 0. -1.
         -2   -1    0    0    0  501 -0.00000000000E+00 -0.00000000000E+00 -0.13326464824E+03  0.13326464824E+03  0.00000000000E+00 0.  1.
         25    2    1    2    0    0 -0.17539192048E+03 -0.15205220538E+02  0.17298855023E+03  0.27670559837E+03  0.12508966848E+03 0.  0.
          5    1    3    3  502    0  0.92985158639E+01  0.15596967154E+02  0.48136516443E+02  0.51617094038E+02  0.41800000000E+01 0. -1.
         -5    1    3    3    0  502 -0.18469043634E+03 -0.30802187692E+02  0.12485203378E+03  0.22508850433E+03  0.41800000000E+01 0. -1.
        -11    1    1    2    0    0  0.14385353130E+02 -0.28500426774E+01 -0.25125278395E+02  0.29091936037E+02  0.00000000000E+00 0.  1.
         11    1    1    2    0    0  0.16100656735E+03  0.18055263215E+02  0.66560253043E+02  0.17515528695E+03  0.00000000000E+00 0. -1.
</event>
<event>
 7    1  0.2480409E-009  0.9589903E+02  0.7561462E-02  0.1289164E+00
          1   -1    0    0  501    0  0.00000000000E+00  0.00000000000E+00  0.35661183235E+03  0.35661183235E+03  0.00000000000E+00 0. -1.
         -1   -1    0    0    0  501 -0.00000000000E+00 -0.00000000000E+00 -0.37678510397E+02  0.37678510397E+02  0.00000000000E+00 0.  1.
         25    2    1    2    0    0  0.49004403883E+02 -0.23384502925E+02  0.22210887473E+03  0.26062939413E+03  0.12508821797E+03 0.  0.
          5    1    3    3  502    0 -0.26454152002E+02  0.12182512654E+02  0.75354955072E+01  0.30372551181E+02  0.41800000000E+01 0. -1.
         -5    1    3    3    0  502  0.75458555885E+02 -0.35567015579E+02  0.21457337922E+03  0.23025684295E+03  0.41800000000E+01 0. -1.
        -11    1    1    2    0    0  0.10497582566E+02 -0.64153884955E+01  0.51975423135E+02  0.53411619141E+02  0.00000000000E+00 0. -1.
         11    1    1    2    0    0 -0.59501986448E+02  0.29799891421E+02  0.44849024091E+02  0.80249329479E+02  0.00000000000E+00 0.  1.
</event>
<event>
 7    1  0.2480409E-009  0.1237788E+03  0.7561462E-02  0.1236990E+00
          1   -1    0    0  501    0  0.00000000000E+00  0.00000000000E+00  0.62765310899E+03  0.62765310899E+03  0.00000000000E+00 0. -1.
         -1   -1    0    0    0  501 -0.00000000000E+00 -0.00000000000E+00 -0.34814222831E+02  0.34814222831E+02  0.00000000000E+00 0.  1.
         25    2    1    2    0    0 -0.54988273929E+02 -0.38413080523E+02  0.16970897667E+03  0.22124330395E+03  0.12509271663E+03 0.  0.
          5    1    3    3  502    0 -0.94358528078E+02 -0.36309649037E+02  0.13377035689E+03  0.16773164048E+03  0.41800000000E+01 0.  1.
         -5    1    3    3    0  502  0.39370254149E+02 -0.21034314863E+01  0.35938619778E+02  0.53511663470E+02  0.41800000000E+01 0.  1.
        -11    1    1    2    0    0  0.21271519455E+02  0.62016316428E+02  0.35959629366E+03  0.36552427478E+03  0.00000000000E+00 0. -1.
         11    1    1    2    0    0  0.33716754474E+02 -0.23603235905E+02  0.63533615829E+02  0.75699753089E+02  0.00000000000E+00 0.  1.
</event>
<event>
 7    1  0.2480409E-009  0.9778371E+02  0.7561462E-02  0.1285027E+00
         -2   -1    0    0    0  501 -0.00000000000E+00  0.00000000000E+00  0.11969385656E+03  0.11969385656E+03  0.00000000000E+00 0. -1.
          2   -1    0    0  501    0  0.00000000000E+00 -0.00000000000E+00 -0.15665188864E+03  0.15665188864E+03  0.00000000000E+00 0.  1.
         25    2    1    2    0    0  0.32409022389E+02 -0.43427928301E+02  0.49460698472E+02  0.14501754897E+03  0.12508956442E+03 0.  0.
          5    1    3    3  502    0  0.59728626363E+02 -0.27836813756E+02  0.78100741358E+02  0.10227216243E+03  0.41800000000E+01 0.  1.
         -5    1    3    3    0  502 -0.27319603974E+02 -0.15591114544E+02 -0.28640042886E+02  0.42745386541E+02  0.41800000000E+01 0.  1.
        -11    1    1    2    0    0 -0.42482654037E+02  0.62888472755E+02 -0.58420708929E+02  0.95774292642E+02  0.00000000000E+00 0. -1.
         11    1    1    2    0    0  0.10073631648E+02 -0.19460544454E+02 -0.27998021632E+02  0.35553903588E+02  0.00000000000E+00 0.  1.
</event>
<event>
 7    1  0.2480409E-009  0.1006377E+03  0.7561462E-02  0.1278961E+00
          1   -1    0    0  501    0  0.00000000000E+00  0.00000000000E+00  0.16867204730E+03  0.16867204730E+03  0.00000000000E+00 0. -1.
         -1   -1    0    0    0  501 -0.00000000000E+00 -0.00000000000E+00 -0.77768155313E+02  0.77768155313E+02  0.00000000000E+00 0.  1.
         25    2    1    2    0    0 -0.17099317766E+01 -0.14321985036E+02  0.89270512582E+02  0.15435078182E+03  0.12508755458E+03 0.  0.
          5    1    3    3  502    0 -0.61423857046E+02  0.10936989968E+01  0.59938351026E+02  0.85931162658E+02  0.41800000000E+01 0. -1.
         -5    1    3    3    0  502  0.59713925270E+02 -0.15415684033E+02  0.29332161555E+02  0.68419619166E+02  0.41800000000E+01 0. -1.
        -11    1    1    2    0    0  0.13923164190E+02 -0.29378862396E+02 -0.23596266815E+02  0.40171580307E+02  0.00000000000E+00 0.  1.
         11    1    1    2    0    0 -0.12213232414E+02  0.43700847432E+02  0.25229646224E+02  0.51917840487E+02  0.00000000000E+00 0. -1.
</event>
<event>
 7    1  0.2480409E-009  0.1104533E+03  0.7561462E-02  0.1259733E+00
          1   -1    0    0  501    0  0.00000000000E+00  0.00000000000E+00  0.32920711409E+03  0.32920711409E+03  0.00000000000E+00 0. -1.
         -1   -1    0    0    0  501 -0.00000000000E+00 -0.00000000000E+00 -0.57228498842E+02  0.57228498842E+02  0.00000000000E+00 0.  1.
         25    2    1    2    0    0 -0.65437911313E+02  0.51840156014E+02  0.12872232753E+03  0.19795614431E+03  0.12509066893E+03 0.  0.
          5    1    3    3  502    0 -0.49486409304E+02 -0.14043112400E-02  0.13437852704E+03  0.14326187783E+03  0.41800000000E+01 0.  1.
         -5    1    3    3    0  502 -0.15951502010E+02  0.51841560325E+02 -0.56561995148E+01  0.54694266484E+02  0.41800000000E+01 0.  1.
        -11    1    1    2    0    0  0.47860325062E+02  0.13055456371E+02  0.33821555756E+02  0.60041263227E+02  0.00000000000E+00 0.  1.
         11    1    1    2    0    0  0.17577586251E+02 -0.64895612384E+02  0.10943473197E+03  0.12843820540E+03  0.00000000000E+00 0. -1.
</event>
<event>
 7    1  0.2480409E-009  0.1047347E+03  0.7561462E-02  0.1270643E+00
          1   -1    0    0  501    0  0.00000000000E+00  0.00000000000E+00  0.90945089003E+02  0.90945089003E+02  0.00000000000E+00 0. -1.
         -1   -1    0    0    0  501 -0.00000000000E+00 -0.00000000000E+00 -0.13639881961E+03  0.13639881961E+03  0.00000000000E+00 0.  1.
         25    2    1    2    0    0  0.84829034757E+01 -0.13882825931E+02 -0.49112087156E+02  0.13536839186E+03  0.12509161404E+03 0.  0.
          5    1    3    3  502    0  0.21902688620E+02  0.53030678938E+02 -0.18260901045E+02  0.60356553781E+02  0.41800000000E+01 0.  1.
         -5    1    3    3    0  502 -0.13419785145E+02 -0.66913504869E+02 -0.30851186110E+02  0.75011838076E+02  0.41800000000E+01 0.  1.
        -11    1    1    2    0    0  0.70384125904E+01 -0.33228309618E+02 -0.17311609230E+02  0.38122849132E+02  0.00000000000E+00 0.  1.
         11    1    1    2    0    0 -0.15521316066E+02  0.47111135549E+02  0.20969965780E+02  0.53852667621E+02  0.00000000000E+00 0. -1.
</event>
<event>
 7    1  0.2480409E-009  0.3689421E+03  0.7561462E-02  0.1055098E+00
         -1   -1    0    0    0  501 -0.00000000000E+00  0.00000000000E+00  0.18105002037E+03  0.18105002037E+03  0.00000000000E+00 0.  1.
          1   -1    0    0  501    0  0.00000000000E+00 -0.00000000000E+00 -0.81217212779E+03  0.81217212779E+03  0.00000000000E+00 0. -1.
         25    2    1    2    0    0 -0.66779186753E+02  0.35916561018E+03 -0.26816682749E+03  0.47012891945E+03  0.12509339800E+03 0.  0.
          5    1    3    3  502    0 -0.10408517424E+02  0.28165622828E+02 -0.79230902925E+02  0.84833059137E+02  0.41800000000E+01 0.  1.
         -5    1    3    3    0  502 -0.56370669329E+02  0.33099998735E+03 -0.18893592456E+03  0.38529586032E+03  0.41800000000E+01 0.  1.
        -11    1    1    2    0    0  0.80990459875E+02 -0.28619531663E+03 -0.25365298577E+03  0.39090542468E+03  0.00000000000E+00 0.  1.
         11    1    1    2    0    0 -0.14211273122E+02 -0.72970293547E+02 -0.10930229417E+03  0.13218780403E+03  0.00000000000E+00 0. -1.
</event>
<event>
 7    1  0.2480409E-009  0.6917134E+02  0.7561462E-02  0.1362934E+00
         -2   -1    0    0    0  501 -0.00000000000E+00  0.00000000000E+00  0.17859653284E+03  0.17859653284E+03  0.00000000000E+00 0.  1.
          2   -1    0    0  501    0  0.00000000000E+00 -0.00000000000E+00 -0.88655135124E+02  0.88655135124E+02  0.00000000000E+00 0. -1.
         25    2    1    2    0    0  0.30380211408E+02  0.60088829645E+02  0.69926253098E+02  0.15833404417E+03  0.12508542672E+03 0.  0.
          5    1    3    3  502    0  0.28424689290E+02  0.35581805721E+02 -0.30426158175E+02  0.54929512658E+02  0.41800000000E+01 0. -1.
         -5    1    3    3    0  502  0.19555221175E+01  0.24507023925E+02  0.10035241127E+03  0.10340453151E+03  0.41800000000E+01 0. -1.
        -11    1    1    2    0    0 -0.22196875771E+02 -0.36672209463E+02  0.52670256422E+02  0.67909558624E+02  0.00000000000E+00 0.  1.
         11    1    1    2    0    0 -0.81833356364E+01 -0.23416620182E+02 -0.32655111800E+02  0.41008065177E+02  0.00000000000E+00 0. -1.
</event>
<event>
 7    1  0.2480409E-009  0.1080313E+03  0.7561462E-02  0.1264260E+00
         -2   -1    0    0    0  501 -0.00000000000E+00  0.00000000000E+00  0.57584280318E+02  0.57584280318E+02  0.00000000000E+00 0.  1.
          2   -1    0    0  501    0  0.00000000000E+00 -0.00000000000E+00 -0.21715767738E+03  0.21715767738E+03  0.00000000000E+00 0. -1.
         25    2    1    2    0    0  0.23591613467E+02  0.45721405997E+00 -0.76351378070E+02  0.14843601879E+03  0.12508775108E+03 0.  0.
          5    1    3    3  502    0 -0.49253275713E+02 -0.16758434656E+02 -0.34674054430E+02  0.62661732749E+02  0.41800000000E+01 0.  1.
         -5    1    3    3    0  502  0.72844889179E+02  0.17215648716E+02 -0.41677323640E+02  0.85774286042E+02  0.41800000000E+01 0.  1.
        -11    1    1    2    0    0 -0.13398623714E+01 -0.41868290763E+02 -0.61764117212E+02  0.74629452481E+02  0.00000000000E+00 0.  1.
         11    1    1    2    0    0 -0.22251751095E+02  0.41411076703E+02 -0.21457901779E+02  0.51676486425E+02  0.00000000000E+00 0. -1.
</event>
<event>
 7    1  0.2480409E-009  0.8833967E+02  0.7561462E-02  0.1306923E+00
         -1   -1    0    0    0  501 -0.00000000000E+00  0.00000000000E+00  0.99219121206E+02  0.99219121206E+02  0.00000000000E+00 0.  1.
          1   -1    0    0  501    0  0.00000000000E+00 -0.00000000000E+00 -0.17421115341E+03  0.17421115341E+03  0.00000000000E+00 0. -1.
         25    2    1    2    0    0  0.38528889377E+02  0.21981969092E+02 -0.10287887056E+03  0.16792699662E+03  0.12509089457E+03 0.  0.
          5    1    3    3  502    0  0.49396798310E+02 -0.32568064875E+01 -0.12363096618E+03  0.13323940360E+03  0.41800000000E+01 0.  1.
         -5    1    3    3    0  502 -0.10867908933E+02  0.25238775580E+02  0.20752095617E+02  0.34687593025E+02  0.41800000000E+01 0.  1.
        -11    1    1    2    0    0 -0.26673903232E+02 -0.56622560081E+02  0.28754869978E+02  0.68879996887E+02  0.00000000000E+00 0.  1.
         11    1    1    2    0    0 -0.11854986145E+02  0.34640590989E+02 -0.86803162165E+00  0.36623281113E+02  0.00000000000E+00 0. -1.
</event>
<event>
 7    1  0.2480409E-009  0.1336372E+03  0.7561462E-02  0.1222156E+00
          1   -1    0    0  501    0  0.00000000000E+00  0.00000000000E+00  0.19392341501E+03  0.19392341501E+03  0.00000000000E+00 0. -1.
         -1   -1    0    0    0  501 -0.00000000000E+00 -0.00000000000E+00 -0.15402241271E+03  0.15402241271E+03  0.00000000000E+00 0.  1.
         25    2    1    2    0    0 -0.35052817740E+02  0.88419910870E+02 -0.75382531681E+02  0.17428955485E+03  0.12509013621E+03 0.  0.
          5    1    3    3  502    0  0.26361836840E+02 -0.48039574491E+01  0.14639206711E+02  0.30818877687E+02  0.41800000000E+01 0.  1.
         -5    1    3    3    0  502 -0.61414654580E+02  0.93223868319E+02 -0.90021738392E+02  0.14347067716E+03  0.41800000000E+01 0.  1.
        -11    1    1    2    0    0  0.32466687353E+02  0.68121588454E+01  0.41667666669E+02  0.53260545824E+02  0.00000000000E+00 0. -1.
         11    1    1    2    0    0  0.25861303868E+01 -0.95232069715E+02  0.73615867305E+02  0.12039572705E+03  0.00000000000E+00 0.  1.
</event>
<event>
 7    1  0.2480409E-009  0.1147862E+03  0.7561462E-02  0.1251955E+00
         -1   -1    0    0    0  501 -0.00000000000E+00  0.00000000000E+00  0.19070631242E+02  0.19070631242E+02  0.00000000000E+00 0.  1.
          1   -1    0    0  501    0  0.00000000000E+00 -0.00000000000E+00 -0.13765605233E+04  0.13765605233E+04  0.00000000000E+00 0. -1.
         25    2    1    2    0    0 -0.55863983040E+02 -0.81316685084E+02 -0.10195347224E+04  0.10319076343E+04  0.12509647339E+03 0.  0.
          5    1    3    3  502    0 -0.63247120786E+02 -0.69314230483E+02 -0.10100653052E+04  0.10144230153E+04  0.41800000000E+01 0. -1.
         -5    1    3    3    0  502  0.73831377454E+01 -0.12002454600E+02 -0.94694172520E+01  0.17484619026E+02  0.41800000000E+01 0. -1.
        -11    1    1    2    0    0  0.33555288523E+02  0.90728645142E+02 -0.31787304239E+03  0.33226633220E+03  0.00000000000E+00 0. -1.
         11    1    1    2    0    0  0.22308694517E+02 -0.94119600588E+01 -0.20082127220E+02  0.31457188001E+02  0.00000000000E+00 0.  1.
</event>
<event>
 7    1  0.2480409E-009  0.1148315E+03  0.7561462E-02  0.1251876E+00
          2   -1    0    0  501    0  0.00000000000E+00  0.00000000000E+00  0.14654064140E+03  0.14654064140E+03  0.00000000000E+00 0.  1.
         -2   -1    0    0    0  501 -0.00000000000E+00 -0.00000000000E+00 -0.92145855779E+02  0.92145855779E+02  0.00000000000E+00 0. -1.
         25    2    1    2    0    0  0.90889350524E+01  0.40570005768E+02  0.44953387100E+02  0.13927162745E+03  0.12508894872E+03 0.  0.
          5    1    3    3  502    0  0.43978102653E+02 -0.29113918451E+02  0.26050559631E+02  0.58972856618E+02  0.41800000000E+01 0. -1.
         -5    1    3    3    0  502 -0.34889167601E+02  0.69683924219E+02  0.18902827469E+02  0.80298770830E+02  0.41800000000E+01 0. -1.
        -11    1    1    2    0    0  0.27642563676E+02  0.15493773455E+02  0.63502247264E+01  0.32318627702E+02  0.00000000000E+00 0.  1.
         11    1    1    2    0    0 -0.36731498728E+02 -0.56063779223E+02  0.30911738002E+01  0.67096242034E+02  0.00000000000E+00 0. -1.
</event>
<event>
 7    1  0.2480409E-009  0.1048168E+03  0.7561462E-02  0.1270481E+00
          1   -1    0    0  501    0  0.00000000000E+00  0.00000000000E+00  0.16918582586E+03  0.16918582586E+03  0.00000000000E+00 0. -1.
         -1   -1    0    0    0  501 -0.00000000000E+00 -0.00000000000E+00 -0.17996249933E+03  0.17996249933E+03  0.00000000000E+00 0.  1.
         25    2    1    2    0    0 -0.90648127311E+02 -0.15068397066E+02  0.95214077029E+02  0.18209177922E+03  0.12509019154E+03 0.  0.
          5    1    3    3  502    0 -0.56333745725E+02 -0.19104786222E+02  0.12356584475E+03  0.13720231103E+03  0.41800000000E+01 0.  1.
         -5    1    3    3    0  502 -0.34314381586E+02  0.40363891558E+01 -0.28351767721E+02  0.44889468185E+02  0.41800000000E+01 0.  1.
        -11    1    1    2    0    0  0.22469302199E+02 -0.26968482334E+02 -0.71891800120E+02  0.80003746820E+02  0.00000000000E+00 0.  1.
         11    1    1    2    0    0  0.68178825112E+02  0.42036879400E+02 -0.34098950386E+02  0.87052799155E+02  0.00000000000E+00 0. -1.
</event>
<event>
 7    1  0.2480409E-009  0.7325406E+02  0.7561462E-02  0.1349364E+00
          2   -1    0    0  501    0  0.00000000000E+00  0.00000000000E+00  0.47389787597E+03  0.47389787597E+03  0.00000000000E+00 0. -1.
         -2   -1    0    0    0  501 -0.00000000000E+00 -0.00000000000E+00 -0.42083795305E+02  0.42083795305E+02  0.00000000000E+00 0.  1.
         25    2    1    2    0    0  0.31520975658E+01 -0.18928939615E+02  0.39673721176E+03  0.41643074107E+03  0.12508359781E+03 0.  0.
          5    1    3    3  502    0  0.88960528184E+01  0.20417137170E+02  0.36413991318E+03  0.36484427914E+03  0.41800000000E+01 0. -1.
         -5    1    3    3    0  502 -0.57439552526E+01 -0.39346076785E+02  0.32597298573E+02  0.51586461931E+02  0.41800000000E+01 0. -1.
        -11    1    1    2    0    0 -0.42177691271E+02  0.52053001327E+01 -0.39474466220E+01  0.42680617676E+02  0.00000000000E+00 0.  1.
         11    1    1    2    0    0  0.39025593705E+02  0.13723639482E+02  0.39024315528E+02  0.56870312528E+02  0.00000000000E+00 0. -1.
</event>
<event>
 7    1  0.2480409E-009  0.8529715E+02  0.7561462E-02  0.1314657E+00
          1   -1    0    0  501    0  0.00000000000E+00  0.00000000000E+00  0.21546691982E+02  0.21546691982E+02  0.00000000000E+00 0. -1.
         -1   -1    0    0    0  501 -0.00000000000E+00 -0.00000000000E+00 -0.70583586910E+03  0.70583586910E+03  0.00000000000E+00 0.  1.
         25    2    1    2    0    0  0.38136262434E+02  0.45706361342E+02 -0.38134704291E+03  0.40572741714E+03  0.12508286815E+03 0.  0.
          5    1    3    3  502    0  0.16710177717E+02  0.39580515050E+02 -0.27558712529E+02  0.51213301468E+02  0.41800000000E+01 0. -1.
         -5    1    3    3    0  502  0.21426084716E+02  0.61258462926E+01 -0.35378833038E+03  0.35451411567E+03  0.41800000000E+01 0. -1.
        -11    1    1    2    0    0  0.10781620314E+01 -0.62202642408E+02 -0.13907251865E+03  0.15235319688E+03  0.00000000000E+00 0. -1.
         11    1    1    2    0    0 -0.39214424465E+02  0.16496281065E+02 -0.16386961556E+03  0.16930194706E+03  0.00000000000E+00 0.  1.
</event>
<event>
 7    1  0.2480409E-009  0.1167508E+03  0.7561462E-02  0.1248556E+00
         -1   -1    0    0    0  501 -0.00000000000E+00  0.00000000000E+00  0.39941270751E+02  0.39941270751E+02  0.00000000000E+00 0.  1.
          1   -1    0    0  501    0  0.00000000000E+00 -0.00000000000E+00 -0.48534313098E+03  0.48534313098E+03  0.00000000000E+00 0. -1.
         25    2    1    2    0    0 -0.17743974047E+02  0.71149138700E+02 -0.33311791104E+03  0.36330627189E+03  0.12508739340E+03 0.  0.
          5    1    3    3  502    0 -0.14485897309E+02 -0.35315767905E+02 -0.88091065359E+02  0.96096580999E+02  0.41800000000E+01 0. -1.
         -5    1    3    3    0  502 -0.32580767381E+01  0.10646490660E+03 -0.24502684568E+03  0.26720969089E+03  0.41800000000E+01 0. -1.
        -11    1    1    2    0    0 -0.12097389749E+02 -0.51200743452E+02 -0.11450667926E+03  0.12601445379E+03  0.00000000000E+00 0. -1.
         11    1    1    2    0    0  0.29841363796E+02 -0.19948395248E+02  0.22227300701E+01  0.35963676052E+02  0.00000000000E+00 0.  1.
</event>
<event>
 7    1  0.2480409E-009  0.3767759E+03  0.7561462E-02  0.1052132E+00
         -1   -1    0    0    0  501 -0.00000000000E+00  0.00000000000E+00  0.15598312336E+03  0.15598312336E+03  0.00000000000E+00 0.  1.
          1   -1    0    0  501    0  0.00000000000E+00 -0.00000000000E+00 -0.96022690243E+03  0.96022690243E+03  0.00000000000E+00 0. -1.
         25    2    1    2    0    0 -0.34376770006E+03  0.12767556894E+03 -0.33074518893E+03  0.50942831761E+03  0.12509016060E+03 0.  0.
          5    1    3    3  502    0 -0.28923783169E+03  0.14910135146E+03 -0.25421389443E+03  0.41295509781E+03  0.41800000000E+01 0. -1.
         -5    1    3    3    0  502 -0.54529868364E+02 -0.21425782523E+02 -0.76531294495E+02  0.96473219795E+02  0.41800000000E+01 0. -1.
        -11    1    1    2    0    0  0.11267075046E+03 -0.64404218748E+02 -0.10358654939E+03  0.16605051826E+03  0.00000000000E+00 0.  1.
         11    1    1    2    0    0  0.23109694960E+03 -0.63271350188E+02 -0.36991204075E+03  0.44073118991E+03  0.00000000000E+00 0. -1.
</event>
<event>
 7    1  0.2480409E-009  0.1314570E+03  0.7561462E-02  0.1225310E+00
         -1   -1    0    0    0  501 -0.00000000000E+00  0.00000000000E+00  0.96108258512E+02  0.96108258512E+02  0.00000000000E+00 0.  1.
          1   -1    0    0  501    0  0.00000000000E+00 -0.00000000000E+00 -0.29410127754E+03  0.29410127754E+03  0.00000000000E+00 0. -1.
         25    2    1    2    0    0  0.10695000072E+03  0.20248821009E+02 -0.18501653960E+03  0.24844900048E+03  0.12508984174E+03 0.  0.
          5    1    3    3  502    0 -0.22832865042E+01  0.31873634098E+02  0.11509026350E+01  0.32248084048E+02  0.41800000000E+01 0. -1.
         -5    1    3    3    0  502  0.10923328723E+03 -0.11624813090E+02 -0.18616744224E+03  0.21620091643E+03  0.41800000000E+01 0. -1.
        -11    1    1    2    0    0 -0.48965117906E+02  0.17007333773E+02  0.30624055376E+02  0.60205190319E+02  0.00000000000E+00 0.  1.
         11    1    1    2    0    0 -0.57984882816E+02 -0.37256154782E+02 -0.43600534806E+02  0.81555345255E+02  0.00000000000E+00 0. -1.
</event>
<event>
 7    1  0.3098469E-009  0.1713924E+03  0.7561462E-02  0.1176404E+00
          2   -1    0    0  501    0  0.00000000000E+00  0.00000000000E+00  0.41047754254E+03  0.41047754254E+03  0.00000000000E+00 0.  1.
         -2   -1    0    0    0  501 -0.00000000000E+00 -0.00000000000E+00 -0.80612923884E+02  0.80612923884E+02  0.00000000000E+00 0. -1.
         25    2    1    2    0    0 -0.10947151269E+03  0.95059618234E+02  0.15783320755E+03  0.24815183905E+03  0.12509064997E+03 0.  0.
          5    1    3    3  502    0 -0.84326315695E+02 -0.78179622465E+01  0.80818149694E+02  0.11713707258E+03  0.41800000000E+01 0.  1.
         -5    1    3    3    0  502 -0.25145196993E+02  0.10287758048E+03  0.77015057861E+02  0.13101476648E+03  0.41800000000E+01 0.  1.
        -11    1    1    2    0    0  0.18342741709E+02  0.24915602664E+01  0.76693705522E+02  0.78896061452E+02  0.00000000000E+00 0.  1.
         11    1    1    2    0    0  0.91128770978E+02 -0.97551178501E+02  0.95337705575E+02  0.16404256591E+03  0.00000000000E+00 0. -1.
</event>
<event>
 7    1  0.2480409E-009  0.3095551E+03  0.7561462E-02  0.1080559E+00
         -2   -1    0    0    0  501 -0.00000000000E+00  0.00000000000E+00  0.15455165878E+03  0.15455165878E+03  0.00000000000E+00 0. -1.
          2   -1    0    0  501    0  0.00000000000E+00 -0.00000000000E+00 -0.11182567073E+04  0.11182567073E+04  0.00000000000E+00 0.  1.
         25    2    1    2    0    0 -0.20363933972E+03  0.21483917169E+03 -0.89686392355E+03  0.95269859487E+03  0.12507943445E+03 0.  0.
          5    1    3    3  502    0 -0.15553858850E+03  0.22309065721E+03 -0.74251856573E+03  0.79076734044E+03  0.41800000000E+01 0. -1.
         -5    1    3    3    0  502 -0.48100751223E+02 -0.82514855171E+01 -0.15434535782E+03  0.16193125443E+03  0.41800000000E+01 0. -1.
        -11    1    1    2    0    0  0.15739631299E+03 -0.14273361900E+03 -0.90946353839E+02  0.23112274793E+03  0.00000000000E+00 0.  1.
         11    1    1    2    0    0  0.46243026730E+02 -0.72105552686E+02  0.24105228892E+02  0.88987023263E+02  0.00000000000E+00 0. -1.
</event>
<event>
 7    1  0.2480409E-009  0.1140459E+03  0.7561462E-02  0.1253256E+00
         -2   -1    0    0    0  501 -0.00000000000E+00  0.00000000000E+00  0.39923211635E+03  0.39923211635E+03  0.00000000000E+00 0.  1.
          2   -1    0    0  501    0  0.00000000000E+00 -0.00000000000E+00 -0.50951770931E+02  0.50951770931E+02  0.00000000000E+00 0. -1.
         25    2    1    2    0    0 -0.12615772240E+02 -0.84423559262E+02  0.13933205135E+03  0.20578508238E+03  0.12509030549E+03 0.  0.
          5    1    3    3  502    0 -0.11794006697E+02 -0.11305464400E+03  0.13497762042E+03  0.17651312002E+03  0.41800000000E+01 0.  1.
         -5    1    3    3    0  502 -0.82176554270E+00  0.28631084735E+02  0.43544309241E+01  0.29271962359E+02  0.41800000000E+01 0.  1.
        -11    1    1    2    0    0  0.30419645276E+01  0.13821430154E+02 -0.78566773235E+01  0.16186811244E+02  0.00000000000E+00 0. -1.
         11    1    1    2    0    0  0.95738077124E+01  0.70602129107E+02  0.21680497140E+03  0.22821199367E+03  0.00000000000E+00 0.  1.
</event>
<event>
 7    1  0.2480409E-009  0.1486373E+03  0.7561462E-02  0.1202158E+00
         -1   -1    0    0    0  501 -0.00000000000E+00  0.00000000000E+00  0.78795792047E+02  0.78795792047E+02  0.00000000000E+00 0.  1.
          1   -1    0    0  501    0  0.00000000000E+00 -0.00000000000E+00 -0.33100543779E+03  0.33100543779E+03  0.00000000000E+00 0. -1.
         25    2    1    2    0    0  0.11493793414E+03 -0.67783208369E+01 -0.17364970858E+03  0.24301778884E+03  0.12508697000E+03 0.  0.
          5    1    3    3  502    0  0.43334483461E+01 -0.37878480307E+02 -0.98401735808E+02  0.10561217759E+03  0.41800000000E+01 0.  1.
         -5    1    3    3    0  502  0.11060448579E+03  0.31100159470E+02 -0.75247972768E+02  0.13740561125E+03  0.41800000000E+01 0.  1.
        -11    1    1    2    0    0 -0.12632342611E+02  0.35507696898E+02 -0.61286533715E+01  0.38182888982E+02  0.00000000000E+00 0.  1.
         11    1    1    2    0    0 -0.10230559153E+03 -0.28729376061E+02 -0.72431283796E+02  0.12860055202E+03  0.00000000000E+00 0. -1.
</event>
<event>
 7    1  0.2480409E-009  0.4999553E+02  0.7561462E-02  0.1445366E+00
         -3   -1    0    0    0  501 -0.00000000000E+00  0.00000000000E+00  0.65795773814E+02  0.65795773814E+02  0.00000000000E+00 0.  1.
          3   -1    0    0  501    0  0.00000000000E+00 -0.00000000000E+00 -0.27718000785E+03  0.27718000785E+03  0.00000000000E+00 0. -1.
         25    2    1    2    0    0 -0.80685779536E+01  0.20076359221E+01 -0.15326417086E+02  0.12630063897E+03  0.12509124586E+03 0.  0.
          5    1    3    3  502    0  0.13764029603E+02 -0.72301745342E+01 -0.67206441214E+02  0.69107901685E+02  0.41800000000E+01 0.  1.
         -5    1    3    3    0  502 -0.21832607557E+02  0.92378104563E+01  0.51880024128E+02  0.57192737286E+02  0.41800000000E+01 0.  1.
        -11    1    1    2    0    0  0.20516681236E+00  0.28405381779E+02 -0.13529686971E+02  0.31463633563E+02  0.00000000000E+00 0.  1.
         11    1    1    2    0    0  0.78634111412E+01 -0.30413017701E+02 -0.18252812998E+03  0.18521150913E+03  0.00000000000E+00 0. -1.
</event>
<event>
 7    1  0.2480409E-009  0.1481562E+03  0.7561462E-02  0.1202757E+00
         -2   -1    0    0    0  501 -0.00000000000E+00  0.00000000000E+00  0.97616127009E+02  0.97616127009E+02  0.00000000000E+00 0. -1.
          2   -1    0    0  501    0  0.00000000000E+00 -0.00000000000E+00 -0.25593984101E+03  0.25593984101E+03  0.00000000000E+00 0.  1.
         25    2    1    2    0    0 -0.79392888569E+01  0.11219487675E+03 -0.10842952425E+03  0.20013743224E+03  0.12508919770E+03 0.  0.
          5    1    3    3  502    0 -0.46156989930E+02  0.12050922906E+01 -0.52504293618E+02  0.70043509443E+02  0.41800000000E+01 0. -1.
         -5    1    3    3    0  502  0.38217701073E+02  0.11098978446E+03 -0.55925230628E+02  0.13009392280E+03  0.41800000000E+01 0. -1.
        -11    1    1    2    0    0 -0.12450630950E+02  0.50871828628E+01 -0.29798104433E+02  0.32692884063E+02  0.00000000000E+00 0.  1.
         11    1    1    2    0    0  0.20389919807E+02 -0.11728205961E+03 -0.20096085321E+02  0.12072565171E+03  0.00000000000E+00 0. -1.
</event>
<event>
 7    1  0.2480409E-009  0.7798361E+02  0.7561462E-02  0.1334873E+00
         -1   -1    0    0    0  501 -0.00000000000E+00  0.00000000000E+00  0.29287584487E+02  0.29287584487E+02  0.00000000000E+00 0.  1.
          1   -1    0    0  501    0  0.00000000000E+00 -0.00000000000E+00 -0.68075390460E+03  0.68075390460E+03  0.00000000000E+00 0. -1.
         25    2    1    2    0    0 -0.56310881758E+01 -0.45705214330E+02 -0.55228853140E+03  0.56814670434E+03  0.12508948785E+03 0.  0.
          5    1    3    3  502    0  0.14185147325E+02 -0.57081062116E+02 -0.10634417227E+03  0.12159778548E+03  0.41800000000E+01 0. -1.
         -5    1    3    3    0  502 -0.19816235500E+02  0.11375847786E+02 -0.44594435912E+03  0.44654891886E+03  0.41800000000E+01 0. -1.
        -11    1    1    2    0    0 -0.14263495187E+02 -0.81032620809E+01  0.95344531849E+01  0.18974086245E+02  0.00000000000E+00 0.  1.
         11    1    1    2    0    0  0.19894583363E+02  0.53808476411E+02 -0.10871224190E+03  0.12292069850E+03  0.00000000000E+00 0. -1.
</event>
<event>
 7    1  0.2480409E-009  0.1778612E+03  0.7561462E-02  0.1169889E+00
         -2   -1    0    0    0  501 -0.00000000000E+00  0.00000000000E+00  0.27060540014E+02  0.27060540014E+02  0.00000000000E+00 0.  1.
          2   -1    0    0  501    0  0.00000000000E+00 -0.00000000000E+00 -0.23018473421E+04  0.23018473421E+04  0.00000000000E+00 0. -1.
         25    2    1    2    0    0 -0.55538607167E+02  0.13230410103E+03 -0.19527985983E+04  0.19620538584E+04  0.12507623837E+03 0.  0.
          5    1    3    3  502    0 -0.93193257144E+02  0.84932644914E+02 -0.14827911351E+04  0.14881483663E+04  0.41800000000E+01 0. -1.
         -5    1    3    3    0  502  0.37654649977E+02  0.47371456117E+02 -0.47000746320E+03  0.47390549204E+03  0.41800000000E+01 0. -1.
        -11    1    1    2    0    0 -0.24448927901E+02 -0.38756221222E+02 -0.13870448272E+03  0.14607781585E+03  0.00000000000E+00 0. -1.
         11    1    1    2    0    0  0.79987535067E+02 -0.93547879808E+02 -0.18328372108E+03  0.22077620795E+03  0.00000000000E+00 0.  1.
</event>
<event>
 7    1  0.2480409E-009  0.8698479E+02  0.7561462E-02  0.1310322E+00
         -2   -1    0    0    0  501 -0.00000000000E+00  0.00000000000E+00  0.15069998115E+03  0.15069998115E+03  0.00000000000E+00 0.  1.
          2   -1    0    0  501    0  0.00000000000E+00 -0.00000000000E+00 -0.10274488101E+03  0.10274488101E+03  0.00000000000E+00 0. -1.
         25    2    1    2    0    0 -0.54050691076E+02  0.94174683638E+01 -0.29006992805E+01  0.13661809222E+03  0.12508366460E+03 0.  0.
          5    1    3    3  502    0 -0.30260218127E+02  0.31177108281E+02 -0.58032222876E+02  0.72614765536E+02  0.41800000000E+01 0. -1.
         -5    1    3    3    0  502 -0.23790472949E+02 -0.21759639917E+02  0.55131523596E+02  0.64003326683E+02  0.41800000000E+01 0. -1.
        -11    1    1    2    0    0  0.38405586481E+02  0.34228837784E+02  0.48020582118E+02  0.70374560147E+02  0.00000000000E+00 0.  1.
         11    1    1    2    0    0  0.15645104595E+02 -0.43646306148E+02  0.28352173008E+01  0.46452209800E+02  0.00000000000E+00 0. -1.
</event>
<event>
 7    1  0.2480409E-009  0.1062117E+03  0.7561462E-02  0.1267750E+00
         -2   -1    0    0    0  501 -0.00000000000E+00  0.00000000000E+00  0.48228695481E+02  0.48228695481E+02  0.00000000000E+00 0.  1.
          2   -1    0    0  501    0  0.00000000000E+00 -0.00000000000E+00 -0.32884736937E+03  0.32884736937E+03  0.00000000000E+00 0. -1.
         25    2    1    2    0    0 -0.52606792552E+02  0.11866499411E+02 -0.10242759154E+03  0.17043841780E+03  0.12509817873E+03 0.  0.
          5    1    3    3  502    0 -0.24225500538E+02  0.59867575957E+02 -0.14640698732E+02  0.66353778993E+02  0.41800000000E+01 0. -1.
         -5    1    3    3    0  502 -0.28381292014E+02 -0.48001076546E+02 -0.87786892809E+02  0.10408463880E+03  0.41800000000E+01 0. -1.
        -11    1    1    2    0    0  0.34973335391E+02  0.30177171046E+02 -0.39948490387E+02  0.61071087471E+02  0.00000000000E+00 0.  1.
         11    1    1    2    0    0  0.17633457161E+02 -0.42043670457E+02 -0.13824259196E+03  0.14556655958E+03  0.00000000000E+00 0. -1.
</event>
<event>
 7    1  0.2480409E-009  0.1974958E+03  0.7561462E-02  0.1151869E+00
         -1   -1    0    0    0  501 -0.00000000000E+00  0.00000000000E+00  0.70698817728E+02  0.70698817728E+02  0.00000000000E+00 0.  1.
          1   -1    0    0  501    0  0.00000000000E+00 -0.00000000000E+00 -0.70397877237E+03  0.70397877237E+03  0.00000000000E+00 0. -1.
         25    2    1    2    0    0 -0.17559454043E+03 -0.45460231112E+02 -0.43873713488E+03  0.49095729127E+03  0.12509481639E+03 0.  0.
          5    1    3    3  502    0 -0.14206039660E+03 -0.27580256918E+01 -0.19560126791E+03  0.24179762488E+03  0.41800000000E+01 0. -1.
         -5    1    3    3    0  502 -0.33534143830E+02 -0.42702205420E+02 -0.24313586697E+03  0.24915966640E+03  0.41800000000E+01 0. -1.
        -11    1    1    2    0    0  0.62627009970E+02  0.57191568163E+02 -0.12329126432E+03  0.14964542661E+03  0.00000000000E+00 0. -1.
         11    1    1    2    0    0  0.11296753046E+03 -0.11731337051E+02 -0.71251555438E+02  0.13407487222E+03  0.00000000000E+00 0.  1.
</event>
<event>
 7    1  0.2480409E-009  0.9260949E+02  0.7561462E-02  0.1296653E+00
          2   -1    0    0  501    0  0.00000000000E+00  0.00000000000E+00  0.56905933482E+03  0.56905933482E+03  0.00000000000E+00 0. -1.
         -2   -1    0    0    0  501 -0.00000000000E+00 -0.00000000000E+00 -0.23056039037E+02  0.23056039037E+02  0.00000000000E+00 0.  1.
         25    2    1    2    0    0 -0.34213272778E+02  0.11044988479E+02  0.29635312192E+03  0.32367488882E+03  0.12509085087E+03 0.  0.
          5    1    3    3  502    0 -0.20468780059E+02 -0.38765441701E+02  0.32380110199E+02  0.54659622793E+02  0.41800000000E+01 0.  1.
         -5    1    3    3    0  502 -0.13744492719E+02  0.49810430180E+02  0.26397301173E+03  0.26901526602E+03  0.41800000000E+01 0.  1.
        -11    1    1    2    0    0 -0.27217142042E+02 -0.39773191299E+01  0.13889776716E+03  0.14159513272E+03  0.00000000000E+00 0. -1.
         11    1    1    2    0    0  0.61430414820E+02 -0.70676693491E+01  0.11075240670E+03  0.12684535232E+03  0.00000000000E+00 0.  1.
</event>
<event>
 7    1  0.2480409E-009  0.3991421E+02  0.7561462E-02  0.1508844E+00
          1   -1    0    0  501    0  0.00000000000E+00  0.00000000000E+00  0.19574412543E+03  0.19574412543E+03  0.00000000000E+00 0. -1.
         -1   -1    0    0    0  501 -0.00000000000E+00 -0.00000000000E+00 -0.63198894516E+02  0.63198894516E+02  0.00000000000E+00 0.  1.
         25    2    1    2    0    0  0.12526247725E+02  0.37873255802E+01  0.61665069045E+02  0.14007912240E+03  0.12509328149E+03 0.  0.
          5    1    3    3  502    0  0.48315567230E+01 -0.52425323550E+01  0.99687814922E+02  0.10002980021E+03  0.41800000000E+01 0. -1.
         -5    1    3    3    0  502  0.76946910025E+01  0.90298579352E+01 -0.38022745877E+02  0.40049322191E+02  0.41800000000E+01 0. -1.
        -11    1    1    2    0    0 -0.15164060900E+01  0.26611312239E+02 -0.12496270346E+02  0.29438379695E+02  0.00000000000E+00 0.  1.
         11    1    1    2    0    0 -0.11009841635E+02 -0.30398637819E+02  0.83376432219E+02  0.89425517855E+02  0.00000000000E+00 0. -1.
</event>
<event>
 7    1  0.3070131E-009  0.1900290E+03  0.7561462E-02  0.1158435E+00
         -1   -1    0    0    0  501 -0.00000000000E+00  0.00000000000E+00  0.56064568610E+02  0.56064568610E+02  0.00000000000E+00 0.  1.
          1   -1    0    0  501    0  0.00000000000E+00 -0.00000000000E+00 -0.83798684456E+03  0.83798684456E+03  0.00000000000E+00 0. -1.
         25    2    1    2    0    0 -0.18303656238E+03  0.45316844038E+01 -0.32760163013E+03  0.39559181566E+03  0.12508851755E+03 0.  0.
          5    1    3    3  502    0 -0.99302136789E+02 -0.95825957026E+01 -0.63956575798E+02  0.11857763912E+03  0.41800000000E+01 0.  1.
         -5    1    3    3    0  502 -0.83734425594E+02  0.14114280106E+02 -0.26364505433E+03  0.27701417654E+03  0.41800000000E+01 0.  1.
        -11    1    1    2    0    0  0.10973924692E+03  0.30573034122E+02 -0.18611572364E+03  0.21821199627E+03  0.00000000000E+00 0.  1.
         11    1    1    2    0    0  0.73297315459E+02 -0.35104718526E+02 -0.26820492218E+03  0.28024760124E+03  0.00000000000E+00 0. -1.
</event>
<event>
 7    1  0.2480409E-009  0.1292873E+03  0.7561462E-02  0.1228517E+00
         -1   -1    0    0    0  501 -0.00000000000E+00  0.00000000000E+00  0.25381460427E+02  0.25381460427E+02  0.00000000000E+00 0.  1.
          1   -1    0    0  501    0  0.00000000000E+00 -0.00000000000E+00 -0.70251970182E+03  0.70251970182E+03  0.00000000000E+00 0. -1.
         25    2    1    2    0    0 -0.37914222526E+02 -0.55655526900E+02 -0.45129209273E+03  0.47312534933E+03  0.12509203520E+03 0.  0.
          5    1    3    3  502    0 -0.81209252878E+02 -0.55350228797E+02 -0.32432192640E+03  0.33891116082E+03  0.41800000000E+01 0.  1.
         -5    1    3    3    0  502  0.43295030351E+02 -0.30529810254E+00 -0.12697016633E+03  0.13421418851E+03  0.41800000000E+01 0.  1.
        -11    1    1    2    0    0  0.70114440042E+02  0.42021896484E+02 -0.17394054646E+03  0.19219049974E+03  0.00000000000E+00 0. -1.
         11    1    1    2    0    0 -0.32200217515E+02  0.13633630416E+02 -0.51905602201E+02  0.62585313183E+02  0.00000000000E+00 0.  1.
</event>
<event>
 7    1  0.2480409E-009  0.9990424E+02  0.7561462E-02  0.1280497E+00
          2   -1    0    0  501    0  0.00000000000E+00  0.00000000000E+00  0.16784397348E+03  0.16784397348E+03  0.00000000000E+00 0. -1.
         -2   -1    0    0    0  501 -0.00000000000E+00 -0.00000000000E+00 -0.18308333261E+03  0.18308333261E+03  0.00000000000E+00 0.  1.
         25    2    1    2    0    0 -0.79227626034E+02 -0.11814609579E+02  0.10362056092E+03  0.18110181880E+03  0.12507616240E+03 0.  0.
          5    1    3    3  502    0 -0.14439314158E+02 -0.42974309799E+02  0.98968730782E+02  0.10893836408E+03  0.41800000000E+01 0. -1.
         -5    1    3    3    0  502 -0.64788311876E+02  0.31159700220E+02  0.46518301405E+01  0.72163454720E+02  0.41800000000E+01 0. -1.
        -11    1    1    2    0    0  0.50200979996E+02 -0.17420679374E+01 -0.12716813466E+03  0.13672932262E+03  0.00000000000E+00 0.  1.
         11    1    1    2    0    0  0.29026646037E+02  0.13556677517E+02  0.83082146067E+01  0.33096164663E+02  0.00000000000E+00 0. -1.
</event>
<event>
 7    1  0.2480409E-009  0.1870260E+03  0.7561462E-02  0.1161171E+00
          2   -1    0    0  501    0  0.00000000000E+00  0.00000000000E+00  0.11272618466E+04  0.11272618466E+04  0.00000000000E+00 0.  1.
         -2   -1    0    0    0  501 -0.00000000000E+00 -0.00000000000E+00 -0.41597907609E+02  0.41597907609E+02  0.00000000000E+00 0. -1.
         25    2    1    2    0    0  0.10194512692E+03 -0.14402004591E+03  0.73992915523E+03  0.77089493573E+03  0.12509702096E+03 0.  0.
          5    1    3    3  502    0  0.75951206020E+02 -0.12798633935E+03  0.35801427008E+03  0.38773802849E+03  0.41800000000E+01 0. -1.
         -5    1    3    3    0  502  0.25993920899E+02 -0.16033706562E+02  0.38191488515E+03  0.38315690724E+03  0.41800000000E+01 0. -1.
        -11    1    1    2    0    0 -0.50611881504E+02  0.11045944729E+02  0.12377379843E+03  0.13417722840E+03  0.00000000000E+00 0.  1.
         11    1    1    2    0    0 -0.51333245415E+02  0.13297410118E+03  0.22196098536E+03  0.26378759010E+03  0.00000000000E+00 0. -1.
</event>
<event>
 7    1  0.2480409E-009  0.1154267E+03  0.7561462E-02  0.1250838E+00
         -1   -1    0    0    0  501 -0.00000000000E+00  0.00000000000E+00  0.55103417843E+02  0.55103417843E+02  0.00000000000E+00 0.  1.
          1   -1    0    0  501    0  0.00000000000E+00 -0.00000000000E+00 -0.35616647084E+03  0.35616647084E+03  0.00000000000E+00 0. -1.
         25    2    1    2    0    0 -0.80949894167E+02 -0.20730504019E+02 -0.12343557615E+03  0.19459783714E+03  0.12509731251E+03 0.  0.
          5    1    3    3  502    0 -0.84837707884E+02 -0.34664309935E+02 -0.25096144741E+02  0.95112249175E+02  0.41800000000E+01 0.  1.
         -5    1    3    3    0  502  0.38878137179E+01  0.13933805916E+02 -0.98339431412E+02  0.99485587968E+02  0.41800000000E+01 0.  1.
        -11    1    1    2    0    0 -0.77780334999E+01  0.33518587749E+02 -0.51179116290E+02  0.61670864061E+02  0.00000000000E+00 0. -1.
         11    1    1    2    0    0  0.88727927667E+02 -0.12788083729E+02 -0.12644836056E+03  0.15500118748E+03  0.00000000000E+00 0.  1.
</event>
<event>
 7    1  0.2480409E-009  0.2984401E+03  0.7561462E-02  0.1086023E+00
          1   -1    0    0  501    0  0.00000000000E+00  0.00000000000E+00  0.38156607865E+03  0.38156607865E+03  0.00000000000E+00 0. -1.
         -1   -1    0    0    0  501 -0.00000000000E+00 -0.00000000000E+00 -0.44352582058E+03  0.44352582058E+03  0.00000000000E+00 0.  1.
         25    2    1    2    0    0  0.37812121615E+02 -0.28045763446E+03  0.24705327851E+03  0.39594141457E+03  0.12509212638E+03 0.  0.
          5    1    3    3  502    0  0.78311017008E+02 -0.19391919025E+03  0.19980474323E+03  0.28926920947E+03  0.41800000000E+01 0.  1.
         -5    1    3    3    0  502 -0.40498895393E+02 -0.86538444210E+02  0.47248535281E+02  0.10667220510E+03  0.41800000000E+01 0.  1.
        -11    1    1    2    0    0  0.21566659997E+02  0.91047994453E+02 -0.14030575335E+03  0.16864329972E+03  0.00000000000E+00 0. -1.
         11    1    1    2    0    0 -0.59378781612E+02  0.18940964001E+03 -0.16870726709E+03  0.26050718493E+03  0.00000000000E+00 0.  1.
</event>
<event>
 7    1  0.2480409E-009  0.9209643E+02  0.7561462E-02  0.1297853E+00
          2   -1    0    0  501    0  0.00000000000E+00  0.00000000000E+00  0.56988210814E+03  0.56988210814E+03  0.00000000000E+00 0. -1.
         -2   -1    0    0    0  501 -0.00000000000E+00 -0.00000000000E+00 -0.35531064134E+02  0.35531064134E+02  0.00000000000E+00 0.  1.
         25    2    1    2    0    0 -0.27237853413E+02 -0.54989142055E+02  0.14576353171E+03  0.20163742606E+03  0.12507972661E+03 0.  0.
          5    1    3    3  502    0 -0.48998921298E+02 -0.37893156415E+02  0.15899069146E+03  0.17068186185E+03  0.41800000000E+01 0. -1.
         -5    1    3    3    0  502  0.21761067886E+02 -0.17095985640E+02 -0.13227159754E+02  0.30955564212E+02  0.41800000000E+01 0. -1.
        -11    1    1    2    0    0  0.14870089564E+02  0.71760210241E+02  0.36507587410E+03  0.37235875334E+03  0.00000000000E+00 0. -1.
         11    1    1    2    0    0  0.12367763848E+02 -0.16771068186E+02  0.23511638195E+02  0.31416992875E+02  0.00000000000E+00 0.  1.
</event>
<event>
 7    1  0.2480409E-009  0.1299675E+03  0.7561462E-02  0.1227504E+00
          1   -1    0    0  501    0  0.00000000000E+00  0.00000000000E+00  0.17946436024E+03  0.17946436024E+03  0.00000000000E+00 0. -1.
         -1   -1    0    0    0  501 -0.00000000000E+00 -0.00000000000E+00 -0.14631097531E+03  0.14631097531E+03  0.00000000000E+00 0.  1.
         25    2    1    2    0    0  0.56395380260E+02  0.65093561366E+02  0.10124759747E+03  0.18252753271E+03  0.12509042153E+03 0.  0.
          5    1    3    3  502    0  0.64656267682E+02 -0.11409885087E+02  0.77991586891E+02  0.10203322231E+03  0.41800000000E+01 0. -1.
         -5    1    3    3    0  502 -0.82608874216E+01  0.76503446453E+02  0.23256010580E+02  0.80494310409E+02  0.41800000000E+01 0. -1.
        -11    1    1    2    0    0  0.41499315735E+01 -0.55653909637E+02 -0.59149142716E+02  0.81321587994E+02  0.00000000000E+00 0.  1.
         11    1    1    2    0    0 -0.60545311834E+02 -0.94396517291E+01 -0.89450698307E+01  0.61926214837E+02  0.00000000000E+00 0. -1.
</event>
<event>
 7    1  0.2480409E-009  0.1525179E+03  0.7561462E-02  0.1197413E+00
         -1   -1    0    0    0  501 -0.00000000000E+00  0.00000000000E+00  0.13658187322E+04  0.13658187322E+04  0.00000000000E+00 0.  1.
          1   -1    0    0  501    0  0.00000000000E+00 -0.00000000000E+00 -0.19665064287E+02  0.19665064287E+02  0.00000000000E+00 0. -1.
         25    2    1    2    0    0  0.40152060497E+01 -0.12257179074E+03  0.72411077716E+03  0.74499965014E+03  0.12509234723E+03 0.  0.
          5    1    3    3  502    0 -0.87483691249E+01  0.21652687706E+02  0.47950866177E+02  0.53498886104E+02  0.41800000000E+01 0. -1.
         -5    1    3    3    0  502  0.12763575175E+02 -0.14422447845E+03  0.67615991098E+03  0.69150076403E+03  0.41800000000E+01 0. -1.
        -11    1    1    2    0    0 -0.14501869220E+02  0.12488497593E+03  0.61481841116E+03  0.62754142503E+03  0.00000000000E+00 0.  1.
         11    1    1    2    0    0  0.10486663171E+02 -0.23131851874E+01  0.72244796179E+01  0.12942721349E+02  0.00000000000E+00 0. -1.
</event>
<event>
 7    1  0.2480409E-009  0.1352393E+03  0.7561462E-02  0.1219882E+00
          2   -1    0    0  501    0  0.00000000000E+00  0.00000000000E+00  0.70168998078E+03  0.70168998078E+03  0.00000000000E+00 0. -1.
         -2   -1    0    0    0  501 -0.00000000000E+00 -0.00000000000E+00 -0.57889714558E+02  0.57889714558E+02  0.00000000000E+00 0.  1.
         25    2    1    2    0    0  0.70605809141E+02  0.84745158684E+02  0.58220685542E+03  0.60562202632E+03  0.12508514725E+03 0.  0.
          5    1    3    3  502    0 -0.86762629287E+01  0.58289006913E+02  0.99522788003E+02  0.11573739066E+03  0.41800000000E+01 0. -1.
         -5    1    3    3    0  502  0.79282072069E+02  0.26456151771E+02  0.48268406741E+03  0.48988463566E+03  0.41800000000E+01 0. -1.
        -11    1    1    2    0    0 -0.48859600229E+02 -0.10002000570E+02  0.57346546065E+02  0.75999519048E+02  0.00000000000E+00 0. -1.
         11    1    1    2    0    0 -0.21746208911E+02 -0.74743158114E+02  0.42468647423E+01  0.77958149972E+02  0.00000000000E+00 0.  1.
</event>
<event>
 7    1  0.2480409E-009  0.1436017E+03  0.7561462E-02  0.1208563E+00
         -1   -1    0    0    0  501 -0.00000000000E+00  0.00000000000E+00  0.17407693110E+03  0.17407693110E+03  0.00000000000E+00 0.  1.
          1   -1    0    0  501    0  0.00000000000E+00 -0.00000000000E+00 -0.12335653535E+03  0.12335653535E+03  0.00000000000E+00 0. -1.
         25    2    1    2    0    0 -0.85918144144E+02 -0.62115140628E+02  0.23315807322E+02  0.16562469882E+03  0.12509075025E+03 0.  0.
          5    1    3    3  502    0 -0.97925303440E+02 -0.89851255654E+02  0.13886529268E+02  0.13368964542E+03  0.41800000000E+01 0.  1.
         -5    1    3    3    0  502  0.12007159295E+02  0.27736115026E+02  0.94292780548E+01  0.31935053401E+02  0.41800000000E+01 0.  1.
        -11    1    1    2    0    0  0.11296419175E+02  0.46022263687E+02 -0.73099746747E+01  0.47948864124E+02  0.00000000000E+00 0. -1.
         11    1    1    2    0    0  0.74621724969E+02  0.16092876941E+02  0.34714563097E+02  0.83859903510E+02  0.00000000000E+00 0.  1.
</event>
<event>
 7    1  0.2480409E-009  0.2811241E+03  0.7561462E-02  0.1095077E+00
          2   -1    0    0  501    0  0.00000000000E+00  0.00000000000E+00  0.10767046306E+04  0.10767046306E+04  0.00000000000E+00 0. -1.
         -2   -1    0    0    0  501 -0.00000000000E+00 -0.00000000000E+00 -0.78449650829E+02  0.78449650829E+02  0.00000000000E+00 0.  1.
         25    2    1    2    0    0 -0.15103442970E+03  0.21466331611E+03  0.63131560852E+03  0.69505328677E+03  0.12509170896E+03 0.  0.
          5    1    3    3  502    0 -0.96541145773E+02  0.41035715193E+02  0.17946949375E+03  0.20792040384E+03  0.41800000000E+01 0.  1.
         -5    1    3    3    0  502 -0.54493283926E+02  0.17362760092E+03  0.45184611477E+03  0.48713288293E+03  0.41800000000E+01 0.  1.
        -11    1    1    2    0    0  0.83851183896E+02 -0.18231389422E+03  0.23957847900E+03  0.31251755897E+03  0.00000000000E+00 0.  1.
         11    1    1    2    0    0  0.67183245803E+02 -0.32349421890E+02  0.12736089223E+03  0.14758343567E+03  0.00000000000E+00 0. -1.
</event>
<event>
 7    1  0.2480409E-009  0.1252906E+03  0.7561462E-02  0.1234616E+00
          2   -1    0    0  501    0  0.00000000000E+00  0.00000000000E+00  0.15355452147E+03  0.15355452147E+03  0.00000000000E+00 0. -1.
         -2   -1    0    0    0  501 -0.00000000000E+00 -0.00000000000E+00 -0.12243974843E+03  0.12243974843E+03  0.00000000000E+00 0.  1.
         25    2    1    2    0    0 -0.55431847996E+02 -0.52045664897E+02 -0.17864543867E+02  0.14746171317E+03  0.12507747166E+03 0.  0.
          5    1    3    3  502    0  0.36567026454E+02 -0.93764758904E+01  0.14910600975E+02  0.40802746786E+02  0.41800000000E+01 0. -1.
         -5    1    3    3    0  502 -0.91998874449E+02 -0.42669189006E+02 -0.32775144843E+02  0.10665896638E+03  0.41800000000E+01 0. -1.
        -11    1    1    2    0    0  0.11329495550E+01  0.56601104694E+02  0.47698579021E+02  0.74027853325E+02  0.00000000000E+00 0. -1.
         11    1    1    2    0    0  0.54298898441E+02 -0.45554397978E+01  0.12807378922E+01  0.54504703404E+02  0.00000000000E+00 0.  1.
</event>
<event>
 7    1  0.2480409E-009  0.1039325E+03  0.7561462E-02  0.1272237E+00
         -2   -1    0    0    0  501 -0.00000000000E+00  0.00000000000E+00  0.57082791704E+02  0.57082791704E+02  0.00000000000E+00 0.  1.
          2   -1    0    0  501    0  0.00000000000E+00 -0.00000000000E+00 -0.27652727798E+03  0.27652727798E+03  0.00000000000E+00 0. -1.
         25    2    1    2    0    0  0.28771210962E+02 -0.25823740047E+01 -0.50663160795E+02  0.13802092934E+03  0.12509424382E+03 0.  0.
          5    1    3    3  502    0  0.62106742291E+02  0.37255189774E+02 -0.12944533577E+02  0.73690093993E+02  0.41800000000E+01 0. -1.
         -5    1    3    3    0  502 -0.33335531329E+02 -0.39837563779E+02 -0.37718627217E+02  0.64330835343E+02  0.41800000000E+01 0. -1.
        -11    1    1    2    0    0 -0.38369407389E+02 -0.30339571901E+02 -0.42710497718E+02  0.64937567415E+02  0.00000000000E+00 0.  1.
         11    1    1    2    0    0  0.95981964264E+01  0.32921945905E+02 -0.12607082776E+03  0.13065157293E+03  0.00000000000E+00 0. -1.
</event>
<event>
 7    1  0.2480409E-009  0.1267552E+03  0.7561462E-02  0.1232351E+00
          1   -1    0    0  501    0  0.00000000000E+00  0.00000000000E+00  0.24765625425E+03  0.24765625425E+03  0.00000000000E+00 0. -1.
         -1   -1    0    0    0  501 -0.00000000000E+00 -0.00000000000E+00 -0.93879089606E+02  0.93879089606E+02  0.00000000000E+00 0.  1.
         25    2    1    2    0    0 -0.62420165791E+02  0.58928939095E+02  0.11874393793E+02  0.15217447655E+03  0.12508866106E+03 0.  0.
          5    1    3    3  502    0 -0.12762113855E+01  0.78313062075E+02  0.32157600597E+02  0.84771151244E+02  0.41800000000E+01 0.  1.
         -5    1    3    3    0  502 -0.61143954406E+02 -0.19384122980E+02 -0.20283206804E+02  0.67403325306E+02  0.41800000000E+01 0.  1.
        -11    1    1    2    0    0 -0.12665260174E+01 -0.45741153765E+02  0.10510720114E+03  0.11463586248E+03  0.00000000000E+00 0. -1.
         11    1    1    2    0    0  0.63686691809E+02 -0.13187785330E+02  0.36795569712E+02  0.74725004824E+02  0.00000000000E+00 0.  1.
</event>
<event>
 7    1  0.2480409E-009  0.2177377E+03  0.7561462E-02  0.1135581E+00
         -1   -1    0    0    0  501 -0.00000000000E+00  0.00000000000E+00  0.33421007929E+03  0.33421007929E+03  0.00000000000E+00 0.  1.
          1   -1    0    0  501    0  0.00000000000E+00 -0.00000000000E+00 -0.34009445252E+03  0.34009445252E+03  0.00000000000E+00 0. -1.
         25    2    1    2    0    0  0.18634044637E+03  0.69267432227E+02 -0.25202129613E+03  0.34450502896E+03  0.12509293408E+03 0.  0.
          5    1    3    3  502    0  0.18449462123E+03  0.95815756019E+02 -0.22404029133E+03  0.30566394767E+03  0.41800000000E+01 0.  1.
         -5    1    3    3    0  502  0.18458251406E+01 -0.26548323792E+02 -0.27981004800E+02  0.38841081295E+02  0.41800000000E+01 0.  1.
        -11    1    1    2    0    0 -0.47837054550E+02 -0.30660852248E+02  0.13998357523E+03  0.15107571937E+03  0.00000000000E+00 0.  1.
         11    1    1    2    0    0 -0.13850339182E+03 -0.38606579979E+02  0.10615334767E+03  0.17872378349E+03  0.00000000000E+00 0. -1.
</event>
<event>
 7    1  0.2480409E-009  0.1380481E+03  0.7561462E-02  0.1215980E+00
         -1   -1    0    0    0  501 -0.00000000000E+00  0.00000000000E+00  0.27364155429E+02  0.27364155429E+02  0.00000000000E+00 0.  1.
          1   -1    0    0  501    0  0.00000000000E+00 -0.00000000000E+00 -0.91851122855E+03  0.91851122855E+03  0.00000000000E+00 0. -1.
         25    2    1    2    0    0 -0.10440633953E+03 -0.57331630422E+02 -0.49924811136E+03  0.52828602430E+03  0.12509934930E+03 0.  0.
          5    1    3    3  502    0  0.11462079883E+02  0.12233529756E+02 -0.18983230165E+03  0.19061692914E+03  0.41800000000E+01 0. -1.
         -5    1    3    3    0  502 -0.11586841941E+03 -0.69565160179E+02 -0.30941580971E+03  0.33766909516E+03  0.41800000000E+01 0. -1.
        -11    1    1    2    0    0  0.61871116268E+02  0.15142570375E+02 -0.30787043058E+03  0.31439073537E+03  0.00000000000E+00 0. -1.
         11    1    1    2    0    0  0.42535223258E+02  0.42189060047E+02 -0.84028531187E+02  0.10319862431E+03  0.00000000000E+00 0.  1.
</event>
<event>
 7    1  0.2480409E-009  0.1974877E+03  0.7561462E-02  0.1151876E+00
          1   -1    0    0  501    0  0.00000000000E+00  0.00000000000E+00  0.18026365689E+03  0.18026365689E+03  0.00000000000E+00 0. -1.
         -1   -1    0    0    0  501 -0.00000000000E+00 -0.00000000000E+00 -0.30507391312E+03  0.30507391312E+03  0.00000000000E+00 0.  1.
         25    2    1    2    0    0  0.64604361664E+02  0.17062055328E+03 -0.16712552142E+03  0.27724247078E+03  0.12508937184E+03 0.  0.
          5    1    3    3  502    0  0.71426547003E+02  0.17804173697E+03 -0.17807749391E+03  0.26178173725E+03  0.41800000000E+01 0. -1.
         -5    1    3    3    0  502 -0.68221853384E+01 -0.74211836851E+01  0.10951972488E+02  0.15460733536E+02  0.41800000000E+01 0. -1.
        -11    1    1    2    0    0 -0.72477283496E+02 -0.11449189971E+03 -0.29867471162E+01  0.13553697791E+03  0.00000000000E+00 0.  1.
         11    1    1    2    0    0  0.78729218318E+01 -0.56128653576E+02  0.45302012308E+02  0.72558121321E+02  0.00000000000E+00 0. -1.
</event>
<event>
 7    1  0.2480409E-009  0.1455680E+03  0.7561462E-02  0.1206027E+00
         -1   -1    0    0    0  501 -0.00000000000E+00  0.00000000000E+00  0.30791609123E+03  0.30791609123E+03  0.00000000000E+00 0. -1.
          1   -1    0    0  501    0  0.00000000000E+00 -0.00000000000E+00 -0.10315797681E+03  0.10315797681E+03  0.00000000000E+00 0.  1.
         25    2    1    2    0    0 -0.12191430892E+02 -0.12340468187E+03  0.30259020246E+02  0.17872103394E+03  0.12509297811E+03 0.  0.
          5    1    3    3  502    0 -0.12194564316E+02  0.10536981961E+02  0.41032537247E+02  0.44281789718E+02  0.41800000000E+01 0. -1.
         -5    1    3    3    0  502  0.31334236810E-02 -0.13394166383E+03 -0.10773517002E+02  0.13443924423E+03  0.41800000000E+01 0. -1.
        -11    1    1    2    0    0 -0.24335212623E+02  0.22407211857E+02  0.89405106574E+02  0.95328688222E+02  0.00000000000E+00 0. -1.
         11    1    1    2    0    0  0.36526643515E+02  0.10099747001E+03  0.85093987600E+02  0.13702434587E+03  0.00000000000E+00 0.  1.
</event>
<event>
 7    1  0.2480409E-009  0.1628883E+03  0.7561462E-02  0.1185474E+00
          1   -1    0    0  501    0  0.00000000000E+00  0.00000000000E+00  0.13781516709E+03  0.13781516709E+03  0.00000000000E+00 0. -1.
         -1   -1    0    0    0  501 -0.00000000000E+00 -0.00000000000E+00 -0.22107124465E+03  0.22107124465E+03  0.00000000000E+00 0.  1.
         25    2    1    2    0    0  0.11156216077E+03  0.71461558129E+02 -0.13617792304E+02  0.18271885799E+03  0.12509143373E+03 0.  0.
          5    1    3    3  502    0  0.20559842403E+02  0.87068487879E+02 -0.21677267296E+01  0.89586830173E+02  0.41800000000E+01 0.  1.
         -5    1    3    3    0  502  0.91002318364E+02 -0.15606929750E+02 -0.11450065574E+02  0.93132027818E+02  0.41800000000E+01 0.  1.
        -11    1    1    2    0    0 -0.54615515628E+02 -0.29403726856E+01 -0.67722921717E+02  0.87051102605E+02  0.00000000000E+00 0.  1.
         11    1    1    2    0    0 -0.56946645139E+02 -0.68521185443E+02 -0.19153635391E+01  0.89116451145E+02  0.00000000000E+00 0. -1.
</event>
<event>
 7    1  0.2480409E-009  0.1945633E+03  0.7561462E-02  0.1154409E+00
         -1   -1    0    0    0  501 -0.00000000000E+00  0.00000000000E+00  0.96199668843E+02  0.96199668843E+02  0.00000000000E+00 0.  1.
          1   -1    0    0  501    0  0.00000000000E+00 -0.00000000000E+00 -0.51130791181E+03  0.51130791181E+03  0.00000000000E+00 0. -1.
         25    2    1    2    0    0  0.19707070362E+02  0.16449240545E+03 -0.78834224436E+02  0.22205724686E+03  0.12509382826E+03 0.  0.
          5    1    3    3  502    0 -0.16157541714E+02  0.16798921759E+03 -0.77501971065E+02  0.18575648387E+03  0.41800000000E+01 0. -1.
         -5    1    3    3    0  502  0.35864612076E+02 -0.34968121407E+01 -0.13322533707E+01  0.36300762989E+02  0.41800000000E+01 0. -1.
        -11    1    1    2    0    0  0.20033371041E+02 -0.12963094416E+03 -0.19891970981E+03  0.23827414587E+03  0.00000000000E+00 0.  1.
         11    1    1    2    0    0 -0.39740441403E+02 -0.34861461288E+02 -0.13735430872E+03  0.14717618792E+03  0.00000000000E+00 0. -1.
</event>
<event>
 7    1  0.2480409E-009  0.1877444E+03  0.7561462E-02  0.1160512E+00
          2   -1    0    0  501    0  0.00000000000E+00  0.00000000000E+00  0.20471389531E+04  0.20471389531E+04  0.00000000000E+00 0. -1.
         -2   -1    0    0    0  501 -0.00000000000E+00 -0.00000000000E+00 -0.19727441641E+02  0.19727441641E+02  0.00000000000E+00 0.  1.
         25    2    1    2    0    0 -0.39180997019E+02  0.16226776882E+03  0.11705706845E+04  0.11890118945E+04  0.12509028166E+03 0.  0.
          5    1    3    3  502    0 -0.46941673018E+02  0.56597859131E+01  0.18267173307E+03  0.18873788254E+03  0.41800000000E+01 0. -1.
         -5    1    3    3    0  502  0.77606759997E+01  0.15660798290E+03  0.98789895142E+03  0.10002740120E+04  0.41800000000E+01 0. -1.
        -11    1    1    2    0    0  0.10159501930E+02 -0.51481209074E+01  0.75493889780E+01  0.13664256375E+02  0.00000000000E+00 0.  1.
         11    1    1    2    0    0  0.29021495088E+02 -0.15711964791E+03  0.84929143798E+03  0.86419024384E+03  0.00000000000E+00 0. -1.
</event>
<event>
 7    1  0.2480409E-009  0.9347719E+02  0.7561462E-02  0.1294643E+00
          2   -1    0    0  501    0  0.00000000000E+00  0.00000000000E+00  0.20953146919E+03  0.20953146919E+03  0.00000000000E+00 0. -1.
         -2   -1    0    0    0  501 -0.00000000000E+00 -0.00000000000E+00 -0.77348225799E+02  0.77348225799E+02  0.00000000000E+00 0.  1.
         25    2    1    2    0    0  0.39816722985E+02  0.11211302524E+02  0.12856315317E+03  0.18408558523E+03  0.12509178071E+03 0.  0.
          5    1    3    3  502    0  0.59531513091E+02 -0.18682120870E+02  0.14133862499E+02  0.64111318504E+02  0.41800000000E+01 0.  1.
         -5    1    3    3    0  502 -0.19714790107E+02  0.29893423395E+02  0.11442929067E+03  0.11997426672E+03  0.41800000000E+01 0.  1.
        -11    1    1    2    0    0  0.23273321441E+02  0.36334667767E+01 -0.22819229056E+02  0.32795834895E+02  0.00000000000E+00 0.  1.
         11    1    1    2    0    0 -0.63090044426E+02 -0.14844769301E+02  0.26439319279E+02  0.69998274873E+02  0.00000000000E+00 0. -1.
</event>
<event>
 7    1  0.2480409E-009  0.8563011E+02  0.7561462E-02  0.1313793E+00
         -2   -1    0    0    0  501 -0.00000000000E+00  0.00000000000E+00  0.79540634931E+02  0.79540634931E+02  0.00000000000E+00 0.  1.
          2   -1    0    0  501    0  0.00000000000E+00 -0.00000000000E+00 -0.17745253162E+03  0.17745253162E+03  0.00000000000E+00 0. -1.
         25    2    1    2    0    0 -0.12069897911E+02 -0.27941480779E+02 -0.25818791786E+02  0.13130689250E+03  0.12509388964E+03 0.  0.
          5    1    3    3  502    0  0.52319346453E+02  0.10650705843E+02 -0.10331629674E+02  0.54543253661E+02  0.41800000000E+01 0. -1.
         -5    1    3    3    0  502 -0.64389244365E+02 -0.38592186622E+02 -0.15487162112E+02  0.76763638843E+02  0.41800000000E+01 0. -1.
        -11    1    1    2    0    0 -0.77465912143E+01  0.19495108123E+02 -0.93197643253E+02  0.95529417584E+02  0.00000000000E+00 0. -1.
         11    1    1    2    0    0  0.19816489126E+02  0.84463726563E+01  0.21104538354E+02  0.30156856458E+02  0.00000000000E+00 0.  1.
</event>
<event>
 7    1  0.2480409E-009  0.1093530E+03  0.7561462E-02  0.1261773E+00
          2   -1    0    0  501    0  0.00000000000E+00  0.00000000000E+00  0.16724732535E+03  0.16724732535E+03  0.00000000000E+00 0. -1.
         -2   -1    0    0    0  501 -0.00000000000E+00 -0.00000000000E+00 -0.11499104380E+03  0.11499104380E+03  0.00000000000E+00 0.  1.
         25    2    1    2    0    0 -0.83326712919E+02  0.67823937649E+01  0.45584862271E+02  0.15720689939E+03  0.12508672030E+03 0.  0.
          5    1    3    3  502    0 -0.12639182315E+02  0.23896349851E+02  0.74090348601E+02  0.78978709927E+02  0.41800000000E+01 0.  1.
         -5    1    3    3    0  502 -0.70687530604E+02 -0.17113956086E+02 -0.28505486330E+02  0.78228189463E+02  0.41800000000E+01 0.  1.
        -11    1    1    2    0    0  0.37251261481E+02  0.38730874923E+02 -0.16552473368E+02  0.56229187517E+02  0.00000000000E+00 0.  1.
         11    1    1    2    0    0  0.46075451437E+02 -0.45513268688E+02  0.23223892646E+02  0.68802282240E+02  0.00000000000E+00 0. -1.
</event>
<event>
 7    1  0.2480409E-009  0.6726788E+02  0.7561462E-02  0.1369638E+00
         -2   -1    0    0    0  501 -0.00000000000E+00  0.00000000000E+00  0.20382570749E+03  0.20382570749E+03  0.00000000000E+00 0.  1.
          2   -1    0    0  501    0  0.00000000000E+00 -0.00000000000E+00 -0.65184414166E+02  0.65184414166E+02  0.00000000000E+00 0. -1.
         25    2    1    2    0    0  0.13343835113E+02  0.34784072349E+02  0.11669125705E+03  0.17507714890E+03  0.12508864445E+03 0.  0.
          5    1    3    3  502    0 -0.38328038095E+01 -0.27985033384E+01 -0.25847957681E+02  0.26610361182E+02  0.41800000000E+01 0.  1.
         -5    1    3    3    0  502  0.17176638923E+02  0.37582575687E+02  0.14253921473E+03  0.14846678772E+03  0.41800000000E+01 0.  1.
        -11    1    1    2    0    0  0.42770633889E+01 -0.57651586312E+02  0.23799120718E+00  0.57810512153E+02  0.00000000000E+00 0.  1.
         11    1    1    2    0    0 -0.17620898502E+02  0.22867513964E+02  0.21712045067E+02  0.36122460601E+02  0.00000000000E+00 0. -1.
</event>
<event>
 7    1  0.2480409E-009  0.9216703E+02  0.7561462E-02  0.1297687E+00
          1   -1    0    0  501    0  0.00000000000E+00  0.00000000000E+00  0.11483607900E+03  0.11483607900E+03  0.00000000000E+00 0. -1.
         -1   -1    0    0    0  501 -0.00000000000E+00 -0.00000000000E+00 -0.12602807270E+03  0.12602807270E+03  0.00000000000E+00 0.  1.
         25    2    1    2    0    0 -0.47998035439E+02 -0.76286681637E+00 -0.24367324079E+02  0.13618339476E+03  0.12509099549E+03 0.  0.
          5    1    3    3  502    0 -0.69538333712E+02 -0.25710681750E+01  0.31228866541E+02  0.76386548243E+02  0.41800000000E+01 0.  1.
         -5    1    3    3    0  502  0.21540298273E+02  0.18082013586E+01 -0.55596190620E+02  0.59796846517E+02  0.41800000000E+01 0.  1.
        -11    1    1    2    0    0  0.31897058671E+02 -0.38602332638E+02 -0.16608907332E+02  0.52758110653E+02  0.00000000000E+00 0. -1.
         11    1    1    2    0    0  0.16100976768E+02  0.39365199454E+02  0.29784237719E+02  0.51922646287E+02  0.00000000000E+00 0.  1.
</event>
<event>
 7    1  0.2480409E-009  0.1655355E+03  0.7561462E-02  0.1182585E+00
         -1   -1    0    0    0  501 -0.00000000000E+00  0.00000000000E+00  0.13011841531E+03  0.13011841531E+03  0.00000000000E+00 0.  1.
          1   -1    0    0  501    0  0.00000000000E+00 -0.00000000000E+00 -0.30296922816E+03  0.30296922816E+03  0.00000000000E+00 0. -1.
         25    2    1    2    0    0 -0.15030496414E+03  0.63003458511E+02 -0.12080604731E+03  0.23833747128E+03  0.12509848568E+03 0.  0.
          5    1    3    3  502    0 -0.48134498145E+02  0.40801691178E+02 -0.11774679326E+03  0.13365435884E+03  0.41800000000E+01 0. -1.
         -5    1    3    3    0  502 -0.10217046600E+03  0.22201767332E+02 -0.30592540496E+01  0.10468311244E+03  0.41800000000E+01 0. -1.
        -11    1    1    2    0    0  0.43669281514E+02 -0.22497772595E+02  0.26919083135E+02  0.56016006253E+02  0.00000000000E+00 0.  1.
         11    1    1    2    0    0  0.10663568263E+03 -0.40505685915E+02 -0.78963848677E+02  0.13873416594E+03  0.00000000000E+00 0. -1.
</event>
<event>
 7    1  0.2480409E-009  0.1008625E+03  0.7561462E-02  0.1278493E+00
          2   -1    0    0  501    0  0.00000000000E+00  0.00000000000E+00  0.23644153019E+03  0.23644153019E+03  0.00000000000E+00 0. -1.
         -2   -1    0    0    0  501 -0.00000000000E+00 -0.00000000000E+00 -0.53426437276E+02  0.53426437276E+02  0.00000000000E+00 0.  1.
         25    2    1    2    0    0 -0.11915917114E+02  0.28381711842E+02  0.87203282280E+02  0.15556145103E+03  0.12508973563E+03 0.  0.
          5    1    3    3  502    0 -0.58119609388E+02  0.72260392561E+01  0.86527517269E+02  0.10456858172E+03  0.41800000000E+01 0. -1.
         -5    1    3    3    0  502  0.46203692274E+02  0.21155672586E+02  0.67576501136E+00  0.50992869312E+02  0.41800000000E+01 0. -1.
        -11    1    1    2    0    0 -0.36105555117E+02  0.25967148743E+00  0.51833067945E+02  0.63169181348E+02  0.00000000000E+00 0. -1.
         11    1    1    2    0    0  0.48021472231E+02 -0.28641383330E+02  0.43978742689E+02  0.71137335084E+02  0.00000000000E+00 0.  1.
</event>
<event>
 7    1  0.2480409E-009  0.3104013E+03  0.7561462E-02  0.1080154E+00
          1   -1    0    0  501    0  0.00000000000E+00  0.00000000000E+00  0.14991126825E+03  0.14991126825E+03  0.00000000000E+00 0. -1.
         -1   -1    0    0    0  501 -0.00000000000E+00 -0.00000000000E+00 -0.67244295574E+03  0.67244295574E+03  0.00000000000E+00 0.  1.
         25    2    1    2    0    0 -0.29306369739E+03  0.60725688754E+02 -0.27695883164E+03  0.42652957126E+03  0.12508933101E+03 0.  0.
          5    1    3    3  502    0 -0.21766594924E+03  0.86551475026E+02 -0.24919358815E+03  0.34203002802E+03  0.41800000000E+01 0. -1.
         -5    1    3    3    0  502 -0.75397748146E+02 -0.25825786271E+02 -0.27765243489E+02  0.84499543242E+02  0.41800000000E+01 0. -1.
        -11    1    1    2    0    0  0.17583229153E+03 -0.25692219352E+01 -0.17059917014E+03  0.24500545402E+03  0.00000000000E+00 0.  1.
         11    1    1    2    0    0  0.11723140586E+03 -0.58156466819E+02 -0.74973685720E+02  0.15081919872E+03  0.00000000000E+00 0. -1.
</event>
<event>
 7    1  0.2480409E-009  0.2393629E+03  0.7561462E-02  0.1120218E+00
         -2   -1    0    0    0  501 -0.00000000000E+00  0.00000000000E+00  0.21892981493E+03  0.21892981493E+03  0.00000000000E+00 0.  1.
          2   -1    0    0  501    0  0.00000000000E+00 -0.00000000000E+00 -0.27830024978E+03  0.27830024978E+03  0.00000000000E+00 0. -1.
         25    2    1    2    0    0  0.63405938853E+02 -0.20969544843E+03 -0.64949305267E+02  0.26049627546E+03  0.12508958029E+03 0.  0.
          5    1    3    3  502    0  0.11097591491E+02 -0.19426103668E+03 -0.33754008777E+02  0.19752800414E+03  0.41800000000E+01 0.  1.
         -5    1    3    3    0  502  0.52308347362E+02 -0.15434411745E+02 -0.31195296490E+02  0.62968271318E+02  0.41800000000E+01 0.  1.
        -11    1    1    2    0    0 -0.78181380041E+02  0.17958049243E+03  0.25820297593E+02  0.19755548389E+03  0.00000000000E+00 0. -1.
         11    1    1    2    0    0  0.14775441188E+02  0.30114955998E+02 -0.20241427172E+02  0.39178305361E+02  0.00000000000E+00 0.  1.
</event>
<event>
 7    1  0.2480409E-009  0.1048443E+03  0.7561462E-02  0.1270427E+00
         -1   -1    0    0    0  501 -0.00000000000E+00  0.00000000000E+00  0.39598164860E+02  0.39598164860E+02  0.00000000000E+00 0.  1.
          1   -1    0    0  501    0  0.00000000000E+00 -0.00000000000E+00 -0.32585726405E+03  0.32585726405E+03  0.00000000000E+00 0. -1.
         25    2    1    2    0    0 -0.27285147814E+02 -0.13209047416E+02 -0.14555941295E+03  0.19430286258E+03  0.12508837470E+03 0.  0.
          5    1    3    3  502    0 -0.61562031568E+02  0.32001021406E+02 -0.98030642820E+02  0.12017249450E+03  0.41800000000E+01 0. -1.
         -5    1    3    3    0  502  0.34276883754E+02 -0.45210068821E+02 -0.47528770130E+02  0.74130368088E+02  0.41800000000E+01 0. -1.
        -11    1    1    2    0    0 -0.20507202921E+02 -0.17097834444E+02 -0.94190031799E+02  0.97901192049E+02  0.00000000000E+00 0. -1.
         11    1    1    2    0    0  0.47792350735E+02  0.30306881860E+02 -0.46509654437E+02  0.73251374272E+02  0.00000000000E+00 0.  1.
</event>
<event>
 7    1  0.2480409E-009  0.3234280E+03  0.7561462E-02  0.1074082E+00
          2   -1    0    0  501    0  0.00000000000E+00  0.00000000000E+00  0.28568440211E+04  0.28568440211E+04  0.00000000000E+00 0. -1.
         -2   -1    0    0    0  501 -0.00000000000E+00 -0.00000000000E+00 -0.43344616079E+02  0.43344616079E+02  0.00000000000E+00 0.  1.
         25    2    1    2    0    0 -0.21970119974E+03  0.22987608543E+03  0.18539716661E+04  0.18851976858E+04  0.12509094379E+03 0.  0.
          5    1    3    3  502    0 -0.97942895060E+02  0.10853048588E+03  0.12045984329E+04  0.12134440794E+04  0.41800000000E+01 0. -1.
         -5    1    3    3    0  502 -0.12175830469E+03  0.12134559956E+03  0.64937323324E+03  0.67175360643E+03  0.41800000000E+01 0. -1.
        -11    1    1    2    0    0  0.10077056181E+03 -0.48677656839E+02  0.38515495802E+03  0.40108423316E+03  0.00000000000E+00 0. -1.
         11    1    1    2    0    0  0.11893063793E+03 -0.18119842860E+03  0.57437278086E+03  0.61390671813E+03  0.00000000000E+00 0.  1.
</event>
<event>
 7    1  0.2480409E-009  0.1329639E+03  0.7561462E-02  0.1223123E+00
         -3   -1    0    0    0  501 -0.00000000000E+00  0.00000000000E+00  0.26745270941E+02  0.26745270941E+02  0.00000000000E+00 0.  1.
          3   -1    0    0  501    0  0.00000000000E+00 -0.00000000000E+00 -0.68118762143E+03  0.68118762143E+03  0.00000000000E+00 0. -1.
         25    2    1    2    0    0 -0.11102438921E+02 -0.76957176146E+02 -0.38422684125E+03  0.41149308193E+03  0.12510243734E+03 0.  0.
          5    1    3    3  502    0  0.28152309680E+02  0.24506035332E+02 -0.11914773799E+03  0.12492699538E+03  0.41800000000E+01 0. -1.
         -5    1    3    3    0  502 -0.39254748600E+02 -0.10146321148E+03 -0.26507910326E+03  0.28656608655E+03  0.41800000000E+01 0. -1.
        -11    1    1    2    0    0  0.32025659779E+01 -0.20989860520E+02 -0.28711704904E+02  0.35709839989E+02  0.00000000000E+00 0.  1.
         11    1    1    2    0    0  0.78998729428E+01  0.97947036666E+02 -0.24150380433E+03  0.26072997045E+03  0.00000000000E+00 0. -1.
</event>
<event>
 7    1  0.2480409E-009  0.8647010E+02  0.7561462E-02  0.1311632E+00
          2   -1    0    0  501    0  0.00000000000E+00  0.00000000000E+00  0.89751748915E+02  0.89751748915E+02  0.00000000000E+00 0. -1.
         -2   -1    0    0    0  501 -0.00000000000E+00 -0.00000000000E+00 -0.15568781548E+03  0.15568781548E+03  0.00000000000E+00 0.  1.
         25    2    1    2    0    0 -0.10846751324E+02  0.45178046322E+02 -0.28533420267E+02  0.13645114720E+03  0.12508417812E+03 0.  0.
          5    1    3    3  502    0  0.72381530880E+01 -0.97659211725E+01 -0.66109307465E+02  0.67347435066E+02  0.41800000000E+01 0.  1.
         -5    1    3    3    0  502 -0.18084904412E+02  0.54943967495E+02  0.37575887198E+02  0.69103712131E+02  0.41800000000E+01 0.  1.
        -11    1    1    2    0    0 -0.13026148674E+02  0.24876512347E+02 -0.13922589421E+02  0.31342621333E+02  0.00000000000E+00 0.  1.
         11    1    1    2    0    0  0.23872899998E+02 -0.70054558669E+02 -0.23480056879E+02  0.77645795867E+02  0.00000000000E+00 0. -1.
</event>
<event>
 7    1  0.2480409E-009  0.1567020E+03  0.7561462E-02  0.1192471E+00
          1   -1    0    0  501    0  0.00000000000E+00  0.00000000000E+00  0.20132459931E+04  0.20132459931E+04  0.00000000000E+00 0. -1.
         -1   -1    0    0    0  501 -0.00000000000E+00 -0.00000000000E+00 -0.17207407051E+02  0.17207407051E+02  0.00000000000E+00 0.  1.
         25    2    1    2    0    0  0.67966256633E+02  0.44882726836E+02  0.14150386230E+04  0.14228890078E+04  0.12507978566E+03 0.  0.
          5    1    3    3  502    0 -0.26521583721E+02  0.44717505776E+02  0.38497349381E+03  0.38849081464E+03  0.41800000000E+01 0. -1.
         -5    1    3    3    0  502  0.94487840353E+02  0.16522106066E+00  0.10300651291E+04  0.10343981931E+04  0.41800000000E+01 0. -1.
        -11    1    1    2    0    0 -0.89508744986E+02  0.25491134858E+02  0.21565432508E+03  0.23487954638E+03  0.00000000000E+00 0. -1.
         11    1    1    2    0    0  0.21542488354E+02 -0.70373861694E+02  0.36534563803E+03  0.37268484601E+03  0.00000000000E+00 0.  1.
</event>
<event>
 7    1  0.2480409E-009  0.1397522E+03  0.7561462E-02  0.1213663E+00
          2   -1    0    0  501    0  0.00000000000E+00  0.00000000000E+00  0.90275238076E+03  0.90275238076E+03  0.00000000000E+00 0. -1.
         -2   -1    0    0    0  501 -0.00000000000E+00 -0.00000000000E+00 -0.23454739977E+02  0.23454739977E+02  0.00000000000E+00 0.  1.
         25    2    1    2    0    0  0.33384664921E+02  0.87128954826E+02  0.55490960980E+03  0.57643557206E+03  0.12508918047E+03 0.  0.
          5    1    3    3  502    0  0.76191006437E+01  0.11529966641E+03  0.37276252277E+03  0.39028378720E+03  0.41800000000E+01 0. -1.
         -5    1    3    3    0  502  0.25765564278E+02 -0.28170711586E+02  0.18214708703E+03  0.18615178486E+03  0.41800000000E+01 0. -1.
        -11    1    1    2    0    0 -0.21702802458E+02  0.12577856244E+02  0.32190178922E+02  0.40809578793E+02  0.00000000000E+00 0.  1.
         11    1    1    2    0    0 -0.11681862463E+02 -0.99706811070E+02  0.29219785206E+03  0.30896196988E+03  0.00000000000E+00 0. -1.
</event>
<event>
 7    1  0.2666384E-009  0.1136514E+03  0.7561462E-02  0.1253954E+00
         -3   -1    0    0    0  501 -0.00000000000E+00  0.00000000000E+00  0.20371578786E+03  0.20371578786E+03  0.00000000000E+00 0.  1.
          3   -1    0    0  501    0  0.00000000000E+00 -0.00000000000E+00 -0.99463186009E+02  0.99463186009E+02  0.00000000000E+00 0. -1.
         25    2    1    2    0    0 -0.75486866080E+02 -0.51797493693E+02  0.63031514553E+02  0.16733590157E+03  0.12508830810E+03 0.  0.
          5    1    3    3  502    0 -0.74128765978E+02 -0.32190460118E+02 -0.18794959797E+02  0.83078412249E+02  0.41800000000E+01 0.  1.
         -5    1    3    3    0  502 -0.13581001016E+01 -0.19607033575E+02  0.81826474349E+02  0.84257489317E+02  0.41800000000E+01 0.  1.
        -11    1    1    2    0    0  0.17831502030E+02  0.64776994825E+02  0.36738415332E+02  0.76575013446E+02  0.00000000000E+00 0.  1.
         11    1    1    2    0    0  0.57655364049E+02 -0.12979501132E+02  0.44826719709E+01  0.59268058862E+02  0.00000000000E+00 0. -1.
</event>
<event>
 7    1  0.2480409E-009  0.1534475E+03  0.7561462E-02  0.1196300E+00
          2   -1    0    0  501    0  0.00000000000E+00  0.00000000000E+00  0.11107614376E+03  0.11107614376E+03  0.00000000000E+00 0. -1.
         -2   -1    0    0    0  501 -0.00000000000E+00 -0.00000000000E+00 -0.24799070882E+03  0.24799070882E+03  0.00000000000E+00 0.  1.
         25    2    1    2    0    0  0.12102677259E+03  0.31143465827E+02 -0.66529997733E+02  0.18892007668E+03  0.12508860710E+03 0.  0.
          5    1    3    3  502    0  0.10082031877E+03  0.75714459011E+02 -0.58857345668E+02  0.13920874800E+03  0.41800000000E+01 0.  1.
         -5    1    3    3    0  502  0.20206453821E+02 -0.44570993183E+02 -0.76726520645E+01  0.49711328679E+02  0.41800000000E+01 0.  1.
        -11    1    1    2    0    0 -0.32621568209E+02  0.99929259419E+01 -0.63883130712E+02  0.72422922275E+02  0.00000000000E+00 0.  1.
         11    1    1    2    0    0 -0.88405204382E+02 -0.41136391769E+02 -0.65014366238E+01  0.97723853628E+02  0.00000000000E+00 0. -1.
</event>
<event>
 7    1  0.2480409E-009  0.1846433E+03  0.7561462E-02  0.1163383E+00
         -1   -1    0    0    0  501 -0.00000000000E+00  0.00000000000E+00  0.51245376793E+02  0.51245376793E+02  0.00000000000E+00 0.  1.
          1   -1    0    0  501    0  0.00000000000E+00 -0.00000000000E+00 -0.10384710480E+04  0.10384710480E+04  0.00000000000E+00 0. -1.
         25    2    1    2    0    0  0.12758464343E+03  0.10182960911E+03 -0.80724944244E+03  0.83303441689E+03  0.12509023495E+03 0.  0.
          5    1    3    3  502    0  0.69376608367E+02  0.12472499196E+03 -0.54438774669E+03  0.56280096708E+03  0.41800000000E+01 0. -1.
         -5    1    3    3    0  502  0.58208035067E+02 -0.22895382849E+02 -0.26286169575E+03  0.27023344981E+03  0.41800000000E+01 0. -1.
        -11    1    1    2    0    0 -0.51650807052E+02 -0.32732511928E+02 -0.15983840744E+02  0.63203689538E+02  0.00000000000E+00 0. -1.
         11    1    1    2    0    0 -0.75933836382E+02 -0.69097097186E+02 -0.16399238804E+03  0.19347831838E+03  0.00000000000E+00 0.  1.
</event>
<event>
 7    1  0.2480409E-009  0.1010579E+03  0.7561462E-02  0.1278087E+00
         -2   -1    0    0    0  501 -0.00000000000E+00  0.00000000000E+00  0.93062985776E+02  0.93062985776E+02  0.00000000000E+00 0.  1.
          2   -1    0    0  501    0  0.00000000000E+00 -0.00000000000E+00 -0.22674592069E+03  0.22674592069E+03  0.00000000000E+00 0. -1.
         25    2    1    2    0    0 -0.12130822063E+02  0.67862166530E+02 -0.14818444262E+03  0.20581769983E+03  0.12509942461E+03 0.  0.
          5    1    3    3  502    0  0.17561658492E+02  0.68021841779E+02 -0.15904962268E+03  0.17392422972E+03  0.41800000000E+01 0. -1.
         -5    1    3    3    0  502 -0.29692480555E+02 -0.15967524923E+00  0.10865180062E+02  0.31893470107E+02  0.41800000000E+01 0. -1.
        -11    1    1    2    0    0  0.43717306366E+02 -0.33477693525E+02 -0.17046657459E+02  0.57641542053E+02  0.00000000000E+00 0. -1.
         11    1    1    2    0    0 -0.31586484303E+02 -0.34384473005E+02  0.31548165161E+02  0.56349664591E+02  0.00000000000E+00 0.  1.
</event>
<event>
 7    1  0.2480409E-009  0.1144581E+03  0.7561462E-02  0.1252530E+00
          1   -1    0    0  501    0  0.00000000000E+00  0.00000000000E+00  0.51112313268E+03  0.51112313268E+03  0.00000000000E+00 0. -1.
         -1   -1    0    0    0  501 -0.00000000000E+00 -0.00000000000E+00 -0.33509815961E+02  0.33509815961E+02  0.00000000000E+00 0.  1.
         25    2    1    2    0    0  0.12569458440E+02 -0.74167225180E+02  0.26229776108E+03  0.30017764617E+03  0.12509090779E+03 0.  0.
          5    1    3    3  502    0 -0.17475218389E+02 -0.97914545784E+02  0.13878419238E+03  0.17079568493E+03  0.41800000000E+01 0. -1.
         -5    1    3    3    0  502  0.30044676829E+02  0.23747320604E+02  0.12351356870E+03  0.12938196124E+03  0.41800000000E+01 0. -1.
        -11    1    1    2    0    0 -0.27895244618E+02  0.19416283481E+02  0.16521703803E+03  0.16867663262E+03  0.00000000000E+00 0. -1.
         11    1    1    2    0    0  0.15325786178E+02  0.54750941699E+02  0.50098517613E+02  0.75778669861E+02  0.00000000000E+00 0.  1.
</event>
<event>
 7    1  0.2480409E-009  0.1297444E+03  0.7561462E-02  0.1227836E+00
         -2   -1    0    0    0  501 -0.00000000000E+00  0.00000000000E+00  0.78660234174E+02  0.78660234174E+02  0.00000000000E+00 0.  1.
          2   -1    0    0  501    0  0.00000000000E+00 -0.00000000000E+00 -0.51811798801E+03  0.51811798801E+03  0.00000000000E+00 0. -1.
         25    2    1    2    0    0  0.75232127145E+01 -0.85005468417E+02 -0.13174296901E+02  0.15200427519E+03  0.12509679927E+03 0.  0.
          5    1    3    3  502    0  0.59895377375E+00  0.23495335308E+02 -0.33684935147E+02  0.41286036171E+02  0.41800000000E+01 0.  1.
         -5    1    3    3    0  502  0.69242589408E+01 -0.10850080373E+03  0.20510638246E+02  0.11071823902E+03  0.41800000000E+01 0.  1.
        -11    1    1    2    0    0  0.29395527560E+02  0.84954429155E+02 -0.30988278692E+03  0.32265878836E+03  0.00000000000E+00 0.  1.
         11    1    1    2    0    0 -0.36918740275E+02  0.51039262775E-01 -0.11640067002E+03  0.12211515864E+03  0.00000000000E+00 0. -1.
</event>
<event>
 7    1  0.2480409E-009  0.9832599E+02  0.7561462E-02  0.1283856E+00
         -1   -1    0    0    0  501 -0.00000000000E+00  0.00000000000E+00  0.14005445910E+02  0.14005445910E+02  0.00000000000E+00 0.  1.
          1   -1    0    0  501    0  0.00000000000E+00 -0.00000000000E+00 -0.11683462437E+04  0.11683462437E+04  0.00000000000E+00 0. -1.
         25    2    1    2    0    0  0.27857452030E+02  0.20387165712E+02 -0.92084619180E+03  0.92994466887E+03  0.12509078320E+03 0.  0.
          5    1    3    3  502    0  0.14565760122E+02 -0.46350573656E+02 -0.19907166308E+03  0.20495740164E+03  0.41800000000E+01 0.  1.
         -5    1    3    3    0  502  0.13291691908E+02  0.66737739369E+02 -0.72177452872E+03  0.72498726722E+03  0.41800000000E+01 0.  1.
        -11    1    1    2    0    0 -0.52423936691E+02 -0.12306188118E+02 -0.78036469567E+02  0.94812456917E+02  0.00000000000E+00 0.  1.
         11    1    1    2    0    0  0.24566484661E+02 -0.80809775940E+01 -0.15545813637E+03  0.15759456378E+03  0.00000000000E+00 0. -1.
</event>
<event>
 7    1  0.2480409E-009  0.1060308E+03  0.7561462E-02  0.1268102E+00
          1   -1    0    0  501    0  0.00000000000E+00  0.00000000000E+00  0.30013645609E+03  0.30013645609E+03  0.00000000000E+00 0. -1.
         -1   -1    0    0    0  501 -0.00000000000E+00 -0.00000000000E+00 -0.40977105044E+02  0.40977105044E+02  0.00000000000E+00 0.  1.
         25    2    1    2    0    0  0.64175227382E+01  0.13830110392E+02  0.13474152626E+03  0.18448653696E+03  0.12509015496E+03 0.  0.
          5    1    3    3  502    0  0.80493851780E+01 -0.54264758715E+02  0.41375455316E+02  0.68839358965E+02  0.41800000000E+01 0. -1.
         -5    1    3    3    0  502 -0.16318624398E+01  0.68094869107E+02  0.93366070949E+02  0.11564717800E+03  0.41800000000E+01 0. -1.
        -11    1    1    2    0    0  0.37253565383E+02 -0.23535197349E+02  0.33687186270E+02  0.55466748298E+02  0.00000000000E+00 0.  1.
         11    1    1    2    0    0 -0.43671088121E+02  0.97050869569E+01  0.90730638508E+02  0.10116027587E+03  0.00000000000E+00 0. -1.
</event>
<event>
 7    1  0.2480409E-009  0.1118718E+03  0.7561462E-02  0.1257142E+00
         -1   -1    0    0    0  501 -0.00000000000E+00  0.00000000000E+00  0.17527921630E+03  0.17527921630E+03  0.00000000000E+00 0.  1.
          1   -1    0    0  501    0  0.00000000000E+00 -0.00000000000E+00 -0.73605103760E+02  0.73605103760E+02  0.00000000000E+00 0. -1.
         25    2    1    2    0    0 -0.37812048632E+01 -0.27214604475E+02  0.42253311043E+02  0.13485921402E+03  0.12508690221E+03 0.  0.
          5    1    3    3  502    0  0.49684305082E+02 -0.47717661369E+02  0.33728962160E+02  0.76815497566E+02  0.41800000000E+01 0. -1.
         -5    1    3    3    0  502 -0.53465509945E+02  0.20503056894E+02  0.85243488827E+01  0.58043716452E+02  0.41800000000E+01 0. -1.
        -11    1    1    2    0    0  0.11413607077E+02  0.61316270805E+02  0.38556843738E+02  0.73325205018E+02  0.00000000000E+00 0. -1.
         11    1    1    2    0    0 -0.76324022136E+01 -0.34101666329E+02  0.20863957759E+02  0.40699901024E+02  0.00000000000E+00 0.  1.
</event>
<event>
 7    1  0.2480409E-009  0.9188051E+02  0.7561462E-02  0.1298361E+00
          1   -1    0    0  501    0  0.00000000000E+00  0.00000000000E+00  0.46862822670E+02  0.46862822670E+02  0.00000000000E+00 0. -1.
         -1   -1    0    0    0  501 -0.00000000000E+00 -0.00000000000E+00 -0.31540087691E+03  0.31540087691E+03  0.00000000000E+00 0.  1.
         25    2    1    2    0    0 -0.44751773210E+02 -0.47627483503E+01 -0.10221707663E+03  0.16769270297E+03  0.12508839634E+03 0.  0.
          5    1    3    3  502    0 -0.78391083014E+02  0.29932655026E+02 -0.71107593116E+02  0.11006765161E+03  0.41800000000E+01 0. -1.
         -5    1    3    3    0  502  0.33639309804E+02 -0.34695403376E+02 -0.31109483514E+02  0.57625051358E+02  0.41800000000E+01 0. -1.
        -11    1    1    2    0    0  0.57595627617E+01  0.10354241964E+02  0.90002329580E+01  0.14879082067E+02  0.00000000000E+00 0. -1.
         11    1    1    2    0    0  0.38992210449E+02 -0.55914936138E+01 -0.17532121057E+03  0.17969191455E+03  0.00000000000E+00 0.  1.
</event>
<event>
 7    1  0.2480409E-009  0.1037179E+03  0.7561462E-02  0.1272666E+00
          2   -1    0    0  501    0  0.00000000000E+00  0.00000000000E+00  0.91751711891E+03  0.91751711891E+03  0.00000000000E+00 0. -1.
         -2   -1    0    0    0  501 -0.00000000000E+00 -0.00000000000E+00 -0.20995042771E+02  0.20995042771E+02  0.00000000000E+00 0.  1.
         25    2    1    2    0    0 -0.55082640900E+02  0.38339369164E+02  0.67315618390E+03  0.68796278060E+03  0.12509810152E+03 0.  0.
          5    1    3    3  502    0  0.14581728932E+01  0.37590011561E+02  0.56112888230E+03  0.56240397420E+03  0.41800000000E+01 0.  1.
         -5    1    3    3    0  502 -0.56540813793E+02  0.74935760271E+00  0.11202730160E+03  0.12555880640E+03  0.41800000000E+01 0.  1.
        -11    1    1    2    0    0 -0.17957731527E+02  0.14215304495E+02  0.56550441682E+02  0.61012354961E+02  0.00000000000E+00 0. -1.
         11    1    1    2    0    0  0.73040372428E+02 -0.52554673659E+02  0.16681545056E+03  0.18953702613E+03  0.00000000000E+00 0.  1.
</event>
<event>
 7    1  0.2480409E-009  0.1017793E+03  0.7561462E-02  0.1276598E+00
          2   -1    0    0  501    0  0.00000000000E+00  0.00000000000E+00  0.41304549247E+03  0.41304549247E+03  0.00000000000E+00 0. -1.
         -2   -1    0    0    0  501 -0.00000000000E+00 -0.00000000000E+00 -0.49376979365E+02  0.49376979365E+02  0.00000000000E+00 0.  1.
         25    2    1    2    0    0  0.48101962196E+02  0.77315267834E+02  0.23317073955E+03  0.27983606907E+03  0.12509269508E+03 0.  0.
          5    1    3    3  502    0  0.16089586954E+02  0.12674401179E+02 -0.12093396911E+02  0.24150318889E+02  0.41800000000E+01 0.  1.
         -5    1    3    3    0  502  0.32012375243E+02  0.64640866655E+02  0.24526413646E+03  0.25568575018E+03  0.41800000000E+01 0.  1.
        -11    1    1    2    0    0  0.71335422799E+01 -0.46711050990E+02  0.10375767483E+03  0.11401081000E+03  0.00000000000E+00 0. -1.
         11    1    1    2    0    0 -0.55235504476E+02 -0.30604216844E+02  0.26740098719E+02  0.68575592764E+02  0.00000000000E+00 0.  1.
</event>
<event>
 7    1  0.2480409E-009  0.1582957E+03  0.7561462E-02  0.1190634E+00
         -1   -1    0    0    0  501 -0.00000000000E+00  0.00000000000E+00  0.16508436284E+03  0.16508436284E+03  0.00000000000E+00 0.  1.
          1   -1    0    0  501    0  0.00000000000E+00 -0.00000000000E+00 -0.19328053075E+03  0.19328053075E+03  0.00000000000E+00 0. -1.
         25    2    1    2    0    0 -0.11452571054E+03 -0.73905567575E+02 -0.52213288324E+02  0.19222634900E+03  0.12508625217E+03 0.  0.
          5    1    3    3  502    0 -0.13732702428E+03 -0.58727799347E+02 -0.21655880800E+02  0.15097720221E+03  0.41800000000E+01 0. -1.
         -5    1    3    3    0  502  0.22801313742E+02 -0.15177768228E+02 -0.30557407524E+02  0.41249146795E+02  0.41800000000E+01 0. -1.
        -11    1    1    2    0    0  0.32371006906E+02  0.37693548020E+02  0.52172176007E+02  0.72045968657E+02  0.00000000000E+00 0.  1.
         11    1    1    2    0    0  0.82154703632E+02  0.36212019555E+02 -0.28155055598E+02  0.94092575928E+02  0.00000000000E+00 0. -1.
</event>
<event>
 7    1  0.2480409E-009  0.1042865E+03  0.7561462E-02  0.1271532E+00
          1   -1    0    0  501    0  0.00000000000E+00  0.00000000000E+00  0.26293583079E+03  0.26293583079E+03  0.00000000000E+00 0. -1.
         -1   -1    0    0    0  501 -0.00000000000E+00 -0.00000000000E+00 -0.65843345513E+02  0.65843345513E+02  0.00000000000E+00 0.  1.
         25    2    1    2    0    0  0.17727417294E+02  0.49899547366E+02  0.15681208739E+03  0.20746556829E+03  0.12509078753E+03 0.  0.
          5    1    3    3  502    0 -0.20491936348E+02 -0.21629258361E+02 -0.87171159457E+00  0.30099444407E+02  0.41800000000E+01 0.  1.
         -5    1    3    3    0  502  0.38219353643E+02  0.71528805727E+02  0.15768379898E+03  0.17736612389E+03  0.41800000000E+01 0.  1.
        -11    1    1    2    0    0 -0.35030152202E+02  0.87701841538E+01  0.47557964477E+02  0.59714216721E+02  0.00000000000E+00 0. -1.
         11    1    1    2    0    0  0.17302734907E+02 -0.58669731520E+02 -0.72775665840E+01  0.61599391290E+02  0.00000000000E+00 0.  1.
</event>
<event>
 7    1  0.2480409E-009  0.1041108E+03  0.7561462E-02  0.1271882E+00
         -1   -1    0    0    0  501 -0.00000000000E+00  0.00000000000E+00  0.77910327273E+02  0.77910327273E+02  0.00000000000E+00 0.  1.
          1   -1    0    0  501    0  0.00000000000E+00 -0.00000000000E+00 -0.20594693701E+03  0.20594693701E+03  0.00000000000E+00 0. -1.
         25    2    1    2    0    0  0.61053477222E+02 -0.29288563684E+02 -0.64643855086E+02  0.15623146574E+03  0.12507636005E+03 0.  0.
          5    1    3    3  502    0  0.81848336034E+02 -0.42406952238E+02 -0.59610823881E+01  0.92468949453E+02  0.41800000000E+01 0. -1.
         -5    1    3    3    0  502 -0.20794858812E+02  0.13118388554E+02 -0.58682772698E+02  0.63762516284E+02  0.41800000000E+01 0. -1.
        -11    1    1    2    0    0 -0.66760290349E+02  0.60019320879E+01 -0.82991559357E+01  0.67541361739E+02  0.00000000000E+00 0.  1.
         11    1    1    2    0    0  0.57068131273E+01  0.23286631596E+02 -0.55093598713E+02  0.60084436806E+02  0.00000000000E+00 0. -1.
</event>
<event>
 7    1  0.2480409E-009  0.1802630E+03  0.7561462E-02  0.1167549E+00
         -1   -1    0    0    0  501 -0.00000000000E+00  0.00000000000E+00  0.81174248410E+02  0.81174248410E+02  0.00000000000E+00 0.  1.
          1   -1    0    0  501    0  0.00000000000E+00 -0.00000000000E+00 -0.47887438931E+03  0.47887438931E+03  0.00000000000E+00 0. -1.
         25    2    1    2    0    0  0.14267170279E+03 -0.51679614237E+02 -0.11701253677E+03  0.22884108077E+03  0.12510119577E+03 0.  0.
          5    1    3    3  502    0  0.96288416337E+02  0.26564219504E+02 -0.33917035974E+02  0.10556966708E+03  0.41800000000E+01 0. -1.
         -5    1    3    3    0  502  0.46383286454E+02 -0.78243833741E+02 -0.83095500792E+02  0.12327141369E+03  0.41800000000E+01 0. -1.
        -11    1    1    2    0    0 -0.68384060895E+02 -0.14618040104E+02 -0.16091538927E+03  0.17545321138E+03  0.00000000000E+00 0. -1.
         11    1    1    2    0    0 -0.74287641897E+02  0.66297654340E+02 -0.11977221486E+03  0.15575434557E+03  0.00000000000E+00 0.  1.
</event>
<event>
 7    1  0.2480409E-009  0.1219474E+03  0.7561462E-02  0.1239919E+00
          1   -1    0    0  501    0  0.00000000000E+00  0.00000000000E+00  0.54972441492E+03  0.54972441492E+03  0.00000000000E+00 0. -1.
         -1   -1    0    0    0  501 -0.00000000000E+00 -0.00000000000E+00 -0.33222591919E+02  0.33222591919E+02  0.00000000000E+00 0.  1.
         25    2    1    2    0    0  0.14141826815E+02 -0.63109799838E+02  0.38877301027E+03  0.41349084068E+03  0.12508950280E+03 0.  0.
          5    1    3    3  502    0  0.42606807934E+02  0.22366526848E+02  0.17327879310E+03  0.17988500255E+03  0.41800000000E+01 0.  1.
         -5    1    3    3    0  502 -0.28464981119E+02 -0.85476326685E+02  0.21549421717E+03  0.23360583813E+03  0.41800000000E+01 0.  1.
        -11    1    1    2    0    0  0.22752367932E+02 -0.89497079377E+01  0.96371584269E+01  0.26280074986E+02  0.00000000000E+00 0.  1.
         11    1    1    2    0    0 -0.36894194748E+02  0.72059507775E+02  0.11809165431E+03  0.14317609117E+03  0.00000000000E+00 0. -1.
</event>
<event>
 7    1  0.2480409E-009  0.1021202E+03  0.7561462E-02  0.1275900E+00
         -3   -1    0    0    0  501 -0.00000000000E+00  0.00000000000E+00  0.10055627457E+03  0.10055627457E+03  0.00000000000E+00 0. -1.
          3   -1    0    0  501    0  0.00000000000E+00 -0.00000000000E+00 -0.12569356056E+03  0.12569356056E+03  0.00000000000E+00 0.  1.
         25    2    1    2    0    0 -0.20598625637E+00  0.84787430053E+01  0.13549445207E+02  0.12610844484E+03  0.12509125021E+03 0.  0.
          5    1    3    3  502    0 -0.28239569926E+02 -0.49533980120E+02 -0.86714759243E+01  0.57825214144E+02  0.41800000000E+01 0. -1.
         -5    1    3    3    0  502  0.28033583670E+02  0.58012723125E+02  0.22220921132E+02  0.68283230692E+02  0.41800000000E+01 0. -1.
        -11    1    1    2    0    0 -0.36507958821E+02 -0.22857667046E+02  0.24717845010E+01  0.43144104101E+02  0.00000000000E+00 0. -1.
         11    1    1    2    0    0  0.36713945077E+02  0.14378924040E+02 -0.41158515697E+02  0.56997286199E+02  0.00000000000E+00 0.  1.
</event>
<event>
 7    1  0.2480409E-009  0.1568886E+03  0.7561462E-02  0.1192255E+00
         -3   -1    0    0    0  501 -0.00000000000E+00  0.00000000000E+00  0.17155559835E+03  0.17155559835E+03  0.00000000000E+00 0.  1.
          3   -1    0    0  501    0  0.00000000000E+00 -0.00000000000E+00 -0.19639423523E+03  0.19639423523E+03  0.00000000000E+00 0. -1.
         25    2    1    2    0    0 -0.13111730772E+03 -0.20056364133E+02  0.54298591577E+02  0.19023946370E+03  0.12509480555E+03 0.  0.
          5    1    3    3  502    0 -0.15355348664E+03 -0.60740497214E+01  0.36216071897E+02  0.15793873370E+03  0.41800000000E+01 0. -1.
         -5    1    3    3    0  502  0.22436178917E+02 -0.13982314412E+02  0.18082519681E+02  0.32300730002E+02  0.41800000000E+01 0. -1.
        -11    1    1    2    0    0  0.95735113529E+02  0.20461397405E+02 -0.79569300089E+01  0.98220127680E+02  0.00000000000E+00 0.  1.
         11    1    1    2    0    0  0.35382194193E+02 -0.40503327252E+00 -0.71180298450E+02  0.79490242201E+02  0.00000000000E+00 0. -1.
</event>
<event>
 7    1  0.2480409E-009  0.2346013E+03  0.7561462E-02  0.1123442E+00
         -2   -1    0    0    0  501 -0.00000000000E+00  0.00000000000E+00  0.47662339481E+03  0.47662339481E+03  0.00000000000E+00 0.  1.
          2   -1    0    0  501    0  0.00000000000E+00 -0.00000000000E+00 -0.22862050693E+03  0.22862050693E+03  0.00000000000E+00 0. -1.
         25    2    1    2    0    0 -0.20887988783E+03 -0.49170822582E+02 -0.11509542912E+03  0.27375602469E+03  0.12508727321E+03 0.  0.
          5    1    3    3  502    0 -0.11267392608E+03  0.24135737344E+02 -0.98401092624E+02  0.15158560243E+03  0.41800000000E+01 0. -1.
         -5    1    3    3    0  502 -0.96205961752E+02 -0.73306559925E+02 -0.16694336492E+02  0.12217042226E+03  0.41800000000E+01 0. -1.
        -11    1    1    2    0    0  0.12903986896E+03 -0.15712008036E+02  0.19292402214E+03  0.23263239950E+03  0.00000000000E+00 0.  1.
         11    1    1    2    0    0  0.79840018875E+02  0.64882830617E+02  0.17017429485E+03  0.19885547755E+03  0.00000000000E+00 0. -1.
</event>
<event>
 7    1  0.2480409E-009  0.2002690E+03  0.7561462E-02  0.1149512E+00
         -2   -1    0    0    0  501 -0.00000000000E+00  0.00000000000E+00  0.40227403627E+02  0.40227403627E+02  0.00000000000E+00 0.  1.
          2   -1    0    0  501    0  0.00000000000E+00 -0.00000000000E+00 -0.11107990754E+04  0.11107990754E+04  0.00000000000E+00 0. -1.
         25    2    1    2    0    0 -0.16953013891E+03  0.19459302992E+02 -0.39397591133E+03  0.44719342339E+03  0.12508319928E+03 0.  0.
          5    1    3    3  502    0 -0.16739303157E+03 -0.19411943632E+02 -0.34890248054E+03  0.38748892101E+03  0.41800000000E+01 0. -1.
         -5    1    3    3    0  502 -0.21371073411E+01  0.38871246624E+02 -0.45073430785E+02  0.59704502382E+02  0.41800000000E+01 0. -1.
        -11    1    1    2    0    0  0.12364692370E+03 -0.54459703549E+02 -0.50670038183E+03  0.52440413614E+03  0.00000000000E+00 0.  1.
         11    1    1    2    0    0  0.45883215211E+02  0.35000400557E+02 -0.16989537859E+03  0.17942891948E+03  0.00000000000E+00 0. -1.
</event>
<event>
 7    1  0.2480409E-009  0.1177157E+03  0.7561462E-02  0.1246914E+00
          2   -1    0    0  501    0  0.00000000000E+00  0.00000000000E+00  0.12637565385E+03  0.12637565385E+03  0.00000000000E+00 0. -1.
         -2   -1    0    0    0  501 -0.00000000000E+00 -0.00000000000E+00 -0.14748942482E+03  0.14748942482E+03  0.00000000000E+00 0.  1.
         25    2    1    2    0    0  0.47500056105E+02 -0.21543490940E+02  0.52123030428E+02  0.14520763571E+03  0.12509224530E+03 0.  0.
          5    1    3    3  502    0  0.33608645532E+02  0.51050567440E+02  0.27890602129E+02  0.67313145652E+02  0.41800000000E+01 0.  1.
         -5    1    3    3    0  502  0.13891410574E+02 -0.72594058380E+02  0.24232428299E+02  0.77894490055E+02  0.41800000000E+01 0.  1.
        -11    1    1    2    0    0 -0.68405930142E+02 -0.22792199078E+01 -0.68095231955E+02  0.96548054030E+02  0.00000000000E+00 0.  1.
         11    1    1    2    0    0  0.20905874037E+02  0.23822710847E+02 -0.51415694455E+01  0.32109388934E+02  0.00000000000E+00 0. -1.
</event>
<event>
 7    1  0.2480409E-009  0.1112999E+03  0.7561462E-02  0.1258182E+00
         -2   -1    0    0    0  501 -0.00000000000E+00  0.00000000000E+00  0.20167478610E+02  0.20167478610E+02  0.00000000000E+00 0.  1.
          2   -1    0    0  501    0  0.00000000000E+00 -0.00000000000E+00 -0.77726969256E+03  0.77726969256E+03  0.00000000000E+00 0. -1.
         25    2    1    2    0    0  0.15453847079E+02 -0.40844560618E+02 -0.56461784313E+03  0.57995429298E+03  0.12508626478E+03 0.  0.
          5    1    3    3  502    0  0.57363649827E+02 -0.59385928183E+02 -0.29191670685E+03  0.30339761523E+03  0.41800000000E+01 0.  1.
         -5    1    3    3    0  502 -0.41909802748E+02  0.18541367565E+02 -0.27270113629E+03  0.27655667775E+03  0.41800000000E+01 0.  1.
        -11    1    1    2    0    0 -0.29248602347E+02 -0.17413498061E+02 -0.34193249849E+02  0.48248201927E+02  0.00000000000E+00 0.  1.
         11    1    1    2    0    0  0.13794755268E+02  0.58258058679E+02 -0.15829112097E+03  0.16923467627E+03  0.00000000000E+00 0. -1.
</event>
<event>
 7    1  0.2766862E-009  0.9606914E+02  0.7561462E-02  0.1288786E+00
          1   -1    0    0  501    0  0.00000000000E+00  0.00000000000E+00  0.13117766668E+04  0.13117766668E+04  0.00000000000E+00 0. -1.
         -1   -1    0    0    0  501 -0.00000000000E+00 -0.00000000000E+00 -0.10981560846E+02  0.10981560846E+02  0.00000000000E+00 0.  1.
         25    2    1    2    0    0  0.76906707842E+01  0.83334535469E+01  0.10147404360E+04  0.10224841488E+04  0.12508832553E+03 0.  0.
          5    1    3    3  502    0 -0.31731089800E+02 -0.32695409869E+02  0.17749106747E+03  0.18329321678E+03  0.41800000000E+01 0.  1.
         -5    1    3    3    0  502  0.39421760585E+02  0.41028863416E+02  0.83724936854E+03  0.83919093200E+03  0.41800000000E+01 0.  1.
        -11    1    1    2    0    0  0.18654581407E+02 -0.42368466178E+02  0.17905083924E+03  0.18493859350E+03  0.00000000000E+00 0. -1.
         11    1    1    2    0    0 -0.26345252191E+02  0.34035012631E+02  0.10700383073E+03  0.11533548538E+03  0.00000000000E+00 0.  1.
</event>
<event>
 7    1  0.2480409E-009  0.9862740E+02  0.7561462E-02  0.1283209E+00
          3   -1    0    0  501    0  0.00000000000E+00  0.00000000000E+00  0.53302716404E+02  0.53302716404E+02  0.00000000000E+00 0. -1.
         -3   -1    0    0    0  501 -0.00000000000E+00 -0.00000000000E+00 -0.26145557138E+03  0.26145557138E+03  0.00000000000E+00 0.  1.
         25    2    1    2    0    0  0.45606299666E+02  0.82727457987E+01 -0.96669363400E+02  0.16474485402E+03  0.12509008040E+03 0.  0.
          5    1    3    3  502    0  0.68167964442E+02 -0.38811138991E+02 -0.73115566958E+02  0.10731511738E+03  0.41800000000E+01 0. -1.
         -5    1    3    3    0  502 -0.22561664776E+02  0.47083884790E+02 -0.23553796443E+02  0.57429736647E+02  0.41800000000E+01 0. -1.
        -11    1    1    2    0    0  0.69266039957E+01  0.86968792637E+01  0.11014527977E+02  0.15650347549E+02  0.00000000000E+00 0. -1.
         11    1    1    2    0    0 -0.52532903661E+02 -0.16969625062E+02 -0.12249801955E+03  0.13436308621E+03  0.00000000000E+00 0.  1.
</event>
<event>
 7    1  0.2480409E-009  0.8679236E+02  0.7561462E-02  0.1310811E+00
         -2   -1    0    0    0  501 -0.00000000000E+00  0.00000000000E+00  0.51221791976E+02  0.51221791976E+02  0.00000000000E+00 0.  1.
          2   -1    0    0  501    0  0.00000000000E+00 -0.00000000000E+00 -0.28737427293E+03  0.28737427293E+03  0.00000000000E+00 0. -1.
         25    2    1    2    0    0 -0.20361747854E+02  0.35189660566E+02 -0.85416614018E+02  0.15683197981E+03  0.12508940385E+03 0.  0.
          5    1    3    3  502    0 -0.13832324226E+02  0.61696547358E+02  0.37592016999E+01  0.63477564122E+02  0.41800000000E+01 0. -1.
         -5    1    3    3    0  502 -0.65294236281E+01 -0.26506886792E+02 -0.89175815718E+02  0.93354415692E+02  0.41800000000E+01 0. -1.
        -11    1    1    2    0    0 -0.26309530580E+02 -0.21461495473E+02 -0.11883212105E+03  0.12358745964E+03  0.00000000000E+00 0. -1.
         11    1    1    2    0    0  0.46671278434E+02 -0.13728165094E+02 -0.31903745889E+02  0.58176625454E+02  0.00000000000E+00 0.  1.
</event>
<event>
 7    1  0.2480409E-009  0.1114810E+03  0.7561462E-02  0.1257852E+00
          2   -1    0    0  501    0  0.00000000000E+00  0.00000000000E+00  0.21192709625E+03  0.21192709625E+03  0.00000000000E+00 0. -1.
         -2   -1    0    0    0  501 -0.00000000000E+00 -0.00000000000E+00 -0.64127612672E+02  0.64127612672E+02  0.00000000000E+00 0.  1.
         25    2    1    2    0    0  0.12918303694E+02 -0.35702741288E+02  0.10316205138E+03  0.16652559065E+03  0.12508715038E+03 0.  0.
          5    1    3    3  502    0 -0.48639221706E+02 -0.40807253463E+02  0.29016948464E+02  0.69931834822E+02  0.41800000000E+01 0.  1.
         -5    1    3    3    0  502  0.61557525400E+02  0.51045121754E+01  0.74145102915E+02  0.96593755824E+02  0.41800000000E+01 0.  1.
        -11    1    1    2    0    0  0.36937460365E+02  0.29323955434E+02  0.92540873216E+01  0.48061507183E+02  0.00000000000E+00 0. -1.
         11    1    1    2    0    0 -0.49855764059E+02  0.63787858538E+01  0.35383344876E+02  0.61467611093E+02  0.00000000000E+00 0.  1.
</event>
<event>
 7    1  0.2480409E-009  0.1072397E+03  0.7561462E-02  0.1265769E+00
         -2   -1    0    0    0  501 -0.00000000000E+00  0.00000000000E+00  0.24918812873E+02  0.24918812873E+02  0.00000000000E+00 0. -1.
          2   -1    0    0  501    0  0.00000000000E+00 -0.00000000000E+00 -0.93664392494E+03  0.93664392494E+03  0.00000000000E+00 0.  1.
         25    2    1    2    0    0 -0.26541156908E+02 -0.83508133146E+02 -0.68807324603E+03  0.70481946100E+03  0.12509052478E+03 0.  0.
          5    1    3    3  502    0 -0.24825670596E+02 -0.44726542142E+02 -0.77227680854E+02  0.92727366956E+02  0.41800000000E+01 0.  1.
         -5    1    3    3    0  502 -0.17154863115E+01 -0.38781591003E+02 -0.61084556517E+03  0.61209209404E+03  0.41800000000E+01 0.  1.
        -11    1    1    2    0    0  0.57886979948E+02  0.67472108272E+02 -0.13823592153E+03  0.16435497511E+03  0.00000000000E+00 0. -1.
         11    1    1    2    0    0 -0.31345823040E+02  0.16036024874E+02 -0.85415944507E+02  0.92388301705E+02  0.00000000000E+00 0.  1.
</event>
<event>
 7    1  0.2480409E-009  0.8993586E+02  0.7561462E-02  0.1303007E+00
          1   -1    0    0  501    0  0.00000000000E+00  0.00000000000E+00  0.89178329786E+02  0.89178329786E+02  0.00000000000E+00 0. -1.
         -1   -1    0    0    0  501 -0.00000000000E+00 -0.00000000000E+00 -0.22050678300E+03  0.22050678300E+03  0.00000000000E+00 0.  1.
         25    2    1    2    0    0  0.14505885082E+02  0.53776463860E+02 -0.14899837001E+03  0.20236258421E+03  0.12509105666E+03 0.  0.
          5    1    3    3  502    0  0.34327762724E+01  0.60284956961E+02 -0.83887395075E+01  0.61105673544E+02  0.41800000000E+01 0. -1.
         -5    1    3    3    0  502  0.11073108809E+02 -0.65084931008E+01 -0.14060963050E+03  0.14125691067E+03  0.41800000000E+01 0. -1.
        -11    1    1    2    0    0 -0.51797212741E+02 -0.42136702706E+02  0.10125315990E+02  0.67534990831E+02  0.00000000000E+00 0.  1.
         11    1    1    2    0    0  0.37291327659E+02 -0.11639761154E+02  0.75446008071E+01  0.39787537743E+02  0.00000000000E+00 0. -1.
</event>
<event>
 7    1  0.2480409E-009  0.1127913E+03  0.7561462E-02  0.1255486E+00
         -2   -1    0    0    0  501 -0.00000000000E+00  0.00000000000E+00  0.19288566285E+02  0.19288566285E+02  0.00000000000E+00 0.  1.
          2   -1    0    0  501    0  0.00000000000E+00 -0.00000000000E+00 -0.77353381782E+03  0.77353381782E+03  0.00000000000E+00 0. -1.
         25    2    1    2    0    0 -0.42640587218E+02 -0.18971548192E+02 -0.48815471117E+03  0.50608549974E+03  0.12509744878E+03 0.  0.
          5    1    3    3  502    0  0.18246687487E+02 -0.54525407744E+02 -0.15142221258E+03  0.16202506150E+03  0.41800000000E+01 0. -1.
         -5    1    3    3    0  502 -0.60887274705E+02  0.35553859552E+02 -0.33673249859E+03  0.34406043823E+03  0.41800000000E+01 0. -1.
        -11    1    1    2    0    0  0.65361961093E+02  0.30148869480E+02 -0.23922198479E+03  0.24981652927E+03  0.00000000000E+00 0. -1.
         11    1    1    2    0    0 -0.22721373875E+02 -0.11177321288E+02 -0.26868555582E+02  0.36920355104E+02  0.00000000000E+00 0.  1.
</event>
<event>
 7    1  0.2480409E-009  0.1013906E+03  0.7561462E-02  0.1277399E+00
          2   -1    0    0  501    0  0.00000000000E+00  0.00000000000E+00  0.17687036335E+03  0.17687036335E+03  0.00000000000E+00 0. -1.
         -2   -1    0    0    0  501 -0.00000000000E+00 -0.00000000000E+00 -0.75694863274E+02  0.75694863274E+02  0.00000000000E+00 0.  1.
         25    2    1    2    0    0  0.38023054468E+02 -0.90024975347E+01  0.69783048271E+02  0.14846626791E+03  0.12508301743E+03 0.  0.
          5    1    3    3  502    0 -0.23208147096E+02 -0.38105928800E+02 -0.76527904343E+01  0.45461164776E+02  0.41800000000E+01 0. -1.
         -5    1    3    3    0  502  0.61231201564E+02  0.29103431265E+02  0.77435838706E+02  0.10300510314E+03  0.41800000000E+01 0. -1.
        -11    1    1    2    0    0 -0.52727173075E+02 -0.20903027592E+02  0.40330420453E+02  0.69596222289E+02  0.00000000000E+00 0. -1.
         11    1    1    2    0    0  0.14704118607E+02  0.29905525126E+02 -0.89379686478E+01  0.34502736422E+02  0.00000000000E+00 0.  1.
</event>
<event>
 7    1  0.2480409E-009  0.2259178E+03  0.7561462E-02  0.1129546E+00
         -1   -1    0    0    0  501 -0.00000000000E+00  0.00000000000E+00  0.59789329541E+02  0.59789329541E+02  0.00000000000E+00 0.  1.
          1   -1    0    0  501    0  0.00000000000E+00 -0.00000000000E+00 -0.10126479556E+04  0.10126479556E+04  0.00000000000E+00 0. -1.
         25    2    1    2    0    0 -0.96249398350E+02 -0.18801734589E+03 -0.36424213619E+03  0.43924269333E+03  0.12508933140E+03 0.  0.
          5    1    3    3  502    0 -0.55078345807E+01  0.11658003982E+02 -0.75046941039E+02  0.76261137272E+02  0.41800000000E+01 0. -1.
         -5    1    3    3    0  502 -0.90741563769E+02 -0.19967534987E+03 -0.28919519515E+03  0.36298155606E+03  0.41800000000E+01 0. -1.
        -11    1    1    2    0    0  0.31255606433E+02  0.12328058806E+03 -0.22778540341E+03  0.26088542760E+03  0.00000000000E+00 0.  1.
         11    1    1    2    0    0  0.64993791917E+02  0.64736757821E+02 -0.36083108642E+03  0.37230916417E+03  0.00000000000E+00 0. -1.
</event>
<event>
 7    1  0.2480409E-009  0.1125411E+03  0.7561462E-02  0.1255935E+00
          1   -1    0    0  501    0  0.00000000000E+00  0.00000000000E+00  0.19832460672E+03  0.19832460672E+03  0.00000000000E+00 0. -1.
         -1   -1    0    0    0  501 -0.00000000000E+00 -0.00000000000E+00 -0.88612761130E+02  0.88612761130E+02  0.00000000000E+00 0.  1.
         25    2    1    2    0    0  0.68769970866E+02 -0.39323362794E+02  0.63431231860E+02  0.16107686003E+03  0.12508636180E+03 0.  0.
          5    1    3    3  502    0  0.32053423259E+02  0.31116983656E+02  0.67923613095E+02  0.81405025830E+02  0.41800000000E+01 0.  1.
         -5    1    3    3    0  502  0.36716547607E+02 -0.70440346449E+02 -0.44923812353E+01  0.79671834203E+02  0.41800000000E+01 0.  1.
        -11    1    1    2    0    0 -0.74496317487E+02  0.15402343756E+02  0.60724278971E+02  0.97336383582E+02  0.00000000000E+00 0. -1.
         11    1    1    2    0    0  0.57263466210E+01  0.23921019037E+02 -0.14443665245E+02  0.28524124231E+02  0.00000000000E+00 0.  1.
</event>
<event>
 7    1  0.2480409E-009  0.1094430E+03  0.7561462E-02  0.1261605E+00
          2   -1    0    0  501    0  0.00000000000E+00  0.00000000000E+00  0.88399999555E+03  0.88399999555E+03  0.00000000000E+00 0. -1.
         -2   -1    0    0    0  501 -0.00000000000E+00 -0.00000000000E+00 -0.20349042176E+02  0.20349042176E+02  0.00000000000E+00 0.  1.
         25    2    1    2    0    0  0.51256754635E+02  0.49749753210E+02  0.59438666285E+03  0.61159230943E+03  0.12508938859E+03 0.  0.
          5    1    3    3  502    0  0.67818650543E+02  0.18250825495E+02  0.14909542995E+03  0.16486170454E+03  0.41800000000E+01 0.  1.
         -5    1    3    3    0  502 -0.16561895908E+02  0.31498927715E+02  0.44529123290E+03  0.44673060489E+03  0.41800000000E+01 0.  1.
        -11    1    1    2    0    0 -0.38291536733E+02  0.18993089370E+02  0.13110296629E+03  0.13789476784E+03  0.00000000000E+00 0. -1.
         11    1    1    2    0    0 -0.12965217902E+02 -0.68742842580E+02  0.13816132424E+03  0.15486196046E+03  0.00000000000E+00 0.  1.
</event>
<event>
 7    1  0.2480409E-009  0.7933694E+02  0.7561462E-02  0.1330944E+00
         -2   -1    0    0    0  501 -0.00000000000E+00  0.00000000000E+00  0.30918907481E+03  0.30918907481E+03  0.00000000000E+00 0.  1.
          2   -1    0    0  501    0  0.00000000000E+00 -0.00000000000E+00 -0.47394335348E+02  0.47394335348E+02  0.00000000000E+00 0. -1.
         25    2    1    2    0    0  0.23651642461E+01 -0.55345744288E+02  0.15636537497E+03  0.20775639096E+03  0.12507534562E+03 0.  0.
          5    1    3    3  502    0 -0.12544647455E+02 -0.73729652151E+02  0.16579940897E+03  0.18193500543E+03  0.41800000000E+01 0. -1.
         -5    1    3    3    0  502  0.14909811701E+02  0.18383907863E+02 -0.94340339974E+01  0.25821385531E+02  0.41800000000E+01 0. -1.
        -11    1    1    2    0    0  0.99879028838E+01  0.21647688382E+02  0.11008359107E+03  0.11263559668E+03  0.00000000000E+00 0.  1.
         11    1    1    2    0    0 -0.12353067130E+02  0.33698055905E+02 -0.46542265740E+01  0.36191422524E+02  0.00000000000E+00 0. -1.
</event>
<event>
 7    1  0.2480409E-009  0.1035663E+03  0.7561462E-02  0.1272970E+00
         -2   -1    0    0    0  501 -0.00000000000E+00  0.00000000000E+00  0.37818320949E+03  0.37818320949E+03  0.00000000000E+00 0.  1.
          2   -1    0    0  501    0  0.00000000000E+00 -0.00000000000E+00 -0.83420503275E+02  0.83420503275E+02  0.00000000000E+00 0. -1.
         25    2    1    2    0    0 -0.44210036570E+02 -0.46399940513E+02  0.31842903397E+03  0.34807144435E+03  0.12509675809E+03 0.  0.
          5    1    3    3  502    0 -0.50477149873E+02  0.11227262324E+02  0.45443415750E+02  0.68967894803E+02  0.41800000000E+01 0.  1.
         -5    1    3    3    0  502  0.62671133023E+01 -0.57627202837E+02  0.27298561822E+03  0.27910354955E+03  0.41800000000E+01 0.  1.
        -11    1    1    2    0    0 -0.20278420130E+02  0.16055126859E+02  0.17497953909E+02  0.31227548934E+02  0.00000000000E+00 0.  1.
         11    1    1    2    0    0  0.64488456700E+02  0.30344813654E+02 -0.41164281665E+02  0.82304719478E+02  0.00000000000E+00 0. -1.
</event>
<event>
 7    1  0.2480409E-009  0.1455353E+03  0.7561462E-02  0.1206069E+00
          1   -1    0    0  501    0  0.00000000000E+00  0.00000000000E+00  0.66383469502E+03  0.66383469502E+03  0.00000000000E+00 0. -1.
         -1   -1    0    0    0  501 -0.00000000000E+00 -0.00000000000E+00 -0.37462872904E+02  0.37462872904E+02  0.00000000000E+00 0.  1.
         25    2    1    2    0    0  0.33397895662E+02 -0.11038205946E+03  0.34738126265E+03  0.38680363198E+03  0.12507473600E+03 0.  0.
          5    1    3    3  502    0  0.35085621617E+02 -0.13621006548E+03  0.26082352105E+03  0.29636221810E+03  0.41800000000E+01 0. -1.
         -5    1    3    3    0  502 -0.16877259545E+01  0.25828006020E+02  0.86557741601E+02  0.90441413882E+02  0.41800000000E+01 0. -1.
        -11    1    1    2    0    0 -0.40022443783E+02  0.53222054221E+02  0.22828258486E+03  0.23779680741E+03  0.00000000000E+00 0. -1.
         11    1    1    2    0    0  0.66245481205E+01  0.57160005242E+02  0.50707974598E+02  0.76697128532E+02  0.00000000000E+00 0.  1.
</event>
<event>
 7    1  0.2480409E-009  0.1160564E+03  0.7561462E-02  0.1249748E+00
         -4   -1    0    0    0  501 -0.00000000000E+00  0.00000000000E+00  0.27189486940E+03  0.27189486940E+03  0.00000000000E+00 0.  1.
          4   -1    0    0  501    0  0.00000000000E+00 -0.00000000000E+00 -0.81547486230E+02  0.81547486230E+02  0.00000000000E+00 0. -1.
         25    2    1    2    0    0  0.77368134773E+02 -0.65826731541E+02  0.10769160145E+03  0.19381386647E+03  0.12508935586E+03 0.  0.
          5    1    3    3  502    0 -0.14807003539E+01 -0.19122781442E+02 -0.25441457179E+02  0.32134302342E+02  0.41800000000E+01 0.  1.
         -5    1    3    3    0  502  0.78848835127E+02 -0.46703950100E+02  0.13313305863E+03  0.16167956413E+03  0.41800000000E+01 0.  1.
        -11    1    1    2    0    0  0.11740843506E+02  0.45103327533E+01 -0.10878518894E+02  0.16629271815E+02  0.00000000000E+00 0. -1.
         11    1    1    2    0    0 -0.89108978279E+02  0.61316398788E+02  0.93534300605E+02  0.14299921734E+03  0.00000000000E+00 0.  1.
</event>
<event>
 7    1  0.2480409E-009  0.1281999E+03  0.7561462E-02  0.1230151E+00
         -1   -1    0    0    0  501 -0.00000000000E+00  0.00000000000E+00  0.70088912377E+03  0.70088912377E+03  0.00000000000E+00 0.  1.
          1   -1    0    0  501    0  0.00000000000E+00 -0.00000000000E+00 -0.32298257687E+02  0.32298257687E+02  0.00000000000E+00 0. -1.
         25    2    1    2    0    0 -0.74210324277E+02  0.72648800359E+02  0.40489894776E+03  0.43632053829E+03  0.12508970305E+03 0.  0.
          5    1    3    3  502    0 -0.41938736610E+02  0.10091919897E+03  0.34897805524E+03  0.36571395624E+03  0.41800000000E+01 0. -1.
         -5    1    3    3    0  502 -0.32271587666E+02 -0.28270398611E+02  0.55920892528E+02  0.70606582053E+02  0.41800000000E+01 0. -1.
        -11    1    1    2    0    0  0.25791255746E+02 -0.22629834588E+02  0.19866113692E+03  0.20160244445E+03  0.00000000000E+00 0.  1.
         11    1    1    2    0    0  0.48419068531E+02 -0.50018965771E+02  0.65030781409E+02  0.95264398727E+02  0.00000000000E+00 0. -1.
</event>
<event>
 7    1  0.2480409E-009  0.8353585E+02  0.7561462E-02  0.1319306E+00
          4   -1    0    0  501    0  0.00000000000E+00  0.00000000000E+00  0.29893281293E+02  0.29893281293E+02  0.00000000000E+00 0. -1.
         -4   -1    0    0    0  501 -0.00000000000E+00 -0.00000000000E+00 -0.39418092586E+03  0.39418092586E+03  0.00000000000E+00 0.  1.
         25    2    1    2    0    0 -0.81203963615E+01 -0.18792120679E+02 -0.31300184825E+03  0.33769263797E+03  0.12508827320E+03 0.  0.
          5    1    3    3  502    0 -0.61443568839E+02  0.39478750939E+01 -0.21569933284E+03  0.22435367716E+03  0.41800000000E+01 0. -1.
         -5    1    3    3    0  502  0.53323172478E+02 -0.22739995773E+02 -0.97302515412E+02  0.11333896081E+03  0.41800000000E+01 0. -1.
        -11    1    1    2    0    0 -0.65345372859E+01  0.28774988258E+02 -0.59820673097E+02  0.66702421669E+02  0.00000000000E+00 0.  1.
         11    1    1    2    0    0  0.14654933647E+02 -0.99828675788E+01  0.85348767809E+01  0.19679147516E+02  0.00000000000E+00 0. -1.
</event>
<event>
 7    1  0.2480409E-009  0.1085604E+03  0.7561462E-02  0.1263259E+00
         -1   -1    0    0    0  501 -0.00000000000E+00  0.00000000000E+00  0.39252696180E+02  0.39252696180E+02  0.00000000000E+00 0.  1.
          1   -1    0    0  501    0  0.00000000000E+00 -0.00000000000E+00 -0.43254385740E+03  0.43254385740E+03  0.00000000000E+00 0. -1.
         25    2    1    2    0    0 -0.33824103458E+02 -0.22673450502E+02 -0.11226997151E+03  0.17294390808E+03  0.12508754337E+03 0.  0.
          5    1    3    3  502    0  0.47378646810E+02 -0.98347129641E+01 -0.50181582176E+02  0.69836389815E+02  0.41800000000E+01 0. -1.
         -5    1    3    3    0  502 -0.81202750268E+02 -0.12838737537E+02 -0.62088389337E+02  0.10310751827E+03  0.41800000000E+01 0. -1.
        -11    1    1    2    0    0  0.48724610316E+02 -0.10522279348E+02 -0.23477214083E+03  0.24000575852E+03  0.00000000000E+00 0. -1.
         11    1    1    2    0    0 -0.14900506858E+02  0.33195729850E+02 -0.46249048875E+02  0.58846886976E+02  0.00000000000E+00 0.  1.
</event>
<event>
 7    1  0.2480409E-009  0.1522215E+03  0.7561462E-02  0.1197770E+00
          2   -1    0    0  501    0  0.00000000000E+00  0.00000000000E+00  0.11397612336E+03  0.11397612336E+03  0.00000000000E+00 0. -1.
         -2   -1    0    0    0  501 -0.00000000000E+00 -0.00000000000E+00 -0.23358935325E+03  0.23358935325E+03  0.00000000000E+00 0.  1.
         25    2    1    2    0    0 -0.66289889259E+02 -0.93857248059E+02 -0.10545592743E+03  0.19992967256E+03  0.12508952357E+03 0.  0.
          5    1    3    3  502    0 -0.92718133457E+02 -0.95770273397E+02 -0.10980810892E+03  0.17275384431E+03  0.41800000000E+01 0. -1.
         -5    1    3    3    0  502  0.26428244198E+02  0.19130253385E+01  0.43521814903E+01  0.27175828250E+02  0.41800000000E+01 0. -1.
        -11    1    1    2    0    0  0.11674082141E+02  0.88621639485E+02  0.49851686769E+01  0.89526147497E+02  0.00000000000E+00 0. -1.
         11    1    1    2    0    0  0.54615807119E+02  0.52356085738E+01 -0.19142471133E+02  0.58109656559E+02  0.00000000000E+00 0.  1.
</event>
<event>
 7    1  0.2480409E-009  0.1183134E+03  0.7561462E-02  0.1245906E+00
         -1   -1    0    0    0  501 -0.00000000000E+00  0.00000000000E+00  0.30349135245E+02  0.30349135245E+02  0.00000000000E+00 0.  1.
          1   -1    0    0  501    0  0.00000000000E+00 -0.00000000000E+00 -0.63642784557E+03  0.63642784557E+03  0.00000000000E+00 0. -1.
         25    2    1    2    0    0 -0.24297486730E+02  0.47364447208E+02 -0.48768562003E+03  0.50627909376E+03  0.12508995995E+03 0.  0.
          5    1    3    3  502    0 -0.50008108141E+02 -0.26619222981E+02 -0.17982838368E+03  0.18858715197E+03  0.41800000000E+01 0. -1.
         -5    1    3    3    0  502  0.25710621411E+02  0.73983670189E+02 -0.30785723635E+03  0.31769194180E+03  0.41800000000E+01 0. -1.
        -11    1    1    2    0    0 -0.18258508500E+01 -0.68043874924E+02 -0.10379203813E+03  0.12412127064E+03  0.00000000000E+00 0. -1.
         11    1    1    2    0    0  0.26123337580E+02  0.20679427716E+02 -0.14601052165E+02  0.36376616409E+02  0.00000000000E+00 0.  1.
</event>
<event>
 7    1  0.2480409E-009  0.7483101E+02  0.7561462E-02  0.1344395E+00
         -2   -1    0    0    0  501 -0.00000000000E+00  0.00000000000E+00  0.43173982478E+03  0.43173982478E+03  0.00000000000E+00 0.  1.
          2   -1    0    0  501    0  0.00000000000E+00 -0.00000000000E+00 -0.31208398090E+02  0.31208398090E+02  0.00000000000E+00 0. -1.
         25    2    1    2    0    0  0.16758602249E+02 -0.15855815715E+02  0.30689490487E+03  0.33220940518E+03  0.12508536531E+03 0.  0.
          5    1    3    3  502    0  0.36749309095E+02  0.30834285841E+01  0.16730412569E+02  0.40711157630E+02  0.41800000000E+01 0. -1.
         -5    1    3    3    0  502 -0.19990706846E+02 -0.18939244299E+02  0.29016449230E+03  0.29149824755E+03  0.41800000000E+01 0. -1.
        -11    1    1    2    0    0 -0.49977413874E+02  0.93574176903E+01  0.31025922702E+02  0.59564343720E+02  0.00000000000E+00 0. -1.
         11    1    1    2    0    0  0.33218811624E+02  0.64983980248E+01  0.62610599123E+02  0.71174473972E+02  0.00000000000E+00 0.  1.
</event>
<event>
 7    1  0.2534419E-009  0.1171604E+03  0.7561462E-02  0.1247856E+00
          2   -1    0    0  501    0  0.00000000000E+00  0.00000000000E+00  0.31038785066E+03  0.31038785066E+03  0.00000000000E+00 0. -1.
         -2   -1    0    0    0  501 -0.00000000000E+00 -0.00000000000E+00 -0.76374058325E+02  0.76374058325E+02  0.00000000000E+00 0.  1.
         25    2    1    2    0    0 -0.67148546266E+02  0.71673865664E+02  0.66335455691E+02  0.17231888005E+03  0.12508930193E+03 0.  0.
          5    1    3    3  502    0  0.10356966946E+02  0.45602852001E+02  0.76553414543E+02  0.89804145523E+02  0.41800000000E+01 0. -1.
         -5    1    3    3    0  502 -0.77505513212E+02  0.26071013663E+02 -0.10217958852E+02  0.82514734531E+02  0.41800000000E+01 0. -1.
        -11    1    1    2    0    0  0.26322166213E+02 -0.42407790744E+01  0.11865517611E+03  0.12161369766E+03  0.00000000000E+00 0. -1.
         11    1    1    2    0    0  0.40826380053E+02 -0.67433086590E+02  0.49023160534E+02  0.92829331270E+02  0.00000000000E+00 0.  1.
</event>
<event>
 7    1  0.2480409E-009  0.1075012E+03  0.7561462E-02  0.1265268E+00
          2   -1    0    0  501    0  0.00000000000E+00  0.00000000000E+00  0.65237373378E+03  0.65237373378E+03  0.00000000000E+00 0. -1.
         -2   -1    0    0    0  501 -0.00000000000E+00 -0.00000000000E+00 -0.25739822250E+02  0.25739822250E+02  0.00000000000E+00 0.  1.
         25    2    1    2    0    0 -0.27968780212E+02 -0.51815878049E+02  0.44268883276E+03  0.46377907712E+03  0.12510192581E+03 0.  0.
          5    1    3    3  502    0 -0.15905492198E+02  0.38947771522E+02  0.90979339915E+02  0.10032261101E+03  0.41800000000E+01 0.  1.
         -5    1    3    3    0  502 -0.12063288014E+02 -0.90763649570E+02  0.35170949285E+03  0.36345646611E+03  0.41800000000E+01 0.  1.
        -11    1    1    2    0    0  0.29825911964E+00 -0.11743074826E+02 -0.52299102845E+01  0.12858488498E+02  0.00000000000E+00 0.  1.
         11    1    1    2    0    0  0.27670521093E+02  0.63558952874E+02  0.18917498905E+03  0.20147599041E+03  0.00000000000E+00 0. -1.
</event>
<event>
 7    1  0.2480409E-009  0.1415204E+03  0.7561462E-02  0.1211298E+00
          1   -1    0    0  501    0  0.00000000000E+00  0.00000000000E+00  0.20523323720E+02  0.20523323720E+02  0.00000000000E+00 0. -1.
         -1   -1    0    0    0  501 -0.00000000000E+00 -0.00000000000E+00 -0.15002926707E+04  0.15002926707E+04  0.00000000000E+00 0.  1.
         25    2    1    2    0    0  0.83514873934E+02 -0.10179293625E+03 -0.94539070840E+03  0.96267746831E+03  0.12509108848E+03 0.  0.
          5    1    3    3  502    0  0.30705367625E+02 -0.52886174148E+02 -0.12597698965E+03  0.14009797050E+03  0.41800000000E+01 0.  1.
         -5    1    3    3    0  502  0.52809506308E+02 -0.48906762098E+02 -0.81941371875E+03  0.82257949781E+03  0.41800000000E+01 0.  1.
        -11    1    1    2    0    0 -0.51582667399E+02  0.10113548396E+02 -0.29800170515E+03  0.30260216739E+03  0.00000000000E+00 0. -1.
         11    1    1    2    0    0 -0.31932206534E+02  0.91679387850E+02 -0.23637693341E+03  0.25553635870E+03  0.00000000000E+00 0.  1.
</event>
<event>
 7    1  0.2480409E-009  0.1640036E+03  0.7561462E-02  0.1184249E+00
          2   -1    0    0  501    0  0.00000000000E+00  0.00000000000E+00  0.52613891351E+03  0.52613891351E+03  0.00000000000E+00 0. -1.
         -2   -1    0    0    0  501 -0.00000000000E+00 -0.00000000000E+00 -0.51690777138E+02  0.51690777138E+02  0.00000000000E+00 0.  1.
         25    2    1    2    0    0 -0.12137349587E+03 -0.28524916003E+02  0.24850291288E+03  0.30487107521E+03  0.12508988151E+03 0.  0.
          5    1    3    3  502    0 -0.18701312618E+02  0.45650696077E+02  0.78939213311E+02  0.93180453659E+02  0.41800000000E+01 0.  1.
         -5    1    3    3    0  502 -0.10267218325E+03 -0.74175612080E+02  0.16956369957E+03  0.21169062155E+03  0.41800000000E+01 0.  1.
        -11    1    1    2    0    0  0.84589262096E+02 -0.23736600576E+02  0.14856819371E+03  0.17260149956E+03  0.00000000000E+00 0.  1.
         11    1    1    2    0    0  0.36784233772E+02  0.52261516579E+02  0.77377029777E+02  0.10035711587E+03  0.00000000000E+00 0. -1.
</event>
<event>
 7    1  0.2480409E-009  0.7531830E+02  0.7561462E-02  0.1342888E+00
          2   -1    0    0  501    0  0.00000000000E+00  0.00000000000E+00  0.53340467991E+03  0.53340467991E+03  0.00000000000E+00 0.  1.
         -2   -1    0    0    0  501 -0.00000000000E+00 -0.00000000000E+00 -0.27923016740E+02  0.27923016740E+02  0.00000000000E+00 0. -1.
         25    2    1    2    0    0  0.85634029536E+00  0.35646658795E+02  0.38432592400E+03  0.40574343735E+03  0.12509957431E+03 0.  0.
          5    1    3    3  502    0  0.28701240912E+02  0.26021277045E+02  0.27532755263E+02  0.47711561506E+02  0.41800000000E+01 0. -1.
         -5    1    3    3    0  502 -0.27844900616E+02  0.96253817497E+01  0.35679316873E+03  0.35803187584E+03  0.41800000000E+01 0. -1.
        -11    1    1    2    0    0  0.35483408482E+02 -0.26924738411E+02  0.10650372554E+03  0.11544287492E+03  0.00000000000E+00 0.  1.
         11    1    1    2    0    0 -0.36339748778E+02 -0.87219203841E+01  0.14652013632E+02  0.40141384379E+02  0.00000000000E+00 0. -1.
</event>
<event>
 7    1  0.2480409E-009  0.1016176E+03  0.7561462E-02  0.1276931E+00
         -2   -1    0    0    0  501 -0.00000000000E+00  0.00000000000E+00  0.55706016584E+02  0.55706016584E+02  0.00000000000E+00 0.  1.
          2   -1    0    0  501    0  0.00000000000E+00 -0.00000000000E+00 -0.34475325986E+03  0.34475325986E+03  0.00000000000E+00 0. -1.
         25    2    1    2    0    0 -0.56430016379E+02  0.49815298427E+02 -0.92972132665E+02  0.17309175882E+03  0.12510407193E+03 0.  0.
          5    1    3    3  502    0 -0.57795908542E+02  0.15445452424E+02 -0.11662367110E+03  0.13113917075E+03  0.41800000000E+01 0. -1.
         -5    1    3    3    0  502  0.13658921627E+01  0.34369846004E+02  0.23651538433E+02  0.41952588072E+02  0.41800000000E+01 0. -1.
        -11    1    1    2    0    0  0.43669903705E+02  0.12166829482E+02 -0.12080265535E+03  0.12902857734E+03  0.00000000000E+00 0. -1.
         11    1    1    2    0    0  0.12760112674E+02 -0.61982127909E+02 -0.75272455254E+02  0.98338940281E+02  0.00000000000E+00 0.  1.
</event>
<event>
 7    1  0.2480409E-009  0.2014323E+03  0.7561462E-02  0.1148536E+00
         -2   -1    0    0    0  501 -0.00000000000E+00  0.00000000000E+00  0.60522807568E+02  0.60522807568E+02  0.00000000000E+00 0.  1.
          2   -1    0    0  501    0  0.00000000000E+00 -0.00000000000E+00 -0.12903395064E+04  0.12903395064E+04  0.00000000000E+00 0. -1.
         25    2    1    2    0    0 -0.16770188793E+03 -0.26161717029E+02 -0.10956653010E+04  0.11157675741E+04  0.12508584608E+03 0.  0.
          5    1    3    3  502    0 -0.46867693540E+02 -0.67520714586E+02 -0.38387554008E+03  0.39259843386E+03  0.41800000000E+01 0. -1.
         -5    1    3    3    0  502 -0.12083419439E+03  0.41358997557E+02 -0.71178976090E+03  0.72316914020E+03  0.41800000000E+01 0. -1.
        -11    1    1    2    0    0  0.69454666696E+02  0.56955140662E+02 -0.68841582722E+02  0.11316802678E+03  0.00000000000E+00 0. -1.
         11    1    1    2    0    0  0.98247221231E+02 -0.30793423633E+02 -0.65309815092E+02  0.12192671309E+03  0.00000000000E+00 0.  1.
</event>
<event>
 7    1  0.2480409E-009  0.1690865E+03  0.7561462E-02  0.1178804E+00
         -1   -1    0    0    0  501 -0.00000000000E+00  0.00000000000E+00  0.27944404721E+02  0.27944404721E+02  0.00000000000E+00 0.  1.
          1   -1    0    0  501    0  0.00000000000E+00 -0.00000000000E+00 -0.10614003961E+04  0.10614003961E+04  0.00000000000E+00 0. -1.
         25    2    1    2    0    0 -0.91340874464E+02  0.93272519017E+02 -0.63579203227E+03  0.66100066750E+03  0.12508979173E+03 0.  0.
          5    1    3    3  502    0 -0.18290258427E+02  0.10354657444E+03 -0.41681909818E+03  0.42989773161E+03  0.41800000000E+01 0. -1.
         -5    1    3    3    0  502 -0.73050616037E+02 -0.10274055423E+02 -0.21897293408E+03  0.23110293589E+03  0.41800000000E+01 0. -1.
        -11    1    1    2    0    0  0.40589477963E+02  0.11880712126E+02 -0.11382239867E+03  0.12142567884E+03  0.00000000000E+00 0.  1.
         11    1    1    2    0    0  0.50751396501E+02 -0.10515323114E+03 -0.28384156045E+03  0.30691845449E+03  0.00000000000E+00 0. -1.
</event>
<event>
 7    1  0.2480409E-009  0.1172445E+03  0.7561462E-02  0.1247713E+00
         -2   -1    0    0    0  501 -0.00000000000E+00  0.00000000000E+00  0.58835747388E+02  0.58835747388E+02  0.00000000000E+00 0.  1.
          2   -1    0    0  501    0  0.00000000000E+00 -0.00000000000E+00 -0.25206288773E+03  0.25206288773E+03  0.00000000000E+00 0. -1.
         25    2    1    2    0    0 -0.21945680656E+02 -0.47528242663E+02 -0.81512501948E+02  0.15822073641E+03  0.12509583009E+03 0.  0.
          5    1    3    3  502    0 -0.18578732892E+02  0.39433193432E+02 -0.47727010881E+02  0.64772571569E+02  0.41800000000E+01 0. -1.
         -5    1    3    3    0  502 -0.33669477641E+01 -0.86961436095E+02 -0.33785491067E+02  0.93448164838E+02  0.41800000000E+01 0. -1.
        -11    1    1    2    0    0  0.54460524484E+02  0.12694062815E+02 -0.67706822172E+02  0.87814017824E+02  0.00000000000E+00 0. -1.
         11    1    1    2    0    0 -0.32514843828E+02  0.34834179848E+02 -0.44007816220E+02  0.64863880884E+02  0.00000000000E+00 0.  1.
</event>
<event>
 7    1  0.2480409E-009  0.2469654E+03  0.7561462E-02  0.1115238E+00
         -2   -1    0    0    0  501 -0.00000000000E+00  0.00000000000E+00  0.52624551301E+02  0.52624551301E+02  0.00000000000E+00 0.  1.
          2   -1    0    0  501    0  0.00000000000E+00 -0.00000000000E+00 -0.14162661299E+04  0.14162661299E+04  0.00000000000E+00 0. -1.
         25    2    1    2    0    0 -0.17160406832E+03  0.17123572621E+03 -0.88729096708E+03  0.92827922407E+03  0.12508967735E+03 0.  0.
          5    1    3    3  502    0 -0.17258804281E+03  0.16448985273E+03 -0.88872118707E+03  0.92015561994E+03  0.41800000000E+01 0.  1.
         -5    1    3    3    0  502  0.98397449417E+00  0.67458734800E+01  0.14302199828E+01  0.81236041270E+01  0.41800000000E+01 0.  1.
        -11    1    1    2    0    0  0.46002941568E+02 -0.79836695656E+02 -0.11553175664E+03  0.14777603120E+03  0.00000000000E+00 0.  1.
         11    1    1    2    0    0  0.12560112675E+03 -0.91399030550E+02 -0.36081885484E+03  0.39283542589E+03  0.00000000000E+00 0. -1.
</event>
<event>
 7    1  0.2480409E-009  0.1338002E+03  0.7561462E-02  0.1221923E+00
         -2   -1    0    0    0  501 -0.00000000000E+00  0.00000000000E+00  0.11692144730E+02  0.11692144730E+02  0.00000000000E+00 0.  1.
          2   -1    0    0  501    0  0.00000000000E+00 -0.00000000000E+00 -0.21040728372E+04  0.21040728372E+04  0.00000000000E+00 0. -1.
         25    2    1    2    0    0  0.30462466052E+02 -0.60946954574E+02 -0.15707685479E+04  0.15772137879E+04  0.12508800291E+03 0.  0.
          5    1    3    3  502    0 -0.28043135036E+02  0.24025338582E+02 -0.30873449699E+03  0.31096317523E+03  0.41800000000E+01 0. -1.
         -5    1    3    3    0  502  0.58505601088E+02 -0.84972293157E+02 -0.12620340509E+04  0.12662506127E+04  0.41800000000E+01 0. -1.
        -11    1    1    2    0    0 -0.65894375999E+02  0.63697094775E+02 -0.44147259702E+03  0.45088517673E+03  0.00000000000E+00 0. -1.
         11    1    1    2    0    0  0.35431909947E+02 -0.27501402005E+01 -0.80139547558E+02  0.87666017341E+02  0.00000000000E+00 0.  1.
</event>
<event>
 7    1  0.2480409E-009  0.2288421E+03  0.7561462E-02  0.1127457E+00
         -1   -1    0    0    0  501 -0.00000000000E+00  0.00000000000E+00  0.68305505375E+02  0.68305505375E+02  0.00000000000E+00 0.  1.
          1   -1    0    0  501    0  0.00000000000E+00 -0.00000000000E+00 -0.94603517452E+03  0.94603517452E+03  0.00000000000E+00 0. -1.
         25    2    1    2    0    0 -0.25404631492E+02  0.21653452939E+03 -0.30929687507E+03  0.39855397038E+03  0.12509241647E+03 0.  0.
          5    1    3    3  502    0 -0.27789821029E+02  0.83504856801E+02 -0.37195932504E+02  0.95636525748E+02  0.41800000000E+01 0.  1.
         -5    1    3    3    0  502  0.23851895373E+01  0.13302967259E+03 -0.27210094257E+03  0.30291744464E+03  0.41800000000E+01 0.  1.
        -11    1    1    2    0    0 -0.21578933345E+02 -0.16624074660E+03 -0.38751464093E+03  0.42221941350E+03  0.00000000000E+00 0. -1.
         11    1    1    2    0    0  0.46983564836E+02 -0.50293782789E+02 -0.18091815314E+03  0.19356729602E+03  0.00000000000E+00 0.  1.
</event>
<event>
 7    1  0.2480409E-009  0.2661699E+03  0.7561462E-02  0.1103492E+00
          2   -1    0    0  501    0  0.00000000000E+00  0.00000000000E+00  0.60584087626E+02  0.60584087626E+02  0.00000000000E+00 0. -1.
         -2   -1    0    0    0  501 -0.00000000000E+00 -0.00000000000E+00 -0.13089640801E+04  0.13089640801E+04  0.00000000000E+00 0.  1.
         25    2    1    2    0    0 -0.27671255062E+02 -0.24664575752E+03 -0.45450312430E+03  0.53274951948E+03  0.12509649255E+03 0.  0.
          5    1    3    3  502    0  0.24055279859E+02 -0.21572657582E+03 -0.34300958121E+03  0.40594292358E+03  0.41800000000E+01 0.  1.
         -5    1    3    3    0  502 -0.51726534921E+02 -0.30919181695E+02 -0.11149354309E+03  0.12680659590E+03  0.41800000000E+01 0.  1.
        -11    1    1    2    0    0  0.25575804433E+02  0.35935929258E+02 -0.24348645096E+03  0.24744931720E+03  0.00000000000E+00 0.  1.
         11    1    1    2    0    0  0.20954506292E+01  0.21070982826E+03 -0.55039041720E+03  0.58934933103E+03  0.00000000000E+00 0. -1.
</event>
<event>
 7    1  0.2480409E-009  0.8383229E+02  0.7561462E-02  0.1318515E+00
          1   -1    0    0  501    0  0.00000000000E+00  0.00000000000E+00  0.61448972404E+02  0.61448972404E+02  0.00000000000E+00 0. -1.
         -1   -1    0    0    0  501 -0.00000000000E+00 -0.00000000000E+00 -0.17433040918E+03  0.17433040918E+03  0.00000000000E+00 0.  1.
         25    2    1    2    0    0  0.50053423156E+01 -0.13688522365E+02 -0.70094079303E+02  0.14412357977E+03  0.12508396059E+03 0.  0.
          5    1    3    3  502    0 -0.58175507239E+01  0.44076828220E+02 -0.72507437095E+02  0.85155220136E+02  0.41800000000E+01 0. -1.
         -5    1    3    3    0  502  0.10822893040E+02 -0.57765350585E+02  0.24133577913E+01  0.58968359633E+02  0.41800000000E+01 0. -1.
        -11    1    1    2    0    0 -0.33754256861E+02  0.55114199062E+01 -0.50310073350E+02  0.60834439967E+02  0.00000000000E+00 0.  1.
         11    1    1    2    0    0  0.28748914546E+02  0.81771024588E+01  0.75227158743E+01  0.30821361850E+02  0.00000000000E+00 0. -1.
</event>
<event>
 7    1  0.2480409E-009  0.1990945E+03  0.7561462E-02  0.1150505E+00
          4   -1    0    0  501    0  0.00000000000E+00  0.00000000000E+00  0.15164109922E+03  0.15164109922E+03  0.00000000000E+00 0.  1.
         -4   -1    0    0    0  501 -0.00000000000E+00 -0.00000000000E+00 -0.32857197133E+03  0.32857197133E+03  0.00000000000E+00 0. -1.
         25    2    1    2    0    0  0.38614191780E+02 -0.17380714347E+03 -0.17583669634E+03  0.27975973171E+03  0.12508790820E+03 0.  0.
          5    1    3    3  502    0  0.33662489889E+02 -0.82353600181E+01 -0.82501879011E+02  0.89582458219E+02  0.41800000000E+01 0.  1.
         -5    1    3    3    0  502  0.49517018906E+01 -0.16557178345E+03 -0.93334817330E+02  0.19017727349E+03  0.41800000000E+01 0.  1.
        -11    1    1    2    0    0  0.25040242988E+02  0.23443867756E+02 -0.13128361988E+02  0.36728498373E+02  0.00000000000E+00 0. -1.
         11    1    1    2    0    0 -0.63654434768E+02  0.15036327571E+03  0.12034186211E+02  0.16372484047E+03  0.00000000000E+00 0.  1.
</event>
<event>
 7    1  0.2480409E-009  0.2223906E+03  0.7561462E-02  0.1132113E+00
          2   -1    0    0  501    0  0.00000000000E+00  0.00000000000E+00  0.12651307639E+03  0.12651307639E+03  0.00000000000E+00 0. -1.
         -2   -1    0    0    0  501 -0.00000000000E+00 -0.00000000000E+00 -0.41005956914E+03  0.41005956914E+03  0.00000000000E+00 0.  1.
         25    2    1    2    0    0 -0.19822828928E+03  0.13572837897E+02 -0.17342649420E+03  0.29189419412E+03  0.12508714990E+03 0.  0.
          5    1    3    3  502    0  0.16071135374E+02  0.11340208232E+02 -0.19404941124E+02  0.27944692787E+02  0.41800000000E+01 0. -1.
         -5    1    3    3    0  502 -0.21429942465E+03  0.22326296652E+01 -0.15402155308E+03  0.26394950133E+03  0.41800000000E+01 0. -1.
        -11    1    1    2    0    0  0.28133726449E+02  0.23000121593E+02  0.40760718662E+01  0.36566740613E+02  0.00000000000E+00 0. -1.
         11    1    1    2    0    0  0.17009456283E+03 -0.36572959490E+02 -0.11419607042E+03  0.20811171079E+03  0.00000000000E+00 0.  1.
</event>
<event>
 7    1  0.2480409E-009  0.8359958E+02  0.7561462E-02  0.1319136E+00
          1   -1    0    0  501    0  0.00000000000E+00  0.00000000000E+00  0.18637821534E+03  0.18637821534E+03  0.00000000000E+00 0. -1.
         -1   -1    0    0    0  501 -0.00000000000E+00 -0.00000000000E+00 -0.89937022777E+02  0.89937022777E+02  0.00000000000E+00 0.  1.
         25    2    1    2    0    0  0.43712401121E+02  0.33754173316E+02  0.34480005761E+01  0.13678428070E+03  0.12509169641E+03 0.  0.
          5    1    3    3  502    0  0.41299899027E+02 -0.95549928010E+01  0.54816919812E+02  0.69421514278E+02  0.41800000000E+01 0. -1.
         -5    1    3    3    0  502  0.24125020936E+01  0.43309166117E+02 -0.51368919236E+02  0.67362766418E+02  0.41800000000E+01 0. -1.
        -11    1    1    2    0    0 -0.93258564735E+01 -0.44132395499E+02  0.93277323023E+02  0.10361128762E+03  0.00000000000E+00 0. -1.
         11    1    1    2    0    0 -0.34386544647E+02  0.10378222184E+02 -0.28413103352E+00  0.35919669805E+02  0.00000000000E+00 0.  1.
</event>
<event>
 7    1  0.2480409E-009  0.7385394E+02  0.7561462E-02  0.1347457E+00
          2   -1    0    0  501    0  0.00000000000E+00  0.00000000000E+00  0.67937626737E+03  0.67937626737E+03  0.00000000000E+00 0. -1.
         -2   -1    0    0    0  501 -0.00000000000E+00 -0.00000000000E+00 -0.24928523377E+02  0.24928523377E+02  0.00000000000E+00 0.  1.
         25    2    1    2    0    0 -0.79570066055E+01  0.45495195689E+02  0.51649708603E+03  0.53342982366E+03  0.12508001484E+03 0.  0.
          5    1    3    3  502    0  0.12903619447E+02  0.47903700005E+01  0.46172507868E+03  0.46194910079E+03  0.41800000000E+01 0. -1.
         -5    1    3    3    0  502 -0.20860626052E+02  0.40704825688E+02  0.54772007354E+02  0.71480722878E+02  0.41800000000E+01 0. -1.
        -11    1    1    2    0    0 -0.33274670068E+02 -0.17951853719E+02  0.19665052020E+02  0.42616745430E+02  0.00000000000E+00 0.  1.
         11    1    1    2    0    0  0.41231676673E+02 -0.27543341969E+02  0.11828560594E+03  0.12825822165E+03  0.00000000000E+00 0. -1.
</event>
<event>
 7    1  0.2480409E-009  0.1368011E+03  0.7561462E-02  0.1217699E+00
         -1   -1    0    0    0  501 -0.00000000000E+00  0.00000000000E+00  0.16419406982E+03  0.16419406982E+03  0.00000000000E+00 0.  1.
          1   -1    0    0  501    0  0.00000000000E+00 -0.00000000000E+00 -0.18612471319E+03  0.18612471319E+03  0.00000000000E+00 0. -1.
         25    2    1    2    0    0 -0.11166535339E+03  0.43071343257E+02  0.51122580094E+02  0.18051294072E+03  0.12508841599E+03 0.  0.
          5    1    3    3  502    0 -0.45630929720E+02 -0.86767869820E+01 -0.36432232879E+02  0.59179796992E+02  0.41800000000E+01 0. -1.
         -5    1    3    3    0  502 -0.66034423671E+02  0.51748130239E+02  0.87554812973E+02  0.12133314373E+03  0.41800000000E+01 0. -1.
        -11    1    1    2    0    0  0.11322824374E+03 -0.14271091355E+02 -0.30029522632E+02  0.11800877704E+03  0.00000000000E+00 0.  1.
         11    1    1    2    0    0 -0.15628903481E+01 -0.28800251902E+02 -0.43023700830E+02  0.51797065254E+02  0.00000000000E+00 0. -1.
</event>
<event>
 7    1  0.2480409E-009  0.1008419E+03  0.7561462E-02  0.1278536E+00
          2   -1    0    0  501    0  0.00000000000E+00  0.00000000000E+00  0.11929450845E+03  0.11929450845E+03  0.00000000000E+00 0.  1.
         -2   -1    0    0    0  501 -0.00000000000E+00 -0.00000000000E+00 -0.13511770514E+03  0.13511770514E+03  0.00000000000E+00 0. -1.
         25    2    1    2    0    0  0.35677763678E+02 -0.18328262798E+01 -0.63675194688E+02  0.14483689524E+03  0.12508770416E+03 0.  0.
          5    1    3    3  502    0  0.46142859677E+02 -0.47570440582E+02 -0.70944841737E+02  0.97173830250E+02  0.41800000000E+01 0. -1.
         -5    1    3    3    0  502 -0.10465096000E+02  0.45737614302E+02  0.72696470489E+01  0.47663064993E+02  0.41800000000E+01 0. -1.
        -11    1    1    2    0    0 -0.35235304589E+02 -0.35979210788E+02  0.23534431772E+01  0.50413976169E+02  0.00000000000E+00 0. -1.
         11    1    1    2    0    0 -0.44245908861E+00  0.37812037068E+02  0.45498554822E+02  0.59161342177E+02  0.00000000000E+00 0.  1.
</event>
<event>
 7    1  0.2480409E-009  0.9996257E+02  0.7561462E-02  0.1280375E+00
          2   -1    0    0  501    0  0.00000000000E+00  0.00000000000E+00  0.17040504567E+04  0.17040504567E+04  0.00000000000E+00 0. -1.
         -2   -1    0    0    0  501 -0.00000000000E+00 -0.00000000000E+00 -0.11806859838E+02  0.11806859838E+02  0.00000000000E+00 0.  1.
         25    2    1    2    0    0 -0.15468473627E+02  0.53365978885E+02  0.13592086313E+04  0.13660828144E+04  0.12508777356E+03 0.  0.
          5    1    3    3  502    0 -0.47448504303E+02  0.22738705330E+02  0.22918747456E+03  0.23518669217E+03  0.41800000000E+01 0.  1.
         -5    1    3    3    0  502  0.31980030676E+02  0.30627273555E+02  0.11300211567E+04  0.11308961222E+04  0.41800000000E+01 0.  1.
        -11    1    1    2    0    0  0.29689692067E+02  0.14700801849E+02  0.66191918278E+02  0.74020006994E+02  0.00000000000E+00 0.  1.
         11    1    1    2    0    0 -0.14221218441E+02 -0.68066780734E+02  0.26684304728E+03  0.27575449511E+03  0.00000000000E+00 0. -1.
</event>
<event>
 7    1  0.2480409E-009  0.1086034E+03  0.7561462E-02  0.1263178E+00
          1   -1    0    0  501    0  0.00000000000E+00  0.00000000000E+00  0.16057365649E+03  0.16057365649E+03  0.00000000000E+00 0. -1.
         -1   -1    0    0    0  501 -0.00000000000E+00 -0.00000000000E+00 -0.13254788094E+03  0.13254788094E+03  0.00000000000E+00 0.  1.
         25    2    1    2    0    0 -0.21823916662E+02 -0.10655632802E+02  0.10944911261E+03  0.16797815267E+03  0.12509086966E+03 0.  0.
          5    1    3    3  502    0  0.46600399994E+02 -0.25212958589E+02  0.26502212840E+02  0.59389647632E+02  0.41800000000E+01 0. -1.
         -5    1    3    3    0  502 -0.68424316657E+02  0.14557325787E+02  0.82946899771E+02  0.10858850503E+03  0.41800000000E+01 0. -1.
        -11    1    1    2    0    0  0.24495308209E+02  0.49401011057E+02 -0.56774969702E+02  0.79144659974E+02  0.00000000000E+00 0.  1.
         11    1    1    2    0    0 -0.26713915470E+01 -0.38745378255E+02 -0.24648367358E+02  0.45998724790E+02  0.00000000000E+00 0. -1.
</event>
<event>
 7    1  0.2480409E-009  0.7130569E+02  0.7561462E-02  0.1355708E+00
          1   -1    0    0  501    0  0.00000000000E+00  0.00000000000E+00  0.18945728467E+03  0.18945728467E+03  0.00000000000E+00 0. -1.
         -1   -1    0    0    0  501 -0.00000000000E+00 -0.00000000000E+00 -0.67511122910E+02  0.67511122910E+02  0.00000000000E+00 0.  1.
         25    2    1    2    0    0 -0.27122738121E+02  0.19839384745E+02  0.80316006670E+02  0.15240190760E+03  0.12508571622E+03 0.  0.
          5    1    3    3  502    0 -0.41165182855E+02  0.48259518102E+01  0.10910129299E+03  0.11678367447E+03  0.41800000000E+01 0. -1.
         -5    1    3    3    0  502  0.14042444734E+02  0.15013432935E+02 -0.28785286320E+02  0.35618233127E+02  0.41800000000E+01 0. -1.
        -11    1    1    2    0    0 -0.71510649504E+01  0.23590963203E+02 -0.12085805517E+02  0.27454288732E+02  0.00000000000E+00 0.  1.
         11    1    1    2    0    0  0.34273803071E+02 -0.43430347949E+02  0.53715960605E+02  0.77112211249E+02  0.00000000000E+00 0. -1.
</event>
<event>
 7    1  0.2480409E-009  0.1180236E+03  0.7561462E-02  0.1246394E+00
         -1   -1    0    0    0  501 -0.00000000000E+00  0.00000000000E+00  0.12996278920E+02  0.12996278920E+02  0.00000000000E+00 0.  1.
          1   -1    0    0  501    0  0.00000000000E+00 -0.00000000000E+00 -0.11459489440E+04  0.11459489440E+04  0.00000000000E+00 0. -1.
         25    2    1    2    0    0 -0.39659599356E+02 -0.28348005618E+02 -0.72878907205E+03  0.74105223000E+03  0.12509357618E+03 0.  0.
          5    1    3    3  502    0  0.42612649318E+02  0.42873197782E+01 -0.31160026552E+03  0.31455749374E+03  0.41800000000E+01 0.  1.
         -5    1    3    3    0  502 -0.82272248675E+02 -0.32635325396E+02 -0.41718880653E+03  0.42649473626E+03  0.41800000000E+01 0.  1.
        -11    1    1    2    0    0 -0.21042965820E+02 -0.18272524051E+02 -0.76784114331E+02  0.81685321566E+02  0.00000000000E+00 0.  1.
         11    1    1    2    0    0  0.60702565177E+02  0.46620529669E+02 -0.32737947873E+03  0.33620767139E+03  0.00000000000E+00 0. -1.
</event>
<event>
 7    1  0.4206606E-009  0.1762550E+03  0.7561462E-02  0.1171477E+00
          1   -1    0    0  501    0  0.00000000000E+00  0.00000000000E+00  0.73861103383E+03  0.73861103383E+03  0.00000000000E+00 0. -1.
         -1   -1    0    0    0  501 -0.00000000000E+00 -0.00000000000E+00 -0.56382935652E+02  0.56382935652E+02  0.00000000000E+00 0.  1.
         25    2    1    2    0    0 -0.16097366090E+03 -0.52301904529E+02  0.29263633197E+03  0.36046088453E+03  0.12509203720E+03 0.  0.
          5    1    3    3  502    0 -0.63221781731E+02 -0.55095212573E+02  0.47415939960E+02  0.96427277758E+02  0.41800000000E+01 0. -1.
         -5    1    3    3    0  502 -0.97751879168E+02  0.27933080443E+01  0.24522039201E+03  0.26403360677E+03  0.41800000000E+01 0. -1.
        -11    1    1    2    0    0  0.10750814975E+03  0.45607427159E+02  0.15635772497E+03  0.19515577837E+03  0.00000000000E+00 0.  1.
         11    1    1    2    0    0  0.53465511150E+02  0.66944773692E+01  0.23323404124E+03  0.23937730657E+03  0.00000000000E+00 0. -1.
</event>
<event>
 7    1  0.2480409E-009  0.1243452E+03  0.7561462E-02  0.1236096E+00
         -4   -1    0    0    0  501 -0.00000000000E+00  0.00000000000E+00  0.24997012349E+03  0.24997012349E+03  0.00000000000E+00 0.  1.
          4   -1    0    0  501    0  0.00000000000E+00 -0.00000000000E+00 -0.74632380024E+02  0.74632380024E+02  0.00000000000E+00 0. -1.
         25    2    1    2    0    0 -0.12603200044E+02 -0.81896665223E+02  0.88621051544E+02  0.17426024468E+03  0.12508811963E+03 0.  0.
          5    1    3    3  502    0 -0.28624847602E+02  0.15922067688E+02 -0.98691597522E+01  0.34463993587E+02  0.41800000000E+01 0.  1.
         -5    1    3    3    0  502  0.16021647558E+02 -0.97818732912E+02  0.98490211296E+02  0.13979625109E+03  0.41800000000E+01 0.  1.
        -11    1    1    2    0    0  0.12288383584E+02  0.98795965111E+02  0.88680648403E+02  0.13332630834E+03  0.00000000000E+00 0.  1.
         11    1    1    2    0    0  0.31481646018E+00 -0.16899299888E+02 -0.19639564851E+01  0.17015950493E+02  0.00000000000E+00 0. -1.
</event>
<event>
 7    1  0.2480409E-009  0.8267824E+02  0.7561462E-02  0.1321618E+00
         -2   -1    0    0    0  501 -0.00000000000E+00  0.00000000000E+00  0.84033870061E+01  0.84033870061E+01  0.00000000000E+00 0.  1.
          2   -1    0    0  501    0  0.00000000000E+00 -0.00000000000E+00 -0.24829308291E+04  0.24829308291E+04  0.00000000000E+00 0. -1.
         25    2    1    2    0    0 -0.19526796011E+02 -0.57587075949E+02 -0.19860255375E+04  0.19908898295E+04  0.12508921070E+03 0.  0.
          5    1    3    3  502    0 -0.47246129667E+01 -0.38414815253E+02 -0.19206790193E+04  0.19210734987E+04  0.41800000000E+01 0. -1.
         -5    1    3    3    0  502 -0.14802183045E+02 -0.19172260696E+02 -0.65346518192E+02  0.69816330775E+02  0.41800000000E+01 0. -1.
        -11    1    1    2    0    0  0.34726288344E+02  0.72603762574E+02 -0.44201670719E+03  0.44928386447E+03  0.00000000000E+00 0.  1.
         11    1    1    2    0    0 -0.15199492332E+02 -0.15016686625E+02 -0.46485197408E+02  0.51160522108E+02  0.00000000000E+00 0. -1.
</event>
<event>
 7    1  0.2480409E-009  0.3574474E+03  0.7561462E-02  0.1059599E+00
          1   -1    0    0  501    0  0.00000000000E+00  0.00000000000E+00  0.11340728821E+04  0.11340728821E+04  0.00000000000E+00 0. -1.
         -1   -1    0    0    0  501 -0.00000000000E+00 -0.00000000000E+00 -0.11707700872E+03  0.11707700872E+03  0.00000000000E+00 0.  1.
         25    2    1    2    0    0  0.18438501239E+03 -0.29387920919E+03  0.55282163371E+03  0.66454658189E+03  0.12509028106E+03 0.  0.
          5    1    3    3  502    0  0.12708266281E+03 -0.89327080286E+02  0.21037381958E+03  0.26154148203E+03  0.41800000000E+01 0. -1.
         -5    1    3    3    0  502  0.57302349573E+02 -0.20455212890E+03  0.34244781413E+03  0.40300509986E+03  0.41800000000E+01 0. -1.
        -11    1    1    2    0    0 -0.77103944508E+02  0.13070410480E+03  0.27839313349E+03  0.31706674068E+03  0.00000000000E+00 0. -1.
         11    1    1    2    0    0 -0.10728106788E+03  0.16317510439E+03  0.18578110620E+03  0.26953656827E+03  0.00000000000E+00 0.  1.
</event>
<event>
 7    1  0.2480409E-009  0.1053484E+03  0.7561462E-02  0.1269435E+00
         -1   -1    0    0    0  501 -0.00000000000E+00  0.00000000000E+00  0.35640912644E+03  0.35640912644E+03  0.00000000000E+00 0.  1.
          1   -1    0    0  501    0  0.00000000000E+00 -0.00000000000E+00 -0.65729151717E+02  0.65729151717E+02  0.00000000000E+00 0. -1.
         25    2    1    2    0    0 -0.99813026077E+01 -0.74145736555E+02  0.26391068195E+03  0.30148585631E+03  0.12509059460E+03 0.  0.
          5    1    3    3  502    0 -0.61543198199E+02 -0.44287842015E+02  0.90844760477E+02  0.11840279178E+03  0.41800000000E+01 0.  1.
         -5    1    3    3    0  502  0.51561895591E+02 -0.29857894540E+02  0.17306592147E+03  0.18308306453E+03  0.41800000000E+01 0.  1.
        -11    1    1    2    0    0  0.11316440722E+01  0.29177575377E+02  0.58176310809E+02  0.65092969379E+02  0.00000000000E+00 0.  1.
         11    1    1    2    0    0  0.88496585356E+01  0.44968161178E+02 -0.31407018040E+02  0.55559452464E+02  0.00000000000E+00 0. -1.
</event>
<event>
 7    1  0.2480409E-009  0.1829707E+03  0.7561462E-02  0.1164959E+00
          1   -1    0    0  501    0  0.00000000000E+00  0.00000000000E+00  0.63582857448E+03  0.63582857448E+03  0.00000000000E+00 0. -1.
         -1   -1    0    0    0  501 -0.00000000000E+00 -0.00000000000E+00 -0.74395677045E+02  0.74395677045E+02  0.00000000000E+00 0.  1.
         25    2    1    2    0    0 -0.83145930487E+02  0.16236671210E+03  0.21864793652E+03  0.31101489428E+03  0.12508856608E+03 0.  0.
          5    1    3    3  502    0 -0.39272890501E+02  0.57723638242E+02  0.63113464205E+01  0.70225948436E+02  0.41800000000E+01 0. -1.
         -5    1    3    3    0  502 -0.43873039986E+02  0.10464307386E+03  0.21233659010E+03  0.24078894584E+03  0.41800000000E+01 0. -1.
        -11    1    1    2    0    0  0.29931313385E+02 -0.62352149222E+02  0.50214402851E+02  0.85470230415E+02  0.00000000000E+00 0.  1.
         11    1    1    2    0    0  0.53214617101E+02 -0.10001456288E+03  0.29257055807E+03  0.31373912684E+03  0.00000000000E+00 0. -1.
</event>
<event>
 7    1  0.2480409E-009  0.1069996E+03  0.7561462E-02  0.1266229E+00
         -2   -1    0    0    0  501 -0.00000000000E+00  0.00000000000E+00  0.20341521753E+02  0.20341521753E+02  0.00000000000E+00 0. -1.
          2   -1    0    0  501    0  0.00000000000E+00 -0.00000000000E+00 -0.65695734480E+03  0.65695734480E+03  0.00000000000E+00 0.  1.
         25    2    1    2    0    0 -0.76604259837E+01 -0.18755919844E+02 -0.26004416771E+03  0.28928061950E+03  0.12509932454E+03 0.  0.
          5    1    3    3  502    0 -0.23002580507E+02 -0.68062413184E+02 -0.18088563884E+03  0.19467587816E+03  0.41800000000E+01 0.  1.
         -5    1    3    3    0  502  0.15342154523E+02  0.49306493340E+02 -0.79158528871E+02  0.94604741340E+02  0.41800000000E+01 0.  1.
        -11    1    1    2    0    0  0.35610407641E+02 -0.21216181607E+02 -0.22518256827E+03  0.22896597246E+03  0.00000000000E+00 0.  1.
         11    1    1    2    0    0 -0.27949981657E+02  0.39972101451E+02 -0.15138908707E+03  0.15905227459E+03  0.00000000000E+00 0. -1.
</event>
<event>
 7    1  0.2480409E-009  0.1366159E+03  0.7561462E-02  0.1217956E+00
         -1   -1    0    0    0  501 -0.00000000000E+00  0.00000000000E+00  0.38833154269E+02  0.38833154269E+02  0.00000000000E+00 0.  1.
          1   -1    0    0  501    0  0.00000000000E+00 -0.00000000000E+00 -0.54987116946E+03  0.54987116946E+03  0.00000000000E+00 0. -1.
         25    2    1    2    0    0  0.80859131033E+02 -0.50522033478E+02 -0.31622750497E+03  0.35318193599E+03  0.12508784942E+03 0.  0.
          5    1    3    3  502    0  0.10764720383E+03 -0.46009039117E+02 -0.29801254082E+03  0.32020883664E+03  0.41800000000E+01 0.  1.
         -5    1    3    3    0  502 -0.26788072795E+02 -0.45129943617E+01 -0.18214964148E+02  0.32973099355E+02  0.41800000000E+01 0.  1.
        -11    1    1    2    0    0 -0.32181011376E+02  0.69317881536E+02 -0.87351355007E+02  0.11606397122E+03  0.00000000000E+00 0.  1.
         11    1    1    2    0    0 -0.48678119657E+02 -0.18795848058E+02 -0.10745915521E+03  0.11945841652E+03  0.00000000000E+00 0. -1.
</event>
<event>
 7    1  0.2480409E-009  0.3805017E+03  0.7561462E-02  0.1050748E+00
          1   -1    0    0  501    0  0.00000000000E+00  0.00000000000E+00  0.14474909362E+04  0.14474909362E+04  0.00000000000E+00 0. -1.
         -1   -1    0    0    0  501 -0.00000000000E+00 -0.00000000000E+00 -0.10098729256E+03  0.10098729256E+03  0.00000000000E+00 0.  1.
         25    2    1    2    0    0 -0.36406230110E+03 -0.34119459844E+02  0.72473621518E+03  0.82133734200E+03  0.12508777374E+03 0.  0.
          5    1    3    3  502    0 -0.15210633069E+02  0.27734044386E+02  0.68184172325E+02  0.75280105818E+02  0.41800000000E+01 0.  1.
         -5    1    3    3    0  502 -0.34885166803E+03 -0.61853504230E+02  0.65655204286E+03  0.74605723618E+03  0.41800000000E+01 0.  1.
        -11    1    1    2    0    0  0.21495582967E+03  0.60612186228E+02  0.33102492323E+03  0.39932110592E+03  0.00000000000E+00 0. -1.
         11    1    1    2    0    0  0.14910647143E+03 -0.26492726383E+02  0.29074250518E+03  0.32781978081E+03  0.00000000000E+00 0.  1.
</event>
<event>
 7    1  0.2480409E-009  0.1110233E+03  0.7561462E-02  0.1258687E+00
         -2   -1    0    0    0  501 -0.00000000000E+00  0.00000000000E+00  0.15357761617E+02  0.15357761617E+02  0.00000000000E+00 0.  1.
          2   -1    0    0  501    0  0.00000000000E+00 -0.00000000000E+00 -0.93912603631E+03  0.93912603631E+03  0.00000000000E+00 0. -1.
         25    2    1    2    0    0  0.43569437248E+02  0.26461571831E+01 -0.58831795857E+03  0.60305169311E+03  0.12509207078E+03 0.  0.
          5    1    3    3  502    0  0.25550939235E+02  0.57001385537E+02 -0.43219100306E+03  0.43670189372E+03  0.41800000000E+01 0.  1.
         -5    1    3    3    0  502  0.18018498013E+02 -0.54355228354E+02 -0.15612695551E+03  0.16634979939E+03  0.41800000000E+01 0.  1.
        -11    1    1    2    0    0  0.19722529016E+02  0.25931927867E+02 -0.72825914590E+02  0.79781306517E+02  0.00000000000E+00 0.  1.
         11    1    1    2    0    0 -0.63291966264E+02 -0.28578085050E+02 -0.26262440154E+03  0.27165079831E+03  0.00000000000E+00 0. -1.
</event>
<event>
 7    1  0.2480409E-009  0.1203531E+03  0.7561462E-02  0.1242516E+00
          2   -1    0    0  501    0  0.00000000000E+00  0.00000000000E+00  0.11646709838E+03  0.11646709838E+03  0.00000000000E+00 0. -1.
         -2   -1    0    0    0  501 -0.00000000000E+00 -0.00000000000E+00 -0.20857006802E+03  0.20857006802E+03  0.00000000000E+00 0.  1.
         25    2    1    2    0    0  0.48831402424E+02 -0.50789274257E+02 -0.13906639707E+03  0.19987757085E+03  0.12509006472E+03 0.  0.
          5    1    3    3  502    0 -0.16385108054E+02  0.28130898585E+02 -0.66999315445E+02  0.74606969455E+02  0.41800000000E+01 0.  1.
         -5    1    3    3    0  502  0.65216510478E+02 -0.78920172841E+02 -0.72067081628E+02  0.12527060140E+03  0.41800000000E+01 0.  1.
        -11    1    1    2    0    0  0.49540205463E+01  0.51392068811E+02 -0.30385142160E+01  0.51719625143E+02  0.00000000000E+00 0.  1.
         11    1    1    2    0    0 -0.53785422970E+02 -0.60279455488E+00  0.50001941651E+02  0.73439970412E+02  0.00000000000E+00 0. -1.
</event>
<event>
 7    1  0.2480409E-009  0.5198985E+02  0.7561462E-02  0.1434895E+00
         -1   -1    0    0    0  501 -0.00000000000E+00  0.00000000000E+00  0.21429570607E+02  0.21429570607E+02  0.00000000000E+00 0.  1.
          1   -1    0    0  501    0  0.00000000000E+00 -0.00000000000E+00 -0.66177142273E+03  0.66177142273E+03  0.00000000000E+00 0. -1.
         25    2    1    2    0    0  0.87681727620E+01  0.27402889497E+02 -0.48251421196E+03  0.49929474852E+03  0.12508989549E+03 0.  0.
          5    1    3    3  502    0  0.14587003271E+02 -0.83065030330E+01 -0.20134657032E+01  0.17415656784E+02  0.41800000000E+01 0. -1.
         -5    1    3    3    0  502 -0.58188305093E+01  0.35709392530E+02 -0.48050074626E+03  0.48187909174E+03  0.41800000000E+01 0. -1.
        -11    1    1    2    0    0 -0.25399995550E+02 -0.14849702186E+02 -0.16024984348E+03  0.16292846825E+03  0.00000000000E+00 0. -1.
         11    1    1    2    0    0  0.16631822788E+02 -0.12553187310E+02  0.24222033156E+01  0.20977776570E+02  0.00000000000E+00 0.  1.
</event>
<event>
 7    1  0.2480409E-009  0.1141729E+03  0.7561462E-02  0.1253032E+00
         -2   -1    0    0    0  501 -0.00000000000E+00  0.00000000000E+00  0.11873055467E+02  0.11873055467E+02  0.00000000000E+00 0.  1.
          2   -1    0    0  501    0  0.00000000000E+00 -0.00000000000E+00 -0.12508428922E+04  0.12508428922E+04  0.00000000000E+00 0. -1.
         25    2    1    2    0    0 -0.23451478591E+02 -0.47698401437E+02 -0.90321273161E+03  0.91338116296E+03  0.12508717343E+03 0.  0.
          5    1    3    3  502    0 -0.18758896662E+01  0.42658307788E+02 -0.29187826428E+03  0.29501465005E+03  0.41800000000E+01 0.  1.
         -5    1    3    3    0  502 -0.21575588925E+02 -0.90356709225E+02 -0.61133446733E+03  0.61836651291E+03  0.41800000000E+01 0.  1.
        -11    1    1    2    0    0 -0.25796969169E+02  0.31264287287E+02 -0.19828732419E+03  0.20238775213E+03  0.00000000000E+00 0.  1.
         11    1    1    2    0    0  0.49248447760E+02  0.16434114150E+02 -0.13746978096E+03  0.14694703261E+03  0.00000000000E+00 0. -1.
</event>
<event>
 7    1  0.2480409E-009  0.2313107E+03  0.7561462E-02  0.1125721E+00
         -2   -1    0    0    0  501 -0.00000000000E+00  0.00000000000E+00  0.13312166958E+03  0.13312166958E+03  0.00000000000E+00 0.  1.
          2   -1    0    0  501    0  0.00000000000E+00 -0.00000000000E+00 -0.69994300026E+03  0.69994300026E+03  0.00000000000E+00 0. -1.
         25    2    1    2    0    0  0.16344974150E+03  0.13463362254E+03 -0.40760195663E+02  0.24930109685E+03  0.12509041940E+03 0.  0.
          5    1    3    3  502    0  0.68222577438E+02 -0.13596446787E+02 -0.99709086668E+01  0.70399395290E+02  0.41800000000E+01 0. -1.
         -5    1    3    3    0  502  0.95227164062E+02  0.14823006933E+03 -0.30789286996E+02  0.17890170156E+03  0.41800000000E+01 0. -1.
        -11    1    1    2    0    0 -0.95304873937E+02 -0.48703028038E+02 -0.10994245567E+03  0.15343515730E+03  0.00000000000E+00 0.  1.
         11    1    1    2    0    0 -0.68144867563E+02 -0.85930594502E+02 -0.41611867935E+03  0.43032841569E+03  0.00000000000E+00 0. -1.
</event>
<event>
 7    1  0.2480409E-009  0.9495276E+02  0.7561462E-02  0.1291283E+00
          3   -1    0    0  501    0  0.00000000000E+00  0.00000000000E+00  0.37011090914E+03  0.37011090914E+03  0.00000000000E+00 0. -1.
         -3   -1    0    0    0  501 -0.00000000000E+00 -0.00000000000E+00 -0.32985700615E+02  0.32985700615E+02  0.00000000000E+00 0.  1.
         25    2    1    2    0    0  0.49355440553E+00 -0.31729638062E+01  0.14764732701E+03  0.19354700708E+03  0.12510155666E+03 0.  0.
          5    1    3    3  502    0  0.53487514479E+02 -0.20707199853E+02  0.11542910509E+03  0.12896144010E+03  0.41800000000E+01 0. -1.
         -5    1    3    3    0  502 -0.52993960074E+02  0.17534236047E+02  0.32218221926E+02  0.64585566980E+02  0.41800000000E+01 0. -1.
        -11    1    1    2    0    0  0.12439434410E+02  0.37621927437E+02  0.42799847190E+02  0.58326459450E+02  0.00000000000E+00 0.  1.
         11    1    1    2    0    0 -0.12932988815E+02 -0.34448963630E+02  0.14667803432E+03  0.15122314323E+03  0.00000000000E+00 0. -1.
</event>
<event>
 7    1  0.2480409E-009  0.8793607E+02  0.7561462E-02  0.1307928E+00
          2   -1    0    0  501    0  0.00000000000E+00  0.00000000000E+00  0.14830254898E+03  0.14830254898E+03  0.00000000000E+00 0. -1.
         -2   -1    0    0    0  501 -0.00000000000E+00 -0.00000000000E+00 -0.79096002892E+02  0.79096002892E+02  0.00000000000E+00 0.  1.
         25    2    1    2    0    0 -0.52547166176E+01  0.71148660214E+01  0.43466770103E+02  0.13272089251E+03  0.12508893573E+03 0.  0.
          5    1    3    3  502    0 -0.96719033146E+01  0.45659032969E+02  0.70925469355E+02  0.85006985646E+02  0.41800000000E+01 0.  1.
         -5    1    3    3    0  502  0.44171866969E+01 -0.38544166947E+02 -0.27458699251E+02  0.47713906867E+02  0.41800000000E+01 0.  1.
        -11    1    1    2    0    0  0.25665742969E+02  0.34876788680E+02  0.50045948893E+01  0.43590901812E+02  0.00000000000E+00 0.  1.
         11    1    1    2    0    0 -0.20411026351E+02 -0.41991654702E+02  0.20735181091E+02  0.51086757542E+02  0.00000000000E+00 0. -1.
</event>
<event>
 7    1  0.2666589E-009  0.1415420E+03  0.7561462E-02  0.1211269E+00
         -2   -1    0    0    0  501 -0.00000000000E+00  0.00000000000E+00  0.23134037587E+02  0.23134037587E+02  0.00000000000E+00 0.  1.
          2   -1    0    0  501    0  0.00000000000E+00 -0.00000000000E+00 -0.99626625949E+03  0.99626625949E+03  0.00000000000E+00 0. -1.
         25    2    1    2    0    0  0.45082940421E+02 -0.93033658988E+02 -0.59948887303E+03  0.62106480970E+03  0.12508739244E+03 0.  0.
          5    1    3    3  502    0  0.24530948165E+02  0.26428246610E+02 -0.21044161527E+03  0.21354944503E+03  0.41800000000E+01 0.  1.
         -5    1    3    3    0  502  0.20551992256E+02 -0.11946190560E+03 -0.38904725776E+03  0.40751536467E+03  0.41800000000E+01 0.  1.
        -11    1    1    2    0    0  0.24273216146E+00  0.77619799090E+02 -0.30448713650E+03  0.31422493285E+03  0.00000000000E+00 0. -1.
         11    1    1    2    0    0 -0.45325672582E+02  0.15413859898E+02 -0.69156212372E+02  0.84110554519E+02  0.00000000000E+00 0.  1.
</event>
<event>
 7    1  0.2480409E-009  0.8531420E+02  0.7561462E-02  0.1314613E+00
         -1   -1    0    0    0  501 -0.00000000000E+00  0.00000000000E+00  0.28857785734E+02  0.28857785734E+02  0.00000000000E+00 0.  1.
          1   -1    0    0  501    0  0.00000000000E+00 -0.00000000000E+00 -0.54276124020E+03  0.54276124020E+03  0.00000000000E+00 0. -1.
         25    2    1    2    0    0 -0.53041528997E+02  0.30221234989E+02 -0.26538238764E+03  0.29967122950E+03  0.12509319437E+03 0.  0.
          5    1    3    3  502    0 -0.18791266913E+02  0.26286006095E+02 -0.26283843094E+03  0.26485010668E+03  0.41800000000E+01 0. -1.
         -5    1    3    3    0  502 -0.34250262084E+02  0.39352288947E+01 -0.25439567049E+01  0.34821122828E+02  0.41800000000E+01 0. -1.
        -11    1    1    2    0    0  0.41614614506E+02  0.23910318540E+02 -0.16441509002E+03  0.17127697247E+03  0.00000000000E+00 0. -1.
         11    1    1    2    0    0  0.11426914491E+02 -0.54131553530E+02 -0.84105976805E+02  0.10067082396E+03  0.00000000000E+00 0.  1.
</event>
<event>
 7    1  0.2480409E-009  0.1314894E+03  0.7561462E-02  0.1225262E+00
         -2   -1    0    0    0  501 -0.00000000000E+00  0.00000000000E+00  0.54506885917E+02  0.54506885917E+02  0.00000000000E+00 0.  1.
          2   -1    0    0  501    0  0.00000000000E+00 -0.00000000000E+00 -0.42920371074E+03  0.42920371074E+03  0.00000000000E+00 0. -1.
         25    2    1    2    0    0 -0.73934699445E+02 -0.77210801899E+02 -0.20753878990E+03  0.26485412286E+03  0.12509000509E+03 0.  0.
          5    1    3    3  502    0 -0.50536131172E+02 -0.84491316880E+01 -0.17977815331E+03  0.18698380996E+03  0.41800000000E+01 0.  1.
         -5    1    3    3    0  502 -0.23398568273E+02 -0.68761670211E+02 -0.27760636587E+02  0.77870312899E+02  0.41800000000E+01 0.  1.
        -11    1    1    2    0    0  0.65352081611E+02  0.43977596647E+01 -0.99294450709E+02  0.11895218704E+03  0.00000000000E+00 0. -1.
         11    1    1    2    0    0  0.85826178339E+01  0.72813042234E+02 -0.67863584213E+02  0.99904286747E+02  0.00000000000E+00 0.  1.
</event>
<event>
 7    1  0.2480409E-009  0.1189830E+03  0.7561462E-02  0.1244784E+00
          1   -1    0    0  501    0  0.00000000000E+00  0.00000000000E+00  0.17746226702E+03  0.17746226702E+03  0.00000000000E+00 0. -1.
         -1   -1    0    0    0  501 -0.00000000000E+00 -0.00000000000E+00 -0.12852631243E+03  0.12852631243E+03  0.00000000000E+00 0.  1.
         25    2    1    2    0    0 -0.83527988237E+02  0.56873016744E+02  0.52708712790E+02  0.16922475743E+03  0.12508934914E+03 0.  0.
          5    1    3    3  502    0 -0.42100180489E+02  0.12902831908E+01  0.83222551766E+02  0.93367850733E+02  0.41800000000E+01 0. -1.
         -5    1    3    3    0  502 -0.41427807748E+02  0.55582733553E+02 -0.30513838976E+02  0.75856906694E+02  0.41800000000E+01 0. -1.
        -11    1    1    2    0    0  0.60384086525E+01  0.17665886633E+02 -0.20748454921E+02  0.27911365269E+02  0.00000000000E+00 0.  1.
         11    1    1    2    0    0  0.77489579585E+02 -0.74538903377E+02  0.16975696723E+02  0.10885245675E+03  0.00000000000E+00 0. -1.
</event>
<event>
 7    1  0.2480409E-009  0.1210395E+03  0.7561462E-02  0.1241392E+00
          2   -1    0    0  501    0  0.00000000000E+00  0.00000000000E+00  0.29333842182E+03  0.29333842182E+03  0.00000000000E+00 0. -1.
         -2   -1    0    0    0  501 -0.00000000000E+00 -0.00000000000E+00 -0.55309008163E+02  0.55309008163E+02  0.00000000000E+00 0.  1.
         25    2    1    2    0    0 -0.38222078135E+02  0.47840853970E+02  0.91665276620E+02  0.16673441605E+03  0.12509263765E+03 0.  0.
          5    1    3    3  502    0 -0.44062296461E+02 -0.32394157611E+02  0.18422590746E+02  0.57859585779E+02  0.41800000000E+01 0. -1.
         -5    1    3    3    0  502  0.58402183257E+01  0.80235011581E+02  0.73242685874E+02  0.10887483028E+03  0.41800000000E+01 0. -1.
        -11    1    1    2    0    0 -0.20386123398E+02 -0.43338764674E+02  0.80172980765E+02  0.93389235972E+02  0.00000000000E+00 0. -1.
         11    1    1    2    0    0  0.58608201533E+02 -0.45020892956E+01  0.66191156270E+02  0.88523777955E+02  0.00000000000E+00 0.  1.
</event>
<event>
 7    1  0.2480409E-009  0.1101112E+03  0.7561462E-02  0.1260364E+00
          1   -1    0    0  501    0  0.00000000000E+00  0.00000000000E+00  0.42060942698E+03  0.42060942698E+03  0.00000000000E+00 0. -1.
         -1   -1    0    0    0  501 -0.00000000000E+00 -0.00000000000E+00 -0.31508357917E+02  0.31508357917E+02  0.00000000000E+00 0.  1.
         25    2    1    2    0    0 -0.29579820847E+02  0.58338410908E+01  0.18390157174E+03  0.22444708318E+03  0.12509078925E+03 0.  0.
          5    1    3    3  502    0  0.34573123339E+02  0.36439216324E+02  0.11410035553E+03  0.12473764819E+03  0.41800000000E+01 0. -1.
         -5    1    3    3    0  502 -0.64152944187E+02 -0.30605375234E+02  0.69801216214E+02  0.99709434990E+02  0.41800000000E+01 0. -1.
        -11    1    1    2    0    0  0.63719971087E+02  0.13225614683E+01  0.13103761996E+03  0.14571493310E+03  0.00000000000E+00 0.  1.
         11    1    1    2    0    0 -0.34140150239E+02 -0.71564025592E+01  0.74161877366E+02  0.81955768622E+02  0.00000000000E+00 0. -1.
</event>
<event>
 7    1  0.2480409E-009  0.1216917E+03  0.7561462E-02  0.1240332E+00
          4   -1    0    0  501    0  0.00000000000E+00  0.00000000000E+00  0.75211341598E+03  0.75211341598E+03  0.00000000000E+00 0. -1.
         -4   -1    0    0    0  501 -0.00000000000E+00 -0.00000000000E+00 -0.31706347388E+02  0.31706347388E+02  0.00000000000E+00 0.  1.
         25    2    1    2    0    0  0.84440478561E+02 -0.63023785947E+02  0.45705609271E+03  0.48543745139E+03  0.12508819014E+03 0.  0.
          5    1    3    3  502    0  0.45612115540E+02 -0.80000959649E+02  0.15459649746E+03  0.17999491119E+03  0.41800000000E+01 0. -1.
         -5    1    3    3    0  502  0.38828363020E+02  0.16977173702E+02  0.30245959525E+03  0.30544254020E+03  0.41800000000E+01 0. -1.
        -11    1    1    2    0    0 -0.48747102456E+02  0.19942941817E+02  0.34904102211E+02  0.63184628490E+02  0.00000000000E+00 0.  1.
         11    1    1    2    0    0 -0.35693376104E+02  0.43080844130E+02  0.22844687367E+03  0.23519768349E+03  0.00000000000E+00 0. -1.
</event>
<event>
 7    1  0.2480409E-009  0.1167179E+03  0.7561462E-02  0.1248612E+00
         -1   -1    0    0    0  501 -0.00000000000E+00  0.00000000000E+00  0.12273751001E+03  0.12273751001E+03  0.00000000000E+00 0. -1.
          1   -1    0    0  501    0  0.00000000000E+00 -0.00000000000E+00 -0.15415815731E+03  0.15415815731E+03  0.00000000000E+00 0.  1.
         25    2    1    2    0    0 -0.81234339310E+02  0.21818887541E+02 -0.23009582429E+02  0.15248614607E+03  0.12508997610E+03 0.  0.
          5    1    3    3  502    0 -0.91581066046E+02  0.58578565910E+02 -0.31257165352E+02  0.11319462367E+03  0.41800000000E+01 0. -1.
         -5    1    3    3    0  502  0.10346726736E+02 -0.36759678369E+02  0.82475829227E+01  0.39291522394E+02  0.41800000000E+01 0. -1.
        -11    1    1    2    0    0  0.40834878336E+02 -0.11609255660E+01 -0.48814860882E+02  0.63653167084E+02  0.00000000000E+00 0.  1.
         11    1    1    2    0    0  0.40399460974E+02 -0.20657961975E+02  0.40403796013E+02  0.60756354172E+02  0.00000000000E+00 0. -1.
</event>
<event>
 7    1  0.2480409E-009  0.1991635E+03  0.7561462E-02  0.1150447E+00
          1   -1    0    0  501    0  0.00000000000E+00  0.00000000000E+00  0.10745148705E+04  0.10745148705E+04  0.00000000000E+00 0. -1.
         -1   -1    0    0    0  501 -0.00000000000E+00 -0.00000000000E+00 -0.41594901219E+02  0.41594901219E+02  0.00000000000E+00 0.  1.
         25    2    1    2    0    0  0.17059082031E+03  0.15361971985E+02  0.38300147203E+03  0.43780682070E+03  0.12508983379E+03 0.  0.
          5    1    3    3  502    0  0.20679119702E+02  0.51564043386E+02  0.76148464312E+02  0.94353259504E+02  0.41800000000E+01 0.  1.
         -5    1    3    3    0  502  0.14991170061E+03 -0.36202071401E+02  0.30685300772E+03  0.34345356120E+03  0.41800000000E+01 0.  1.
        -11    1    1    2    0    0 -0.10139197205E+03  0.29828412377E+02  0.44426903195E+03  0.45666731757E+03  0.00000000000E+00 0. -1.
         11    1    1    2    0    0 -0.69198848262E+02 -0.45190384362E+02  0.20564946533E+03  0.22163563348E+03  0.00000000000E+00 0.  1.
</event>
<event>
 7    1  0.2480409E-009  0.9750022E+02  0.7561462E-02  0.1285642E+00
          2   -1    0    0  501    0  0.00000000000E+00  0.00000000000E+00  0.12776606296E+04  0.12776606296E+04  0.00000000000E+00 0. -1.
         -2   -1    0    0    0  501 -0.00000000000E+00 -0.00000000000E+00 -0.19491939858E+02  0.19491939858E+02  0.00000000000E+00 0.  1.
         25    2    1    2    0    0 -0.51002796732E+02  0.29974050480E+02  0.10775273611E+04  0.10863744071E+04  0.12507761345E+03 0.  0.
          5    1    3    3  502    0 -0.59887235339E+02  0.26488052742E+01  0.10215384778E+04  0.10233043688E+04  0.41800000000E+01 0. -1.
         -5    1    3    3    0  502  0.88844386067E+01  0.27325245206E+02  0.55988883342E+02  0.63070038313E+02  0.41800000000E+01 0. -1.
        -11    1    1    2    0    0  0.51557159277E+02 -0.58137020930E+02  0.10955591082E+03  0.13431512004E+03  0.00000000000E+00 0.  1.
         11    1    1    2    0    0 -0.55436254434E+00  0.28162970451E+02  0.71085417829E+02  0.76463042382E+02  0.00000000000E+00 0. -1.
</event>
<event>
 7    1  0.2653646E-009  0.1149334E+03  0.7561462E-02  0.1251697E+00
         -2   -1    0    0    0  501 -0.00000000000E+00  0.00000000000E+00  0.93001670060E+02  0.93001670060E+02  0.00000000000E+00 0.  1.
          2   -1    0    0  501    0  0.00000000000E+00 -0.00000000000E+00 -0.17668827482E+03  0.17668827482E+03  0.00000000000E+00 0. -1.
         25    2    1    2    0    0  0.81922804327E+01  0.38679947313E+02  0.11601268660E+02  0.13170098603E+03  0.12508920219E+03 0.  0.
          5    1    3    3  502    0 -0.43531129434E+02  0.59969002026E+02 -0.94029523288E+00  0.74226659556E+02  0.41800000000E+01 0.  1.
         -5    1    3    3    0  502  0.51723409866E+02 -0.21289054712E+02  0.12541563893E+02  0.57474326474E+02  0.41800000000E+01 0.  1.
        -11    1    1    2    0    0 -0.34578335379E+02 -0.57535004155E+02 -0.59599359573E+02  0.89766483958E+02  0.00000000000E+00 0.  1.
         11    1    1    2    0    0  0.26386054946E+02  0.18855056842E+02 -0.35688513847E+02  0.48222474893E+02  0.00000000000E+00 0. -1.
</event>
<event>
 7    1  0.2480409E-009  0.1112062E+03  0.7561462E-02  0.1258352E+00
         -1   -1    0    0    0  501 -0.00000000000E+00  0.00000000000E+00  0.33857947482E+02  0.33857947482E+02  0.00000000000E+00 0.  1.
          1   -1    0    0  501    0  0.00000000000E+00 -0.00000000000E+00 -0.40094757055E+03  0.40094757055E+03  0.00000000000E+00 0. -1.
         25    2    1    2    0    0 -0.39557121379E+02  0.23175030812E+02 -0.18606747232E+03  0.22884307436E+03  0.12508477335E+03 0.  0.
          5    1    3    3  502    0 -0.75870494593E+02  0.38138913340E+02 -0.84514203141E+02  0.11987923754E+03  0.41800000000E+01 0. -1.
         -5    1    3    3    0  502  0.36313373214E+02 -0.14963882528E+02 -0.10155326918E+03  0.10896383682E+03  0.41800000000E+01 0. -1.
        -11    1    1    2    0    0 -0.49514210001E+01 -0.47102772376E+02 -0.78955311567E+02  0.92071325395E+02  0.00000000000E+00 0.  1.
         11    1    1    2    0    0  0.44508542379E+02  0.23927741565E+02 -0.10206683919E+03  0.11389111828E+03  0.00000000000E+00 0. -1.
</event>
<event>
 7    1  0.2480409E-009  0.1083175E+03  0.7561462E-02  0.1263718E+00
          2   -1    0    0  501    0  0.00000000000E+00  0.00000000000E+00  0.16622826320E+03  0.16622826320E+03  0.00000000000E+00 0. -1.
         -2   -1    0    0    0  501 -0.00000000000E+00 -0.00000000000E+00 -0.84372481222E+02  0.84372481222E+02  0.00000000000E+00 0.  1.
         25    2    1    2    0    0 -0.38090631672E+02 -0.31559727065E+02  0.40942009020E+02  0.14060927211E+03  0.12509119356E+03 0.  0.
          5    1    3    3  502    0  0.44336907066E+02 -0.26382368921E+02  0.13733606059E+02  0.53552544790E+02  0.41800000000E+01 0. -1.
         -5    1    3    3    0  502 -0.82427538738E+02 -0.51773581441E+01  0.27208402960E+02  0.87056727319E+02  0.41800000000E+01 0. -1.
        -11    1    1    2    0    0  0.40190734681E+02 -0.93092907916E+01 -0.12125694334E+02  0.42999889678E+02  0.00000000000E+00 0.  1.
         11    1    1    2    0    0 -0.21001030095E+01  0.40869017857E+02  0.53039467295E+02  0.66991582636E+02  0.00000000000E+00 0. -1.
</event>
<event>
 7    1  0.2480409E-009  0.1118184E+03  0.7561462E-02  0.1257239E+00
          3   -1    0    0  501    0  0.00000000000E+00  0.00000000000E+00  0.13025607245E+03  0.13025607245E+03  0.00000000000E+00 0. -1.
         -3   -1    0    0    0  501 -0.00000000000E+00 -0.00000000000E+00 -0.14252027788E+03  0.14252027788E+03  0.00000000000E+00 0.  1.
         25    2    1    2    0    0  0.34335317276E+02  0.71378593220E+02 -0.90558940905E+01  0.14833786850E+03  0.12509315101E+03 0.  0.
          5    1    3    3  502    0 -0.24282819252E+02  0.30243967810E+02 -0.51791494838E+02  0.64839681039E+02  0.41800000000E+01 0.  1.
         -5    1    3    3    0  502  0.58618136528E+02  0.41134625409E+02  0.42735600747E+02  0.83498187458E+02  0.41800000000E+01 0.  1.
        -11    1    1    2    0    0  0.24142468418E+02 -0.54178491152E+01 -0.23344807732E+02  0.34017523696E+02  0.00000000000E+00 0.  1.
         11    1    1    2    0    0 -0.58477785694E+02 -0.65960744105E+02  0.20136496388E+02  0.90420958131E+02  0.00000000000E+00 0. -1.
</event>
<event>
 7    1  0.2480409E-009  0.1062947E+03  0.7561462E-02  0.1267590E+00
         -3   -1    0    0    0  501 -0.00000000000E+00  0.00000000000E+00  0.65966279516E+03  0.65966279516E+03  0.00000000000E+00 0.  1.
          3   -1    0    0  501    0  0.00000000000E+00 -0.00000000000E+00 -0.17735533101E+02  0.17735533101E+02  0.00000000000E+00 0. -1.
         25    2    1    2    0    0 -0.61964946738E+01  0.11487502281E+02  0.32311041137E+03  0.34672397331E+03  0.12508723546E+03 0.  0.
          5    1    3    3  502    0  0.58754605972E+02 -0.33816266531E+01  0.15295140866E+03  0.16393640515E+03  0.41800000000E+01 0.  1.
         -5    1    3    3    0  502 -0.64951100646E+02  0.14869128934E+02  0.17015900271E+03  0.18278756816E+03  0.41800000000E+01 0.  1.
        -11    1    1    2    0    0  0.44966760907E+02  0.38541082976E+01  0.18957724906E+03  0.19487533733E+03  0.00000000000E+00 0.  1.
         11    1    1    2    0    0 -0.38770266233E+02 -0.15341610578E+02  0.12923960163E+03  0.13579901762E+03  0.00000000000E+00 0. -1.
</event>
<event>
 7    1  0.2480409E-009  0.1507625E+03  0.7561462E-02  0.1199539E+00
          3   -1    0    0  501    0  0.00000000000E+00  0.00000000000E+00  0.17799594055E+03  0.17799594055E+03  0.00000000000E+00 0. -1.
         -3   -1    0    0    0  501 -0.00000000000E+00 -0.00000000000E+00 -0.17435073898E+03  0.17435073898E+03  0.00000000000E+00 0.  1.
         25    2    1    2    0    0  0.53384090087E+02  0.12521597889E+03 -0.27133111627E+02  0.18684730489E+03  0.12508719820E+03 0.  0.
          5    1    3    3  502    0 -0.22088934504E+02  0.54106835526E+01 -0.38311944853E+02  0.44749011637E+02  0.41800000000E+01 0. -1.
         -5    1    3    3    0  502  0.75473024591E+02  0.11980529534E+03  0.11178833226E+02  0.14209829325E+03  0.41800000000E+01 0. -1.
        -11    1    1    2    0    0 -0.37406404959E+01 -0.20726754870E+02  0.44277787742E+02  0.49031757526E+02  0.00000000000E+00 0. -1.
         11    1    1    2    0    0 -0.49643449591E+02 -0.10448922402E+03 -0.13499474549E+02  0.11646761712E+03  0.00000000000E+00 0.  1.
</event>
<event>
 7    1  0.2480409E-009  0.1210036E+03  0.7561462E-02  0.1241451E+00
          1   -1    0    0  501    0  0.00000000000E+00  0.00000000000E+00  0.55136883330E+03  0.55136883330E+03  0.00000000000E+00 0. -1.
         -1   -1    0    0    0  501 -0.00000000000E+00 -0.00000000000E+00 -0.28405723110E+02  0.28405723110E+02  0.00000000000E+00 0.  1.
         25    2    1    2    0    0  0.55477116602E+02  0.41433899470E+02  0.27052851105E+03  0.30598435440E+03  0.12508505649E+03 0.  0.
          5    1    3    3  502    0 -0.37607893671E+02  0.24399736102E+02  0.11959669714E+03  0.12779101359E+03  0.41800000000E+01 0.  1.
         -5    1    3    3    0  502  0.93085010274E+02  0.17034163369E+02  0.15093181391E+03  0.17819334081E+03  0.41800000000E+01 0.  1.
        -11    1    1    2    0    0 -0.17326297809E+02  0.22142233595E+02  0.40847642562E+02  0.49588395893E+02  0.00000000000E+00 0.  1.
         11    1    1    2    0    0 -0.38150818793E+02 -0.63576133065E+02  0.21158695658E+03  0.22420180611E+03  0.00000000000E+00 0. -1.
</event>
<event>
 7    1  0.2480409E-009  0.6965188E+02  0.7561462E-02  0.1361281E+00
          2   -1    0    0  501    0  0.00000000000E+00  0.00000000000E+00  0.33428535803E+03  0.33428535803E+03  0.00000000000E+00 0.  1.
         -2   -1    0    0    0  501 -0.00000000000E+00 -0.00000000000E+00 -0.47390615785E+02  0.47390615785E+02  0.00000000000E+00 0. -1.
         25    2    1    2    0    0  0.95460519116E+01  0.52386674366E+02  0.18608534077E+03  0.23046038618E+03  0.12509494312E+03 0.  0.
          5    1    3    3  502    0 -0.57944838766E+00  0.47318464452E+02  0.20366711419E+03  0.20913425984E+03  0.41800000000E+01 0.  1.
         -5    1    3    3    0  502  0.10125500299E+02  0.50682099143E+01 -0.17581773421E+02  0.21326126340E+02  0.41800000000E+01 0.  1.
        -11    1    1    2    0    0 -0.85629974774E+01  0.12325372564E+02  0.82643184834E+02  0.83994855403E+02  0.00000000000E+00 0.  1.
         11    1    1    2    0    0 -0.98305443422E+00 -0.64712046930E+02  0.18166216641E+02  0.67220732226E+02  0.00000000000E+00 0. -1.
</event>
<event>
 7    1  0.2480409E-009  0.1133442E+03  0.7561462E-02  0.1254499E+00
          1   -1    0    0  501    0  0.00000000000E+00  0.00000000000E+00  0.50410273937E+03  0.50410273937E+03  0.00000000000E+00 0. -1.
         -1   -1    0    0    0  501 -0.00000000000E+00 -0.00000000000E+00 -0.37990768132E+02  0.37990768132E+02  0.00000000000E+00 0.  1.
         25    2    1    2    0    0 -0.57179015812E+02 -0.61960119995E+02  0.30055124503E+03  0.33628511580E+03  0.12509249339E+03 0.  0.
          5    1    3    3  502    0 -0.38650518286E+02 -0.89058972858E+02  0.12863898613E+03  0.16121670001E+03  0.41800000000E+01 0. -1.
         -5    1    3    3    0  502 -0.18528497526E+02  0.27098852864E+02  0.17191225890E+03  0.17506841579E+03  0.41800000000E+01 0. -1.
        -11    1    1    2    0    0  0.57719372896E+02  0.31115418430E+02  0.40662147577E+02  0.77156370554E+02  0.00000000000E+00 0.  1.
         11    1    1    2    0    0 -0.54035708376E+00  0.30844701564E+02  0.12489857863E+03  0.12865202115E+03  0.00000000000E+00 0. -1.
</event>
<event>
 7    1  0.2480409E-009  0.1065629E+03  0.7561462E-02  0.1267071E+00
         -1   -1    0    0    0  501 -0.00000000000E+00  0.00000000000E+00  0.16312264475E+03  0.16312264475E+03  0.00000000000E+00 0.  1.
          1   -1    0    0  501    0  0.00000000000E+00 -0.00000000000E+00 -0.11842906268E+03  0.11842906268E+03  0.00000000000E+00 0. -1.
         25    2    1    2    0    0 -0.34135834865E+02 -0.52233782231E+02 -0.36091916886E+02  0.14437277904E+03  0.12508896688E+03 0.  0.
          5    1    3    3  502    0 -0.57375445152E+02 -0.12451015452E+02  0.28119581771E+02  0.65231532031E+02  0.41800000000E+01 0. -1.
         -5    1    3    3    0  502  0.23239610287E+02 -0.39782766778E+02 -0.64211498657E+02  0.79141247012E+02  0.41800000000E+01 0. -1.
        -11    1    1    2    0    0  0.59684356030E+02  0.12838777132E+02  0.60760254010E+02  0.86132833579E+02  0.00000000000E+00 0.  1.
         11    1    1    2    0    0 -0.25548521165E+02  0.39395005098E+02  0.20025244938E+02  0.51046094809E+02  0.00000000000E+00 0. -1.
</event>
<event>
 7    1  0.2480409E-009  0.7360010E+02  0.7561462E-02  0.1348262E+00
          1   -1    0    0  501    0  0.00000000000E+00  0.00000000000E+00  0.30291372405E+03  0.30291372405E+03  0.00000000000E+00 0. -1.
         -1   -1    0    0    0  501 -0.00000000000E+00 -0.00000000000E+00 -0.42965511003E+02  0.42965511003E+02  0.00000000000E+00 0.  1.
         25    2    1    2    0    0 -0.20651924745E+02 -0.82438173418E+01  0.16262490459E+03  0.20637220896E+03  0.12509263174E+03 0.  0.
          5    1    3    3  502    0  0.27049188411E+02  0.31651602939E+01  0.15394161401E+03  0.15638788239E+03  0.41800000000E+01 0. -1.
         -5    1    3    3    0  502 -0.47701113157E+02 -0.11408977636E+02  0.86832905755E+01  0.49984326566E+02  0.41800000000E+01 0. -1.
        -11    1    1    2    0    0  0.13743662627E+01 -0.28710265036E+02 -0.48590421377E+01  0.29150960388E+02  0.00000000000E+00 0.  1.
         11    1    1    2    0    0  0.19277558482E+02  0.36954082377E+02  0.10218235059E+03  0.11035606571E+03  0.00000000000E+00 0. -1.
</event>
<event>
 7    1  0.2480409E-009  0.1189785E+03  0.7561462E-02  0.1244792E+00
          1   -1    0    0  501    0  0.00000000000E+00  0.00000000000E+00  0.31076421708E+03  0.31076421708E+03  0.00000000000E+00 0. -1.
         -1   -1    0    0    0  501 -0.00000000000E+00 -0.00000000000E+00 -0.69914553250E+02  0.69914553250E+02  0.00000000000E+00 0.  1.
         25    2    1    2    0    0 -0.79487076260E+02 -0.13163400610E+02  0.59893596175E+02  0.16040112273E+03  0.12509918825E+03 0.  0.
          5    1    3    3  502    0  0.26007866397E+01 -0.50779785855E+02 -0.16528013616E+01  0.51044636300E+02  0.41800000000E+01 0. -1.
         -5    1    3    3    0  502 -0.82087862899E+02  0.37616385245E+02  0.61546397537E+02  0.10935648643E+03  0.41800000000E+01 0. -1.
        -11    1    1    2    0    0  0.42077895582E+02  0.33664836256E+02  0.16686734662E+03  0.17535273555E+03  0.00000000000E+00 0. -1.
         11    1    1    2    0    0  0.37409180678E+02 -0.20501435646E+02  0.14088721037E+02  0.44924912053E+02  0.00000000000E+00 0.  1.
</event>
<event>
 7    1  0.2480409E-009  0.2556788E+03  0.7561462E-02  0.1109768E+00
         -2   -1    0    0    0  501 -0.00000000000E+00  0.00000000000E+00  0.26349376235E+03  0.26349376235E+03  0.00000000000E+00 0.  1.
          2   -1    0    0  501    0  0.00000000000E+00 -0.00000000000E+00 -0.38169523329E+03  0.38169523329E+03  0.00000000000E+00 0. -1.
         25    2    1    2    0    0 -0.42302295996E+02  0.23193973673E+03 -0.24513736631E+03  0.36238946439E+03  0.12509304465E+03 0.  0.
          5    1    3    3  502    0  0.43655596061E+02  0.65139388409E+02 -0.84334044060E+02  0.11523304377E+03  0.41800000000E+01 0.  1.
         -5    1    3    3    0  502 -0.85957892057E+02  0.16680034832E+03 -0.16080332225E+03  0.24715642062E+03  0.41800000000E+01 0.  1.
        -11    1    1    2    0    0  0.82775125399E+00 -0.17336375556E+03  0.11967585431E+03  0.21066083409E+03  0.00000000000E+00 0.  1.
         11    1    1    2    0    0  0.41474544742E+02 -0.58575981173E+02  0.72600410549E+01  0.72138697161E+02  0.00000000000E+00 0. -1.
</event>
<event>
 7    1  0.2480409E-009  0.9063951E+02  0.7561462E-02  0.1301310E+00
         -1   -1    0    0    0  501 -0.00000000000E+00  0.00000000000E+00  0.72069620949E+03  0.72069620949E+03  0.00000000000E+00 0.  1.
          1   -1    0    0  501    0  0.00000000000E+00 -0.00000000000E+00 -0.18298226943E+02  0.18298226943E+02  0.00000000000E+00 0. -1.
         25    2    1    2    0    0  0.14922345555E+02  0.35225930530E+02  0.42530952886E+03  0.44497172331E+03  0.12509235241E+03 0.  0.
          5    1    3    3  502    0 -0.24274362543E+02 -0.26705474235E+02  0.45965525636E+02  0.58589495457E+02  0.41800000000E+01 0. -1.
         -5    1    3    3    0  502  0.39196708098E+02  0.61931404765E+02  0.37934400322E+03  0.38638222786E+03  0.41800000000E+01 0. -1.
        -11    1    1    2    0    0 -0.11922199957E+02  0.16149459937E+02  0.10775219279E+02  0.22782652581E+02  0.00000000000E+00 0. -1.
         11    1    1    2    0    0 -0.30001455983E+01 -0.51375390467E+02  0.26631323441E+03  0.27124006054E+03  0.00000000000E+00 0.  1.
</event>
<event>
 7    1  0.2480409E-009  0.1104243E+03  0.7561462E-02  0.1259786E+00
          2   -1    0    0  501    0  0.00000000000E+00  0.00000000000E+00  0.73188656346E+03  0.73188656346E+03  0.00000000000E+00 0. -1.
         -2   -1    0    0    0  501 -0.00000000000E+00 -0.00000000000E+00 -0.18900855077E+02  0.18900855077E+02  0.00000000000E+00 0.  1.
         25    2    1    2    0    0 -0.36255299837E+02 -0.74335275006E+01  0.48305354324E+03  0.50035785030E+03  0.12509016199E+03 0.  0.
          5    1    3    3  502    0  0.45684393590E+02 -0.12491789241E+02  0.15270756954E+03  0.15993805929E+03  0.41800000000E+01 0.  1.
         -5    1    3    3    0  502 -0.81939693427E+02  0.50582617399E+01  0.33034597370E+03  0.34041979101E+03  0.41800000000E+01 0.  1.
        -11    1    1    2    0    0  0.32928734956E+02 -0.35279261377E+02  0.17028278366E+03  0.17698913605E+03  0.00000000000E+00 0. -1.
         11    1    1    2    0    0  0.33265648815E+01  0.42712788878E+02  0.59649381477E+02  0.73440432177E+02  0.00000000000E+00 0.  1.
</event>
<event>
 7    1  0.2480409E-009  0.1124448E+03  0.7561462E-02  0.1256108E+00
          1   -1    0    0  501    0  0.00000000000E+00  0.00000000000E+00  0.17734855715E+03  0.17734855715E+03  0.00000000000E+00 0. -1.
         -1   -1    0    0    0  501 -0.00000000000E+00 -0.00000000000E+00 -0.76892784384E+02  0.76892784384E+02  0.00000000000E+00 0.  1.
         25    2    1    2    0    0  0.22682469986E+02 -0.34284621736E+02  0.55098600570E+02  0.14272283593E+03  0.12507606637E+03 0.  0.
          5    1    3    3  502    0  0.69611275164E+02 -0.68504273580E+01  0.53531825769E+02  0.88180421609E+02  0.41800000000E+01 0.  1.
         -5    1    3    3    0  502 -0.46928805178E+02 -0.27434194378E+02  0.15667748009E+01  0.54542414320E+02  0.41800000000E+01 0.  1.
        -11    1    1    2    0    0 -0.33288390635E+02  0.62138093832E+02  0.22626075439E+02  0.74035119679E+02  0.00000000000E+00 0.  1.
         11    1    1    2    0    0  0.10605920649E+02 -0.27853472096E+02  0.22731096756E+02  0.37483385924E+02  0.00000000000E+00 0. -1.
</event>
<event>
 7    1  0.2480409E-009  0.2740689E+03  0.7561462E-02  0.1098973E+00
         -3   -1    0    0    0  501 -0.00000000000E+00  0.00000000000E+00  0.36753228019E+03  0.36753228019E+03  0.00000000000E+00 0.  1.
          3   -1    0    0  501    0  0.00000000000E+00 -0.00000000000E+00 -0.26038308536E+03  0.26038308536E+03  0.00000000000E+00 0. -1.
         25    2    1    2    0    0 -0.26526483754E+03 -0.47955336462E+02 -0.54165064927E+02  0.30207103052E+03  0.12509158600E+03 0.  0.
          5    1    3    3  502    0 -0.98025298272E+01  0.90912634313E+01  0.24929861665E+02  0.28595647649E+02  0.41800000000E+01 0. -1.
         -5    1    3    3    0  502 -0.25546230771E+03 -0.57046599893E+02 -0.79094926592E+02  0.27347538287E+03  0.41800000000E+01 0. -1.
        -11    1    1    2    0    0  0.94912702168E+02 -0.16091986927E+01  0.15473266252E+02  0.96179168856E+02  0.00000000000E+00 0. -1.
         11    1    1    2    0    0  0.17035213537E+03  0.49564535154E+02  0.14584099350E+03  0.22966516618E+03  0.00000000000E+00 0.  1.
</event>
<event>
 7    1  0.2480409E-009  0.1129669E+03  0.7561462E-02  0.1255172E+00
          1   -1    0    0  501    0  0.00000000000E+00  0.00000000000E+00  0.94927798518E+03  0.94927798518E+03  0.00000000000E+00 0. -1.
         -1   -1    0    0    0  501 -0.00000000000E+00 -0.00000000000E+00 -0.28991566001E+02  0.28991566001E+02  0.00000000000E+00 0.  1.
         25    2    1    2    0    0  0.55813525247E+02  0.66657447482E+02  0.73204547335E+03  0.74772659934E+03  0.12508448107E+03 0.  0.
          5    1    3    3  502    0  0.66143688220E+02  0.67681849194E+02  0.73027914414E+03  0.73639725758E+03  0.41800000000E+01 0.  1.
         -5    1    3    3    0  502 -0.10330162973E+02 -0.10244017124E+01  0.17663292106E+01  0.11329341764E+02  0.41800000000E+01 0.  1.
        -11    1    1    2    0    0 -0.39697611993E+02  0.10605390547E+02  0.22212156420E+02  0.46709256036E+02  0.00000000000E+00 0.  1.
         11    1    1    2    0    0 -0.16115913254E+02 -0.77262838030E+02  0.16602878941E+03  0.18383369580E+03  0.00000000000E+00 0. -1.
</event>
<event>
 7    1  0.2480409E-009  0.1171192E+03  0.7561462E-02  0.1247927E+00
          1   -1    0    0  501    0  0.00000000000E+00  0.00000000000E+00  0.18906762274E+03  0.18906762274E+03  0.00000000000E+00 0. -1.
         -1   -1    0    0    0  501 -0.00000000000E+00 -0.00000000000E+00 -0.34075520209E+03  0.34075520209E+03  0.00000000000E+00 0.  1.
         25    2    1    2    0    0  0.24791658882E+02  0.53980946163E+02 -0.30982491272E+03  0.33936569838E+03  0.12509609026E+03 0.  0.
          5    1    3    3  502    0 -0.23382999808E+02  0.72517433630E+02 -0.24374537670E+03  0.25541108809E+03  0.41800000000E+01 0.  1.
         -5    1    3    3    0  502  0.48174658690E+02 -0.18536487467E+02 -0.66079536027E+02  0.83954610291E+02  0.41800000000E+01 0.  1.
        -11    1    1    2    0    0  0.19316917223E+02 -0.58686617566E+02  0.92435951023E+02  0.11118303564E+03  0.00000000000E+00 0. -1.
         11    1    1    2    0    0 -0.44108576105E+02  0.47056714036E+01  0.65701382358E+02  0.79274090806E+02  0.00000000000E+00 0.  1.
</event>
<event>
 7    1  0.2480409E-009  0.7015643E+02  0.7561462E-02  0.1359562E+00
         -1   -1    0    0    0  501 -0.00000000000E+00  0.00000000000E+00  0.34224944763E+02  0.34224944763E+02  0.00000000000E+00 0.  1.
          1   -1    0    0  501    0  0.00000000000E+00 -0.00000000000E+00 -0.43419970869E+03  0.43419970869E+03  0.00000000000E+00 0. -1.
         25    2    1    2    0    0 -0.13689771211E+02  0.19774305524E+02 -0.31917985331E+03  0.34365937114E+03  0.12509017394E+03 0.  0.
          5    1    3    3  502    0  0.26599927021E+02 -0.21216424305E+02 -0.25544265679E+03  0.25773264458E+03  0.41800000000E+01 0. -1.
         -5    1    3    3    0  502 -0.40289698231E+02  0.40990729828E+02 -0.63737196522E+02  0.85926726552E+02  0.41800000000E+01 0. -1.
        -11    1    1    2    0    0 -0.14541717176E+02 -0.11587823484E+01  0.16344684115E+02  0.21907829965E+02  0.00000000000E+00 0.  1.
         11    1    1    2    0    0  0.28231488386E+02 -0.18615523175E+02 -0.97139594732E+02  0.10285745235E+03  0.00000000000E+00 0. -1.
</event>
<event>
 7    1  0.2480409E-009  0.1188923E+03  0.7561462E-02  0.1244936E+00
         -1   -1    0    0    0  501 -0.00000000000E+00  0.00000000000E+00  0.59807866145E+02  0.59807866145E+02  0.00000000000E+00 0.  1.
          1   -1    0    0  501    0  0.00000000000E+00 -0.00000000000E+00 -0.35346698244E+03  0.35346698244E+03  0.00000000000E+00 0. -1.
         25    2    1    2    0    0  0.94343948681E+02  0.12230568661E+02 -0.14456031533E+03  0.21353712011E+03  0.12510015762E+03 0.  0.
          5    1    3    3  502    0  0.34579858389E+02  0.57728710081E+02 -0.24265768979E+02  0.71656615312E+02  0.41800000000E+01 0.  1.
         -5    1    3    3    0  502  0.59764090292E+02 -0.45498141420E+02 -0.12029454635E+03  0.14188050480E+03  0.41800000000E+01 0.  1.
        -11    1    1    2    0    0 -0.41748646355E+02 -0.54087026657E+01 -0.65344381815E+00  0.42102618990E+02  0.00000000000E+00 0.  1.
         11    1    1    2    0    0 -0.52595302326E+02 -0.68218659957E+01 -0.14844535715E+03  0.15763510948E+03  0.00000000000E+00 0. -1.
</event>
<event>
 7    1  0.2480409E-009  0.1177410E+03  0.7561462E-02  0.1246871E+00
          1   -1    0    0  501    0  0.00000000000E+00  0.00000000000E+00  0.21092911905E+03  0.21092911905E+03  0.00000000000E+00 0. -1.
         -1   -1    0    0    0  501 -0.00000000000E+00 -0.00000000000E+00 -0.82347085068E+02  0.82347085068E+02  0.00000000000E+00 0.  1.
         25    2    1    2    0    0 -0.19097349028E+02  0.55913993779E+02  0.12309478440E+03  0.18517989941E+03  0.12509270866E+03 0.  0.
          5    1    3    3  502    0 -0.93675113851E+01  0.94405695506E+02  0.10430447310E+03  0.14105701373E+03  0.41800000000E+01 0. -1.
         -5    1    3    3    0  502 -0.97298376425E+01 -0.38491701727E+02  0.18790311298E+02  0.44122885684E+02  0.41800000000E+01 0. -1.
        -11    1    1    2    0    0  0.12290493424E+02  0.20489345403E+02  0.18597990505E+02  0.30277958228E+02  0.00000000000E+00 0.  1.
         11    1    1    2    0    0  0.68068556032E+01 -0.76403339182E+02 -0.13110740919E+02  0.77818346479E+02  0.00000000000E+00 0. -1.
</event>
<event>
 7    1  0.2480409E-009  0.7166505E+02  0.7561462E-02  0.1354521E+00
          2   -1    0    0  501    0  0.00000000000E+00  0.00000000000E+00  0.53622178600E+03  0.53622178600E+03  0.00000000000E+00 0. -1.
         -2   -1    0    0    0  501 -0.00000000000E+00 -0.00000000000E+00 -0.29113141697E+02  0.29113141697E+02  0.00000000000E+00 0.  1.
         25    2    1    2    0    0 -0.40222155331E+02  0.86772542035E+01  0.17960918025E+03  0.22271100320E+03  0.12509043447E+03 0.  0.
          5    1    3    3  502    0 -0.39376893191E+02  0.15944470924E+02  0.19796418247E+03  0.20251433483E+03  0.41800000000E+01 0. -1.
         -5    1    3    3    0  502 -0.84526214030E+00 -0.72672167204E+01 -0.18355002216E+02  0.20196668371E+02  0.41800000000E+01 0. -1.
        -11    1    1    2    0    0  0.15994182727E+02  0.37112302585E+02  0.78487391521E+02  0.88280278160E+02  0.00000000000E+00 0.  1.
         11    1    1    2    0    0  0.24227972604E+02 -0.45789556789E+02  0.24901207253E+03  0.25434364634E+03  0.00000000000E+00 0. -1.
</event>
<event>
 7    1  0.2480409E-009  0.8684114E+02  0.7561462E-02  0.1310687E+00
          1   -1    0    0  501    0  0.00000000000E+00  0.00000000000E+00  0.62430215014E+02  0.62430215014E+02  0.00000000000E+00 0. -1.
         -1   -1    0    0    0  501 -0.00000000000E+00 -0.00000000000E+00 -0.27005675032E+03  0.27005675032E+03  0.00000000000E+00 0.  1.
         25    2    1    2    0    0 -0.26406367758E+02  0.20142899594E+02 -0.19591041070E+03  0.23480041596E+03  0.12508922277E+03 0.  0.
          5    1    3    3  502    0 -0.76137235835E+02  0.18884864897E+01 -0.11418843396E+03  0.13732048614E+03  0.41800000000E+01 0. -1.
         -5    1    3    3    0  502  0.49730868077E+02  0.18254413104E+02 -0.81721976735E+02  0.97479929826E+02  0.41800000000E+01 0. -1.
        -11    1    1    2    0    0  0.10981903320E+01 -0.18896307825E+02  0.37681926474E+02  0.42168756849E+02  0.00000000000E+00 0. -1.
         11    1    1    2    0    0  0.25308177426E+02 -0.12465917682E+01 -0.49398051080E+02  0.55517792519E+02  0.00000000000E+00 0.  1.
</event>
<event>
 7    1  0.2480409E-009  0.1084286E+03  0.7561462E-02  0.1263508E+00
          1   -1    0    0  501    0  0.00000000000E+00  0.00000000000E+00  0.69290749768E+03  0.69290749768E+03  0.00000000000E+00 0. -1.
         -1   -1    0    0    0  501 -0.00000000000E+00 -0.00000000000E+00 -0.26999219361E+02  0.26999219361E+02  0.00000000000E+00 0.  1.
         25    2    1    2    0    0  0.52611849953E+02  0.60958821315E+02  0.42818094996E+03  0.45328838567E+03  0.12508976787E+03 0.  0.
          5    1    3    3  502    0  0.41782799056E+02 -0.64168338919E+01  0.37477238291E+02  0.56647981818E+02  0.41800000000E+01 0. -1.
         -5    1    3    3    0  502  0.10829050897E+02  0.67375655207E+02  0.39070371167E+03  0.39664040385E+03  0.41800000000E+01 0. -1.
        -11    1    1    2    0    0 -0.25659651779E+02 -0.72338026940E+02  0.21855271613E+03  0.23163872215E+03  0.00000000000E+00 0.  1.
         11    1    1    2    0    0 -0.26952198174E+02  0.11379205625E+02  0.19174612231E+02  0.34979609221E+02  0.00000000000E+00 0. -1.
</event>
<event>
 7    1  0.2480409E-009  0.1274343E+03  0.7561462E-02  0.1231313E+00
          2   -1    0    0  501    0  0.00000000000E+00  0.00000000000E+00  0.19926932718E+04  0.19926932718E+04  0.00000000000E+00 0. -1.
         -2   -1    0    0    0  501 -0.00000000000E+00 -0.00000000000E+00 -0.12178413616E+02  0.12178413616E+02  0.00000000000E+00 0.  1.
         25    2    1    2    0    0 -0.88421940943E+02 -0.30442064632E+02  0.14354341606E+04  0.14439055369E+04  0.12508721424E+03 0.  0.
          5    1    3    3  502    0 -0.81641483021E+02 -0.54649254090E+02  0.13723505212E+04  0.13758689248E+04  0.41800000000E+01 0. -1.
         -5    1    3    3    0  502 -0.67804579226E+01  0.24207189458E+02  0.63083639395E+02  0.68036612132E+02  0.41800000000E+01 0. -1.
        -11    1    1    2    0    0  0.85183215339E+02 -0.14142963217E+02  0.39715052611E+03  0.40642926073E+03  0.00000000000E+00 0. -1.
         11    1    1    2    0    0  0.32387256041E+01  0.44585027849E+02  0.14793017143E+03  0.15453688774E+03  0.00000000000E+00 0.  1.
</event>
<event>
 7    1  0.2480409E-009  0.7900558E+02  0.7561462E-02  0.1331897E+00
         -1   -1    0    0    0  501 -0.00000000000E+00  0.00000000000E+00  0.16719898401E+03  0.16719898401E+03  0.00000000000E+00 0.  1.
          1   -1    0    0  501    0  0.00000000000E+00 -0.00000000000E+00 -0.12982812069E+03  0.12982812069E+03  0.00000000000E+00 0. -1.
         25    2    1    2    0    0  0.79524310737E+01 -0.28059366226E+02  0.11523730174E+03  0.17256730769E+03  0.12509704544E+03 0.  0.
          5    1    3    3  502    0 -0.46104018654E+02  0.67044861197E+01  0.93577206756E+02  0.10461690444E+03  0.41800000000E+01 0.  1.
         -5    1    3    3    0  502  0.54056449727E+02 -0.34763852346E+02  0.21660094987E+02  0.67950403250E+02  0.41800000000E+01 0.  1.
        -11    1    1    2    0    0 -0.22321993725E+02  0.21645283488E+02  0.11923746512E+02  0.33301132593E+02  0.00000000000E+00 0.  1.
         11    1    1    2    0    0  0.14369562651E+02  0.64140827384E+01 -0.89790184930E+02  0.91158664415E+02  0.00000000000E+00 0. -1.
</event>
<event>
 7    1  0.2480409E-009  0.8817246E+02  0.7561462E-02  0.1307339E+00
         -4   -1    0    0    0  501 -0.00000000000E+00  0.00000000000E+00  0.10208133848E+03  0.10208133848E+03  0.00000000000E+00 0.  1.
          4   -1    0    0  501    0  0.00000000000E+00 -0.00000000000E+00 -0.12049347501E+03  0.12049347501E+03  0.00000000000E+00 0. -1.
         25    2    1    2    0    0  0.30733770278E+02  0.17884968334E+01 -0.15137585335E+02  0.12970591827E+03  0.12508683139E+03 0.  0.
          5    1    3    3  502    0  0.62866126416E+01  0.61345798558E+02 -0.20114171729E+02  0.64999083098E+02  0.41800000000E+01 0. -1.
         -5    1    3    3    0  502  0.24447157636E+02 -0.59557301725E+02  0.49765863944E+01  0.64706835167E+02  0.41800000000E+01 0. -1.
        -11    1    1    2    0    0  0.59084684212E+01 -0.10778956305E+02  0.36220185237E+02  0.38249153150E+02  0.00000000000E+00 0.  1.
         11    1    1    2    0    0 -0.36642238699E+02  0.89904594720E+01 -0.39494736435E+02  0.54619742076E+02  0.00000000000E+00 0. -1.
</event>
<event>
 7    1  0.2480409E-009  0.1920510E+03  0.7561462E-02  0.1156624E+00
         -2   -1    0    0    0  501 -0.00000000000E+00  0.00000000000E+00  0.25588110599E+02  0.25588110599E+02  0.00000000000E+00 0.  1.
          2   -1    0    0  501    0  0.00000000000E+00 -0.00000000000E+00 -0.15154970929E+04  0.15154970929E+04  0.00000000000E+00 0. -1.
         25    2    1    2    0    0  0.16602506924E+02 -0.16025703977E+03 -0.94384594946E+03  0.96563456263E+03  0.12508784995E+03 0.  0.
          5    1    3    3  502    0  0.70723078176E+02 -0.86164368979E+02 -0.55338425609E+03  0.56451542013E+03  0.41800000000E+01 0. -1.
         -5    1    3    3    0  502 -0.54120571252E+02 -0.74092670788E+02 -0.39046169336E+03  0.40111914250E+03  0.41800000000E+01 0. -1.
        -11    1    1    2    0    0  0.32775921009E+02  0.80242472600E+02 -0.23436911911E+03  0.24988397187E+03  0.00000000000E+00 0. -1.
         11    1    1    2    0    0 -0.49378427934E+02  0.80014567167E+02 -0.31169391378E+03  0.32556666904E+03  0.00000000000E+00 0.  1.
</event>
<event>
 7    1  0.2480409E-009  0.1475075E+03  0.7561462E-02  0.1203570E+00
         -1   -1    0    0    0  501 -0.00000000000E+00  0.00000000000E+00  0.28721438853E+02  0.28721438853E+02  0.00000000000E+00 0.  1.
          1   -1    0    0  501    0  0.00000000000E+00 -0.00000000000E+00 -0.12060858588E+04  0.12060858588E+04  0.00000000000E+00 0. -1.
         25    2    1    2    0    0  0.11124296803E+03  0.44152474420E+02 -0.92502741379E+03  0.94108852995E+03  0.12508983174E+03 0.  0.
          5    1    3    3  502    0 -0.23570049501E+02  0.28558476946E+02 -0.21148739638E+03  0.21474525622E+03  0.41800000000E+01 0. -1.
         -5    1    3    3    0  502  0.13481301753E+03  0.15593997474E+02 -0.71354001741E+03  0.72634327373E+03  0.41800000000E+01 0. -1.
        -11    1    1    2    0    0 -0.47847805769E+02 -0.31622313302E+02 -0.20695145052E+03  0.21475168472E+03  0.00000000000E+00 0. -1.
         11    1    1    2    0    0 -0.63395162262E+02 -0.12530161118E+02 -0.45385555642E+02  0.78967082995E+02  0.00000000000E+00 0.  1.
</event>
<event>
 7    1  0.2480409E-009  0.1842939E+03  0.7561462E-02  0.1163711E+00
         -3   -1    0    0    0  501 -0.00000000000E+00  0.00000000000E+00  0.10479727109E+03  0.10479727109E+03  0.00000000000E+00 0.  1.
          3   -1    0    0  501    0  0.00000000000E+00 -0.00000000000E+00 -0.36124508090E+03  0.36124508090E+03  0.00000000000E+00 0. -1.
         25    2    1    2    0    0 -0.98417377147E+02 -0.11186988090E+03 -0.20807789995E+03  0.28486007769E+03  0.12509197031E+03 0.  0.
          5    1    3    3  502    0  0.30050319399E+02 -0.21465831232E+02 -0.45500816694E+02  0.58750321925E+02  0.41800000000E+01 0.  1.
         -5    1    3    3    0  502 -0.12846769655E+03 -0.90404049669E+02 -0.16257708326E+03  0.22610975577E+03  0.41800000000E+01 0.  1.
        -11    1    1    2    0    0  0.12300141504E+02  0.82317131675E+02 -0.17556710341E+02  0.85062575356E+02  0.00000000000E+00 0.  1.
         11    1    1    2    0    0  0.86117235643E+02  0.29552749225E+02 -0.30813199518E+02  0.96119698950E+02  0.00000000000E+00 0. -1.
</event>
<event>
 7    1  0.2480409E-009  0.1041469E+03  0.7561462E-02  0.1271810E+00
          3   -1    0    0  501    0  0.00000000000E+00  0.00000000000E+00  0.76301567709E+02  0.76301567709E+02  0.00000000000E+00 0. -1.
         -3   -1    0    0    0  501 -0.00000000000E+00 -0.00000000000E+00 -0.17248029650E+03  0.17248029650E+03  0.00000000000E+00 0.  1.
         25    2    1    2    0    0 -0.36625175037E+02 -0.12513396090E+02 -0.36291591639E+02  0.13587394601E+03  0.12508661420E+03 0.  0.
          5    1    3    3  502    0 -0.85321480376E+01  0.55963799396E+02 -0.14091255514E+02  0.58487436898E+02  0.41800000000E+01 0.  1.
         -5    1    3    3    0  502 -0.28093026999E+02 -0.68477195486E+02 -0.22200336125E+02  0.77386509107E+02  0.41800000000E+01 0.  1.
        -11    1    1    2    0    0  0.56487557434E+02  0.10160782156E+02 -0.69978967819E+02  0.90504925699E+02  0.00000000000E+00 0.  1.
         11    1    1    2    0    0 -0.19862382397E+02  0.23526139340E+01  0.10091830669E+02  0.22402992503E+02  0.00000000000E+00 0. -1.
</event>
<event>
 7    1  0.2480409E-009  0.1504232E+03  0.7561462E-02  0.1199954E+00
         -2   -1    0    0    0  501 -0.00000000000E+00  0.00000000000E+00  0.10748335453E+03  0.10748335453E+03  0.00000000000E+00 0.  1.
          2   -1    0    0  501    0  0.00000000000E+00 -0.00000000000E+00 -0.26600949665E+03  0.26600949665E+03  0.00000000000E+00 0. -1.
         25    2    1    2    0    0  0.88438572179E+02 -0.92102575242E+02 -0.62784569565E+02  0.18945283719E+03  0.12508481094E+03 0.  0.
          5    1    3    3  502    0  0.14110461299E+02 -0.79690655738E+02 -0.77981802576E+02  0.11246483745E+03  0.41800000000E+01 0. -1.
         -5    1    3    3    0  502  0.74328110879E+02 -0.12411919504E+02  0.15197233011E+02  0.76987999739E+02  0.41800000000E+01 0. -1.
        -11    1    1    2    0    0 -0.89234810038E+01  0.56522424979E+02 -0.37468836250E+01  0.57345027471E+02  0.00000000000E+00 0.  1.
         11    1    1    2    0    0 -0.79515091175E+02  0.35580150263E+02 -0.91994688935E+02  0.12669498652E+03  0.00000000000E+00 0. -1.
</event>
<event>
 7    1  0.2480409E-009  0.1402584E+03  0.7561462E-02  0.1212982E+00
          1   -1    0    0  501    0  0.00000000000E+00  0.00000000000E+00  0.56412860878E+02  0.56412860878E+02  0.00000000000E+00 0. -1.
         -1   -1    0    0    0  501 -0.00000000000E+00 -0.00000000000E+00 -0.39393733486E+03  0.39393733486E+03  0.00000000000E+00 0.  1.
         25    2    1    2    0    0 -0.34860808804E+02 -0.93637469513E+02 -0.18517014438E+03  0.24478318714E+03  0.12509026601E+03 0.  0.
          5    1    3    3  502    0 -0.17470720401E+02  0.29117721476E+02 -0.25944260715E+02  0.42937685538E+02  0.41800000000E+01 0.  1.
         -5    1    3    3    0  502 -0.17390088403E+02 -0.12275519099E+03 -0.15922588366E+03  0.20184550160E+03  0.41800000000E+01 0.  1.
        -11    1    1    2    0    0 -0.20680023268E+02  0.40052723856E+02 -0.10686419693E+03  0.11598207032E+03  0.00000000000E+00 0.  1.
         11    1    1    2    0    0  0.55540832073E+02  0.53584745656E+02 -0.45490132670E+02  0.89584938269E+02  0.00000000000E+00 0. -1.
</event>
<event>
 7    1  0.2480409E-009  0.1860271E+03  0.7561462E-02  0.1162094E+00
         -1   -1    0    0    0  501 -0.00000000000E+00  0.00000000000E+00  0.44861577034E+03  0.44861577034E+03  0.00000000000E+00 0.  1.
          1   -1    0    0  501    0  0.00000000000E+00 -0.00000000000E+00 -0.10311424838E+03  0.10311424838E+03  0.00000000000E+00 0. -1.
         25    2    1    2    0    0 -0.18012095392E+03 -0.39155100935E+02  0.15380990929E+03  0.27070787828E+03  0.12509431320E+03 0.  0.
          5    1    3    3  502    0 -0.86017682432E+02 -0.31062457054E+02  0.16459209180E+01  0.91564727842E+02  0.41800000000E+01 0. -1.
         -5    1    3    3    0  502 -0.94103271490E+02 -0.80926438815E+01  0.15216398837E+03  0.17914315043E+03  0.41800000000E+01 0. -1.
        -11    1    1    2    0    0  0.41943481959E+02 -0.13627710111E+01  0.88046168298E+00  0.41974850047E+02  0.00000000000E+00 0. -1.
         11    1    1    2    0    0  0.13817747196E+03  0.40517871946E+02  0.19081115098E+03  0.23904729039E+03  0.00000000000E+00 0.  1.
</event>
<event>
 7    1  0.2480409E-009  0.1091340E+03  0.7561462E-02  0.1262182E+00
          1   -1    0    0  501    0  0.00000000000E+00  0.00000000000E+00  0.19863643066E+02  0.19863643066E+02  0.00000000000E+00 0. -1.
         -1   -1    0    0    0  501 -0.00000000000E+00 -0.00000000000E+00 -0.11127972650E+04  0.11127972650E+04  0.00000000000E+00 0.  1.
         25    2    1    2    0    0  0.63222459614E+02  0.58072770179E+02 -0.80128457515E+03  0.81552056490E+03  0.12508914966E+03 0.  0.
          5    1    3    3  502    0  0.28559173138E+02 -0.16666932264E+02 -0.52371093381E+02  0.62077506581E+02  0.41800000000E+01 0. -1.
         -5    1    3    3    0  502  0.34663286476E+02  0.74739702442E+02 -0.74891348177E+03  0.75344305832E+03  0.41800000000E+01 0. -1.
        -11    1    1    2    0    0  0.11686104285E+01 -0.33507110115E+02 -0.19825973923E+03  0.20107465349E+03  0.00000000000E+00 0.  1.
         11    1    1    2    0    0 -0.64391070042E+02 -0.24565660064E+02 -0.93389307593E+02  0.11606568971E+03  0.00000000000E+00 0. -1.
</event>
<event>
 7    1  0.2480409E-009  0.9426939E+02  0.7561462E-02  0.1292830E+00
          1   -1    0    0  501    0  0.00000000000E+00  0.00000000000E+00  0.86239011142E+03  0.86239011142E+03  0.00000000000E+00 0. -1.
         -1   -1    0    0    0  501 -0.00000000000E+00 -0.00000000000E+00 -0.32268714805E+02  0.32268714805E+02  0.00000000000E+00 0.  1.
         25    2    1    2    0    0 -0.17078580963E+02 -0.35954665164E+02  0.76489821295E+03  0.77608033358E+03  0.12508793751E+03 0.  0.
          5    1    3    3  502    0 -0.67435962105E+02 -0.23333458428E+01  0.32018175928E+03  0.32724132512E+03  0.41800000000E+01 0. -1.
         -5    1    3    3    0  502  0.50357381142E+02 -0.33621319321E+02  0.44471645367E+03  0.44883900846E+03  0.41800000000E+01 0. -1.
        -11    1    1    2    0    0 -0.31015834624E+01  0.39609634215E+02 -0.97010885074E+01  0.40898093609E+02  0.00000000000E+00 0.  1.
         11    1    1    2    0    0  0.20180164425E+02 -0.36549690513E+01  0.74924272171E+02  0.77680399042E+02  0.00000000000E+00 0. -1.
</event>
<event>
 7    1  0.2480409E-009  0.1451210E+03  0.7561462E-02  0.1206600E+00
         -1   -1    0    0    0  501 -0.00000000000E+00  0.00000000000E+00  0.78113221418E+02  0.78113221418E+02  0.00000000000E+00 0.  1.
          1   -1    0    0  501    0  0.00000000000E+00 -0.00000000000E+00 -0.55484545070E+03  0.55484545070E+03  0.00000000000E+00 0. -1.
         25    2    1    2    0    0  0.29333539078E+02 -0.98188977703E+02 -0.28106810883E+02  0.16413229137E+03  0.12509150408E+03 0.  0.
          5    1    3    3  502    0 -0.41117725299E+02 -0.63191640054E+02 -0.38358835203E+02  0.84691931992E+02  0.41800000000E+01 0.  1.
         -5    1    3    3    0  502  0.70451264377E+02 -0.34997337649E+02  0.10252024320E+02  0.79440359375E+02  0.41800000000E+01 0.  1.
        -11    1    1    2    0    0 -0.67609128945E+01 -0.17148569313E+02 -0.69484377747E+02  0.71887844060E+02  0.00000000000E+00 0. -1.
         11    1    1    2    0    0 -0.22572626184E+02  0.11533754702E+03 -0.37914104065E+03  0.39693853669E+03  0.00000000000E+00 0.  1.
</event>
<event>
 7    1  0.2480409E-009  0.2278035E+03  0.7561462E-02  0.1128195E+00
         -2   -1    0    0    0  501 -0.00000000000E+00  0.00000000000E+00  0.81917768804E+03  0.81917768804E+03  0.00000000000E+00 0.  1.
          2   -1    0    0  501    0  0.00000000000E+00 -0.00000000000E+00 -0.76576739749E+02  0.76576739749E+02  0.00000000000E+00 0. -1.
         25    2    1    2    0    0  0.10641669713E+03 -0.19817693201E+03  0.40759609313E+03  0.48206059534E+03  0.12509689299E+03 0.  0.
          5    1    3    3  502    0  0.35961700877E+02 -0.31957351731E+02  0.20523836793E+03  0.21084301347E+03  0.41800000000E+01 0. -1.
         -5    1    3    3    0  502  0.70454996252E+02 -0.16621958028E+03  0.20235772520E+03  0.27121758186E+03  0.41800000000E+01 0. -1.
        -11    1    1    2    0    0 -0.26904491998E+02  0.79093511654E+02  0.20062327644E+03  0.21732311043E+03  0.00000000000E+00 0.  1.
         11    1    1    2    0    0 -0.79512205131E+02  0.11908342036E+03  0.13438157871E+03  0.19637072202E+03  0.00000000000E+00 0. -1.
</event>
<event>
 7    1  0.2857648E-009  0.1282748E+03  0.7561462E-02  0.1230038E+00
          2   -1    0    0  501    0  0.00000000000E+00  0.00000000000E+00  0.40193715577E+03  0.40193715577E+03  0.00000000000E+00 0. -1.
         -2   -1    0    0    0  501 -0.00000000000E+00 -0.00000000000E+00 -0.69094591761E+02  0.69094591761E+02  0.00000000000E+00 0.  1.
         25    2    1    2    0    0 -0.19126056454E+02  0.10765860022E+03  0.26614336895E+03  0.31374510578E+03  0.12509004090E+03 0.  0.
          5    1    3    3  502    0 -0.54828389583E+02  0.33513347794E+02  0.47291780903E+02  0.79895442458E+02  0.41800000000E+01 0.  1.
         -5    1    3    3    0  502  0.35702333128E+02  0.74145252423E+02  0.21885158804E+03  0.23384966332E+03  0.41800000000E+01 0.  1.
        -11    1    1    2    0    0  0.98415646104E+01 -0.79459072560E+02 -0.44519938054E+01  0.80189904944E+02  0.00000000000E+00 0.  1.
         11    1    1    2    0    0  0.92844918440E+01 -0.28199527657E+02  0.71151188873E+02  0.77096736811E+02  0.00000000000E+00 0. -1.
</event>
<event>
 7    1  0.2480409E-009  0.9742308E+02  0.7561462E-02  0.1285810E+00
          3   -1    0    0  501    0  0.00000000000E+00  0.00000000000E+00  0.39261964151E+02  0.39261964151E+02  0.00000000000E+00 0. -1.
         -3   -1    0    0    0  501 -0.00000000000E+00 -0.00000000000E+00 -0.38709702049E+03  0.38709702049E+03  0.00000000000E+00 0.  1.
         25    2    1    2    0    0 -0.16706871539E+02  0.20135504208E+02 -0.28573400641E+03  0.31301120707E+03  0.12509010851E+03 0.  0.
          5    1    3    3  502    0  0.42423853487E+01  0.64224985202E+02 -0.86848167397E+02  0.10818004963E+03  0.41800000000E+01 0. -1.
         -5    1    3    3    0  502 -0.20949256887E+02 -0.44089480994E+02 -0.19888583902E+03  0.20483115744E+03  0.41800000000E+01 0. -1.
        -11    1    1    2    0    0 -0.31055977351E+02 -0.75601396854E+01 -0.54772393506E+02  0.63416437393E+02  0.00000000000E+00 0.  1.
         11    1    1    2    0    0  0.47762848889E+02 -0.12575364522E+02 -0.73286564216E+01  0.49931340177E+02  0.00000000000E+00 0. -1.
</event>
<event>
 7    1  0.2480409E-009  0.9730019E+02  0.7561462E-02  0.1286078E+00
          1   -1    0    0  501    0  0.00000000000E+00  0.00000000000E+00  0.38502547250E+03  0.38502547250E+03  0.00000000000E+00 0. -1.
         -1   -1    0    0    0  501 -0.00000000000E+00 -0.00000000000E+00 -0.70093236697E+02  0.70093236697E+02  0.00000000000E+00 0.  1.
         25    2    1    2    0    0  0.54074776972E+02 -0.50869563063E+02  0.31002337738E+02  0.14872945043E+03  0.12509000971E+03 0.  0.
          5    1    3    3  502    0  0.48052834002E+02 -0.54461783271E+02 -0.36042642632E+02  0.81189316911E+02  0.41800000000E+01 0. -1.
         -5    1    3    3    0  502  0.60219429700E+01  0.35922202076E+01  0.67044980370E+02  0.67540133521E+02  0.41800000000E+01 0. -1.
        -11    1    1    2    0    0 -0.40432418913E+02 -0.17436146463E+02  0.87083849494E+02  0.97582767666E+02  0.00000000000E+00 0. -1.
         11    1    1    2    0    0 -0.13642358059E+02  0.68305709525E+02  0.19684604857E+03  0.20880649110E+03  0.00000000000E+00 0.  1.
</event>
<event>
 7    1  0.2480409E-009  0.1652947E+03  0.7561462E-02  0.1182845E+00
         -1   -1    0    0    0  501 -0.00000000000E+00  0.00000000000E+00  0.46371425111E+02  0.46371425111E+02  0.00000000000E+00 0.  1.
          1   -1    0    0  501    0  0.00000000000E+00 -0.00000000000E+00 -0.74472933174E+03  0.74472933174E+03  0.00000000000E+00 0. -1.
         25    2    1    2    0    0  0.53612159365E+02  0.12863451551E+03 -0.24497159787E+03  0.30835000273E+03  0.12509012036E+03 0.  0.
          5    1    3    3  502    0  0.93419307459E+02  0.73171135825E+02 -0.14984353895E+03  0.19118509537E+03  0.41800000000E+01 0. -1.
         -5    1    3    3    0  502 -0.39807148095E+02  0.55463379684E+02 -0.95128058915E+02  0.11716490737E+03  0.41800000000E+01 0. -1.
        -11    1    1    2    0    0  0.27822497259E+01 -0.27650183114E+02 -0.20112944873E+02  0.34304578283E+02  0.00000000000E+00 0.  1.
         11    1    1    2    0    0 -0.56394409091E+02 -0.10098433240E+03 -0.43327336389E+03  0.44844617584E+03  0.00000000000E+00 0. -1.
</event>
<event>
 7    1  0.2480409E-009  0.2289353E+03  0.7561462E-02  0.1127391E+00
          1   -1    0    0  501    0  0.00000000000E+00  0.00000000000E+00  0.24876701974E+03  0.24876701974E+03  0.00000000000E+00 0. -1.
         -1   -1    0    0    0  501 -0.00000000000E+00 -0.00000000000E+00 -0.24381473015E+03  0.24381473015E+03  0.00000000000E+00 0.  1.
         25    2    1    2    0    0 -0.21500902908E+03 -0.13121896072E+02  0.50423898779E+02  0.25414983977E+03  0.12509398363E+03 0.  0.
          5    1    3    3  502    0 -0.11737973784E+03  0.35906189646E+02  0.72490121334E+02  0.14261678513E+03  0.41800000000E+01 0. -1.
         -5    1    3    3    0  502 -0.97629291245E+02 -0.49028085718E+02 -0.22066222555E+02  0.11153305463E+03  0.41800000000E+01 0. -1.
        -11    1    1    2    0    0  0.11816075427E+03  0.40783679715E+02 -0.56368668778E+02  0.13712293462E+03  0.00000000000E+00 0. -1.
         11    1    1    2    0    0  0.96848274819E+02 -0.27661783644E+02  0.10897059580E+02  0.10130897550E+03  0.00000000000E+00 0.  1.
</event>
<event>
 7    1  0.2480409E-009  0.1199834E+03  0.7561462E-02  0.1243125E+00
          2   -1    0    0  501    0  0.00000000000E+00  0.00000000000E+00  0.33211882825E+03  0.33211882825E+03  0.00000000000E+00 0. -1.
         -2   -1    0    0    0  501 -0.00000000000E+00 -0.00000000000E+00 -0.48663976603E+02  0.48663976603E+02  0.00000000000E+00 0.  1.
         25    2    1    2    0    0  0.60873964690E+02  0.16508656547E+02  0.14564620079E+03  0.20208446754E+03  0.12508853223E+03 0.  0.
          5    1    3    3  502    0  0.40484605032E+02 -0.53129783850E+02  0.78199967698E+02  0.10292951241E+03  0.41800000000E+01 0.  1.
         -5    1    3    3    0  502  0.20389359659E+02  0.69638440397E+02  0.67446233092E+02  0.99154955129E+02  0.41800000000E+01 0.  1.
        -11    1    1    2    0    0 -0.18392299031E+02 -0.45398727224E+02  0.25557797032E+02  0.55249634264E+02  0.00000000000E+00 0. -1.
         11    1    1    2    0    0 -0.42481665660E+02  0.28890070678E+02  0.11225085382E+03  0.12344870305E+03  0.00000000000E+00 0.  1.
</event>
<event>
 7    1  0.2480409E-009  0.1614373E+03  0.7561462E-02  0.1187084E+00
          2   -1    0    0  501    0  0.00000000000E+00  0.00000000000E+00  0.97199958714E+02  0.97199958714E+02  0.00000000000E+00 0.  1.
         -2   -1    0    0    0  501 -0.00000000000E+00 -0.00000000000E+00 -0.40613477817E+03  0.40613477817E+03  0.00000000000E+00 0. -1.
         25    2    1    2    0    0 -0.58849523474E+02  0.11530092665E+03 -0.29367941438E+03  0.34445885913E+03  0.12508691819E+03 0.  0.
          5    1    3    3  502    0  0.41555804216E+01  0.10821486835E+03 -0.13230483320E+03  0.17102563512E+03  0.41800000000E+01 0.  1.
         -5    1    3    3    0  502 -0.63005103896E+02  0.70860583035E+01 -0.16137458118E+03  0.17343322401E+03  0.41800000000E+01 0.  1.
        -11    1    1    2    0    0  0.72509263585E+02 -0.60356481158E+02 -0.32349546111E+02  0.99734604110E+02  0.00000000000E+00 0. -1.
         11    1    1    2    0    0 -0.13659740111E+02 -0.54944445496E+02  0.17094141033E+02  0.59141273645E+02  0.00000000000E+00 0.  1.
</event>
<event>
 7    1  0.2480409E-009  0.1345750E+03  0.7561462E-02  0.1220821E+00
         -1   -1    0    0    0  501 -0.00000000000E+00  0.00000000000E+00  0.11117318468E+03  0.11117318468E+03  0.00000000000E+00 0.  1.
          1   -1    0    0  501    0  0.00000000000E+00 -0.00000000000E+00 -0.20347851681E+03  0.20347851681E+03  0.00000000000E+00 0. -1.
         25    2    1    2    0    0 -0.93461588224E+02 -0.41527871677E+02 -0.65574691543E+02  0.17437557287E+03  0.12508863914E+03 0.  0.
          5    1    3    3  502    0 -0.38002684694E+02 -0.65694195759E+02 -0.81739031254E+02  0.11161842604E+03  0.41800000000E+01 0.  1.
         -5    1    3    3    0  502 -0.55458903530E+02  0.24166324081E+02  0.16164339711E+02  0.62757146834E+02  0.41800000000E+01 0.  1.
        -11    1    1    2    0    0  0.10441270136E+02  0.48100836681E+02 -0.28691542421E+02  0.56972934083E+02  0.00000000000E+00 0. -1.
         11    1    1    2    0    0  0.83020318088E+02 -0.65729650037E+01  0.19609018420E+01  0.83303194539E+02  0.00000000000E+00 0.  1.
</event>
<event>
 7    1  0.2480409E-009  0.1805877E+03  0.7561462E-02  0.1167235E+00
         -2   -1    0    0    0  501 -0.00000000000E+00  0.00000000000E+00  0.20961497156E+03  0.20961497156E+03  0.00000000000E+00 0.  1.
          2   -1    0    0  501    0  0.00000000000E+00 -0.00000000000E+00 -0.23687871291E+03  0.23687871291E+03  0.00000000000E+00 0. -1.
         25    2    1    2    0    0  0.33893401423E+01  0.16602279348E+03  0.86919136668E+02  0.22533929692E+03  0.12509119407E+03 0.  0.
          5    1    3    3  502    0 -0.37663012737E+02  0.11075410258E+03  0.35156931938E+01  0.11711023126E+03  0.41800000000E+01 0.  1.
         -5    1    3    3    0  502  0.41052352880E+02  0.55268690908E+02  0.83403443474E+02  0.10822906567E+03  0.41800000000E+01 0.  1.
        -11    1    1    2    0    0  0.25086641678E+02 -0.53746429913E+02 -0.81504552829E+02  0.10080183754E+03  0.00000000000E+00 0. -1.
         11    1    1    2    0    0 -0.28475981821E+02 -0.11227636357E+03 -0.32678325181E+02  0.12035255001E+03  0.00000000000E+00 0.  1.
</event>
<event>
 7    1  0.2480409E-009  0.1017134E+03  0.7561462E-02  0.1276734E+00
          2   -1    0    0  501    0  0.00000000000E+00  0.00000000000E+00  0.18544920017E+03  0.18544920017E+03  0.00000000000E+00 0. -1.
         -2   -1    0    0    0  501 -0.00000000000E+00 -0.00000000000E+00 -0.76508042805E+02  0.76508042805E+02  0.00000000000E+00 0.  1.
         25    2    1    2    0    0  0.42865008562E+02  0.32441970881E+01  0.91400842343E+02  0.16077882834E+03  0.12509110235E+03 0.  0.
          5    1    3    3  502    0  0.11230806859E+02  0.47632122185E+02  0.93990869189E+02  0.10605048787E+03  0.41800000000E+01 0.  1.
         -5    1    3    3    0  502  0.31634201703E+02 -0.44387925097E+02 -0.25900268458E+01  0.54728340472E+02  0.41800000000E+01 0.  1.
        -11    1    1    2    0    0  0.26503722443E+02  0.11223040810E+02  0.47034997981E+01  0.29163793627E+02  0.00000000000E+00 0. -1.
         11    1    1    2    0    0 -0.69368731005E+02 -0.14467237898E+02  0.12836815224E+02  0.72014621006E+02  0.00000000000E+00 0.  1.
</event>
<event>
 7    1  0.2480409E-009  0.9258599E+02  0.7561462E-02  0.1296707E+00
          2   -1    0    0  501    0  0.00000000000E+00  0.00000000000E+00  0.10034850499E+04  0.10034850499E+04  0.00000000000E+00 0.  1.
         -2   -1    0    0    0  501 -0.00000000000E+00 -0.00000000000E+00 -0.13203179950E+02  0.13203179950E+02  0.00000000000E+00 0. -1.
         25    2    1    2    0    0  0.41218374277E+01  0.12073870850E+02  0.56815176709E+03  0.58189897871E+03  0.12508886073E+03 0.  0.
          5    1    3    3  502    0 -0.21651987902E+02 -0.29767127059E+02  0.54581111615E+02  0.65965601480E+02  0.41800000000E+01 0.  1.
         -5    1    3    3    0  502  0.25773825330E+02  0.41840997908E+02  0.51357065547E+03  0.51593337723E+03  0.41800000000E+01 0.  1.
        -11    1    1    2    0    0  0.18311400383E+02 -0.50829278171E+02  0.16035887565E+03  0.16921551909E+03  0.00000000000E+00 0. -1.
         11    1    1    2    0    0 -0.22433237810E+02  0.38755407322E+02  0.26177122726E+03  0.26557373209E+03  0.00000000000E+00 0.  1.
</event>
<event>
 7    1  0.2480409E-009  0.9143093E+02  0.7561462E-02  0.1299423E+00
         -1   -1    0    0    0  501 -0.00000000000E+00  0.00000000000E+00  0.71904885801E+03  0.71904885801E+03  0.00000000000E+00 0.  1.
          1   -1    0    0  501    0  0.00000000000E+00 -0.00000000000E+00 -0.16785634005E+02  0.16785634005E+02  0.00000000000E+00 0. -1.
         25    2    1    2    0    0 -0.11534714276E+02 -0.12887898862E+02  0.36878938497E+03  0.38980911783E+03  0.12508553196E+03 0.  0.
          5    1    3    3  502    0  0.31113839737E+02 -0.31903743008E+02  0.48072813645E+02  0.65683998453E+02  0.41800000000E+01 0. -1.
         -5    1    3    3    0  502 -0.42648554012E+02  0.19015844146E+02  0.32071657132E+03  0.32412511937E+03  0.41800000000E+01 0. -1.
        -11    1    1    2    0    0  0.29716915210E+01 -0.38756646281E+02  0.16940652117E+03  0.17380873970E+03  0.00000000000E+00 0.  1.
         11    1    1    2    0    0  0.85630227546E+01  0.51644545143E+02  0.16406731787E+03  0.17221663449E+03  0.00000000000E+00 0. -1.
</event>
<event>
 7    1  0.2480409E-009  0.1536662E+03  0.7561462E-02  0.1196039E+00
          2   -1    0    0  501    0  0.00000000000E+00  0.00000000000E+00  0.63269753171E+03  0.63269753171E+03  0.00000000000E+00 0. -1.
         -2   -1    0    0    0  501 -0.00000000000E+00 -0.00000000000E+00 -0.45691222668E+02  0.45691222668E+02  0.00000000000E+00 0.  1.
         25    2    1    2    0    0 -0.11256199508E+03 -0.49242612919E+02  0.40619810237E+03  0.44242783722E+03  0.12510177904E+03 0.  0.
          5    1    3    3  502    0 -0.11329605866E+03  0.86784655710E+01  0.30829855007E+03  0.32859820609E+03  0.41800000000E+01 0. -1.
         -5    1    3    3    0  502  0.73406357673E+00 -0.57921078490E+02  0.97899552297E+02  0.11382963113E+03  0.41800000000E+01 0. -1.
        -11    1    1    2    0    0  0.58433892035E+02  0.56082796416E+02  0.52459793629E+02  0.96497822461E+02  0.00000000000E+00 0. -1.
         11    1    1    2    0    0  0.54128103050E+02 -0.68401834967E+01  0.12834841305E+03  0.13946309469E+03  0.00000000000E+00 0.  1.
</event>
<event>
 7    1  0.2480409E-009  0.1534168E+03  0.7561462E-02  0.1196336E+00
          1   -1    0    0  501    0  0.00000000000E+00  0.00000000000E+00  0.69667501055E+02  0.69667501055E+02  0.00000000000E+00 0. -1.
         -1   -1    0    0    0  501 -0.00000000000E+00 -0.00000000000E+00 -0.37419974186E+03  0.37419974186E+03  0.00000000000E+00 0.  1.
         25    2    1    2    0    0 -0.19218750308E+02  0.11704617365E+03 -0.15079500609E+03  0.22903285369E+03  0.12509095523E+03 0.  0.
          5    1    3    3  502    0  0.12295625185E+02  0.13442453712E+03 -0.10773362484E+03  0.17275747422E+03  0.41800000000E+01 0. -1.
         -5    1    3    3    0  502 -0.31514375492E+02 -0.17378363469E+02 -0.43061381245E+02  0.56275379468E+02  0.41800000000E+01 0. -1.
        -11    1    1    2    0    0  0.40155825269E+02 -0.44017205509E+02 -0.23480308506E+02  0.64041623741E+02  0.00000000000E+00 0.  1.
         11    1    1    2    0    0 -0.20937074962E+02 -0.73028968141E+02 -0.13025692621E+03  0.15079276548E+03  0.00000000000E+00 0. -1.
</event>
<event>
 7    1  0.2480409E-009  0.1277022E+03  0.7561462E-02  0.1230906E+00
          4   -1    0    0  501    0  0.00000000000E+00  0.00000000000E+00  0.40716711149E+03  0.40716711149E+03  0.00000000000E+00 0. -1.
         -4   -1    0    0    0  501 -0.00000000000E+00 -0.00000000000E+00 -0.74837890062E+02  0.74837890062E+02  0.00000000000E+00 0.  1.
         25    2    1    2    0    0 -0.93168903525E+02  0.29530526975E+02  0.31006417751E+03  0.34833528684E+03  0.12508069906E+03 0.  0.
          5    1    3    3  502    0 -0.10343555256E+03 -0.22166179734E+01  0.29273124763E+03  0.31050423937E+03  0.41800000000E+01 0.  1.
         -5    1    3    3    0  502  0.10266649034E+02  0.31747144948E+02  0.17332929885E+02  0.37831047476E+02  0.41800000000E+01 0.  1.
        -11    1    1    2    0    0  0.86713150397E+01 -0.32547129976E+02 -0.19969011097E+02  0.39156976114E+02  0.00000000000E+00 0. -1.
         11    1    1    2    0    0  0.84497588486E+02  0.30166030015E+01  0.42234055012E+02  0.94512738593E+02  0.00000000000E+00 0.  1.
</event>
<event>
 7    1  0.2480409E-009  0.1041894E+03  0.7561462E-02  0.1271725E+00
          3   -1    0    0  501    0  0.00000000000E+00  0.00000000000E+00  0.27137177783E+03  0.27137177783E+03  0.00000000000E+00 0. -1.
         -3   -1    0    0    0  501 -0.00000000000E+00 -0.00000000000E+00 -0.50340838813E+02  0.50340838813E+02  0.00000000000E+00 0.  1.
         25    2    1    2    0    0  0.84595838618E+01 -0.76525043590E+01  0.18620823785E+03  0.22460256759E+03  0.12507070057E+03 0.  0.
          5    1    3    3  502    0  0.50601105595E+02  0.36819553221E+02  0.11114537580E+03  0.12762021136E+03  0.41800000000E+01 0.  1.
         -5    1    3    3    0  502 -0.42141521733E+02 -0.44472057580E+02  0.75062862053E+02  0.96982356225E+02  0.41800000000E+01 0.  1.
        -11    1    1    2    0    0 -0.31806675366E+02  0.35662875404E+02  0.16507296578E+01  0.47814539508E+02  0.00000000000E+00 0.  1.
         11    1    1    2    0    0  0.23347091504E+02 -0.28010371045E+02  0.33171971505E+02  0.49295509545E+02  0.00000000000E+00 0. -1.
</event>
<event>
 7    1  0.2480409E-009  0.2381010E+03  0.7561462E-02  0.1121064E+00
          1   -1    0    0  501    0  0.00000000000E+00  0.00000000000E+00  0.75113456519E+03  0.75113456519E+03  0.00000000000E+00 0. -1.
         -1   -1    0    0    0  501 -0.00000000000E+00 -0.00000000000E+00 -0.81034316452E+02  0.81034316452E+02  0.00000000000E+00 0.  1.
         25    2    1    2    0    0  0.22032640064E+03 -0.75141166079E+01  0.37470788797E+03  0.45238856674E+03  0.12509687944E+03 0.  0.
          5    1    3    3  502    0  0.11815717248E+03 -0.64353991142E+02  0.22766534959E+03  0.26448352952E+03  0.41800000000E+01 0.  1.
         -5    1    3    3    0  502  0.10216922817E+03  0.56839874534E+02  0.14704253839E+03  0.18790503723E+03  0.41800000000E+01 0.  1.
        -11    1    1    2    0    0 -0.78010807387E+02  0.23290647180E+02  0.17382990070E+03  0.19195044853E+03  0.00000000000E+00 0. -1.
         11    1    1    2    0    0 -0.14231559325E+03 -0.15776530572E+02  0.12156246006E+03  0.18782986636E+03  0.00000000000E+00 0.  1.
</event>
<event>
 7    1  0.2532138E-009  0.9243225E+02  0.7561462E-02  0.1297066E+00
          1   -1    0    0  501    0  0.00000000000E+00  0.00000000000E+00  0.18838800768E+03  0.18838800768E+03  0.00000000000E+00 0. -1.
         -1   -1    0    0    0  501 -0.00000000000E+00 -0.00000000000E+00 -0.87665822934E+02  0.87665822934E+02  0.00000000000E+00 0.  1.
         25    2    1    2    0    0  0.53945027535E+02 -0.33012156709E+02  0.25944088932E+02  0.14254943092E+03  0.12508947206E+03 0.  0.
          5    1    3    3  502    0  0.57103704814E+00 -0.37533238388E+02 -0.41635665351E+02  0.56214509661E+02  0.41800000000E+01 0. -1.
         -5    1    3    3    0  502  0.53373990487E+02  0.45210816794E+01  0.67579754283E+02  0.86334921260E+02  0.41800000000E+01 0. -1.
        -11    1    1    2    0    0 -0.21215832761E+02  0.51555175152E+02  0.77859991929E+02  0.95761296921E+02  0.00000000000E+00 0.  1.
         11    1    1    2    0    0 -0.32729194774E+02 -0.18543018443E+02 -0.30818961121E+01  0.37743102776E+02  0.00000000000E+00 0. -1.
</event>
<event>
 7    1  0.2480409E-009  0.9751416E+02  0.7561462E-02  0.1285612E+00
          1   -1    0    0  501    0  0.00000000000E+00  0.00000000000E+00  0.12530000063E+03  0.12530000063E+03  0.00000000000E+00 0. -1.
         -1   -1    0    0    0  501 -0.00000000000E+00 -0.00000000000E+00 -0.10637613331E+03  0.10637613331E+03  0.00000000000E+00 0.  1.
         25    2    1    2    0    0  0.34210843497E+02 -0.14799123142E+01 -0.84076155460E+01  0.12996398558E+03  0.12508947836E+03 0.  0.
          5    1    3    3  502    0 -0.17830788093E+01  0.55689365397E+02 -0.23501279665E+02  0.60615735038E+02  0.41800000000E+01 0.  1.
         -5    1    3    3    0  502  0.35993922306E+02 -0.57169277711E+02  0.15093664119E+02  0.69348250544E+02  0.41800000000E+01 0.  1.
        -11    1    1    2    0    0  0.16311477076E+01  0.27265623731E+02 -0.22315650470E+02  0.35271279197E+02  0.00000000000E+00 0.  1.
         11    1    1    2    0    0 -0.35841991205E+02 -0.25785711417E+02  0.49647133331E+02  0.66440869160E+02  0.00000000000E+00 0. -1.
</event>
<event>
 7    1  0.2480409E-009  0.4980335E+03  0.7561462E-02  0.1014293E+00
         -1   -1    0    0    0  501 -0.00000000000E+00  0.00000000000E+00  0.21777716750E+03  0.21777716750E+03  0.00000000000E+00 0.  1.
          1   -1    0    0  501    0  0.00000000000E+00 -0.00000000000E+00 -0.12470272357E+04  0.12470272357E+04  0.00000000000E+00 0. -1.
         25    2    1    2    0    0 -0.47785296529E+03 -0.92843776200E+02 -0.72897759455E+03  0.88544880521E+03  0.12509128698E+03 0.  0.
          5    1    3    3  502    0 -0.28185160903E+03  0.45726377155E+01 -0.37319545401E+03  0.46771097681E+03  0.41800000000E+01 0. -1.
         -5    1    3    3    0  502 -0.19600135625E+03 -0.97416413915E+02 -0.35578214054E+03  0.41773782840E+03  0.41800000000E+01 0. -1.
        -11    1    1    2    0    0  0.64097544885E+02  0.45867329662E+02 -0.41330640837E+02  0.88997354245E+02  0.00000000000E+00 0.  1.
         11    1    1    2    0    0  0.41375542040E+03  0.46976446538E+02 -0.25894183285E+03  0.49035824378E+03  0.00000000000E+00 0. -1.
</event>
<event>
 7    1  0.2480409E-009  0.2009072E+03  0.7561462E-02  0.1148976E+00
          1   -1    0    0  501    0  0.00000000000E+00  0.00000000000E+00  0.15252420164E+04  0.15252420164E+04  0.00000000000E+00 0. -1.
         -1   -1    0    0    0  501 -0.00000000000E+00 -0.00000000000E+00 -0.29593513623E+02  0.29593513623E+02  0.00000000000E+00 0.  1.
         25    2    1    2    0    0 -0.82710555484E+02 -0.16217903010E+03  0.79806914144E+03  0.82807297061E+03  0.12508963320E+03 0.  0.
          5    1    3    3  502    0  0.14534341708E+02 -0.59328023546E+02  0.41839677842E+03  0.42285269073E+03  0.41800000000E+01 0. -1.
         -5    1    3    3    0  502 -0.97244897191E+02 -0.10285100655E+03  0.37967236303E+03  0.40522027988E+03  0.41800000000E+01 0. -1.
        -11    1    1    2    0    0  0.52687839304E+02  0.24567208998E+02  0.13832744959E+03  0.15004679096E+03  0.00000000000E+00 0.  1.
         11    1    1    2    0    0  0.30022716180E+02  0.13761182110E+03  0.55925191177E+03  0.57671576848E+03  0.00000000000E+00 0. -1.
</event>
<event>
 7    1  0.2480409E-009  0.1206095E+03  0.7561462E-02  0.1242095E+00
         -1   -1    0    0    0  501 -0.00000000000E+00  0.00000000000E+00  0.35402682538E+02  0.35402682538E+02  0.00000000000E+00 0.  1.
          1   -1    0    0  501    0  0.00000000000E+00 -0.00000000000E+00 -0.44483665424E+03  0.44483665424E+03  0.00000000000E+00 0. -1.
         25    2    1    2    0    0  0.34047049284E+02 -0.50187600280E+02 -0.25619399928E+03  0.29148216830E+03  0.12509393424E+03 0.  0.
          5    1    3    3  502    0  0.75535874636E+02 -0.39633503957E+01 -0.15791115860E+03  0.17514217914E+03  0.41800000000E+01 0. -1.
         -5    1    3    3    0  502 -0.41488825352E+02 -0.46224249885E+02 -0.98282840682E+02  0.11633998917E+03  0.41800000000E+01 0. -1.
        -11    1    1    2    0    0  0.16525931009E+02 -0.13884276964E+02 -0.65290462315E+02  0.68765718289E+02  0.00000000000E+00 0. -1.
         11    1    1    2    0    0 -0.50572980293E+02  0.64071877245E+02 -0.87949510104E+02  0.11999145018E+03  0.00000000000E+00 0.  1.
</event>
<event>
 7    1  0.2480409E-009  0.1007647E+03  0.7561462E-02  0.1278696E+00
         -1   -1    0    0    0  501 -0.00000000000E+00  0.00000000000E+00  0.16909601051E+04  0.16909601051E+04  0.00000000000E+00 0.  1.
          1   -1    0    0  501    0  0.00000000000E+00 -0.00000000000E+00 -0.10034670678E+02  0.10034670678E+02  0.00000000000E+00 0. -1.
         25    2    1    2    0    0 -0.17058708961E+02  0.26031826940E+02  0.13619532689E+04  0.13680399343E+04  0.12509156416E+03 0.  0.
          5    1    3    3  502    0 -0.25749950055E+02 -0.35715956358E+02  0.98082196368E+03  0.98181866264E+03  0.41800000000E+01 0. -1.
         -5    1    3    3    0  502  0.86912410942E+01  0.61747783298E+02  0.38113130524E+03  0.38622127161E+03  0.41800000000E+01 0. -1.
        -11    1    1    2    0    0  0.16146712304E+01  0.33379569545E+02  0.13194329439E+03  0.13610964610E+03  0.00000000000E+00 0. -1.
         11    1    1    2    0    0  0.15444037731E+02 -0.59411396485E+02  0.18702887111E+03  0.19684519542E+03  0.00000000000E+00 0.  1.
</event>
<event>
 7    1  0.2480409E-009  0.1278321E+03  0.7561462E-02  0.1230708E+00
          2   -1    0    0  501    0  0.00000000000E+00  0.00000000000E+00  0.46034561161E+02  0.46034561161E+02  0.00000000000E+00 0. -1.
         -2   -1    0    0    0  501 -0.00000000000E+00 -0.00000000000E+00 -0.37595020470E+03  0.37595020470E+03  0.00000000000E+00 0.  1.
         25    2    1    2    0    0 -0.21107079174E+02 -0.65623315387E+02 -0.15100716018E+03  0.20784933962E+03  0.12508500007E+03 0.  0.
          5    1    3    3  502    0 -0.45681495991E+02 -0.92930496105E+02 -0.12631499813E+03  0.16338857774E+03  0.41800000000E+01 0.  1.
         -5    1    3    3    0  502  0.24574416817E+02  0.27307180718E+02 -0.24692162047E+02  0.44460761883E+02  0.41800000000E+01 0.  1.
        -11    1    1    2    0    0 -0.33618536463E+02  0.45875991974E+02 -0.11092191063E+03  0.12465345118E+03  0.00000000000E+00 0.  1.
         11    1    1    2    0    0  0.54725615637E+02  0.19747323413E+02 -0.67986572727E+02  0.89481975056E+02  0.00000000000E+00 0. -1.
</event>
<event>
 7    1  0.2480409E-009  0.1086739E+03  0.7561462E-02  0.1263046E+00
          2   -1    0    0  501    0  0.00000000000E+00  0.00000000000E+00  0.45222441814E+02  0.45222441814E+02  0.00000000000E+00 0. -1.
         -2   -1    0    0    0  501 -0.00000000000E+00 -0.00000000000E+00 -0.31091132776E+03  0.31091132776E+03  0.00000000000E+00 0.  1.
         25    2    1    2    0    0  0.29526066492E+02 -0.23454326746E+02 -0.10801313790E+03  0.16951991517E+03  0.12509304391E+03 0.  0.
          5    1    3    3  502    0 -0.35693118894E+02  0.28705034853E+02 -0.28343778875E+02  0.54026104461E+02  0.41800000000E+01 0. -1.
         -5    1    3    3    0  502  0.65219185386E+02 -0.52159361599E+02 -0.79669359022E+02  0.11549381071E+03  0.41800000000E+01 0. -1.
        -11    1    1    2    0    0  0.27500299470E+02  0.67796766373E+01 -0.99529665877E+02  0.10348132622E+03  0.00000000000E+00 0. -1.
         11    1    1    2    0    0 -0.57026365962E+02  0.16674650109E+02 -0.58146082177E+02  0.83132528193E+02  0.00000000000E+00 0.  1.
</event>
<event>
 7    1  0.2480409E-009  0.9554140E+02  0.7561462E-02  0.1289961E+00
         -2   -1    0    0    0  501 -0.00000000000E+00  0.00000000000E+00  0.32224787037E+03  0.32224787037E+03  0.00000000000E+00 0.  1.
          2   -1    0    0  501    0  0.00000000000E+00 -0.00000000000E+00 -0.52210351056E+02  0.52210351056E+02  0.00000000000E+00 0. -1.
         25    2    1    2    0    0 -0.22296282268E+02  0.30329765717E+02  0.23562538996E+03  0.26941181204E+03  0.12508549548E+03 0.  0.
          5    1    3    3  502    0  0.34737786175E+02  0.66026903970E+01  0.12312048419E+02  0.37674503914E+02  0.41800000000E+01 0. -1.
         -5    1    3    3    0  502 -0.57034068443E+02  0.23727075320E+02  0.22331334154E+03  0.23173730812E+03  0.41800000000E+01 0. -1.
        -11    1    1    2    0    0  0.22574146833E+02 -0.59889112188E+02  0.39269664706E+02  0.75089309692E+02  0.00000000000E+00 0.  1.
         11    1    1    2    0    0 -0.27786456465E+00  0.29559346472E+02 -0.48575353515E+01  0.29957099697E+02  0.00000000000E+00 0. -1.
</event>
<event>
 7    1  0.2480409E-009  0.8628808E+02  0.7561462E-02  0.1312098E+00
          1   -1    0    0  501    0  0.00000000000E+00  0.00000000000E+00  0.70597196575E+02  0.70597196575E+02  0.00000000000E+00 0. -1.
         -1   -1    0    0    0  501 -0.00000000000E+00 -0.00000000000E+00 -0.16962098331E+03  0.16962098331E+03  0.00000000000E+00 0.  1.
         25    2    1    2    0    0 -0.17650106004E+02 -0.38038759940E+01 -0.47288137313E+02  0.13494450262E+03  0.12509138716E+03 0.  0.
          5    1    3    3  502    0 -0.39321691567E+02 -0.56667443066E+02 -0.25551860249E+02  0.73673363528E+02  0.41800000000E+01 0. -1.
         -5    1    3    3    0  502  0.21671585563E+02  0.52863567072E+02 -0.21736277064E+02  0.61271139087E+02  0.41800000000E+01 0. -1.
        -11    1    1    2    0    0  0.42997502889E+01 -0.19154896155E+02 -0.70222329342E+02  0.72914836882E+02  0.00000000000E+00 0.  1.
         11    1    1    2    0    0  0.13350355715E+02  0.22958772149E+02  0.18486679925E+02  0.32358840383E+02  0.00000000000E+00 0. -1.
</event>
<event>
 7    1  0.2480409E-009  0.1955732E+03  0.7561462E-02  0.1153529E+00
         -2   -1    0    0    0  501 -0.00000000000E+00  0.00000000000E+00  0.23516772889E+02  0.23516772889E+02  0.00000000000E+00 0.  1.
          2   -1    0    0  501    0  0.00000000000E+00 -0.00000000000E+00 -0.20442062149E+04  0.20442062149E+04  0.00000000000E+00 0. -1.
         25    2    1    2    0    0 -0.15947403971E+03  0.47348041099E+02 -0.15101626039E+04  0.15244385357E+04  0.12509177600E+03 0.  0.
          5    1    3    3  502    0 -0.51326585516E+01  0.53082927661E+02 -0.41335064855E+03  0.41679775965E+03  0.41800000000E+01 0.  1.
         -5    1    3    3    0  502 -0.15434138116E+03 -0.57348865617E+01 -0.10968119554E+04  0.11076407760E+04  0.41800000000E+01 0.  1.
        -11    1    1    2    0    0  0.59175911883E+02 -0.57282008021E+02 -0.18482626406E+03  0.20234565693E+03  0.00000000000E+00 0.  1.
         11    1    1    2    0    0  0.10029812782E+03  0.99339669222E+01 -0.32570057404E+03  0.34093879521E+03  0.00000000000E+00 0. -1.
</event>
<event>
 7    1  0.2480409E-009  0.1391126E+03  0.7561462E-02  0.1214528E+00
         -2   -1    0    0    0  501 -0.00000000000E+00  0.00000000000E+00  0.15254595082E+02  0.15254595082E+02  0.00000000000E+00 0.  1.
          2   -1    0    0  501    0  0.00000000000E+00 -0.00000000000E+00 -0.19883531525E+04  0.19883531525E+04  0.00000000000E+00 0. -1.
         25    2    1    2    0    0 -0.67635735824E+02  0.62556872138E+02 -0.15888888685E+04  0.15964656318E+04  0.12508685772E+03 0.  0.
          5    1    3    3  502    0  0.34077976238E+02  0.13781647552E+02 -0.60336228154E+03  0.60449545694E+03  0.41800000000E+01 0. -1.
         -5    1    3    3    0  502 -0.10171371206E+03  0.48775224585E+02 -0.98552658697E+03  0.99197017484E+03  0.41800000000E+01 0. -1.
        -11    1    1    2    0    0  0.39067482590E+02 -0.83991287321E+02 -0.32548115247E+03  0.33840624279E+03  0.00000000000E+00 0. -1.
         11    1    1    2    0    0  0.28568253234E+02  0.21434415184E+02 -0.58728536430E+02  0.68735873009E+02  0.00000000000E+00 0.  1.
</event>
<event>
 7    1  0.2480409E-009  0.1591106E+03  0.7561462E-02  0.1189705E+00
          1   -1    0    0  501    0  0.00000000000E+00  0.00000000000E+00  0.36130033989E+03  0.36130033989E+03  0.00000000000E+00 0. -1.
         -1   -1    0    0    0  501 -0.00000000000E+00 -0.00000000000E+00 -0.12025404927E+03  0.12025404927E+03  0.00000000000E+00 0.  1.
         25    2    1    2    0    0 -0.14382589492E+03  0.16809601696E+02  0.24303570873E+03  0.30932158445E+03  0.12508011883E+03 0.  0.
          5    1    3    3  502    0 -0.10341273899E+03  0.30908824917E+02  0.24342601579E+03  0.26631418965E+03  0.41800000000E+01 0. -1.
         -5    1    3    3    0  502 -0.40413155933E+02 -0.14099223221E+02 -0.39030706195E+00  0.43007394800E+02  0.41800000000E+01 0. -1.
        -11    1    1    2    0    0  0.28444220898E+02  0.31209286132E+02 -0.18632003930E+02  0.46154575221E+02  0.00000000000E+00 0. -1.
         11    1    1    2    0    0  0.11538167402E+03 -0.48018887828E+02  0.16642585816E+02  0.12607822949E+03  0.00000000000E+00 0.  1.
</event>
<event>
 7    1  0.2480409E-009  0.8908772E+02  0.7561462E-02  0.1305076E+00
         -2   -1    0    0    0  501 -0.00000000000E+00  0.00000000000E+00  0.58515719466E+02  0.58515719466E+02  0.00000000000E+00 0.  1.
          2   -1    0    0  501    0  0.00000000000E+00 -0.00000000000E+00 -0.26105095096E+03  0.26105095096E+03  0.00000000000E+00 0. -1.
         25    2    1    2    0    0  0.40278854948E+02 -0.32358863179E+02 -0.78799479715E+02  0.15660796008E+03  0.12508882035E+03 0.  0.
          5    1    3    3  502    0  0.38555639136E+02  0.12875068992E+02  0.21727433963E+02  0.46280217127E+02  0.41800000000E+01 0.  1.
         -5    1    3    3    0  502  0.17232158119E+01 -0.45233932171E+02 -0.10052691368E+03  0.11032774296E+03  0.41800000000E+01 0.  1.
        -11    1    1    2    0    0 -0.25558767491E+02 -0.23114175279E+02 -0.90031321687E+02  0.96401009223E+02  0.00000000000E+00 0. -1.
         11    1    1    2    0    0 -0.14720087457E+02  0.55473038459E+02 -0.33704430095E+02  0.66557701122E+02  0.00000000000E+00 0.  1.
</event>
<event>
 7    1  0.2480409E-009  0.1204638E+03  0.7561462E-02  0.1242334E+00
          2   -1    0    0  501    0  0.00000000000E+00  0.00000000000E+00  0.36896332036E+03  0.36896332036E+03  0.00000000000E+00 0.  1.
         -2   -1    0    0    0  501 -0.00000000000E+00 -0.00000000000E+00 -0.51581765828E+02  0.51581765828E+02  0.00000000000E+00 0. -1.
         25    2    1    2    0    0  0.49573036181E+02 -0.35160028716E+02  0.26529271605E+03  0.29953417764E+03  0.12508710903E+03 0.  0.
          5    1    3    3  502    0 -0.29794515692E+01 -0.69913095984E+02  0.18184644621E+03  0.19489053471E+03  0.41800000000E+01 0. -1.
         -5    1    3    3    0  502  0.52552487750E+02  0.34753067269E+02  0.83446269843E+02  0.10464364292E+03  0.41800000000E+01 0. -1.
        -11    1    1    2    0    0 -0.39546133769E+02 -0.24939424081E+02  0.32759881844E+02  0.57088365085E+02  0.00000000000E+00 0.  1.
         11    1    1    2    0    0 -0.10026902412E+02  0.60099452797E+02  0.19328956631E+02  0.63922543464E+02  0.00000000000E+00 0. -1.
</event>
<event>
 7    1  0.2480409E-009  0.2091832E+03  0.7561462E-02  0.1142214E+00
          2   -1    0    0  501    0  0.00000000000E+00  0.00000000000E+00  0.35373071909E+03  0.35373071909E+03  0.00000000000E+00 0. -1.
         -2   -1    0    0    0  501 -0.00000000000E+00 -0.00000000000E+00 -0.13578785715E+03  0.13578785715E+03  0.00000000000E+00 0.  1.
         25    2    1    2    0    0 -0.18799454166E+03  0.27826436844E+02  0.12130990137E+03  0.25783731847E+03  0.12509089633E+03 0.  0.
          5    1    3    3  502    0 -0.74952622376E+02 -0.46015718991E+02  0.72985667474E+02  0.11436661249E+03  0.41800000000E+01 0. -1.
         -5    1    3    3    0  502 -0.11304191928E+03  0.73842155836E+02  0.48324233892E+02  0.14347070598E+03  0.41800000000E+01 0. -1.
        -11    1    1    2    0    0  0.15391772925E+03 -0.45946175455E+01  0.10895829677E+03  0.18863639183E+03  0.00000000000E+00 0. -1.
         11    1    1    2    0    0  0.34076812406E+02 -0.23231819299E+02 -0.12325336192E+02  0.43044865942E+02  0.00000000000E+00 0.  1.
</event>
<event>
 7    1  0.2480409E-009  0.9160611E+02  0.7561462E-02  0.1299008E+00
          1   -1    0    0  501    0  0.00000000000E+00  0.00000000000E+00  0.11854083989E+03  0.11854083989E+03  0.00000000000E+00 0. -1.
         -1   -1    0    0    0  501 -0.00000000000E+00 -0.00000000000E+00 -0.10813972896E+03  0.10813972896E+03  0.00000000000E+00 0.  1.
         25    2    1    2    0    0  0.78599704379E+01  0.18740381017E+02  0.33248291470E+02  0.13101378820E+03  0.12508470248E+03 0.  0.
          5    1    3    3  502    0  0.51494288130E+02  0.26649234998E+02  0.56243294195E+02  0.80886488228E+02  0.41800000000E+01 0. -1.
         -5    1    3    3    0  502 -0.43634317692E+02 -0.79088539812E+01 -0.22995002725E+02  0.50127299967E+02  0.41800000000E+01 0. -1.
        -11    1    1    2    0    0 -0.34748560764E+02 -0.34833396118E+02 -0.36723018840E+02  0.61395505316E+02  0.00000000000E+00 0.  1.
         11    1    1    2    0    0  0.26888590326E+02  0.16093015102E+02  0.13875838306E+02  0.34271275341E+02  0.00000000000E+00 0. -1.
</event>
<event>
 7    1  0.2480409E-009  0.1174173E+03  0.7561462E-02  0.1247419E+00
         -2   -1    0    0    0  501 -0.00000000000E+00  0.00000000000E+00  0.85347889854E+02  0.85347889854E+02  0.00000000000E+00 0.  1.
          2   -1    0    0  501    0  0.00000000000E+00 -0.00000000000E+00 -0.20365534753E+03  0.20365534753E+03  0.00000000000E+00 0. -1.
         25    2    1    2    0    0 -0.62296399509E+02  0.14341315905E+02 -0.11255994578E+03  0.18001057977E+03  0.12509017827E+03 0.  0.
          5    1    3    3  502    0 -0.58672465334E+02  0.62547763501E+02 -0.45311282508E+02  0.97083807248E+02  0.41800000000E+01 0.  1.
         -5    1    3    3    0  502 -0.36239341748E+01 -0.48206447596E+02 -0.67248663271E+02  0.82926772519E+02  0.41800000000E+01 0.  1.
        -11    1    1    2    0    0 -0.12312352801E+02 -0.22244251423E+02 -0.20341408090E+02  0.32560307676E+02  0.00000000000E+00 0. -1.
         11    1    1    2    0    0  0.74608752310E+02  0.79029355182E+01  0.14593896196E+02  0.76432349939E+02  0.00000000000E+00 0.  1.
</event>
<event>
 7    1  0.2480409E-009  0.1682793E+03  0.7561462E-02  0.1179654E+00
          1   -1    0    0  501    0  0.00000000000E+00  0.00000000000E+00  0.80935893850E+03  0.80935893850E+03  0.00000000000E+00 0. -1.
         -1   -1    0    0    0  501 -0.00000000000E+00 -0.00000000000E+00 -0.38704346590E+02  0.38704346590E+02  0.00000000000E+00 0.  1.
         25    2    1    2    0    0 -0.32923848815E+02  0.13099371166E+03  0.33508515620E+03  0.38232635553E+03  0.12509215768E+03 0.  0.
          5    1    3    3  502    0 -0.78634082471E+02  0.98585856639E+02  0.20643148088E+03  0.24193784068E+03  0.41800000000E+01 0. -1.
         -5    1    3    3    0  502  0.45710233657E+02  0.32407855021E+02  0.12865367532E+03  0.14038851485E+03  0.41800000000E+01 0. -1.
        -11    1    1    2    0    0 -0.22703005783E+02 -0.20954953203E+02  0.35318808007E+02  0.46924990510E+02  0.00000000000E+00 0.  1.
         11    1    1    2    0    0  0.55626854598E+02 -0.11003875846E+03  0.40025062770E+03  0.41881193905E+03  0.00000000000E+00 0. -1.
</event>
<event>
 7    1  0.2480409E-009  0.1512865E+03  0.7561462E-02  0.1198901E+00
          2   -1    0    0  501    0  0.00000000000E+00  0.00000000000E+00  0.12600484225E+03  0.12600484225E+03  0.00000000000E+00 0. -1.
         -2   -1    0    0    0  501 -0.00000000000E+00 -0.00000000000E+00 -0.26260523553E+03  0.26260523553E+03  0.00000000000E+00 0.  1.
         25    2    1    2    0    0  0.13923243362E+03 -0.10960228300E+02 -0.11719000501E+03  0.22110623756E+03  0.12509465951E+03 0.  0.
          5    1    3    3  502    0  0.54779719271E+02 -0.12163618208E+02  0.20192823070E+02  0.59782888478E+02  0.41800000000E+01 0. -1.
         -5    1    3    3    0  502  0.84452714348E+02  0.12033899085E+01 -0.13738282808E+03  0.16132334909E+03  0.41800000000E+01 0. -1.
        -11    1    1    2    0    0  0.84616196540E+01 -0.94007581908E+01 -0.13203124823E+02  0.18283756912E+02  0.00000000000E+00 0.  1.
         11    1    1    2    0    0 -0.14769405327E+03  0.20360986490E+02 -0.62072634386E+01  0.14922008331E+03  0.00000000000E+00 0. -1.
</event>
<event>
 7    1  0.2480409E-009  0.8719058E+02  0.7561462E-02  0.1309801E+00
         -1   -1    0    0    0  501 -0.00000000000E+00  0.00000000000E+00  0.26985088208E+03  0.26985088208E+03  0.00000000000E+00 0.  1.
          1   -1    0    0  501    0  0.00000000000E+00 -0.00000000000E+00 -0.49348746364E+02  0.49348746364E+02  0.00000000000E+00 0. -1.
         25    2    1    2    0    0  0.32384643968E+02 -0.46523057683E+02  0.15607785449E+03  0.20789884575E+03  0.12509385813E+03 0.  0.
          5    1    3    3  502    0 -0.27420744134E+02 -0.14533497213E+02  0.13222405256E+03  0.13588153747E+03  0.41800000000E+01 0.  1.
         -5    1    3    3    0  502  0.59805388101E+02 -0.31989560470E+02  0.23853801924E+02  0.72017308275E+02  0.41800000000E+01 0.  1.
        -11    1    1    2    0    0 -0.19281329712E+02 -0.66152718104E+01 -0.67894733839E+01  0.21485540380E+02  0.00000000000E+00 0. -1.
         11    1    1    2    0    0 -0.13103314255E+02  0.53138329494E+02  0.71213754614E+02  0.89815242315E+02  0.00000000000E+00 0.  1.
</event>
<event>
 7    1  0.2480409E-009  0.1276337E+03  0.7561462E-02  0.1231010E+00
         -2   -1    0    0    0  501 -0.00000000000E+00  0.00000000000E+00  0.10418487992E+04  0.10418487992E+04  0.00000000000E+00 0.  1.
          2   -1    0    0  501    0  0.00000000000E+00 -0.00000000000E+00 -0.17091456047E+02  0.17091456047E+02  0.00000000000E+00 0. -1.
         25    2    1    2    0    0 -0.32047328112E+02 -0.59912757328E+02  0.49967209829E+03  0.51955314955E+03  0.12508676858E+03 0.  0.
          5    1    3    3  502    0 -0.38560014677E+02 -0.95641443584E+02  0.32114003092E+03  0.33731669440E+03  0.41800000000E+01 0.  1.
         -5    1    3    3    0  502  0.65126865649E+01  0.35728686256E+02  0.17853206737E+03  0.18223645515E+03  0.41800000000E+01 0.  1.
        -11    1    1    2    0    0  0.23753607332E+02  0.85430696458E+02  0.46779495032E+03  0.47612472452E+03  0.00000000000E+00 0.  1.
         11    1    1    2    0    0  0.82937207804E+01 -0.25517939130E+02  0.57290294540E+02  0.63262381162E+02  0.00000000000E+00 0. -1.
</event>
<event>
 7    1  0.2480409E-009  0.1118898E+03  0.7561462E-02  0.1257110E+00
         -1   -1    0    0    0  501 -0.00000000000E+00  0.00000000000E+00  0.15528457863E+02  0.15528457863E+02  0.00000000000E+00 0.  1.
          1   -1    0    0  501    0  0.00000000000E+00 -0.00000000000E+00 -0.10465095475E+04  0.10465095475E+04  0.00000000000E+00 0. -1.
         25    2    1    2    0    0 -0.16442762862E+02  0.21195244591E+02 -0.81062045052E+03  0.82065476484E+03  0.12509646438E+03 0.  0.
          5    1    3    3  502    0  0.41242553092E+02  0.46352126737E+02 -0.31894564710E+03  0.32495117486E+03  0.41800000000E+01 0.  1.
         -5    1    3    3    0  502 -0.57685315954E+02 -0.25156882146E+02 -0.49167480342E+03  0.49570358998E+03  0.41800000000E+01 0.  1.
        -11    1    1    2    0    0  0.55028384493E+02 -0.23573686268E+02 -0.13358234997E+03  0.14638335291E+03  0.00000000000E+00 0.  1.
         11    1    1    2    0    0 -0.38585621631E+02  0.23784416776E+01 -0.86778289162E+02  0.94999887638E+02  0.00000000000E+00 0. -1.
</event>
<event>
 7    1  0.2480409E-009  0.9675750E+02  0.7561462E-02  0.1287266E+00
          1   -1    0    0  501    0  0.00000000000E+00  0.00000000000E+00  0.95943872623E+03  0.95943872623E+03  0.00000000000E+00 0. -1.
         -1   -1    0    0    0  501 -0.00000000000E+00 -0.00000000000E+00 -0.14893167301E+02  0.14893167301E+02  0.00000000000E+00 0.  1.
         25    2    1    2    0    0 -0.13032898574E+02 -0.42692930529E+02  0.62930191078E+03  0.64316419328E+03  0.12508693712E+03 0.  0.
          5    1    3    3  502    0  0.32059436322E+02 -0.56761139088E+02  0.18222821797E+03  0.19358261851E+03  0.41800000000E+01 0.  1.
         -5    1    3    3    0  502 -0.45092334896E+02  0.14068208559E+02  0.44707369281E+03  0.44958157476E+03  0.41800000000E+01 0.  1.
        -11    1    1    2    0    0 -0.21239291543E+02 -0.52117890021E+01  0.18530056834E+02  0.28664145829E+02  0.00000000000E+00 0.  1.
         11    1    1    2    0    0  0.34272190117E+02  0.47904719531E+02  0.29671359131E+03  0.30250355442E+03  0.00000000000E+00 0. -1.
</event>
<event>
 7    1  0.2480409E-009  0.1028639E+03  0.7561462E-02  0.1274386E+00
          1   -1    0    0  501    0  0.00000000000E+00  0.00000000000E+00  0.10206642641E+03  0.10206642641E+03  0.00000000000E+00 0. -1.
         -1   -1    0    0    0  501 -0.00000000000E+00 -0.00000000000E+00 -0.11816822400E+03  0.11816822400E+03  0.00000000000E+00 0.  1.
         25    2    1    2    0    0 -0.91842338124E+01 -0.17257362605E+02 -0.89764625075E+01  0.12692327352E+03  0.12508706474E+03 0.  0.
          5    1    3    3  502    0 -0.37874757339E+02  0.35964810720E+02  0.24326961721E+02  0.57768835198E+02  0.41800000000E+01 0.  1.
         -5    1    3    3    0  502  0.28690523526E+02 -0.53222173325E+02 -0.33303424229E+02  0.69154438318E+02  0.41800000000E+01 0.  1.
        -11    1    1    2    0    0 -0.40122026470E+02 -0.10306651405E+01  0.71453396184E+00  0.40141622258E+02  0.00000000000E+00 0.  1.
         11    1    1    2    0    0  0.49306260283E+02  0.18288027746E+02 -0.78398690477E+01  0.53169754641E+02  0.00000000000E+00 0. -1.
</event>
<event>
 7    1  0.2480409E-009  0.7526006E+02  0.7561462E-02  0.1343068E+00
          4   -1    0    0  501    0  0.00000000000E+00  0.00000000000E+00  0.76542440880E+02  0.76542440880E+02  0.00000000000E+00 0. -1.
         -4   -1    0    0    0  501 -0.00000000000E+00 -0.00000000000E+00 -0.16956082607E+03  0.16956082607E+03  0.00000000000E+00 0.  1.
         25    2    1    2    0    0  0.15360609731E+01  0.32438383820E+02 -0.62543612044E+02  0.14357375889E+03  0.12508841915E+03 0.  0.
          5    1    3    3  502    0 -0.32406009365E+02  0.38790488995E+02 -0.87242163682E+02  0.10091342331E+03  0.41800000000E+01 0.  1.
         -5    1    3    3    0  502  0.33942070339E+02 -0.63521051756E+01  0.24698551638E+02  0.42660335583E+02  0.41800000000E+01 0.  1.
        -11    1    1    2    0    0 -0.37496546086E+01 -0.48580723086E+02 -0.54750795772E+02  0.73292538522E+02  0.00000000000E+00 0.  1.
         11    1    1    2    0    0  0.22135936355E+01  0.16142339267E+02  0.24276022621E+02  0.29236969543E+02  0.00000000000E+00 0. -1.
</event>
<event>
 7    1  0.2480409E-009  0.1127712E+03  0.7561462E-02  0.1255523E+00
          1   -1    0    0  501    0  0.00000000000E+00  0.00000000000E+00  0.10080163858E+04  0.10080163858E+04  0.00000000000E+00 0. -1.
         -1   -1    0    0    0  501 -0.00000000000E+00 -0.00000000000E+00 -0.20991433879E+02  0.20991433879E+02  0.00000000000E+00 0.  1.
         25    2    1    2    0    0  0.81873078271E+02  0.27040690708E+02  0.66071163206E+03  0.67795262138E+03  0.12508195795E+03 0.  0.
          5    1    3    3  502    0 -0.85360668242E+01  0.45455054602E+02  0.37049143012E+03  0.37339041045E+03  0.41800000000E+01 0. -1.
         -5    1    3    3    0  502  0.90409145095E+02 -0.18414363893E+02  0.29022020194E+03  0.30456221093E+03  0.41800000000E+01 0. -1.
        -11    1    1    2    0    0 -0.71755743386E+02 -0.26881043216E+02  0.33110752410E+03  0.33985830829E+03  0.00000000000E+00 0. -1.
         11    1    1    2    0    0 -0.10117334885E+02 -0.15964749268E+00 -0.47942042110E+01  0.11196890037E+02  0.00000000000E+00 0.  1.
</event>
<event>
 7    1  0.2480409E-009  0.2105115E+03  0.7561462E-02  0.1141162E+00
          2   -1    0    0  501    0  0.00000000000E+00  0.00000000000E+00  0.42990939940E+03  0.42990939940E+03  0.00000000000E+00 0. -1.
         -2   -1    0    0    0  501 -0.00000000000E+00 -0.00000000000E+00 -0.14193959580E+03  0.14193959580E+03  0.00000000000E+00 0.  1.
         25    2    1    2    0    0 -0.17528555345E+03  0.67277002041E+02  0.27953091717E+03  0.35921637476E+03  0.12509056716E+03 0.  0.
          5    1    3    3  502    0 -0.56609570929E+02  0.79293958760E+02  0.77500645937E+02  0.12456322867E+03  0.41800000000E+01 0. -1.
         -5    1    3    3    0  502 -0.11867598252E+03 -0.12016956720E+02  0.20203027123E+03  0.23465314609E+03  0.41800000000E+01 0. -1.
        -11    1    1    2    0    0  0.15488808363E+03 -0.24574527659E+02  0.31548869427E+02  0.15996736236E+03  0.00000000000E+00 0.  1.
         11    1    1    2    0    0  0.20397469827E+02 -0.42702474382E+02 -0.23109983003E+02  0.52665258075E+02  0.00000000000E+00 0. -1.
</event>
<event>
 7    1  0.2480409E-009  0.1062114E+03  0.7561462E-02  0.1267751E+00
          1   -1    0    0  501    0  0.00000000000E+00  0.00000000000E+00  0.85647740844E+02  0.85647740844E+02  0.00000000000E+00 0. -1.
         -1   -1    0    0    0  501 -0.00000000000E+00 -0.00000000000E+00 -0.19849667280E+03  0.19849667280E+03  0.00000000000E+00 0.  1.
         25    2    1    2    0    0  0.40712781575E+02  0.87731925987E+01  0.56894936497E+00  0.13184213754E+03  0.12509007169E+03 0.  0.
          5    1    3    3  502    0  0.70456785429E+02  0.44768450069E+02 -0.87689853843E+01  0.84040110895E+02  0.41800000000E+01 0.  1.
         -5    1    3    3    0  502 -0.29744003854E+02 -0.35995257470E+02  0.93379347493E+01  0.47802026641E+02  0.41800000000E+01 0.  1.
        -11    1    1    2    0    0  0.19253794512E+02  0.60627846665E+01 -0.79100704093E+02  0.81635698987E+02  0.00000000000E+00 0.  1.
         11    1    1    2    0    0 -0.59966576088E+02 -0.14835977265E+02 -0.34317177227E+02  0.70666577121E+02  0.00000000000E+00 0. -1.
</event>
<event>
 7    1  0.2480409E-009  0.1079757E+03  0.7561462E-02  0.1264365E+00
         -1   -1    0    0    0  501 -0.00000000000E+00  0.00000000000E+00  0.22797372294E+02  0.22797372294E+02  0.00000000000E+00 0.  1.
          1   -1    0    0  501    0  0.00000000000E+00 -0.00000000000E+00 -0.55397286703E+03  0.55397286703E+03  0.00000000000E+00 0. -1.
         25    2    1    2    0    0 -0.26430137682E+02  0.12236498807E+02 -0.29008224742E+03  0.31724528592E+03  0.12509427280E+03 0.  0.
          5    1    3    3  502    0  0.25399156715E+02 -0.44162120524E+02 -0.10110907992E+03  0.11329575673E+03  0.41800000000E+01 0.  1.
         -5    1    3    3    0  502 -0.51829294397E+02  0.56398619331E+02 -0.18897316749E+03  0.20394952918E+03  0.41800000000E+01 0.  1.
        -11    1    1    2    0    0  0.15000365629E+02 -0.48151747607E+02 -0.18640270352E+03  0.19310507411E+03  0.00000000000E+00 0. -1.
         11    1    1    2    0    0  0.11429772053E+02  0.35915248801E+02 -0.54690543802E+02  0.66419879305E+02  0.00000000000E+00 0.  1.
</event>
<event>
 7    1  0.2480409E-009  0.7304897E+02  0.7561462E-02  0.1350021E+00
          1   -1    0    0  501    0  0.00000000000E+00  0.00000000000E+00  0.16246374131E+03  0.16246374131E+03  0.00000000000E+00 0. -1.
         -1   -1    0    0    0  501 -0.00000000000E+00 -0.00000000000E+00 -0.85282107590E+02  0.85282107590E+02  0.00000000000E+00 0.  1.
         25    2    1    2    0    0  0.33044347010E+01 -0.26936483015E+02  0.76371949259E+02  0.14904231820E+03  0.12507775412E+03 0.  0.
          5    1    3    3  502    0 -0.31134617465E+01  0.44177215485E+02  0.61641542608E+02  0.76016262649E+02  0.41800000000E+01 0.  1.
         -5    1    3    3    0  502  0.64178964475E+01 -0.71113698501E+02  0.14730406650E+02  0.73026055551E+02  0.41800000000E+01 0.  1.
        -11    1    1    2    0    0 -0.83527484711E+01  0.16290703802E+02  0.47312717491E+02  0.50731141065E+02  0.00000000000E+00 0. -1.
         11    1    1    2    0    0  0.50483137701E+01  0.10645779213E+02 -0.46503033026E+02  0.47972389638E+02  0.00000000000E+00 0.  1.
</event>
<event>
 7    1  0.2480409E-009  0.1252260E+03  0.7561462E-02  0.1234717E+00
          3   -1    0    0  501    0  0.00000000000E+00  0.00000000000E+00  0.71311847076E+02  0.71311847076E+02  0.00000000000E+00 0. -1.
         -3   -1    0    0    0  501 -0.00000000000E+00 -0.00000000000E+00 -0.22918742409E+03  0.22918742409E+03  0.00000000000E+00 0.  1.
         25    2    1    2    0    0  0.22431162976E+02 -0.74295731141E+02 -0.87942490469E+02  0.17147654615E+03  0.12508921421E+03 0.  0.
          5    1    3    3  502    0 -0.35046586657E+01 -0.10429839957E+03 -0.47687445974E+02  0.11481290733E+03  0.41800000000E+01 0. -1.
         -5    1    3    3    0  502  0.25935821641E+02  0.30002668433E+02 -0.40255044495E+02  0.56663638822E+02  0.41800000000E+01 0. -1.
        -11    1    1    2    0    0  0.96281087672E+01  0.73433068873E+02 -0.60390784823E+02  0.95562351238E+02  0.00000000000E+00 0.  1.
         11    1    1    2    0    0 -0.32059271743E+02  0.86266226765E+00 -0.95423017177E+01  0.33460373772E+02  0.00000000000E+00 0. -1.
</event>
<event>
 7    1  0.2480409E-009  0.3431664E+03  0.7561462E-02  0.1065455E+00
          1   -1    0    0  501    0  0.00000000000E+00  0.00000000000E+00  0.45150192644E+03  0.45150192644E+03  0.00000000000E+00 0. -1.
         -1   -1    0    0    0  501 -0.00000000000E+00 -0.00000000000E+00 -0.45576230198E+03  0.45576230198E+03  0.00000000000E+00 0.  1.
         25    2    1    2    0    0 -0.33227893927E+03 -0.64817464667E+02 -0.28382793403E+03  0.45915236394E+03  0.12510795322E+03 0.  0.
          5    1    3    3  502    0 -0.22328094614E+03 -0.34663444192E+02 -0.25816975103E+03  0.34311081012E+03  0.41800000000E+01 0. -1.
         -5    1    3    3    0  502 -0.10899799313E+03 -0.30154020476E+02 -0.25658183004E+02  0.11604155382E+03  0.41800000000E+01 0. -1.
        -11    1    1    2    0    0  0.35957402170E+02  0.33591314324E+02  0.20622137443E+02  0.53353385287E+02  0.00000000000E+00 0.  1.
         11    1    1    2    0    0  0.29632153710E+03  0.31226150344E+02  0.25894542104E+03  0.39475847919E+03  0.00000000000E+00 0. -1.
</event>
<event>
 7    1  0.2480409E-009  0.1074421E+03  0.7561462E-02  0.1265381E+00
          1   -1    0    0  501    0  0.00000000000E+00  0.00000000000E+00  0.55280967530E+03  0.55280967530E+03  0.00000000000E+00 0. -1.
         -1   -1    0    0    0  501 -0.00000000000E+00 -0.00000000000E+00 -0.35456983784E+02  0.35456983784E+02  0.00000000000E+00 0.  1.
         25    2    1    2    0    0  0.87030536180E+02  0.11548769055E+02  0.31184891933E+03  0.34728284847E+03  0.12509172659E+03 0.  0.
          5    1    3    3  502    0  0.66686670181E+02  0.35420824549E+02  0.68974007805E+02  0.10235542460E+03  0.41800000000E+01 0. -1.
         -5    1    3    3    0  502  0.20343865998E+02 -0.23872055494E+02  0.24287491153E+03  0.24492742388E+03  0.41800000000E+01 0. -1.
        -11    1    1    2    0    0 -0.58317567136E+02 -0.37152116340E+02  0.63565100593E+02  0.93924120430E+02  0.00000000000E+00 0.  1.
         11    1    1    2    0    0 -0.28712969044E+02  0.25603347285E+02  0.14193867159E+03  0.14705969018E+03  0.00000000000E+00 0. -1.
</event>
<event>
 7    1  0.2480409E-009  0.2171471E+03  0.7561462E-02  0.1136028E+00
         -2   -1    0    0    0  501 -0.00000000000E+00  0.00000000000E+00  0.43742422949E+02  0.43742422949E+02  0.00000000000E+00 0. -1.
          2   -1    0    0  501    0  0.00000000000E+00 -0.00000000000E+00 -0.11963853305E+04  0.11963853305E+04  0.00000000000E+00 0.  1.
         25    2    1    2    0    0 -0.16698295823E+02  0.20039130341E+03 -0.60794784663E+03  0.65244750359E+03  0.12510656718E+03 0.  0.
          5    1    3    3  502    0  0.10556332182E+02  0.19929042439E+03 -0.57904920490E+03  0.61248964359E+03  0.41800000000E+01 0. -1.
         -5    1    3    3    0  502 -0.27254628005E+02  0.11008790173E+01 -0.28898641734E+02  0.39957860007E+02  0.41800000000E+01 0. -1.
        -11    1    1    2    0    0  0.30456999543E+02 -0.17953142800E+03 -0.52554230640E+03  0.55619589919E+03  0.00000000000E+00 0.  1.
         11    1    1    2    0    0 -0.13758703720E+02 -0.20859875412E+02 -0.19152754473E+02  0.31484350623E+02  0.00000000000E+00 0. -1.
</event>
<event>
 7    1  0.2480409E-009  0.1366085E+03  0.7561462E-02  0.1217967E+00
          2   -1    0    0  501    0  0.00000000000E+00  0.00000000000E+00  0.22113915726E+03  0.22113915726E+03  0.00000000000E+00 0. -1.
         -2   -1    0    0    0  501 -0.00000000000E+00 -0.00000000000E+00 -0.98984255944E+02  0.98984255944E+02  0.00000000000E+00 0.  1.
         25    2    1    2    0    0  0.54199943159E+02 -0.75414109171E+02  0.10460085514E+03  0.18765370788E+03  0.12509058111E+03 0.  0.
          5    1    3    3  502    0  0.67930768214E+02  0.28975839901E+01  0.18935261255E+02  0.70703619298E+02  0.41800000000E+01 0. -1.
         -5    1    3    3    0  502 -0.13730825055E+02 -0.78311693161E+02  0.85665593888E+02  0.11695008858E+03  0.41800000000E+01 0. -1.
        -11    1    1    2    0    0 -0.26595810210E+02 -0.15283668123E+02  0.21699154307E+02  0.37573673359E+02  0.00000000000E+00 0.  1.
         11    1    1    2    0    0 -0.27604132949E+02  0.90697777294E+02 -0.41451081349E+01  0.94896031968E+02  0.00000000000E+00 0. -1.
</event>
<event>
 7    1  0.2480409E-009  0.1671785E+03  0.7561462E-02  0.1180823E+00
          1   -1    0    0  501    0  0.00000000000E+00  0.00000000000E+00  0.55915327936E+02  0.55915327936E+02  0.00000000000E+00 0. -1.
         -1   -1    0    0    0  501 -0.00000000000E+00 -0.00000000000E+00 -0.80503372259E+03  0.80503372259E+03  0.00000000000E+00 0.  1.
         25    2    1    2    0    0 -0.12182749526E+03 -0.73079398204E+02 -0.61704818435E+03  0.64542921856E+03  0.12509147581E+03 0.  0.
          5    1    3    3  502    0 -0.14562825021E+03 -0.45569952780E+02 -0.49351725548E+03  0.51658587061E+03  0.41800000000E+01 0.  1.
         -5    1    3    3    0  502  0.23800754957E+02 -0.27509445424E+02 -0.12353092887E+03  0.12884334795E+03  0.41800000000E+01 0.  1.
        -11    1    1    2    0    0  0.11009847357E+03  0.53835862276E+02 -0.53398444626E+02  0.13368383536E+03  0.00000000000E+00 0.  1.
         11    1    1    2    0    0  0.11729021687E+02  0.19243535928E+02 -0.78671765676E+02  0.81835996599E+02  0.00000000000E+00 0. -1.
</event>
<event>
 7    1  0.2480409E-009  0.8795443E+02  0.7561462E-02  0.1307882E+00
          1   -1    0    0  501    0  0.00000000000E+00  0.00000000000E+00  0.14025031584E+03  0.14025031584E+03  0.00000000000E+00 0. -1.
         -1   -1    0    0    0  501 -0.00000000000E+00 -0.00000000000E+00 -0.10714921386E+03  0.10714921386E+03  0.00000000000E+00 0.  1.
         25    2    1    2    0    0 -0.20857780347E+02 -0.12641393391E+02  0.73630127416E+02  0.14718315429E+03  0.12508650374E+03 0.  0.
          5    1    3    3  502    0 -0.65670809175E+02 -0.43917453684E+01  0.76903025572E+02  0.10130888583E+03  0.41800000000E+01 0. -1.
         -5    1    3    3    0  502  0.44813028827E+02 -0.82496480223E+01 -0.32728981558E+01  0.45874268468E+02  0.41800000000E+01 0. -1.
        -11    1    1    2    0    0  0.16942050392E+02  0.36385542968E+02 -0.57961008350E+02  0.70501200681E+02  0.00000000000E+00 0.  1.
         11    1    1    2    0    0  0.39157299555E+01 -0.23744149577E+02  0.17431982912E+02  0.29715174717E+02  0.00000000000E+00 0. -1.
</event>
<event>
 7    1  0.2480409E-009  0.1270030E+03  0.7561462E-02  0.1231972E+00
         -2   -1    0    0    0  501 -0.00000000000E+00  0.00000000000E+00  0.46030215312E+02  0.46030215312E+02  0.00000000000E+00 0.  1.
          2   -1    0    0  501    0  0.00000000000E+00 -0.00000000000E+00 -0.45633204167E+03  0.45633204167E+03  0.00000000000E+00 0. -1.
         25    2    1    2    0    0  0.16842509746E+02 -0.91277604597E+02 -0.19800389495E+03  0.25192978494E+03  0.12509117830E+03 0.  0.
          5    1    3    3  502    0  0.48344756364E+02 -0.54347269840E+02 -0.33183185901E+02  0.80058962231E+02  0.41800000000E+01 0.  1.
         -5    1    3    3    0  502 -0.31502246618E+02 -0.36930334758E+02 -0.16482070905E+03  0.17187082271E+03  0.41800000000E+01 0.  1.
        -11    1    1    2    0    0  0.35322909569E+02  0.65091012378E+02 -0.10886938142E+03  0.13167038408E+03  0.00000000000E+00 0. -1.
         11    1    1    2    0    0 -0.52165419315E+02  0.26186592219E+02 -0.10342854999E+03  0.11876208796E+03  0.00000000000E+00 0.  1.
</event>
<event>
 7    1  0.2480409E-009  0.2234127E+03  0.7561462E-02  0.1131364E+00
         -1   -1    0    0    0  501 -0.00000000000E+00  0.00000000000E+00  0.43162292966E+02  0.43162292966E+02  0.00000000000E+00 0.  1.
          1   -1    0    0  501    0  0.00000000000E+00 -0.00000000000E+00 -0.11877241443E+04  0.11877241443E+04  0.00000000000E+00 0. -1.
         25    2    1    2    0    0  0.69777876239E+02  0.18420050042E+03 -0.53522390221E+03  0.58387462517E+03  0.12508467556E+03 0.  0.
          5    1    3    3  502    0 -0.15224951453E+02  0.12407256286E+03 -0.23713861888E+03  0.26810072168E+03  0.41800000000E+01 0.  1.
         -5    1    3    3    0  502  0.85002827692E+02  0.60127937558E+02 -0.29808528333E+03  0.31577390349E+03  0.41800000000E+01 0.  1.
        -11    1    1    2    0    0 -0.15211741472E+02 -0.15483981995E+03 -0.43309892583E+03  0.46019718217E+03  0.00000000000E+00 0. -1.
         11    1    1    2    0    0 -0.54566134768E+02 -0.29360680470E+02 -0.17623902326E+03  0.18681462989E+03  0.00000000000E+00 0.  1.
</event>
<event>
 7    1  0.2480409E-009  0.1465184E+03  0.7561462E-02  0.1204818E+00
         -1   -1    0    0    0  501 -0.00000000000E+00  0.00000000000E+00  0.13122913729E+03  0.13122913729E+03  0.00000000000E+00 0.  1.
          1   -1    0    0  501    0  0.00000000000E+00 -0.00000000000E+00 -0.24122819144E+03  0.24122819144E+03  0.00000000000E+00 0. -1.
         25    2    1    2    0    0 -0.13407783350E+03 -0.69813886510E+01 -0.12737250578E+02  0.18394587840E+03  0.12509293907E+03 0.  0.
          5    1    3    3  502    0 -0.11146272768E+03  0.59211846886E+01 -0.62232096256E+02  0.12786440589E+03  0.41800000000E+01 0.  1.
         -5    1    3    3    0  502 -0.22615105823E+02 -0.12902573340E+02  0.49494845678E+02  0.56081472510E+02  0.41800000000E+01 0.  1.
        -11    1    1    2    0    0  0.35049469265E+02 -0.33031694515E+02 -0.69901670321E+01  0.48666421416E+02  0.00000000000E+00 0. -1.
         11    1    1    2    0    0  0.99028364240E+02  0.40013083166E+02 -0.90271636531E+02  0.13984502891E+03  0.00000000000E+00 0.  1.
</event>
<event>
 7    1  0.2480409E-009  0.1506667E+03  0.7561462E-02  0.1199656E+00
         -2   -1    0    0    0  501 -0.00000000000E+00  0.00000000000E+00  0.29972552154E+02  0.29972552154E+02  0.00000000000E+00 0.  1.
          2   -1    0    0  501    0  0.00000000000E+00 -0.00000000000E+00 -0.15982886808E+04  0.15982886808E+04  0.00000000000E+00 0. -1.
         25    2    1    2    0    0  0.11885970058E+03 -0.58566900311E+01 -0.13626233277E+04  0.13735180947E+04  0.12509074288E+03 0.  0.
          5    1    3    3  502    0  0.13635133292E+03 -0.71207273816E+00 -0.87805921170E+03  0.88859307035E+03  0.41800000000E+01 0.  1.
         -5    1    3    3    0  502 -0.17491632343E+02 -0.51446172930E+01 -0.48456411599E+03  0.48492502430E+03  0.41800000000E+01 0.  1.
        -11    1    1    2    0    0 -0.11888680920E+03  0.29560544929E+02 -0.19081845612E+03  0.22675886403E+03  0.00000000000E+00 0. -1.
         11    1    1    2    0    0  0.27108623137E-01 -0.23703854898E+02 -0.14874344834E+02  0.27984274265E+02  0.00000000000E+00 0.  1.
</event>
<event>
 7    1  0.2480409E-009  0.1206451E+03  0.7561462E-02  0.1242037E+00
         -1   -1    0    0    0  501 -0.00000000000E+00  0.00000000000E+00  0.14374099132E+03  0.14374099132E+03  0.00000000000E+00 0.  1.
          1   -1    0    0  501    0  0.00000000000E+00 -0.00000000000E+00 -0.10247140678E+03  0.10247140678E+03  0.00000000000E+00 0. -1.
         25    2    1    2    0    0  0.30398418409E+02 -0.43314827440E+02  0.11373403093E+02  0.13629488592E+03  0.12508678392E+03 0.  0.
          5    1    3    3  502    0 -0.28600817333E+02  0.29772274085E+02 -0.69821714589E+00  0.41501264601E+02  0.41800000000E+01 0. -1.
         -5    1    3    3    0  502  0.58999235742E+02 -0.73087101525E+02  0.12071620239E+02  0.94793621318E+02  0.41800000000E+01 0. -1.
        -11    1    1    2    0    0 -0.30432546936E+02  0.71437894755E+02  0.22122067525E+02  0.80739696504E+02  0.00000000000E+00 0. -1.
         11    1    1    2    0    0  0.34128527335E-01 -0.28123067315E+02  0.77741139211E+01  0.29177815669E+02  0.00000000000E+00 0.  1.
</event>
<event>
 7    1  0.2480409E-009  0.7577289E+02  0.7561462E-02  0.1341494E+00
          1   -1    0    0  501    0  0.00000000000E+00  0.00000000000E+00  0.70822838926E+03  0.70822838926E+03  0.00000000000E+00 0. -1.
         -1   -1    0    0    0  501 -0.00000000000E+00 -0.00000000000E+00 -0.19342857266E+02  0.19342857266E+02  0.00000000000E+00 0.  1.
         25    2    1    2    0    0  0.73516642533E+01 -0.40991521072E+02  0.45731138642E+03  0.47593645830E+03  0.12508979345E+03 0.  0.
          5    1    3    3  502    0 -0.21837724539E+02 -0.54258909317E+01  0.40695403312E+03  0.40759708534E+03  0.41800000000E+01 0. -1.
         -5    1    3    3    0  502  0.29189388792E+02 -0.35565630140E+02  0.50357353299E+02  0.68339372961E+02  0.41800000000E+01 0. -1.
        -11    1    1    2    0    0  0.32084233986E+02  0.19556016864E+02  0.17714192191E+03  0.18108312004E+03  0.00000000000E+00 0. -1.
         11    1    1    2    0    0 -0.39435898239E+02  0.21435504208E+02  0.54432223669E+02  0.70551668189E+02  0.00000000000E+00 0.  1.
</event>
<event>
 7    1  0.2480409E-009  0.5084245E+02  0.7561462E-02  0.1440850E+00
          1   -1    0    0  501    0  0.00000000000E+00  0.00000000000E+00  0.18541966694E+03  0.18541966694E+03  0.00000000000E+00 0. -1.
         -1   -1    0    0    0  501 -0.00000000000E+00 -0.00000000000E+00 -0.71713502638E+02  0.71713502638E+02  0.00000000000E+00 0.  1.
         25    2    1    2    0    0 -0.89019435917E+01 -0.18251970695E+02  0.10037139828E+03  0.16165982375E+03  0.12508837671E+03 0.  0.
          5    1    3    3  502    0  0.12029745549E+02  0.78586492437E+01 -0.26472283641E+02  0.30409329935E+02  0.41800000000E+01 0.  1.
         -5    1    3    3    0  502 -0.20931689141E+02 -0.26110619938E+02  0.12684368192E+03  0.13125049381E+03  0.41800000000E+01 0.  1.
        -11    1    1    2    0    0 -0.20185828291E+02  0.11118783979E+02  0.45819861598E+02  0.51288933873E+02  0.00000000000E+00 0. -1.
         11    1    1    2    0    0  0.29087771883E+02  0.71331867158E+01 -0.32485095571E+02  0.44184411958E+02  0.00000000000E+00 0.  1.
</event>
<event>
 7    1  0.2480409E-009  0.1325520E+03  0.7561462E-02  0.1223717E+00
         -3   -1    0    0    0  501 -0.00000000000E+00  0.00000000000E+00  0.44377053274E+03  0.44377053274E+03  0.00000000000E+00 0.  1.
          3   -1    0    0  501    0  0.00000000000E+00 -0.00000000000E+00 -0.40194547769E+02  0.40194547769E+02  0.00000000000E+00 0. -1.
         25    2    1    2    0    0 -0.26114738602E+02 -0.72701050138E+02  0.21798010506E+03  0.26292624507E+03  0.12508981526E+03 0.  0.
          5    1    3    3  502    0  0.50387877696E+02 -0.35977736142E+02  0.91321104942E+02  0.11040992856E+03  0.41800000000E+01 0. -1.
         -5    1    3    3    0  502 -0.76502616298E+02 -0.36723313997E+02  0.12665900012E+03  0.15251631652E+03  0.41800000000E+01 0. -1.
        -11    1    1    2    0    0 -0.31411576571E+02  0.43266354615E+02  0.64487610399E+02  0.83769424490E+02  0.00000000000E+00 0.  1.
         11    1    1    2    0    0  0.57526315174E+02  0.29434695523E+02  0.12110826951E+03  0.13726941095E+03  0.00000000000E+00 0. -1.
</event>
<event>
 7    1  0.2480409E-009  0.9160874E+02  0.7561462E-02  0.1299002E+00
         -2   -1    0    0    0  501 -0.00000000000E+00  0.00000000000E+00  0.23553849138E+02  0.23553849138E+02  0.00000000000E+00 0.  1.
          2   -1    0    0  501    0  0.00000000000E+00 -0.00000000000E+00 -0.87344650669E+03  0.87344650669E+03  0.00000000000E+00 0. -1.
         25    2    1    2    0    0  0.73843289515E+02 -0.60655709576E+01 -0.63998785403E+03  0.65629522005E+03  0.12509732210E+03 0.  0.
          5    1    3    3  502    0  0.51037318361E+01 -0.33019498015E+02 -0.46635825536E+03  0.46757227256E+03  0.41800000000E+01 0.  1.
         -5    1    3    3    0  502  0.68739557679E+02  0.26953927057E+02 -0.17362959867E+03  0.18872294749E+03  0.41800000000E+01 0.  1.
        -11    1    1    2    0    0 -0.44181394472E+02  0.10980916704E+02 -0.20530127122E+03  0.21028834517E+03  0.00000000000E+00 0. -1.
         11    1    1    2    0    0 -0.29661895043E+02 -0.49153457467E+01 -0.46035323032E+01  0.30416790610E+02  0.00000000000E+00 0.  1.
</event>
<event>
 7    1  0.2480409E-009  0.1131651E+03  0.7561462E-02  0.1254818E+00
         -2   -1    0    0    0  501 -0.00000000000E+00  0.00000000000E+00  0.97752203106E+02  0.97752203106E+02  0.00000000000E+00 0.  1.
          2   -1    0    0  501    0  0.00000000000E+00 -0.00000000000E+00 -0.21696653541E+03  0.21696653541E+03  0.00000000000E+00 0. -1.
         25    2    1    2    0    0  0.18904534595E+02 -0.47180899019E+02 -0.15322501384E+03  0.20422871335E+03  0.12509214136E+03 0.  0.
          5    1    3    3  502    0 -0.52415876024E+02 -0.70846902642E+01 -0.62697899824E+02  0.82134742575E+02  0.41800000000E+01 0.  1.
         -5    1    3    3    0  502  0.71320410619E+02 -0.40096208755E+02 -0.90527114015E+02  0.12209397077E+03  0.41800000000E+01 0.  1.
        -11    1    1    2    0    0 -0.48560452452E+02  0.29697474803E+02  0.46875853770E+02  0.73738749777E+02  0.00000000000E+00 0.  1.
         11    1    1    2    0    0  0.29655917857E+02  0.17483424216E+02 -0.12865172236E+02  0.36751275392E+02  0.00000000000E+00 0. -1.
</event>
<event>
 7    1  0.2480409E-009  0.1069492E+03  0.7561462E-02  0.1266326E+00
          1   -1    0    0  501    0  0.00000000000E+00  0.00000000000E+00  0.86176933651E+03  0.86176933651E+03  0.00000000000E+00 0. -1.
         -1   -1    0    0    0  501 -0.00000000000E+00 -0.00000000000E+00 -0.48708900464E+02  0.48708900464E+02  0.00000000000E+00 0.  1.
         25    2    1    2    0    0 -0.84026457565E+02  0.10031715733E+02  0.75670501660E+03  0.77162913618E+03  0.12509180933E+03 0.  0.
          5    1    3    3  502    0 -0.67634715572E+02 -0.32880486893E+02  0.66218421831E+03  0.66645404384E+03  0.41800000000E+01 0. -1.
         -5    1    3    3    0  502 -0.16391741993E+02  0.42912202626E+02  0.94520798291E+02  0.10517509234E+03  0.41800000000E+01 0. -1.
        -11    1    1    2    0    0  0.78249010047E+02  0.28854557897E+01 -0.24745362671E+01  0.78341283869E+02  0.00000000000E+00 0.  1.
         11    1    1    2    0    0  0.57774475178E+01 -0.12917171522E+02  0.58829955710E+02  0.60507816923E+02  0.00000000000E+00 0. -1.
</event>
<event>
 7    1  0.2480409E-009  0.1176015E+03  0.7561462E-02  0.1247107E+00
         -2   -1    0    0    0  501 -0.00000000000E+00  0.00000000000E+00  0.16498408701E+02  0.16498408701E+02  0.00000000000E+00 0.  1.
          2   -1    0    0  501    0  0.00000000000E+00 -0.00000000000E+00 -0.13408478003E+04  0.13408478003E+04  0.00000000000E+00 0. -1.
         25    2    1    2    0    0 -0.32015796665E+02  0.48024577488E+02 -0.10968847994E+04  0.11055029746E+04  0.12509673169E+03 0.  0.
          5    1    3    3  502    0 -0.74247814859E+02  0.54218564415E+02 -0.84452273407E+03  0.84952251972E+03  0.41800000000E+01 0.  1.
         -5    1    3    3    0  502  0.42232018194E+02 -0.61939869270E+01 -0.25236206535E+03  0.25598045484E+03  0.41800000000E+01 0.  1.
        -11    1    1    2    0    0 -0.69547607549E+01 -0.59306147320E+02 -0.86155132227E+02  0.10482506674E+03  0.00000000000E+00 0. -1.
         11    1    1    2    0    0  0.38970557420E+02  0.11281569832E+02 -0.14130945991E+03  0.14701816766E+03  0.00000000000E+00 0.  1.
</event>
<event>
 7    1  0.2480409E-009  0.1669329E+03  0.7561462E-02  0.1181085E+00
         -2   -1    0    0    0  501 -0.00000000000E+00  0.00000000000E+00  0.26058793870E+03  0.26058793870E+03  0.00000000000E+00 0.  1.
          2   -1    0    0  501    0  0.00000000000E+00 -0.00000000000E+00 -0.13418302283E+03  0.13418302283E+03  0.00000000000E+00 0. -1.
         25    2    1    2    0    0  0.13175544472E+03 -0.60563820737E+02  0.17548610244E+02  0.19231037258E+03  0.12509137493E+03 0.  0.
          5    1    3    3  502    0  0.89316348999E+02 -0.21921114089E-01  0.59306946233E+02  0.10729490645E+03  0.41800000000E+01 0. -1.
         -5    1    3    3    0  502  0.42439095723E+02 -0.60541899623E+02 -0.41758335989E+02  0.85015466124E+02  0.41800000000E+01 0. -1.
        -11    1    1    2    0    0 -0.65633585643E+02  0.78074853449E+02  0.71075879850E+02  0.12431906934E+03  0.00000000000E+00 0. -1.
         11    1    1    2    0    0 -0.66121859079E+02 -0.17511032712E+02  0.37780425782E+02  0.78141519610E+02  0.00000000000E+00 0.  1.
</event>
<event>
 7    1  0.2480409E-009  0.2666797E+03  0.7561462E-02  0.1103195E+00
         -1   -1    0    0    0  501 -0.00000000000E+00  0.00000000000E+00  0.30344190375E+03  0.30344190375E+03  0.00000000000E+00 0.  1.
          1   -1    0    0  501    0  0.00000000000E+00 -0.00000000000E+00 -0.29155838797E+03  0.29155838797E+03  0.00000000000E+00 0. -1.
         25    2    1    2    0    0  0.22071266866E+03 -0.12386807122E+03  0.11786124968E+03  0.30593283485E+03  0.12508494749E+03 0.  0.
          5    1    3    3  502    0  0.65784627651E+02  0.68027287774E+01  0.72458315334E+02  0.98191518040E+02  0.41800000000E+01 0. -1.
         -5    1    3    3    0  502  0.15492804101E+03 -0.13067080000E+03  0.45402934346E+02  0.20774131681E+03  0.41800000000E+01 0. -1.
        -11    1    1    2    0    0 -0.12431885580E+02  0.36412168364E+02  0.23332557117E+01  0.38546619388E+02  0.00000000000E+00 0.  1.
         11    1    1    2    0    0 -0.20828078308E+03  0.87455902857E+02 -0.10831098961E+03  0.25052083749E+03  0.00000000000E+00 0. -1.
</event>
<event>
 7    1  0.2480409E-009  0.6651313E+02  0.7561462E-02  0.1372368E+00
         -4   -1    0    0    0  501 -0.00000000000E+00  0.00000000000E+00  0.19360967048E+03  0.19360967048E+03  0.00000000000E+00 0.  1.
          4   -1    0    0  501    0  0.00000000000E+00 -0.00000000000E+00 -0.72570986569E+02  0.72570986569E+02  0.00000000000E+00 0. -1.
         25    2    1    2    0    0  0.12099008830E+01 -0.22006199891E+02  0.18553607106E+02  0.12836323343E+03  0.12508855529E+03 0.  0.
          5    1    3    3  502    0  0.15968879900E+02 -0.45318671459E+02 -0.40543694955E+02  0.63008338406E+02  0.41800000000E+01 0.  1.
         -5    1    3    3    0  502 -0.14758979017E+02  0.23312471568E+02  0.59097302060E+02  0.65354895020E+02  0.41800000000E+01 0.  1.
        -11    1    1    2    0    0 -0.17447070967E+02  0.32966266730E+02  0.11051966189E+03  0.11664377691E+03  0.00000000000E+00 0.  1.
         11    1    1    2    0    0  0.16237170084E+02 -0.10960066838E+02 -0.80345850894E+01  0.21173646710E+02  0.00000000000E+00 0. -1.
</event>
<event>
 7    1  0.2480409E-009  0.7883089E+02  0.7561462E-02  0.1332402E+00
          2   -1    0    0  501    0  0.00000000000E+00  0.00000000000E+00  0.16678331020E+03  0.16678331020E+03  0.00000000000E+00 0. -1.
         -2   -1    0    0    0  501 -0.00000000000E+00 -0.00000000000E+00 -0.99741797677E+02  0.99741797677E+02  0.00000000000E+00 0.  1.
         25    2    1    2    0    0  0.24308663587E+02 -0.37082893208E+02  0.88871773925E+02  0.15972262017E+03  0.12508825324E+03 0.  0.
          5    1    3    3  502    0  0.15580440238E+02 -0.56003095615E+02  0.11325955824E+03  0.12737463158E+03  0.41800000000E+01 0. -1.
         -5    1    3    3    0  502  0.87282233496E+01  0.18920202407E+02 -0.24387784317E+02  0.32347988590E+02  0.41800000000E+01 0. -1.
        -11    1    1    2    0    0 -0.11365348678E+02  0.54924509511E+02 -0.47120734755E+02  0.73254600807E+02  0.00000000000E+00 0.  1.
         11    1    1    2    0    0 -0.12943314909E+02 -0.17841616303E+02  0.25290473353E+02  0.33547886902E+02  0.00000000000E+00 0. -1.
</event>
<event>
 7    1  0.2480409E-009  0.8703324E+02  0.7561462E-02  0.1310199E+00
         -2   -1    0    0    0  501 -0.00000000000E+00  0.00000000000E+00  0.10259037926E+03  0.10259037926E+03  0.00000000000E+00 0.  1.
          2   -1    0    0  501    0  0.00000000000E+00 -0.00000000000E+00 -0.15860141140E+03  0.15860141140E+03  0.00000000000E+00 0. -1.
         25    2    1    2    0    0 -0.32422413647E+02 -0.57959143151E+02 -0.16531386902E+02  0.14259091604E+03  0.12509359457E+03 0.  0.
          5    1    3    3  502    0 -0.53081844267E+01  0.18576693446E+02 -0.50685901337E+02  0.54404074807E+02  0.41800000000E+01 0. -1.
         -5    1    3    3    0  502 -0.27114229221E+02 -0.76535836597E+02  0.34154514435E+02  0.88186841230E+02  0.41800000000E+01 0. -1.
        -11    1    1    2    0    0  0.27122163746E+02  0.17696215535E+02  0.26013582766E+02  0.41538828809E+02  0.00000000000E+00 0.  1.
         11    1    1    2    0    0  0.53002499014E+01  0.40262927616E+02 -0.65493228005E+02  0.77062045806E+02  0.00000000000E+00 0. -1.
</event>
<event>
 7    1  0.2480409E-009  0.1579589E+03  0.7561462E-02  0.1191021E+00
          1   -1    0    0  501    0  0.00000000000E+00  0.00000000000E+00  0.12189419070E+04  0.12189419070E+04  0.00000000000E+00 0. -1.
         -1   -1    0    0    0  501 -0.00000000000E+00 -0.00000000000E+00 -0.27046974562E+02  0.27046974562E+02  0.00000000000E+00 0.  1.
         25    2    1    2    0    0  0.63089527191E+02 -0.13022807170E+03  0.60787796777E+03  0.63726201836E+03  0.12509043626E+03 0.  0.
          5    1    3    3  502    0  0.37408672666E+02 -0.78483373704E+02  0.54447010378E+03  0.55138390895E+03  0.41800000000E+01 0. -1.
         -5    1    3    3    0  502  0.25680854525E+02 -0.51744697999E+02  0.63407863992E+02  0.85878109411E+02  0.41800000000E+01 0. -1.
        -11    1    1    2    0    0  0.18314729960E+02  0.62291339002E+02  0.19536928897E+03  0.20587568900E+03  0.00000000000E+00 0.  1.
         11    1    1    2    0    0 -0.81404257151E+02  0.67936732701E+02  0.38864767569E+03  0.40285117420E+03  0.00000000000E+00 0. -1.
</event>
<event>
 7    1  0.2480409E-009  0.9678490E+02  0.7561462E-02  0.1287206E+00
          1   -1    0    0  501    0  0.00000000000E+00  0.00000000000E+00  0.37300874640E+03  0.37300874640E+03  0.00000000000E+00 0. -1.
         -1   -1    0    0    0  501 -0.00000000000E+00 -0.00000000000E+00 -0.42285650088E+02  0.42285650088E+02  0.00000000000E+00 0.  1.
         25    2    1    2    0    0  0.63111306820E+02  0.54464876129E+01  0.16995427451E+03  0.22032866715E+03  0.12509022692E+03 0.  0.
          5    1    3    3  502    0  0.24653399265E+01 -0.21606165985E+02 -0.12980874686E+02  0.25668654370E+02  0.41800000000E+01 0. -1.
         -5    1    3    3    0  502  0.60645966894E+02  0.27052653598E+02  0.18293514919E+03  0.19466001279E+03  0.41800000000E+01 0. -1.
        -11    1    1    2    0    0  0.71927147891E+01  0.26650009219E+02  0.19034592105E+02  0.33530192872E+02  0.00000000000E+00 0.  1.
         11    1    1    2    0    0 -0.70304021609E+02 -0.32096496832E+02  0.14173422970E+03  0.16143553646E+03  0.00000000000E+00 0. -1.
</event>
<event>
 7    1  0.2480409E-009  0.1276042E+03  0.7561462E-02  0.1231055E+00
          1   -1    0    0  501    0  0.00000000000E+00  0.00000000000E+00  0.10702340671E+03  0.10702340671E+03  0.00000000000E+00 0. -1.
         -1   -1    0    0    0  501 -0.00000000000E+00 -0.00000000000E+00 -0.21281642898E+03  0.21281642898E+03  0.00000000000E+00 0.  1.
         25    2    1    2    0    0  0.67371589283E+02 -0.47164059038E+01 -0.14003582913E+03  0.19954732544E+03  0.12509167088E+03 0.  0.
          5    1    3    3  502    0 -0.30353460032E+02 -0.27942102737E+02 -0.45222509075E+02  0.61356673380E+02  0.41800000000E+01 0.  1.
         -5    1    3    3    0  502  0.97725049315E+02  0.23225696833E+02 -0.94813320053E+02  0.13819065206E+03  0.41800000000E+01 0.  1.
        -11    1    1    2    0    0 -0.89823276834E+02  0.92618705398E+01  0.17652855442E+02  0.92008839860E+02  0.00000000000E+00 0.  1.
         11    1    1    2    0    0  0.22451687551E+02 -0.45454646360E+01  0.16589951412E+02  0.28283670386E+02  0.00000000000E+00 0. -1.
</event>
<event>
 7    1  0.2480409E-009  0.1181038E+03  0.7561462E-02  0.1246258E+00
          1   -1    0    0  501    0  0.00000000000E+00  0.00000000000E+00  0.19638069912E+03  0.19638069912E+03  0.00000000000E+00 0. -1.
         -1   -1    0    0    0  501 -0.00000000000E+00 -0.00000000000E+00 -0.85628155388E+02  0.85628155388E+02  0.00000000000E+00 0.  1.
         25    2    1    2    0    0 -0.14880102613E+02  0.50838128934E+02  0.10867254047E+03  0.17396460081E+03  0.12509207999E+03 0.  0.
          5    1    3    3  502    0  0.50202370109E+02  0.40445990952E+02  0.77623732656E+02  0.10099045707E+03  0.41800000000E+01 0. -1.
         -5    1    3    3    0  502 -0.65082472722E+02  0.10392137982E+02  0.31048807817E+02  0.72974143738E+02  0.41800000000E+01 0. -1.
        -11    1    1    2    0    0 -0.38681695125E+02 -0.17340183732E+02 -0.10403526897E+02  0.43648469406E+02  0.00000000000E+00 0.  1.
         11    1    1    2    0    0  0.53561797738E+02 -0.33497945202E+02  0.12483530161E+02  0.64395784295E+02  0.00000000000E+00 0. -1.
</event>
<event>
 7    1  0.2480409E-009  0.2651974E+03  0.7561462E-02  0.1104060E+00
          2   -1    0    0  501    0  0.00000000000E+00  0.00000000000E+00  0.11440503180E+04  0.11440503180E+04  0.00000000000E+00 0. -1.
         -2   -1    0    0    0  501 -0.00000000000E+00 -0.00000000000E+00 -0.62823686084E+02  0.62823686084E+02  0.00000000000E+00 0.  1.
         25    2    1    2    0    0  0.94916012364E+02  0.22449136843E+03  0.50200103785E+03  0.57189203788E+03  0.12510010823E+03 0.  0.
          5    1    3    3  502    0  0.37179323227E+02  0.20696899995E+03  0.42294047919E+03  0.47235007182E+03  0.41800000000E+01 0.  1.
         -5    1    3    3    0  502  0.57736689137E+02  0.17522368481E+02  0.79060558667E+02  0.99541966057E+02  0.41800000000E+01 0.  1.
        -11    1    1    2    0    0 -0.32505095481E+02 -0.18008019828E+03  0.38806020355E+03  0.42904100110E+03  0.00000000000E+00 0.  1.
         11    1    1    2    0    0 -0.62410916883E+02 -0.44411170146E+02  0.19116539052E+03  0.20594096511E+03  0.00000000000E+00 0. -1.
</event>
<event>
 7    1  0.2480409E-009  0.1076909E+03  0.7561462E-02  0.1264907E+00
          3   -1    0    0  501    0  0.00000000000E+00  0.00000000000E+00  0.40194929802E+02  0.40194929802E+02  0.00000000000E+00 0. -1.
         -3   -1    0    0    0  501 -0.00000000000E+00 -0.00000000000E+00 -0.30666969602E+03  0.30666969602E+03  0.00000000000E+00 0.  1.
         25    2    1    2    0    0  0.17055359948E+02 -0.77745977227E+01 -0.12399061475E+03  0.17711947346E+03  0.12508519362E+03 0.  0.
          5    1    3    3  502    0  0.39648260876E+02  0.50206219393E+02 -0.63569201004E+02  0.90283801274E+02  0.41800000000E+01 0. -1.
         -5    1    3    3    0  502 -0.22592900928E+02 -0.57980817116E+02 -0.60421413744E+02  0.86835672190E+02  0.41800000000E+01 0. -1.
        -11    1    1    2    0    0  0.14095805182E+02 -0.33992712714E+02 -0.82217491748E+02  0.90077256790E+02  0.00000000000E+00 0.  1.
         11    1    1    2    0    0 -0.31151165130E+02  0.41767310437E+02 -0.60266659719E+02  0.79667895565E+02  0.00000000000E+00 0. -1.
</event>
<event>
 7    1  0.2480409E-009  0.1009852E+03  0.7561462E-02  0.1278238E+00
         -4   -1    0    0    0  501 -0.00000000000E+00  0.00000000000E+00  0.33092032138E+03  0.33092032138E+03  0.00000000000E+00 0.  1.
          4   -1    0    0  501    0  0.00000000000E+00 -0.00000000000E+00 -0.39124256269E+02  0.39124256269E+02  0.00000000000E+00 0. -1.
         25    2    1    2    0    0  0.95041098875E+01  0.30637093830E+02  0.17033665216E+03  0.21375358177E+03  0.12508820499E+03 0.  0.
          5    1    3    3  502    0  0.66337766332E+01  0.75592966264E+02  0.13995382631E+03  0.15925718019E+03  0.41800000000E+01 0.  1.
         -5    1    3    3    0  502  0.28703332543E+01 -0.44955872433E+02  0.30382825845E+02  0.54496401583E+02  0.41800000000E+01 0.  1.
        -11    1    1    2    0    0 -0.24425326215E+02  0.17686362721E+02  0.94050024022E+02  0.98766446760E+02  0.00000000000E+00 0.  1.
         11    1    1    2    0    0  0.14921216328E+02 -0.48323456551E+02  0.27409388930E+02  0.57524549119E+02  0.00000000000E+00 0. -1.
</event>
<event>
 7    1  0.2480409E-009  0.1151446E+03  0.7561462E-02  0.1251329E+00
         -2   -1    0    0    0  501 -0.00000000000E+00  0.00000000000E+00  0.56843830672E+02  0.56843830672E+02  0.00000000000E+00 0.  1.
          2   -1    0    0  501    0  0.00000000000E+00 -0.00000000000E+00 -0.27777750564E+03  0.27777750564E+03  0.00000000000E+00 0. -1.
         25    2    1    2    0    0 -0.64696580098E+02 -0.91420748621E+01 -0.11846153723E+03  0.18425705899E+03  0.12509317717E+03 0.  0.
          5    1    3    3  502    0 -0.10148123778E+03 -0.73131749246E+01 -0.71478979983E+02  0.12441318711E+03  0.41800000000E+01 0.  1.
         -5    1    3    3    0  502  0.36784657679E+02 -0.18288999375E+01 -0.46982557247E+02  0.59843871875E+02  0.41800000000E+01 0.  1.
        -11    1    1    2    0    0  0.67663816179E+02 -0.13127927424E+02 -0.31243140157E+02  0.75676074853E+02  0.00000000000E+00 0.  1.
         11    1    1    2    0    0 -0.29672360810E+01  0.22270002287E+02 -0.71228997581E+02  0.74688202470E+02  0.00000000000E+00 0. -1.
</event>
<event>
 7    1  0.2480409E-009  0.2298892E+03  0.7561462E-02  0.1126718E+00
          2   -1    0    0  501    0  0.00000000000E+00  0.00000000000E+00  0.13267239820E+04  0.13267239820E+04  0.00000000000E+00 0. -1.
         -2   -1    0    0    0  501 -0.00000000000E+00 -0.00000000000E+00 -0.42400104063E+02  0.42400104063E+02  0.00000000000E+00 0.  1.
         25    2    1    2    0    0  0.13928901600E+03 -0.15719090894E+03  0.66748281279E+03  0.71083804449E+03  0.12508800219E+03 0.  0.
          5    1    3    3  502    0  0.12029115535E+03 -0.45731934771E+02  0.30373203610E+03  0.32989694461E+03  0.41800000000E+01 0. -1.
         -5    1    3    3    0  502  0.18997860656E+02 -0.11145897417E+03  0.36375077669E+03  0.38094109987E+03  0.41800000000E+01 0. -1.
        -11    1    1    2    0    0 -0.23393526682E+02  0.67166630656E+02  0.31140826770E+03  0.31942717880E+03  0.00000000000E+00 0. -1.
         11    1    1    2    0    0 -0.11589548932E+03  0.90024278282E+02  0.30543279747E+03  0.33885886280E+03  0.00000000000E+00 0.  1.
</event>
<event>
 7    1  0.2480409E-009  0.1199234E+03  0.7561462E-02  0.1243224E+00
          2   -1    0    0  501    0  0.00000000000E+00  0.00000000000E+00  0.23216206563E+03  0.23216206563E+03  0.00000000000E+00 0. -1.
         -2   -1    0    0    0  501 -0.00000000000E+00 -0.00000000000E+00 -0.76752183467E+02  0.76752183467E+02  0.00000000000E+00 0.  1.
         25    2    1    2    0    0  0.36366687550E+02  0.65695692019E+02  0.11051874376E+03  0.18303070603E+03  0.12508951481E+03 0.  0.
          5    1    3    3  502    0  0.74163482915E+02  0.63620240786E+02  0.10672249044E+03  0.14475814175E+03  0.41800000000E+01 0.  1.
         -5    1    3    3    0  502 -0.37796795364E+02  0.20754512328E+01  0.37962533146E+01  0.38272564284E+02  0.41800000000E+01 0.  1.
        -11    1    1    2    0    0  0.84365928862E+01  0.11764416159E+02  0.32457649256E+02  0.35539788721E+02  0.00000000000E+00 0. -1.
         11    1    1    2    0    0 -0.44803280437E+02 -0.77460108178E+02  0.12433489150E+02  0.90343754346E+02  0.00000000000E+00 0.  1.
</event>
<event>
 7    1  0.2480409E-009  0.1112464E+03  0.7561462E-02  0.1258279E+00
         -1   -1    0    0    0  501 -0.00000000000E+00  0.00000000000E+00  0.17061813792E+02  0.17061813792E+02  0.00000000000E+00 0.  1.
          1   -1    0    0  501    0  0.00000000000E+00 -0.00000000000E+00 -0.11575902754E+04  0.11575902754E+04  0.00000000000E+00 0. -1.
         25    2    1    2    0    0  0.14528980612E+02 -0.52688065826E+02 -0.90584489441E+03  0.91607480099E+03  0.12510373583E+03 0.  0.
          5    1    3    3  502    0  0.49385818727E+02  0.17037102754E+02 -0.23916050147E+03  0.24483553628E+03  0.41800000000E+01 0.  1.
         -5    1    3    3    0  502 -0.34856838115E+02 -0.69725168580E+02 -0.66668439294E+03  0.67123926471E+03  0.41800000000E+01 0.  1.
        -11    1    1    2    0    0 -0.30167741298E+02 -0.64490401985E+01 -0.15543524530E+03  0.15846702564E+03  0.00000000000E+00 0. -1.
         11    1    1    2    0    0  0.15638760687E+02  0.59137106024E+02 -0.79248321852E+02  0.10011026252E+03  0.00000000000E+00 0.  1.
</event>
<event>
 7    1  0.2480409E-009  0.1509331E+03  0.7561462E-02  0.1199331E+00
          1   -1    0    0  501    0  0.00000000000E+00  0.00000000000E+00  0.25017949323E+04  0.25017949323E+04  0.00000000000E+00 0. -1.
         -1   -1    0    0    0  501 -0.00000000000E+00 -0.00000000000E+00 -0.16995737812E+02  0.16995737812E+02  0.00000000000E+00 0.  1.
         25    2    1    2    0    0 -0.10421603783E+03 -0.78109765560E+02  0.20011994652E+04  0.20093304237E+04  0.12508930461E+03 0.  0.
          5    1    3    3  502    0 -0.11290790097E+03 -0.24839630423E+02  0.16424900107E+04  0.16465588689E+04  0.41800000000E+01 0. -1.
         -5    1    3    3    0  502  0.86918631396E+01 -0.53270135137E+02  0.35870945455E+03  0.36277155479E+03  0.41800000000E+01 0. -1.
        -11    1    1    2    0    0  0.71382724403E+02  0.40310084194E+02  0.42291473021E+03  0.43078679792E+03  0.00000000000E+00 0.  1.
         11    1    1    2    0    0  0.32833313426E+02  0.37799681366E+02  0.60684999054E+02  0.78673448456E+02  0.00000000000E+00 0. -1.
</event>
<event>
 7    1  0.2582486E-009  0.8347375E+02  0.7561462E-02  0.1319473E+00
          2   -1    0    0  501    0  0.00000000000E+00  0.00000000000E+00  0.80585928986E+03  0.80585928986E+03  0.00000000000E+00 0.  1.
         -2   -1    0    0    0  501 -0.00000000000E+00 -0.00000000000E+00 -0.23904558762E+02  0.23904558762E+02  0.00000000000E+00 0. -1.
         25    2    1    2    0    0 -0.65419608162E+02  0.18464959331E+02  0.58785711524E+03  0.60484911683E+03  0.12508311768E+03 0.  0.
          5    1    3    3  502    0 -0.70972386270E+02 -0.80131297724E+01  0.56405180695E+03  0.56857119448E+03  0.41800000000E+01 0. -1.
         -5    1    3    3    0  502  0.55527781082E+01  0.26478089103E+02  0.23805308291E+02  0.36277922351E+02  0.41800000000E+01 0. -1.
        -11    1    1    2    0    0  0.10054132262E+02 -0.38389366050E+01 -0.89182549362E+01  0.13977062671E+02  0.00000000000E+00 0. -1.
         11    1    1    2    0    0  0.55365475900E+02 -0.14626022726E+02  0.20301587079E+03  0.21093766912E+03  0.00000000000E+00 0.  1.
</event>
<event>
 7    1  0.2480409E-009  0.9528505E+02  0.7561462E-02  0.1290535E+00
         -3   -1    0    0    0  501 -0.00000000000E+00  0.00000000000E+00  0.14152667978E+03  0.14152667978E+03  0.00000000000E+00 0.  1.
          3   -1    0    0  501    0  0.00000000000E+00 -0.00000000000E+00 -0.90715096747E+02  0.90715096747E+02  0.00000000000E+00 0. -1.
         25    2    1    2    0    0  0.49057074829E+01 -0.25894322928E+02  0.10038804516E+02  0.12823323891E+03  0.12509358113E+03 0.  0.
          5    1    3    3  502    0  0.51627194788E+02  0.25918399908E+02  0.32017256729E+01  0.58007362832E+02  0.41800000000E+01 0.  1.
         -5    1    3    3    0  502 -0.46721487305E+02 -0.51812722836E+02  0.68370788428E+01  0.70225876077E+02  0.41800000000E+01 0.  1.
        -11    1    1    2    0    0 -0.19333581916E+02 -0.11626159655E+02  0.56503943741E+02  0.60841191937E+02  0.00000000000E+00 0.  1.
         11    1    1    2    0    0  0.14427874434E+02  0.37520482583E+02 -0.15731165224E+02  0.43167345682E+02  0.00000000000E+00 0. -1.
</event>
<event>
 7    1  0.2480409E-009  0.1139249E+03  0.7561462E-02  0.1253470E+00
         -2   -1    0    0    0  501 -0.00000000000E+00  0.00000000000E+00  0.37397794155E+03  0.37397794155E+03  0.00000000000E+00 0.  1.
          2   -1    0    0  501    0  0.00000000000E+00 -0.00000000000E+00 -0.48936001888E+02  0.48936001888E+02  0.00000000000E+00 0. -1.
         25    2    1    2    0    0  0.17931517479E+02 -0.27680347852E+02  0.27298626202E+03  0.30208848674E+03  0.12509281992E+03 0.  0.
          5    1    3    3  502    0  0.17676110527E+02  0.43921660806E+02  0.17047536236E+03  0.17697705711E+03  0.41800000000E+01 0.  1.
         -5    1    3    3    0  502  0.25540695207E+00 -0.71602008658E+02  0.10251089966E+03  0.12511142964E+03  0.41800000000E+01 0.  1.
        -11    1    1    2    0    0 -0.55091564490E+02  0.41474902331E+02  0.27773330965E+02  0.74341145500E+02  0.00000000000E+00 0. -1.
         11    1    1    2    0    0  0.37160047010E+02 -0.13794554480E+02  0.24282346678E+02  0.46484311195E+02  0.00000000000E+00 0.  1.
</event>
<event>
 7    1  0.2547860E-009  0.2270499E+03  0.7561462E-02  0.1128734E+00
         -2   -1    0    0    0  501 -0.00000000000E+00  0.00000000000E+00  0.12689279116E+03  0.12689279116E+03  0.00000000000E+00 0.  1.
          2   -1    0    0  501    0  0.00000000000E+00 -0.00000000000E+00 -0.48031154621E+03  0.48031154621E+03  0.00000000000E+00 0. -1.
         25    2    1    2    0    0 -0.15693203692E+03 -0.14852093659E+03 -0.12261200771E+03  0.27814388330E+03  0.12507670673E+03 0.  0.
          5    1    3    3  502    0 -0.15946346915E+03 -0.15976412192E+03 -0.89543064187E+02  0.24287569946E+03  0.41800000000E+01 0.  1.
         -5    1    3    3    0  502  0.25314322347E+01  0.11243185325E+02 -0.33068943527E+02  0.35268183840E+02  0.41800000000E+01 0.  1.
        -11    1    1    2    0    0  0.75546468184E+02  0.70602423109E+02 -0.47259999559E+02  0.11369027470E+03  0.00000000000E+00 0.  1.
         11    1    1    2    0    0  0.81385568734E+02  0.77918513482E+02 -0.18354674778E+03  0.21537017937E+03  0.00000000000E+00 0. -1.
</event>
<event>
 7    1  0.2480409E-009  0.1070460E+03  0.7561462E-02  0.1266140E+00
          2   -1    0    0  501    0  0.00000000000E+00  0.00000000000E+00  0.11436753380E+03  0.11436753380E+03  0.00000000000E+00 0. -1.
         -2   -1    0    0    0  501 -0.00000000000E+00 -0.00000000000E+00 -0.12203465713E+03  0.12203465713E+03  0.00000000000E+00 0.  1.
         25    2    1    2    0    0  0.45892078057E+02  0.27406092583E+01 -0.11451972051E+01  0.13327755894E+03  0.12509197606E+03 0.  0.
          5    1    3    3  502    0  0.26909268842E+02  0.62531405017E+02 -0.12637920320E+02  0.69364795055E+02  0.41800000000E+01 0. -1.
         -5    1    3    3    0  502  0.18982809215E+02 -0.59790795759E+02  0.11492723114E+02  0.63912763888E+02  0.41800000000E+01 0. -1.
        -11    1    1    2    0    0  0.16856610278E+02  0.91078490651E+01 -0.29570294609E+02  0.35234933630E+02  0.00000000000E+00 0.  1.
         11    1    1    2    0    0 -0.62748688335E+02 -0.11848458323E+02  0.23048368487E+02  0.67889698352E+02  0.00000000000E+00 0. -1.
</event>
<event>
 7    1  0.2480409E-009  0.1349115E+03  0.7561462E-02  0.1220345E+00
          2   -1    0    0  501    0  0.00000000000E+00  0.00000000000E+00  0.14623769974E+03  0.14623769974E+03  0.00000000000E+00 0. -1.
         -2   -1    0    0    0  501 -0.00000000000E+00 -0.00000000000E+00 -0.18856713085E+03  0.18856713085E+03  0.00000000000E+00 0.  1.
         25    2    1    2    0    0 -0.59947873915E+02 -0.68900697009E+02  0.64264130144E+02  0.16768258735E+03  0.12508604256E+03 0.  0.
          5    1    3    3  502    0  0.31657219329E+02 -0.34260900111E+02  0.50198230575E+02  0.68653649320E+02  0.41800000000E+01 0.  1.
         -5    1    3    3    0  502 -0.91605093244E+02 -0.34639796899E+02  0.14065899569E+02  0.99028938034E+02  0.41800000000E+01 0.  1.
        -11    1    1    2    0    0 -0.18673199741E+01  0.62822757085E+02 -0.33566005075E+02  0.71252104449E+02  0.00000000000E+00 0. -1.
         11    1    1    2    0    0  0.61815193889E+02  0.60779399240E+01 -0.73027556181E+02  0.95870138787E+02  0.00000000000E+00 0.  1.
</event>
<event>
 7    1  0.3142601E-009  0.1791376E+03  0.7561462E-02  0.1168640E+00
         -1   -1    0    0    0  501 -0.00000000000E+00  0.00000000000E+00  0.57497665538E+02  0.57497665538E+02  0.00000000000E+00 0.  1.
          1   -1    0    0  501    0  0.00000000000E+00 -0.00000000000E+00 -0.64515420699E+03  0.64515420699E+03  0.00000000000E+00 0. -1.
         25    2    1    2    0    0  0.13595980814E+03 -0.73244115974E+02 -0.37506679680E+03  0.42446743079E+03  0.12509087812E+03 0.  0.
          5    1    3    3  502    0 -0.63562895177E+01  0.16571390033E+02 -0.10248291929E+03  0.10409243263E+03  0.41800000000E+01 0.  1.
         -5    1    3    3    0  502  0.14231609766E+03 -0.89815506007E+02 -0.27258387751E+03  0.32037499817E+03  0.41800000000E+01 0.  1.
        -11    1    1    2    0    0 -0.10561026545E+03  0.15871585993E+02 -0.90797938947E+02  0.14017739164E+03  0.00000000000E+00 0.  1.
         11    1    1    2    0    0 -0.30349542697E+02  0.57372529981E+02 -0.12179180570E+03  0.13800705009E+03  0.00000000000E+00 0. -1.
</event>
<event>
 7    1  0.2480409E-009  0.2083989E+03  0.7561462E-02  0.1142840E+00
         -1   -1    0    0    0  501 -0.00000000000E+00  0.00000000000E+00  0.32213142105E+03  0.32213142105E+03  0.00000000000E+00 0. -1.
          1   -1    0    0  501    0  0.00000000000E+00 -0.00000000000E+00 -0.16553532553E+03  0.16553532553E+03  0.00000000000E+00 0.  1.
         25    2    1    2    0    0  0.83051622967E+02  0.16320750178E+03 -0.12281947623E+02  0.22210890693E+03  0.12508900665E+03 0.  0.
          5    1    3    3  502    0  0.47031881951E+02  0.16976392926E+03  0.14126916763E+02  0.17677339102E+03  0.41800000000E+01 0. -1.
         -5    1    3    3    0  502  0.36019741015E+02 -0.65564274772E+01 -0.26408864386E+02  0.45335515904E+02  0.41800000000E+01 0. -1.
        -11    1    1    2    0    0 -0.17715500189E+02  0.87719459005E+01  0.85908957248E+01  0.21554337642E+02  0.00000000000E+00 0.  1.
         11    1    1    2    0    0 -0.65336122778E+02 -0.17197944768E+03  0.16028714742E+03  0.24400350201E+03  0.00000000000E+00 0. -1.
</event>
<event>
 7    1  0.2480409E-009  0.1928518E+03  0.7561462E-02  0.1155914E+00
          2   -1    0    0  501    0  0.00000000000E+00  0.00000000000E+00  0.46128212705E+03  0.46128212705E+03  0.00000000000E+00 0. -1.
         -2   -1    0    0    0  501 -0.00000000000E+00 -0.00000000000E+00 -0.84930181474E+02  0.84930181474E+02  0.00000000000E+00 0.  1.
         25    2    1    2    0    0 -0.10633289220E+03 -0.12711097587E+03  0.19541764881E+03  0.28513082135E+03  0.12509054189E+03 0.  0.
          5    1    3    3  502    0 -0.15612246251E+02  0.25393233569E+02  0.30218746852E+02  0.42652123105E+02  0.41800000000E+01 0.  1.
         -5    1    3    3    0  502 -0.90720645951E+02 -0.15250420944E+03  0.16519890196E+03  0.24247869825E+03  0.41800000000E+01 0.  1.
        -11    1    1    2    0    0  0.53929826141E+02  0.17644163182E+02  0.21428710534E+02  0.60654202469E+02  0.00000000000E+00 0. -1.
         11    1    1    2    0    0  0.52403066061E+02  0.10946681269E+03  0.15950558623E+03  0.20042728470E+03  0.00000000000E+00 0.  1.
</event>
<event>
 7    1  0.2480409E-009  0.2111333E+03  0.7561462E-02  0.1140672E+00
          1   -1    0    0  501    0  0.00000000000E+00  0.00000000000E+00  0.43656455640E+03  0.43656455640E+03  0.00000000000E+00 0. -1.
         -1   -1    0    0    0  501 -0.00000000000E+00 -0.00000000000E+00 -0.12292741633E+03  0.12292741633E+03  0.00000000000E+00 0.  1.
         25    2    1    2    0    0  0.11960932959E+03  0.16525999775E+03  0.15262327407E+03  0.28382777000E+03  0.12508829143E+03 0.  0.
          5    1    3    3  502    0  0.44603126252E+02  0.20666084672E+02  0.10182757396E+03  0.11314969352E+03  0.41800000000E+01 0. -1.
         -5    1    3    3    0  502  0.75006203342E+02  0.14459391308E+03  0.50795700116E+02  0.17067807648E+03  0.41800000000E+01 0. -1.
        -11    1    1    2    0    0 -0.23017821675E+02 -0.61039414992E+01  0.58435802341E+02  0.63101673605E+02  0.00000000000E+00 0. -1.
         11    1    1    2    0    0 -0.96591507919E+02 -0.15915605625E+03  0.10257806365E+03  0.21256252912E+03  0.00000000000E+00 0.  1.
</event>
<event>
 7    1  0.2480409E-009  0.7873506E+02  0.7561462E-02  0.1332680E+00
         -2   -1    0    0    0  501 -0.00000000000E+00  0.00000000000E+00  0.42758052804E+02  0.42758052804E+02  0.00000000000E+00 0.  1.
          2   -1    0    0  501    0  0.00000000000E+00 -0.00000000000E+00 -0.28807953597E+03  0.28807953597E+03  0.00000000000E+00 0. -1.
         25    2    1    2    0    0 -0.39242003483E+01 -0.11883884651E+02 -0.15679449545E+03  0.20096733206E+03  0.12508688456E+03 0.  0.
          5    1    3    3  502    0  0.27969796877E+02 -0.59502519086E+02 -0.64190700214E+02  0.91982485881E+02  0.41800000000E+01 0.  1.
         -5    1    3    3    0  502 -0.31893997226E+02  0.47618634435E+02 -0.92603795240E+02  0.10898484618E+03  0.41800000000E+01 0.  1.
        -11    1    1    2    0    0  0.46817531280E+01  0.22752343141E+02 -0.10641762773E+03  0.10892336490E+03  0.00000000000E+00 0. -1.
         11    1    1    2    0    0 -0.75755277970E+00 -0.10868458490E+02  0.17890640016E+02  0.20946891806E+02  0.00000000000E+00 0.  1.
</event>
<event>
 7    1  0.2480409E-009  0.1726711E+03  0.7561462E-02  0.1175091E+00
          3   -1    0    0  501    0  0.00000000000E+00  0.00000000000E+00  0.75943707035E+02  0.75943707035E+02  0.00000000000E+00 0. -1.
         -3   -1    0    0    0  501 -0.00000000000E+00 -0.00000000000E+00 -0.50052775461E+03  0.50052775461E+03  0.00000000000E+00 0.  1.
         25    2    1    2    0    0 -0.57864044978E+02  0.14950637856E+03 -0.20469191641E+03  0.28851680119E+03  0.12507101581E+03 0.  0.
          5    1    3    3  502    0 -0.61890475954E+02  0.11821811302E+03 -0.21668408325E+03  0.25451015224E+03  0.41800000000E+01 0.  1.
         -5    1    3    3    0  502  0.40264309757E+01  0.31288265540E+02  0.11992166846E+02  0.34006648947E+02  0.41800000000E+01 0.  1.
        -11    1    1    2    0    0  0.18177620446E+02 -0.13729509260E+03 -0.19617675350E+03  0.24013680883E+03  0.00000000000E+00 0.  1.
         11    1    1    2    0    0  0.39686424532E+02 -0.12211285955E+02 -0.23715377669E+02  0.47817851633E+02  0.00000000000E+00 0. -1.
</event>
<event>
 7    1  0.2480409E-009  0.9937928E+02  0.7561462E-02  0.1281607E+00
          1   -1    0    0  501    0  0.00000000000E+00  0.00000000000E+00  0.76521450852E+03  0.76521450852E+03  0.00000000000E+00 0. -1.
         -1   -1    0    0    0  501 -0.00000000000E+00 -0.00000000000E+00 -0.26348041690E+02  0.26348041690E+02  0.00000000000E+00 0.  1.
         25    2    1    2    0    0  0.10274690484E+02  0.15990774485E+02  0.65037900235E+03  0.66257204154E+03  0.12509032492E+03 0.  0.
          5    1    3    3  502    0  0.50567386751E+01  0.61938099715E+02  0.19205586748E+03  0.20190301492E+03  0.41800000000E+01 0. -1.
         -5    1    3    3    0  502  0.52179518091E+01 -0.45947325230E+02  0.45832313488E+03  0.46066902661E+03  0.41800000000E+01 0. -1.
        -11    1    1    2    0    0  0.15631260848E+02 -0.47061184216E+02  0.66481109646E+02  0.82938708184E+02  0.00000000000E+00 0.  1.
         11    1    1    2    0    0 -0.25905951332E+02  0.31070409731E+02  0.22006354826E+02  0.46051800486E+02  0.00000000000E+00 0. -1.
</event>
<event>
 7    1  0.2480409E-009  0.2272634E+03  0.7561462E-02  0.1128581E+00
         -1   -1    0    0    0  501 -0.00000000000E+00  0.00000000000E+00  0.23396779811E+03  0.23396779811E+03  0.00000000000E+00 0.  1.
          1   -1    0    0  501    0  0.00000000000E+00 -0.00000000000E+00 -0.24777071930E+03  0.24777071930E+03  0.00000000000E+00 0. -1.
         25    2    1    2    0    0 -0.11579010003E+03 -0.17471878750E+03  0.38958850994E+02  0.24718812613E+03  0.12510066210E+03 0.  0.
          5    1    3    3  502    0  0.17170771338E+02  0.57438749718E+01 -0.37649428620E+01  0.18959817583E+02  0.41800000000E+01 0.  1.
         -5    1    3    3    0  502 -0.13296087137E+03 -0.18046266247E+03  0.42723793856E+02  0.22822830855E+03  0.41800000000E+01 0.  1.
        -11    1    1    2    0    0  0.44550174772E+02  0.42551591578E+02  0.23761522793E+02  0.66030038493E+02  0.00000000000E+00 0.  1.
         11    1    1    2    0    0  0.71239925257E+02  0.13216719592E+03 -0.76523294980E+02  0.16852035279E+03  0.00000000000E+00 0. -1.
</event>
<event>
 7    1  0.2480409E-009  0.1353592E+03  0.7561462E-02  0.1219714E+00
         -1   -1    0    0    0  501 -0.00000000000E+00  0.00000000000E+00  0.68612930727E+02  0.68612930727E+02  0.00000000000E+00 0.  1.
          1   -1    0    0  501    0  0.00000000000E+00 -0.00000000000E+00 -0.38171272460E+03  0.38171272460E+03  0.00000000000E+00 0. -1.
         25    2    1    2    0    0  0.11075258248E+03 -0.54336030037E+01 -0.12526132905E+03  0.20888816438E+03  0.12509278993E+03 0.  0.
          5    1    3    3  502    0  0.40151499064E-03 -0.26516215007E+02 -0.84940032896E+02  0.89080813012E+02  0.41800000000E+01 0. -1.
         -5    1    3    3    0  502  0.11075218096E+03  0.21082612003E+02 -0.40321296158E+02  0.11980735136E+03  0.41800000000E+01 0. -1.
        -11    1    1    2    0    0 -0.14727389656E+02 -0.26114894047E+02 -0.21946699142E+01  0.30061607961E+02  0.00000000000E+00 0.  1.
         11    1    1    2    0    0 -0.96025192822E+02  0.31548497051E+02 -0.18564379490E+03  0.21137588299E+03  0.00000000000E+00 0. -1.
</event>
<event>
 7    1  0.2480409E-009  0.1640735E+03  0.7561462E-02  0.1184173E+00
          2   -1    0    0  501    0  0.00000000000E+00  0.00000000000E+00  0.12478858572E+04  0.12478858572E+04  0.00000000000E+00 0. -1.
         -2   -1    0    0    0  501 -0.00000000000E+00 -0.00000000000E+00 -0.32125388832E+02  0.32125388832E+02  0.00000000000E+00 0.  1.
         25    2    1    2    0    0 -0.13350766094E+03  0.72529581284E+02  0.86675586173E+03  0.88881814397E+03  0.12508850276E+03 0.  0.
          5    1    3    3  502    0 -0.14533258412E+03  0.68989031973E+02  0.58416041706E+03  0.60592236450E+03  0.41800000000E+01 0. -1.
         -5    1    3    3    0  502  0.11824923175E+02  0.35405493114E+01  0.28259544467E+03  0.28289577947E+03  0.41800000000E+01 0. -1.
        -11    1    1    2    0    0  0.67387365769E+02 -0.21733931619E+02  0.25899443666E+03  0.26849867610E+03  0.00000000000E+00 0. -1.
         11    1    1    2    0    0  0.66120295173E+02 -0.50795649666E+02  0.90010169952E+02  0.12269442593E+03  0.00000000000E+00 0.  1.
</event>
<event>
 7    1  0.2480409E-009  0.5491802E+02  0.7561462E-02  0.1420487E+00
          2   -1    0    0  501    0  0.00000000000E+00  0.00000000000E+00  0.58757276154E+03  0.58757276154E+03  0.00000000000E+00 0. -1.
         -2   -1    0    0    0  501 -0.00000000000E+00 -0.00000000000E+00 -0.35844867617E+02  0.35844867617E+02  0.00000000000E+00 0.  1.
         25    2    1    2    0    0 -0.10498129874E+02  0.20786738828E+02  0.49798098499E+03  0.51397888802E+03  0.12508771594E+03 0.  0.
          5    1    3    3  502    0 -0.11772618714E+02  0.13773233011E+02  0.28890053197E+01  0.18817950226E+02  0.41800000000E+01 0.  1.
         -5    1    3    3    0  502  0.12744888402E+01  0.70135058162E+01  0.49509197967E+03  0.49516093780E+03  0.41800000000E+01 0.  1.
        -11    1    1    2    0    0 -0.33395497533E+02  0.21268706959E+01 -0.36201168447E+01  0.33658402820E+02  0.00000000000E+00 0.  1.
         11    1    1    2    0    0  0.43893627407E+02 -0.22913609524E+02  0.57367025777E+02  0.75780338313E+02  0.00000000000E+00 0. -1.
</event>
<event>
 7    1  0.2480409E-009  0.9947451E+02  0.7561462E-02  0.1281405E+00
         -2   -1    0    0    0  501 -0.00000000000E+00  0.00000000000E+00  0.37564048866E+02  0.37564048866E+02  0.00000000000E+00 0.  1.
          2   -1    0    0  501    0  0.00000000000E+00 -0.00000000000E+00 -0.37335233292E+03  0.37335233292E+03  0.00000000000E+00 0. -1.
         25    2    1    2    0    0 -0.47906816233E+02 -0.35658370801E+01 -0.20098657555E+03  0.24156047575E+03  0.12509229257E+03 0.  0.
          5    1    3    3  502    0 -0.68996225829E+02 -0.26107103874E+02 -0.54540026886E+02  0.91837612034E+02  0.41800000000E+01 0. -1.
         -5    1    3    3    0  502  0.21089409597E+02  0.22541266794E+02 -0.14644654866E+03  0.14972286372E+03  0.41800000000E+01 0. -1.
        -11    1    1    2    0    0  0.10526200799E+01 -0.33901219534E+02 -0.18850028385E+02  0.38803663036E+02  0.00000000000E+00 0.  1.
         11    1    1    2    0    0  0.46854196153E+02  0.37467056614E+02 -0.11595168012E+03  0.13055224300E+03  0.00000000000E+00 0. -1.
</event>
<event>
 7    1  0.2480409E-009  0.9767939E+02  0.7561462E-02  0.1285253E+00
         -1   -1    0    0    0  501 -0.00000000000E+00  0.00000000000E+00  0.38247675872E+02  0.38247675872E+02  0.00000000000E+00 0.  1.
          1   -1    0    0  501    0  0.00000000000E+00 -0.00000000000E+00 -0.33573723298E+03  0.33573723298E+03  0.00000000000E+00 0. -1.
         25    2    1    2    0    0  0.11730735909E+02  0.21985374642E+02 -0.20364360318E+03  0.24028916951E+03  0.12508877250E+03 0.  0.
          5    1    3    3  502    0  0.52818586587E+02 -0.13121180876E+01 -0.17933638432E+03  0.18700410660E+03  0.41800000000E+01 0.  1.
         -5    1    3    3    0  502 -0.41087850679E+02  0.23297492730E+02 -0.24307218854E+02  0.53285062910E+02  0.41800000000E+01 0.  1.
        -11    1    1    2    0    0 -0.50248920281E+02  0.67125280495E+00 -0.54793629705E+02  0.74348815902E+02  0.00000000000E+00 0.  1.
         11    1    1    2    0    0  0.38518184372E+02 -0.22656627447E+02 -0.39052324229E+02  0.59346923444E+02  0.00000000000E+00 0. -1.
</event>
<event>
 7    1  0.2480409E-009  0.6926584E+02  0.7561462E-02  0.1362608E+00
          2   -1    0    0  501    0  0.00000000000E+00  0.00000000000E+00  0.91637699699E+02  0.91637699699E+02  0.00000000000E+00 0. -1.
         -2   -1    0    0    0  501 -0.00000000000E+00 -0.00000000000E+00 -0.16190377521E+03  0.16190377521E+03  0.00000000000E+00 0.  1.
         25    2    1    2    0    0  0.18820986823E+02  0.44457369291E+02 -0.12525920636E+02  0.13466551573E+03  0.12508882928E+03 0.  0.
          5    1    3    3  502    0  0.30621307852E+01  0.33815449202E+02 -0.67865793205E+02  0.76000654846E+02  0.41800000000E+01 0. -1.
         -5    1    3    3    0  502  0.15758856038E+02  0.10641920088E+02  0.55339872569E+02  0.58664860886E+02  0.41800000000E+01 0. -1.
        -11    1    1    2    0    0  0.26641317731E+02 -0.19257044453E+02  0.91893081970E+01  0.34132637704E+02  0.00000000000E+00 0. -1.
         11    1    1    2    0    0 -0.45462304554E+02 -0.25200324837E+02 -0.66929463071E+02  0.84743321473E+02  0.00000000000E+00 0.  1.
</event>
<event>
 7    1  0.2480409E-009  0.1060826E+03  0.7561462E-02  0.1268001E+00
          1   -1    0    0  501    0  0.00000000000E+00  0.00000000000E+00  0.46707906864E+03  0.46707906864E+03  0.00000000000E+00 0. -1.
         -1   -1    0    0    0  501 -0.00000000000E+00 -0.00000000000E+00 -0.33089064410E+02  0.33089064410E+02  0.00000000000E+00 0.  1.
         25    2    1    2    0    0 -0.17734811061E+02 -0.54868690521E+02  0.19230674001E+03  0.23654968351E+03  0.12509505903E+03 0.  0.
          5    1    3    3  502    0  0.16304382198E+01 -0.85249508973E+02  0.74560945026E+02  0.11334436039E+03  0.41800000000E+01 0.  1.
         -5    1    3    3    0  502 -0.19365249280E+02  0.30380818452E+02  0.11774579498E+03  0.12320532312E+03  0.41800000000E+01 0.  1.
        -11    1    1    2    0    0 -0.26198747214E+02  0.10911972868E+02  0.23780700778E+02  0.37026574739E+02  0.00000000000E+00 0.  1.
         11    1    1    2    0    0  0.43933558275E+02  0.43956717653E+02  0.21790256344E+03  0.22659187480E+03  0.00000000000E+00 0. -1.
</event>
<event>
 7    1  0.2480409E-009  0.9617206E+02  0.7561462E-02  0.1288558E+00
          2   -1    0    0  501    0  0.00000000000E+00  0.00000000000E+00  0.49903337749E+03  0.49903337749E+03  0.00000000000E+00 0. -1.
         -2   -1    0    0    0  501 -0.00000000000E+00 -0.00000000000E+00 -0.42381057584E+02  0.42381057584E+02  0.00000000000E+00 0.  1.
         25    2    1    2    0    0 -0.32727520828E+02  0.46332236339E+02  0.10476001307E+03  0.17273788053E+03  0.12508376509E+03 0.  0.
          5    1    3    3  502    0  0.77844791290E+01  0.50757041888E+02 -0.85722526953E+01  0.52228644753E+02  0.41800000000E+01 0. -1.
         -5    1    3    3    0  502 -0.40511999957E+02 -0.44248055483E+01  0.11333226576E+03  0.12050923578E+03  0.41800000000E+01 0. -1.
        -11    1    1    2    0    0 -0.22246100472E+02 -0.38310716803E+02  0.23641989186E+03  0.24053474858E+03  0.00000000000E+00 0. -1.
         11    1    1    2    0    0  0.54973621300E+02 -0.80215195360E+01  0.11547241498E+03  0.12814180597E+03  0.00000000000E+00 0.  1.
</event>
<event>
 7    1  0.2480409E-009  0.2181913E+03  0.7561462E-02  0.1135239E+00
         -1   -1    0    0    0  501 -0.00000000000E+00  0.00000000000E+00  0.57898391697E+02  0.57898391697E+02  0.00000000000E+00 0.  1.
          1   -1    0    0  501    0  0.00000000000E+00 -0.00000000000E+00 -0.10096846779E+04  0.10096846779E+04  0.00000000000E+00 0. -1.
         25    2    1    2    0    0 -0.14697357676E+03 -0.14674534197E+03 -0.61928584025E+03  0.66505159984E+03  0.12507298212E+03 0.  0.
          5    1    3    3  502    0 -0.10069383639E+03 -0.12178929334E+03 -0.57451646547E+03  0.59586787307E+03  0.41800000000E+01 0. -1.
         -5    1    3    3    0  502 -0.46279740365E+02 -0.24956048630E+02 -0.44769374783E+02  0.69183726771E+02  0.41800000000E+01 0. -1.
        -11    1    1    2    0    0  0.76426088053E+02  0.13342415257E+03 -0.24621068011E+03  0.29028029631E+03  0.00000000000E+00 0.  1.
         11    1    1    2    0    0  0.70547488703E+02  0.13321189403E+02 -0.86289765794E+02  0.11225117340E+03  0.00000000000E+00 0. -1.
</event>
<event>
 7    1  0.2480409E-009  0.9806897E+02  0.7561462E-02  0.1284410E+00
          1   -1    0    0  501    0  0.00000000000E+00  0.00000000000E+00  0.90832017336E+02  0.90832017336E+02  0.00000000000E+00 0. -1.
         -1   -1    0    0    0  501 -0.00000000000E+00 -0.00000000000E+00 -0.14992723837E+03  0.14992723837E+03  0.00000000000E+00 0.  1.
         25    2    1    2    0    0 -0.11723771693E+02  0.32239280656E+02 -0.35463318317E+01  0.12975963133E+03  0.12509263533E+03 0.  0.
          5    1    3    3  502    0  0.46384709694E+02  0.46578002614E+02  0.13815676668E+02  0.67300794518E+02  0.41800000000E+01 0.  1.
         -5    1    3    3    0  502 -0.58108481387E+02 -0.14338721958E+02 -0.17362008500E+02  0.62458836810E+02  0.41800000000E+01 0.  1.
        -11    1    1    2    0    0  0.35493319858E+02 -0.81209977928E+01 -0.66156549859E+02  0.75514339359E+02  0.00000000000E+00 0.  1.
         11    1    1    2    0    0 -0.23769548165E+02 -0.24118282863E+02  0.10607660657E+02  0.35485285019E+02  0.00000000000E+00 0. -1.
</event>
<event>
 7    1  0.2480409E-009  0.1796563E+03  0.7561462E-02  0.1168136E+00
          2   -1    0    0  501    0  0.00000000000E+00  0.00000000000E+00  0.18818675758E+03  0.18818675758E+03  0.00000000000E+00 0. -1.
         -2   -1    0    0    0  501 -0.00000000000E+00 -0.00000000000E+00 -0.17955557291E+03  0.17955557291E+03  0.00000000000E+00 0.  1.
         25    2    1    2    0    0 -0.12082382617E+03  0.80340016060E+02 -0.21216235404E+02  0.19274282510E+03  0.12508698106E+03 0.  0.
          5    1    3    3  502    0 -0.14579084194E+03  0.79792504978E+02 -0.18557347450E+02  0.16728317605E+03  0.41800000000E+01 0.  1.
         -5    1    3    3    0  502  0.24967015768E+02  0.54751108182E+00 -0.26588879544E+01  0.25459649053E+02  0.41800000000E+01 0.  1.
        -11    1    1    2    0    0  0.36680701308E+01  0.15780165798E+02 -0.90353002365E+01  0.18550067964E+02  0.00000000000E+00 0.  1.
         11    1    1    2    0    0  0.11715575604E+03 -0.96120181858E+02  0.38882720312E+02  0.15644943743E+03  0.00000000000E+00 0. -1.
</event>
<event>
 7    1  0.2480409E-009  0.7972112E+02  0.7561462E-02  0.1329845E+00
         -4   -1    0    0    0  501 -0.00000000000E+00  0.00000000000E+00  0.12918377523E+04  0.12918377523E+04  0.00000000000E+00 0.  1.
          4   -1    0    0  501    0  0.00000000000E+00 -0.00000000000E+00 -0.10560197661E+02  0.10560197661E+02  0.00000000000E+00 0. -1.
         25    2    1    2    0    0  0.27392535919E+02  0.40080952289E+01  0.91131019000E+03  0.92027160615E+03  0.12508857197E+03 0.  0.
          5    1    3    3  502    0 -0.19327964613E+01  0.29406279205E+02  0.50803197799E+02  0.58880406465E+02  0.41800000000E+01 0.  1.
         -5    1    3    3    0  502  0.29325332380E+02 -0.25398183976E+02  0.86050699220E+03  0.86139119969E+03  0.41800000000E+01 0.  1.
        -11    1    1    2    0    0 -0.45281458691E+02 -0.33388496352E+02  0.16589367590E+03  0.17517395324E+03  0.00000000000E+00 0. -1.
         11    1    1    2    0    0  0.17888922772E+02  0.29380401124E+02  0.20407368874E+03  0.20695239057E+03  0.00000000000E+00 0.  1.
</event>
<event>
 7    1  0.2480409E-009  0.9143342E+02  0.7561462E-02  0.1299417E+00
          1   -1    0    0  501    0  0.00000000000E+00  0.00000000000E+00  0.53685937933E+03  0.53685937933E+03  0.00000000000E+00 0. -1.
         -1   -1    0    0    0  501 -0.00000000000E+00 -0.00000000000E+00 -0.24597767865E+02  0.24597767865E+02  0.00000000000E+00 0.  1.
         25    2    1    2    0    0 -0.81518010656E+01 -0.28532049272E+02  0.24088627933E+03  0.27304644273E+03  0.12509048973E+03 0.  0.
          5    1    3    3  502    0  0.38821979609E+02 -0.57335244680E+01  0.20684387289E+03  0.21057511618E+03  0.41800000000E+01 0. -1.
         -5    1    3    3    0  502 -0.46973780675E+02 -0.22798524804E+02  0.34042406444E+02  0.62471326548E+02  0.41800000000E+01 0. -1.
        -11    1    1    2    0    0 -0.19719930086E+02 -0.24295550861E+02  0.48882745251E+02  0.58040263762E+02  0.00000000000E+00 0.  1.
         11    1    1    2    0    0  0.27871731152E+02  0.52827600133E+02  0.22249258688E+03  0.23037044071E+03  0.00000000000E+00 0. -1.
</event>
<event>
 7    1  0.2480409E-009  0.1646704E+03  0.7561462E-02  0.1183523E+00
          1   -1    0    0  501    0  0.00000000000E+00  0.00000000000E+00  0.91074661041E+02  0.91074661041E+02  0.00000000000E+00 0. -1.
         -1   -1    0    0    0  501 -0.00000000000E+00 -0.00000000000E+00 -0.41925485351E+03  0.41925485351E+03  0.00000000000E+00 0.  1.
         25    2    1    2    0    0  0.84809076201E+02 -0.13709057462E+03 -0.19965789451E+03  0.28548601306E+03  0.12511028637E+03 0.  0.
          5    1    3    3  502    0  0.62444317731E+02 -0.11440632711E+03 -0.21376118158E+03  0.25039851367E+03  0.41800000000E+01 0. -1.
         -5    1    3    3    0  502  0.22364758470E+02 -0.22684247514E+02  0.14103287072E+02  0.35087499383E+02  0.41800000000E+01 0. -1.
        -11    1    1    2    0    0 -0.58433973938E+02  0.53759633600E+02 -0.10972329948E+03  0.13543939591E+03  0.00000000000E+00 0.  1.
         11    1    1    2    0    0 -0.26375102263E+02  0.83330941025E+02 -0.18798998478E+02  0.89404105584E+02  0.00000000000E+00 0. -1.
</event>
<event>
 7    1  0.2480409E-009  0.1023830E+03  0.7561462E-02  0.1275363E+00
         -1   -1    0    0    0  501 -0.00000000000E+00  0.00000000000E+00  0.57267503628E+03  0.57267503628E+03  0.00000000000E+00 0.  1.
          1   -1    0    0  501    0  0.00000000000E+00 -0.00000000000E+00 -0.24476079975E+02  0.24476079975E+02  0.00000000000E+00 0. -1.
         25    2    1    2    0    0  0.46009126362E+02 -0.63409590035E+01  0.28345235178E+03  0.31329156214E+03  0.12509724101E+03 0.  0.
          5    1    3    3  502    0  0.50079311113E+02 -0.42501628760E+02  0.67579809941E+02  0.94333604619E+02  0.41800000000E+01 0. -1.
         -5    1    3    3    0  502 -0.40701847508E+01  0.36160669757E+02  0.21587254184E+03  0.21895795752E+03  0.41800000000E+01 0. -1.
        -11    1    1    2    0    0  0.27050265741E+02 -0.72578613234E+01  0.67635098399E+02  0.73204507806E+02  0.00000000000E+00 0. -1.
         11    1    1    2    0    0 -0.73059392103E+02  0.13598820327E+02  0.19711150612E+03  0.21065504631E+03  0.00000000000E+00 0.  1.
</event>
<event>
 7    1  0.2669827E-009  0.1292363E+03  0.7561462E-02  0.1228593E+00
         -1   -1    0    0    0  501 -0.00000000000E+00  0.00000000000E+00  0.48854017575E+02  0.48854017575E+02  0.00000000000E+00 0.  1.
          1   -1    0    0  501    0  0.00000000000E+00 -0.00000000000E+00 -0.54305503187E+03  0.54305503187E+03  0.00000000000E+00 0. -1.
         25    2    1    2    0    0  0.38548784334E+02  0.10523184296E+03 -0.18094750352E+03  0.24687800169E+03  0.12508796562E+03 0.  0.
          5    1    3    3  502    0  0.39332619135E+02  0.71936351600E+02 -0.19416251156E+03  0.21080428579E+03  0.41800000000E+01 0.  1.
         -5    1    3    3    0  502 -0.78383480182E+00  0.33295491359E+02  0.13215008039E+02  0.36073715906E+02  0.41800000000E+01 0.  1.
        -11    1    1    2    0    0  0.19660783984E+02 -0.74376560245E+02 -0.19564316760E+03  0.21022527957E+03  0.00000000000E+00 0. -1.
         11    1    1    2    0    0 -0.58209568318E+02 -0.30855282715E+02 -0.11761034317E+03  0.13480576819E+03  0.00000000000E+00 0.  1.
</event>
<event>
 7    1  0.2480409E-009  0.1667193E+03  0.7561462E-02  0.1181313E+00
         -1   -1    0    0    0  501 -0.00000000000E+00  0.00000000000E+00  0.18459250835E+03  0.18459250835E+03  0.00000000000E+00 0.  1.
          1   -1    0    0  501    0  0.00000000000E+00 -0.00000000000E+00 -0.16196077408E+03  0.16196077408E+03  0.00000000000E+00 0. -1.
         25    2    1    2    0    0  0.68656990868E+02 -0.67316826936E+02  0.38740341191E+01  0.15782132898E+03  0.12508887304E+03 0.  0.
          5    1    3    3  502    0 -0.35675582333E+02 -0.23244005600E+02 -0.91098602909E+01  0.43743490094E+02  0.41800000000E+01 0.  1.
         -5    1    3    3    0  502  0.10433257320E+03 -0.44072821336E+02  0.12983894410E+02  0.11407783889E+03  0.41800000000E+01 0.  1.
        -11    1    1    2    0    0 -0.38277730927E+02 -0.46090083592E+02 -0.22922394580E+02  0.64147616197E+02  0.00000000000E+00 0. -1.
         11    1    1    2    0    0 -0.30379259941E+02  0.11340691053E+03  0.41680094732E+02  0.12458433725E+03  0.00000000000E+00 0.  1.
</event>
<event>
 7    1  0.2480409E-009  0.1733675E+03  0.7561462E-02  0.1174381E+00
         -1   -1    0    0    0  501 -0.00000000000E+00  0.00000000000E+00  0.69651272182E+02  0.69651272182E+02  0.00000000000E+00 0. -1.
          1   -1    0    0  501    0  0.00000000000E+00 -0.00000000000E+00 -0.45920476035E+03  0.45920476035E+03  0.00000000000E+00 0.  1.
         25    2    1    2    0    0  0.12902393396E+03 -0.37519524536E+02 -0.14195317818E+03  0.23206679900E+03  0.12509757849E+03 0.  0.
          5    1    3    3  502    0  0.71202458334E+02 -0.83078108779E+02 -0.91901006396E+02  0.14295114413E+03  0.41800000000E+01 0.  1.
         -5    1    3    3    0  502  0.57821475626E+02  0.45558584243E+02 -0.50052171787E+02  0.89115654867E+02  0.41800000000E+01 0.  1.
        -11    1    1    2    0    0 -0.87031209798E+02  0.68967521539E+02 -0.17364506393E+03  0.20611540149E+03  0.00000000000E+00 0.  1.
         11    1    1    2    0    0 -0.41992724162E+02 -0.31447997003E+02 -0.73955246054E+02  0.90673832041E+02  0.00000000000E+00 0. -1.
</event>
<event>
 7    1  0.2480409E-009  0.1556001E+03  0.7561462E-02  0.1193756E+00
         -1   -1    0    0    0  501 -0.00000000000E+00  0.00000000000E+00  0.17007989945E+03  0.17007989945E+03  0.00000000000E+00 0.  1.
          1   -1    0    0  501    0  0.00000000000E+00 -0.00000000000E+00 -0.18380795388E+03  0.18380795388E+03  0.00000000000E+00 0. -1.
         25    2    1    2    0    0  0.13086924496E+03 -0.31660987689E+02  0.32332846478E+02  0.18660368527E+03  0.12508535077E+03 0.  0.
          5    1    3    3  502    0  0.12922009575E+03  0.14526130419E+02  0.97954246503E-01  0.13010120525E+03  0.41800000000E+01 0. -1.
         -5    1    3    3    0  502  0.16491492105E+01 -0.46187118108E+02  0.32234892232E+02  0.56502480029E+02  0.41800000000E+01 0. -1.
        -11    1    1    2    0    0 -0.33475182070E+02  0.97395599898E+01  0.26565136639E+02  0.43830963121E+02  0.00000000000E+00 0.  1.
         11    1    1    2    0    0 -0.97394062893E+02  0.21921427699E+02 -0.72626037548E+02  0.12345320494E+03  0.00000000000E+00 0. -1.
</event>
<event>
 7    1  0.2480409E-009  0.1964109E+03  0.7561462E-02  0.1152803E+00
         -2   -1    0    0    0  501 -0.00000000000E+00  0.00000000000E+00  0.56531323225E+02  0.56531323225E+02  0.00000000000E+00 0.  1.
          2   -1    0    0  501    0  0.00000000000E+00 -0.00000000000E+00 -0.71650023751E+03  0.71650023751E+03  0.00000000000E+00 0. -1.
         25    2    1    2    0    0  0.60874784827E+02 -0.15503926362E+03 -0.30809224115E+03  0.37190195367E+03  0.12508925370E+03 0.  0.
          5    1    3    3  502    0  0.96445594207E+02 -0.13219510047E+03 -0.26434582879E+03  0.31092360289E+03  0.41800000000E+01 0. -1.
         -5    1    3    3    0  502 -0.35570809380E+02 -0.22844163148E+02 -0.43746412362E+02  0.60978350784E+02  0.41800000000E+01 0. -1.
        -11    1    1    2    0    0 -0.82157861332E+02  0.13002945037E+03 -0.24461607164E+03  0.28895431239E+03  0.00000000000E+00 0.  1.
         11    1    1    2    0    0  0.21283076504E+02  0.25009813250E+02 -0.10726060149E+03  0.11217529468E+03  0.00000000000E+00 0. -1.
</event>
<event>
 7    1  0.2480409E-009  0.2735738E+03  0.7561462E-02  0.1099251E+00
         -2   -1    0    0    0  501 -0.00000000000E+00  0.00000000000E+00  0.27827989809E+03  0.27827989809E+03  0.00000000000E+00 0.  1.
          2   -1    0    0  501    0  0.00000000000E+00 -0.00000000000E+00 -0.30525316617E+03  0.30525316617E+03  0.00000000000E+00 0. -1.
         25    2    1    2    0    0  0.19344272446E+03 -0.18688962377E+03  0.12288258090E+02  0.29689452686E+03  0.12509012619E+03 0.  0.
          5    1    3    3  502    0 -0.49174036282E+01 -0.54988499890E+01 -0.24164986035E+02  0.25609317830E+02  0.41800000000E+01 0.  1.
         -5    1    3    3    0  502  0.19836012809E+03 -0.18139077378E+03  0.36453244125E+02  0.27128520903E+03  0.41800000000E+01 0.  1.
        -11    1    1    2    0    0 -0.12439445097E+03  0.13422504638E+03 -0.67905737990E+02  0.19519613664E+03  0.00000000000E+00 0.  1.
         11    1    1    2    0    0 -0.69048273499E+02  0.52664577389E+02  0.28644211818E+02  0.91442400752E+02  0.00000000000E+00 0. -1.
</event>
<event>
 7    1  0.2480409E-009  0.2796857E+03  0.7561462E-02  0.1095861E+00
         -2   -1    0    0    0  501 -0.00000000000E+00  0.00000000000E+00  0.95753069767E+02  0.95753069767E+02  0.00000000000E+00 0. -1.
          2   -1    0    0  501    0  0.00000000000E+00 -0.00000000000E+00 -0.11914039264E+04  0.11914039264E+04  0.00000000000E+00 0.  1.
         25    2    1    2    0    0 -0.27054546631E+02 -0.26272577199E+03 -0.89820972234E+03  0.94455546815E+03  0.12509015692E+03 0.  0.
          5    1    3    3  502    0 -0.51456343318E+02 -0.34772779366E+02 -0.16615785001E+03  0.17743394538E+03  0.41800000000E+01 0. -1.
         -5    1    3    3    0  502  0.24401796687E+02 -0.22795299263E+03 -0.73205187233E+03  0.76712152278E+03  0.41800000000E+01 0. -1.
        -11    1    1    2    0    0  0.33584770959E+02  0.11105299975E+03 -0.13616060853E+03  0.17888660350E+03  0.00000000000E+00 0.  1.
         11    1    1    2    0    0 -0.65302243280E+01  0.15167277224E+03 -0.61280525753E+02  0.16371492450E+03  0.00000000000E+00 0. -1.
</event>
<event>
 7    1  0.2480409E-009  0.1699521E+03  0.7561462E-02  0.1177898E+00
         -4   -1    0    0    0  501 -0.00000000000E+00  0.00000000000E+00  0.29997272801E+03  0.29997272801E+03  0.00000000000E+00 0.  1.
          4   -1    0    0  501    0  0.00000000000E+00 -0.00000000000E+00 -0.13828755950E+03  0.13828755950E+03  0.00000000000E+00 0. -1.
         25    2    1    2    0    0 -0.18516186983E+02  0.16115535029E+03  0.29349372249E+02  0.20693654610E+03  0.12508977717E+03 0.  0.
          5    1    3    3  502    0 -0.35660252870E+02  0.54705882195E+02  0.66038443255E+02  0.92967389815E+02  0.41800000000E+01 0.  1.
         -5    1    3    3    0  502  0.17144065887E+02  0.10644946810E+03 -0.36689071006E+02  0.11396915628E+03  0.41800000000E+01 0.  1.
        -11    1    1    2    0    0 -0.11492040390E+02 -0.58335295344E+02 -0.20293640787E+01  0.59491108527E+02  0.00000000000E+00 0. -1.
         11    1    1    2    0    0  0.30008227373E+02 -0.10282005495E+03  0.13436516034E+03  0.17183263288E+03  0.00000000000E+00 0.  1.
</event>
<event>
 7    1  0.2480409E-009  0.2606730E+03  0.7561462E-02  0.1106740E+00
          1   -1    0    0  501    0  0.00000000000E+00  0.00000000000E+00  0.40501987493E+03  0.40501987493E+03  0.00000000000E+00 0. -1.
         -1   -1    0    0    0  501 -0.00000000000E+00 -0.00000000000E+00 -0.19143365585E+03  0.19143365585E+03  0.00000000000E+00 0.  1.
         25    2    1    2    0    0  0.19446418659E+03 -0.16352305035E+03  0.74389517080E+02  0.29280323964E+03  0.12507529345E+03 0.  0.
          5    1    3    3  502    0  0.20916423805E+02 -0.61291254817E+02 -0.23237004169E+02  0.68931454827E+02  0.41800000000E+01 0. -1.
         -5    1    3    3    0  502  0.17354776278E+03 -0.10223179553E+03  0.97626521249E+02  0.22387178481E+03  0.41800000000E+01 0. -1.
        -11    1    1    2    0    0 -0.24902735848E+02  0.12248617989E+02 -0.12497060466E+02  0.30436021679E+02  0.00000000000E+00 0.  1.
         11    1    1    2    0    0 -0.16956145074E+03  0.15127443236E+03  0.15169376248E+03  0.27321426946E+03  0.00000000000E+00 0. -1.
</event>
<event>
 7    1  0.2480409E-009  0.1106370E+03  0.7561462E-02  0.1259395E+00
          1   -1    0    0  501    0  0.00000000000E+00  0.00000000000E+00  0.96410606526E+03  0.96410606526E+03  0.00000000000E+00 0. -1.
         -1   -1    0    0    0  501 -0.00000000000E+00 -0.00000000000E+00 -0.20923793758E+02  0.20923793758E+02  0.00000000000E+00 0.  1.
         25    2    1    2    0    0  0.81759616697E+02 -0.61407006927E+01  0.37972666084E+03  0.40812218163E+03  0.12509610330E+03 0.  0.
          5    1    3    3  502    0  0.52206544183E+02 -0.30239663916E+02  0.56939499611E+02  0.83063466971E+02  0.41800000000E+01 0.  1.
         -5    1    3    3    0  502  0.29553072514E+02  0.24098963223E+02  0.32278716122E+03  0.32505871466E+03  0.41800000000E+01 0.  1.
        -11    1    1    2    0    0 -0.14040551136E+02 -0.38732258927E+02  0.15048173310E+03  0.15601947620E+03  0.00000000000E+00 0.  1.
         11    1    1    2    0    0 -0.67719065561E+02  0.44872959620E+02  0.41297387757E+03  0.42088820119E+03  0.00000000000E+00 0. -1.
</event>
<event>
 7    1  0.2480409E-009  0.1382260E+03  0.7561462E-02  0.1215736E+00
         -1   -1    0    0    0  501 -0.00000000000E+00  0.00000000000E+00  0.35868699144E+03  0.35868699144E+03  0.00000000000E+00 0.  1.
          1   -1    0    0  501    0  0.00000000000E+00 -0.00000000000E+00 -0.61062018583E+02  0.61062018583E+02  0.00000000000E+00 0. -1.
         25    2    1    2    0    0  0.14080600728E+02  0.93241564546E+02  0.12765136636E+03  0.20207361627E+03  0.12508645963E+03 0.  0.
          5    1    3    3  502    0  0.60996684676E+02  0.24639152297E+02  0.26385613443E+02  0.71002509563E+02  0.41800000000E+01 0. -1.
         -5    1    3    3    0  502 -0.46916083948E+02  0.68602412248E+02  0.10126575292E+03  0.13107110671E+03  0.41800000000E+01 0. -1.
        -11    1    1    2    0    0 -0.42513713988E+02 -0.88917430650E+02  0.15863975010E+03  0.18676267203E+03  0.00000000000E+00 0.  1.
         11    1    1    2    0    0  0.28433113259E+02 -0.43241338962E+01  0.11333856389E+02  0.30912721721E+02  0.00000000000E+00 0. -1.
</event>
<event>
 7    1  0.2930194E-009  0.1480541E+03  0.7561462E-02  0.1202885E+00
          2   -1    0    0  501    0  0.00000000000E+00  0.00000000000E+00  0.15782001544E+04  0.15782001544E+04  0.00000000000E+00 0.  1.
         -2   -1    0    0    0  501 -0.00000000000E+00 -0.00000000000E+00 -0.17386278932E+02  0.17386278932E+02  0.00000000000E+00 0. -1.
         25    2    1    2    0    0  0.52805838435E+02 -0.10907598377E+03  0.97681138599E+03  0.99221580572E+03  0.12508275073E+03 0.  0.
          5    1    3    3  502    0  0.55548780654E+02 -0.87093709851E+01  0.16852831416E+03  0.17770983441E+03  0.41800000000E+01 0. -1.
         -5    1    3    3    0  502 -0.27429422181E+01 -0.10036661278E+03  0.80828307183E+03  0.81450597131E+03  0.41800000000E+01 0. -1.
        -11    1    1    2    0    0  0.61109352127E+01  0.65920616998E+02  0.16050744010E+03  0.17362462269E+03  0.00000000000E+00 0. -1.
         11    1    1    2    0    0 -0.58916773648E+02  0.43155366772E+02  0.42349504941E+03  0.42974600495E+03  0.00000000000E+00 0.  1.
</event>
<event>
 7    1  0.2480409E-009  0.9755399E+02  0.7561462E-02  0.1285525E+00
         -1   -1    0    0    0  501 -0.00000000000E+00  0.00000000000E+00  0.81285077600E+02  0.81285077600E+02  0.00000000000E+00 0.  1.
          1   -1    0    0  501    0  0.00000000000E+00 -0.00000000000E+00 -0.21370272375E+03  0.21370272375E+03  0.00000000000E+00 0. -1.
         25    2    1    2    0    0 -0.44177769979E+02  0.57686120648E+02 -0.94533617898E+02  0.17281094966E+03  0.12509058931E+03 0.  0.
          5    1    3    3  502    0  0.96222568405E+01  0.59993840762E+02 -0.10148129448E+03  0.11835444346E+03  0.41800000000E+01 0.  1.
         -5    1    3    3    0  502 -0.53800026820E+02 -0.23077201137E+01  0.69476765847E+01  0.54456506203E+02  0.41800000000E+01 0.  1.
        -11    1    1    2    0    0 -0.55284867225E+01 -0.93311467237E+01  0.25823749226E+02  0.28008935873E+02  0.00000000000E+00 0.  1.
         11    1    1    2    0    0  0.49706256702E+02 -0.48354973924E+02 -0.63707777482E+02  0.94167915822E+02  0.00000000000E+00 0. -1.
</event>
<event>
 7    1  0.2720513E-009  0.1233533E+03  0.7561462E-02  0.1237665E+00
         -2   -1    0    0    0  501 -0.00000000000E+00  0.00000000000E+00  0.38634340754E+02  0.38634340754E+02  0.00000000000E+00 0. -1.
          2   -1    0    0  501    0  0.00000000000E+00 -0.00000000000E+00 -0.59274330908E+03  0.59274330908E+03  0.00000000000E+00 0.  1.
         25    2    1    2    0    0  0.32890983118E+02  0.77723952341E+02 -0.42956584311E+03  0.45530017520E+03  0.12509439010E+03 0.  0.
          5    1    3    3  502    0 -0.10206584143E+02  0.82376749994E+02 -0.14263063431E+03  0.16507899183E+03  0.41800000000E+01 0.  1.
         -5    1    3    3    0  502  0.43097567261E+02 -0.46527976529E+01 -0.28693520880E+03  0.29022118337E+03  0.41800000000E+01 0.  1.
        -11    1    1    2    0    0  0.28870108104E+02 -0.32666944494E+02 -0.68852775018E+02  0.81494276070E+02  0.00000000000E+00 0.  1.
         11    1    1    2    0    0 -0.61761091222E+02 -0.45057007847E+02 -0.55690350202E+02  0.94583198564E+02  0.00000000000E+00 0. -1.
</event>
<event>
 7    1  0.2480409E-009  0.1027562E+03  0.7561462E-02  0.1274605E+00
         -1   -1    0    0    0  501 -0.00000000000E+00  0.00000000000E+00  0.32959442942E+03  0.32959442942E+03  0.00000000000E+00 0.  1.
          1   -1    0    0  501    0  0.00000000000E+00 -0.00000000000E+00 -0.37454376696E+02  0.37454376696E+02  0.00000000000E+00 0. -1.
         25    2    1    2    0    0  0.18411587755E+02  0.11094749942E+02  0.17959307473E+03  0.21991451303E+03  0.12508653209E+03 0.  0.
          5    1    3    3  502    0  0.17669952399E+02 -0.53568401049E+02  0.11633013966E+03  0.12935213413E+03  0.41800000000E+01 0.  1.
         -5    1    3    3    0  502  0.74163535616E+00  0.64663150992E+02  0.63262935068E+02  0.90562378903E+02  0.41800000000E+01 0.  1.
        -11    1    1    2    0    0 -0.48386207984E+02  0.73672388168E+01  0.97003273401E+02  0.10865144445E+03  0.00000000000E+00 0.  1.
         11    1    1    2    0    0  0.29974620229E+02 -0.18461988759E+02  0.15543704593E+02  0.38482848638E+02  0.00000000000E+00 0. -1.
</event>
<event>
 7    1  0.2480409E-009  0.1720615E+03  0.7561462E-02  0.1175715E+00
          1   -1    0    0  501    0  0.00000000000E+00  0.00000000000E+00  0.10872743325E+04  0.10872743325E+04  0.00000000000E+00 0. -1.
         -1   -1    0    0    0  501 -0.00000000000E+00 -0.00000000000E+00 -0.30672057715E+02  0.30672057715E+02  0.00000000000E+00 0.  1.
         25    2    1    2    0    0  0.13699272217E+02  0.13271810049E+03  0.37585429686E+03  0.41799033163E+03  0.12509076948E+03 0.  0.
          5    1    3    3  502    0 -0.46397782656E+02  0.10550473410E+03  0.26345783396E+03  0.28759608104E+03  0.41800000000E+01 0. -1.
         -5    1    3    3    0  502  0.60097054872E+02  0.27213366389E+02  0.11239646291E+03  0.13039425059E+03  0.41800000000E+01 0. -1.
        -11    1    1    2    0    0 -0.52014057044E+02 -0.53105869805E+02  0.29544443395E+03  0.30465243982E+03  0.00000000000E+00 0. -1.
         11    1    1    2    0    0  0.38314784827E+02 -0.79612230683E+02  0.38530354401E+03  0.39530361880E+03  0.00000000000E+00 0.  1.
</event>
<event>
 7    1  0.2480409E-009  0.8377951E+02  0.7561462E-02  0.1318655E+00
          1   -1    0    0  501    0  0.00000000000E+00  0.00000000000E+00  0.13188247715E+03  0.13188247715E+03  0.00000000000E+00 0. -1.
         -1   -1    0    0    0  501 -0.00000000000E+00 -0.00000000000E+00 -0.11704531235E+03  0.11704531235E+03  0.00000000000E+00 0.  1.
         25    2    1    2    0    0  0.57770620694E+02  0.10055284504E+02 -0.70510323136E+01  0.13831415868E+03  0.12507012462E+03 0.  0.
          5    1    3    3  502    0  0.53089220626E+02  0.11080597319E+02  0.54168335854E+02  0.76765395803E+02  0.41800000000E+01 0. -1.
         -5    1    3    3    0  502  0.46814000684E+01 -0.10253128149E+01 -0.61219368168E+02  0.61548762878E+02  0.41800000000E+01 0. -1.
        -11    1    1    2    0    0 -0.80771647017E+02  0.20826770260E+01  0.24612630119E+02  0.84464063760E+02  0.00000000000E+00 0. -1.
         11    1    1    2    0    0  0.23001026323E+02 -0.12137961530E+02 -0.27244330070E+01  0.26149567056E+02  0.00000000000E+00 0.  1.
</event>
<event>
 7    1  0.2480409E-009  0.1396346E+03  0.7561462E-02  0.1213821E+00
         -1   -1    0    0    0  501 -0.00000000000E+00  0.00000000000E+00  0.13947561351E+03  0.13947561351E+03  0.00000000000E+00 0.  1.
          1   -1    0    0  501    0  0.00000000000E+00 -0.00000000000E+00 -0.14740124160E+03  0.14740124160E+03  0.00000000000E+00 0. -1.
         25    2    1    2    0    0 -0.20779934629E+02  0.90549552854E+02  0.24969795843E+01  0.15583683721E+03  0.12509139747E+03 0.  0.
          5    1    3    3  502    0  0.45028109182E+02  0.62118539177E+02 -0.22069151125E+02  0.79942250139E+02  0.41800000000E+01 0.  1.
         -5    1    3    3    0  502 -0.65808043811E+02  0.28431013677E+02  0.24566130709E+02  0.75894587073E+02  0.41800000000E+01 0.  1.
        -11    1    1    2    0    0 -0.11311142040E+02  0.15860730031E+02 -0.15560931235E+01  0.19542930107E+02  0.00000000000E+00 0.  1.
         11    1    1    2    0    0  0.32091076669E+02 -0.10641028288E+03 -0.88665145447E+01  0.11149708779E+03  0.00000000000E+00 0. -1.
</event>
<event>
 7    1  0.2480409E-009  0.1065470E+03  0.7561462E-02  0.1267101E+00
          2   -1    0    0  501    0  0.00000000000E+00  0.00000000000E+00  0.13431963820E+04  0.13431963820E+04  0.00000000000E+00 0. -1.
         -2   -1    0    0    0  501 -0.00000000000E+00 -0.00000000000E+00 -0.14839797583E+02  0.14839797583E+02  0.00000000000E+00 0.  1.
         25    2    1    2    0    0 -0.47332834595E+02  0.29553045035E+02  0.10944725006E+04  0.11030100976E+04  0.12508973261E+03 0.  0.
          5    1    3    3  502    0  0.30877294554E+02  0.88572343319E+01  0.97261962630E+02  0.10251448529E+03  0.41800000000E+01 0. -1.
         -5    1    3    3    0  502 -0.78210129150E+02  0.20695810704E+02  0.99721053795E+03  0.10004956123E+04  0.41800000000E+01 0. -1.
        -11    1    1    2    0    0 -0.22957488236E+02 -0.16316166776E+02  0.90677252387E+02  0.94950659107E+02  0.00000000000E+00 0. -1.
         11    1    1    2    0    0  0.70290322831E+02 -0.13236878260E+02  0.14320683140E+03  0.16007542281E+03  0.00000000000E+00 0.  1.
</event>
<event>
 7    1  0.2480409E-009  0.1116965E+03  0.7561462E-02  0.1257460E+00
         -3   -1    0    0    0  501 -0.00000000000E+00  0.00000000000E+00  0.27920750132E+02  0.27920750132E+02  0.00000000000E+00 0.  1.
          3   -1    0    0  501    0  0.00000000000E+00 -0.00000000000E+00 -0.54987680300E+03  0.54987680300E+03  0.00000000000E+00 0. -1.
         25    2    1    2    0    0  0.58815421568E+02  0.19269708641E+02 -0.32647047627E+03  0.35505315169E+03  0.12509673521E+03 0.  0.
          5    1    3    3  502    0 -0.28395927911E+01 -0.40237456594E+02 -0.43980982016E+02  0.59824036803E+02  0.41800000000E+01 0.  1.
         -5    1    3    3    0  502  0.61655014359E+02  0.59507165234E+02 -0.28248949426E+03  0.29522911488E+03  0.41800000000E+01 0.  1.
        -11    1    1    2    0    0 -0.71722479750E+02  0.24723103855E+01 -0.94612921058E+02  0.11875113158E+03  0.00000000000E+00 0.  1.
         11    1    1    2    0    0  0.12907058182E+02 -0.21742019026E+02 -0.10087265554E+03  0.10399326987E+03  0.00000000000E+00 0. -1.
</event>
<event>
 7    1  0.2480409E-009  0.7615857E+02  0.7561462E-02  0.1340320E+00
          4   -1    0    0  501    0  0.00000000000E+00  0.00000000000E+00  0.76450315623E+02  0.76450315623E+02  0.00000000000E+00 0. -1.
         -4   -1    0    0    0  501 -0.00000000000E+00 -0.00000000000E+00 -0.17830096227E+03  0.17830096227E+03  0.00000000000E+00 0.  1.
         25    2    1    2    0    0 -0.20913477568E+01  0.25915574377E+02 -0.25068017726E+02  0.13021066571E+03  0.12510164356E+03 0.  0.
          5    1    3    3  502    0 -0.57323103878E+02  0.24490392778E+02 -0.38251932007E+02  0.73255718404E+02  0.41800000000E+01 0. -1.
         -5    1    3    3    0  502  0.55231756121E+02  0.14251815982E+01  0.13183914281E+02  0.56954947306E+02  0.41800000000E+01 0. -1.
        -11    1    1    2    0    0 -0.10286541270E+02 -0.11298094860E+02  0.20400410157E+02  0.25487969973E+02  0.00000000000E+00 0. -1.
         11    1    1    2    0    0  0.12377889027E+02 -0.14617479516E+02 -0.97183039077E+02  0.99052642208E+02  0.00000000000E+00 0.  1.
</event>
<event>
 7    1  0.2480409E-009  0.1496087E+03  0.7561462E-02  0.1200955E+00
         -1   -1    0    0    0  501 -0.00000000000E+00  0.00000000000E+00  0.34618091513E+02  0.34618091513E+02  0.00000000000E+00 0.  1.
          1   -1    0    0  501    0  0.00000000000E+00 -0.00000000000E+00 -0.91631915327E+03  0.91631915327E+03  0.00000000000E+00 0. -1.
         25    2    1    2    0    0 -0.20229795628E+02  0.13491966622E+03 -0.55747925723E+03  0.58740320307E+03  0.12508732856E+03 0.  0.
          5    1    3    3  502    0 -0.31642542281E+02  0.11985082181E+03 -0.55402461593E+03  0.56773780694E+03  0.41800000000E+01 0.  1.
         -5    1    3    3    0  502  0.11412746653E+02  0.15068844418E+02 -0.34546412939E+01  0.19665396124E+02  0.41800000000E+01 0.  1.
        -11    1    1    2    0    0  0.12278143237E+02  0.66999429644E+01 -0.61720108166E+01  0.15288418970E+02  0.00000000000E+00 0.  1.
         11    1    1    2    0    0  0.79516523906E+01 -0.14161960919E+03 -0.31804979371E+03  0.34824562275E+03  0.00000000000E+00 0. -1.
</event>
<event>
 7    1  0.2480409E-009  0.1173926E+03  0.7561462E-02  0.1247461E+00
          2   -1    0    0  501    0  0.00000000000E+00  0.00000000000E+00  0.86548583062E+03  0.86548583062E+03  0.00000000000E+00 0. -1.
         -2   -1    0    0    0  501 -0.00000000000E+00 -0.00000000000E+00 -0.26750799587E+02  0.26750799587E+02  0.00000000000E+00 0.  1.
         25    2    1    2    0    0  0.93664974229E+02 -0.46672800081E+02  0.49375393351E+03  0.51999172412E+03  0.12508784367E+03 0.  0.
          5    1    3    3  502    0  0.80482387167E+02 -0.30285046999E+02  0.49086142517E+03  0.49835430151E+03  0.41800000000E+01 0. -1.
         -5    1    3    3    0  502  0.13182587062E+02 -0.16387753083E+02  0.28925083398E+01  0.21637422611E+02  0.41800000000E+01 0. -1.
        -11    1    1    2    0    0 -0.88197669850E+02  0.84105429930E+01  0.30063967650E+03  0.31342268789E+03  0.00000000000E+00 0. -1.
         11    1    1    2    0    0 -0.54673043796E+01  0.38262257088E+02  0.44341421030E+02  0.58822218197E+02  0.00000000000E+00 0.  1.
</event>
<event>
 7    1  0.2480409E-009  0.9811163E+02  0.7561462E-02  0.1284318E+00
         -1   -1    0    0    0  501 -0.00000000000E+00  0.00000000000E+00  0.57860843396E+02  0.57860843396E+02  0.00000000000E+00 0.  1.
          1   -1    0    0  501    0  0.00000000000E+00 -0.00000000000E+00 -0.37681801521E+03  0.37681801521E+03  0.00000000000E+00 0. -1.
         25    2    1    2    0    0  0.10951752215E+02 -0.17729584804E+02 -0.29283174286E+02  0.13015047454E+03  0.12508941871E+03 0.  0.
          5    1    3    3  502    0 -0.41333275969E+02 -0.31251988121E+02 -0.50026642145E+02  0.72147514082E+02  0.41800000000E+01 0. -1.
         -5    1    3    3    0  502  0.52285028184E+02  0.13522403318E+02  0.20743467859E+02  0.58002960463E+02  0.41800000000E+01 0. -1.
        -11    1    1    2    0    0 -0.49465726325E+02  0.13807729982E+02 -0.12061350201E+03  0.13109206061E+03  0.00000000000E+00 0.  1.
         11    1    1    2    0    0  0.38513974110E+02  0.39218548212E+01 -0.16906049551E+03  0.17343632344E+03  0.00000000000E+00 0. -1.
</event>
<event>
 7    1  0.2480409E-009  0.1559638E+03  0.7561462E-02  0.1193330E+00
         -2   -1    0    0    0  501 -0.00000000000E+00  0.00000000000E+00  0.14480717723E+03  0.14480717723E+03  0.00000000000E+00 0.  1.
          2   -1    0    0  501    0  0.00000000000E+00 -0.00000000000E+00 -0.25794685810E+03  0.25794685810E+03  0.00000000000E+00 0. -1.
         25    2    1    2    0    0 -0.12870432920E+03  0.74616897775E+02 -0.14812718243E+02  0.19493304758E+03  0.12508793159E+03 0.  0.
          5    1    3    3  502    0 -0.56232818536E+00  0.15600806717E+02 -0.47399825197E+02  0.50079109536E+02  0.41800000000E+01 0. -1.
         -5    1    3    3    0  502 -0.12814200101E+03  0.59016091058E+02  0.32587106954E+02  0.14485393805E+03  0.41800000000E+01 0. -1.
        -11    1    1    2    0    0  0.16106983789E+02  0.48372526939E+01 -0.63487206021E+02  0.65676931024E+02  0.00000000000E+00 0. -1.
         11    1    1    2    0    0  0.11259734541E+03 -0.79454150469E+02 -0.34839756605E+02  0.14214405672E+03  0.00000000000E+00 0.  1.
</event>
<event>
 7    1  0.2480409E-009  0.1122829E+03  0.7561462E-02  0.1256400E+00
          1   -1    0    0  501    0  0.00000000000E+00  0.00000000000E+00  0.27055104409E+03  0.27055104409E+03  0.00000000000E+00 0. -1.
         -1   -1    0    0    0  501 -0.00000000000E+00 -0.00000000000E+00 -0.70788468917E+02  0.70788468917E+02  0.00000000000E+00 0.  1.
         25    2    1    2    0    0  0.52050553496E+02 -0.37587004107E+01  0.23599934489E+02  0.13758313265E+03  0.12509505799E+03 0.  0.
          5    1    3    3  502    0 -0.32939604254E+02 -0.30179199481E+02 -0.18875939501E+01  0.44909208640E+02  0.41800000000E+01 0.  1.
         -5    1    3    3    0  502  0.84990157750E+02  0.26420499071E+02  0.25487528439E+02  0.92673924010E+02  0.41800000000E+01 0.  1.
        -11    1    1    2    0    0 -0.53150865493E+02  0.32193231603E+02  0.68896956448E+02  0.92780435823E+02  0.00000000000E+00 0.  1.
         11    1    1    2    0    0  0.11003119974E+01 -0.28434531192E+02  0.10726568423E+03  0.11097594453E+03  0.00000000000E+00 0. -1.
</event>
<event>
 7    1  0.2480409E-009  0.1378931E+03  0.7561462E-02  0.1216192E+00
          2   -1    0    0  501    0  0.00000000000E+00  0.00000000000E+00  0.29185330297E+03  0.29185330297E+03  0.00000000000E+00 0. -1.
         -2   -1    0    0    0  501 -0.00000000000E+00 -0.00000000000E+00 -0.11315405589E+03  0.11315405589E+03  0.00000000000E+00 0.  1.
         25    2    1    2    0    0  0.53608260842E+02  0.11281992083E+03  0.12174482545E+02  0.17719506317E+03  0.12509073595E+03 0.  0.
          5    1    3    3  502    0  0.61665914214E+02  0.90006634021E+02  0.59159060133E+02  0.12418190665E+03  0.41800000000E+01 0.  1.
         -5    1    3    3    0  502 -0.80576533719E+01  0.22813286806E+02 -0.46984577588E+02  0.53013156517E+02  0.41800000000E+01 0.  1.
        -11    1    1    2    0    0 -0.72918801208E+01 -0.90216665260E+02  0.57529803304E+02  0.10724689494E+03  0.00000000000E+00 0.  1.
         11    1    1    2    0    0 -0.46316380722E+02 -0.22603255568E+02  0.10899496122E+03  0.12056540075E+03  0.00000000000E+00 0. -1.
</event>
<event>
 7    1  0.2480409E-009  0.1526064E+03  0.7561462E-02  0.1197306E+00
         -2   -1    0    0    0  501 -0.00000000000E+00  0.00000000000E+00  0.43442063163E+02  0.43442063163E+02  0.00000000000E+00 0.  1.
          2   -1    0    0  501    0  0.00000000000E+00 -0.00000000000E+00 -0.75018579161E+03  0.75018579161E+03  0.00000000000E+00 0. -1.
         25    2    1    2    0    0  0.37453111699E+02 -0.10333584350E+03 -0.57747557832E+03  0.60100517020E+03  0.12509252141E+03 0.  0.
          5    1    3    3  502    0 -0.37278722632E+02 -0.26102205062E+01 -0.87966791222E+02  0.95666844675E+02  0.41800000000E+01 0. -1.
         -5    1    3    3    0  502  0.74731834331E+02 -0.10072562299E+03 -0.48950878710E+03  0.50533832552E+03  0.41800000000E+01 0. -1.
        -11    1    1    2    0    0 -0.17884865284E+02 -0.14279932590E+02 -0.14276881266E+02  0.26974325195E+02  0.00000000000E+00 0.  1.
         11    1    1    2    0    0 -0.19568246414E+02  0.11761577609E+03 -0.11499126886E+03  0.16564835939E+03  0.00000000000E+00 0. -1.
</event>
<event>
 7    1  0.2480409E-009  0.2862513E+03  0.7561462E-02  0.1092323E+00
         -1   -1    0    0    0  501 -0.00000000000E+00  0.00000000000E+00  0.59213277160E+03  0.59213277160E+03  0.00000000000E+00 0.  1.
          1   -1    0    0  501    0  0.00000000000E+00 -0.00000000000E+00 -0.15048269170E+03  0.15048269170E+03  0.00000000000E+00 0. -1.
         25    2    1    2    0    0  0.24245565216E+03  0.12662561843E+03  0.14490562909E+03  0.33386129358E+03  0.12508769525E+03 0.  0.
          5    1    3    3  502    0  0.46676384176E+02  0.84363799429E+02  0.22504336244E+02  0.99095171646E+02  0.41800000000E+01 0. -1.
         -5    1    3    3    0  502  0.19577926798E+03  0.42261819004E+02  0.12240129285E+03  0.23476612193E+03  0.41800000000E+01 0. -1.
        -11    1    1    2    0    0 -0.17886172132E+03 -0.75822558479E+02  0.17013060167E+03  0.25823438453E+03  0.00000000000E+00 0.  1.
         11    1    1    2    0    0 -0.63593930843E+02 -0.50803059954E+02  0.12661384914E+03  0.15051978519E+03  0.00000000000E+00 0. -1.
</event>
<event>
 7    1  0.2480409E-009  0.9140238E+02  0.7561462E-02  0.1299491E+00
          4   -1    0    0  501    0  0.00000000000E+00  0.00000000000E+00  0.56860143256E+02  0.56860143256E+02  0.00000000000E+00 0. -1.
         -4   -1    0    0    0  501 -0.00000000000E+00 -0.00000000000E+00 -0.32934102221E+03  0.32934102221E+03  0.00000000000E+00 0.  1.
         25    2    1    2    0    0  0.23732395551E+02  0.18860694389E+02 -0.26165790846E+03  0.29160346243E+03  0.12509502730E+03 0.  0.
          5    1    3    3  502    0 -0.31357312655E+02  0.46719877435E+02 -0.68323906494E+02  0.88609573992E+02  0.41800000000E+01 0.  1.
         -5    1    3    3    0  502  0.55089708206E+02 -0.27859183046E+02 -0.19333400196E+03  0.20299388844E+03  0.41800000000E+01 0.  1.
        -11    1    1    2    0    0 -0.41190701296E+02 -0.36494206384E+01 -0.39875693475E+02  0.57446175455E+02  0.00000000000E+00 0.  1.
         11    1    1    2    0    0  0.17458305746E+02 -0.15211273750E+02  0.29052722979E+02  0.37151527574E+02  0.00000000000E+00 0. -1.
</event>
<event>
 7    1  0.2480409E-009  0.9176215E+02  0.7561462E-02  0.1298640E+00
          3   -1    0    0  501    0  0.00000000000E+00  0.00000000000E+00  0.29571803701E+02  0.29571803701E+02  0.00000000000E+00 0. -1.
         -3   -1    0    0    0  501 -0.00000000000E+00 -0.00000000000E+00 -0.51155281449E+03  0.51155281449E+03  0.00000000000E+00 0.  1.
         25    2    1    2    0    0  0.28168872250E+02  0.49115454922E+01 -0.38070308364E+03  0.40174696966E+03  0.12509269000E+03 0.  0.
          5    1    3    3  502    0 -0.95235719455E+01  0.42939545667E+02 -0.50049474184E+02  0.66760207240E+02  0.41800000000E+01 0.  1.
         -5    1    3    3    0  502  0.37692444195E+02 -0.38028000175E+02 -0.33065360946E+03  0.33498676242E+03  0.41800000000E+01 0.  1.
        -11    1    1    2    0    0 -0.25502519007E+02 -0.41630905735E+02 -0.87248584759E+02  0.99979129475E+02  0.00000000000E+00 0. -1.
         11    1    1    2    0    0 -0.26663532428E+01  0.36719360243E+02 -0.14029342388E+02  0.39398519060E+02  0.00000000000E+00 0.  1.
</event>
<event>
 7    1  0.2480409E-009  0.7959052E+02  0.7561462E-02  0.1330217E+00
          2   -1    0    0  501    0  0.00000000000E+00  0.00000000000E+00  0.21221025275E+03  0.21221025275E+03  0.00000000000E+00 0. -1.
         -2   -1    0    0    0  501 -0.00000000000E+00 -0.00000000000E+00 -0.57293839708E+02  0.57293839708E+02  0.00000000000E+00 0.  1.
         25    2    1    2    0    0 -0.39041481371E+02 -0.43690540512E+01  0.64681416625E+02  0.14620048992E+03  0.12509025420E+03 0.  0.
          5    1    3    3  502    0  0.15807718276E+02  0.39299110755E+02  0.62894166537E+02  0.75943746599E+02  0.41800000000E+01 0.  1.
         -5    1    3    3    0  502 -0.54849199647E+02 -0.43668164806E+02  0.17872500890E+01  0.70256743323E+02  0.41800000000E+01 0.  1.
        -11    1    1    2    0    0  0.17216860470E+02 -0.10321567008E+02 -0.79982348367E+01  0.21608488851E+02  0.00000000000E+00 0.  1.
         11    1    1    2    0    0  0.21824620901E+02  0.14690621059E+02  0.98233231250E+02  0.10169511368E+03  0.00000000000E+00 0. -1.
</event>
<event>
 7    1  0.2480409E-009  0.1094771E+03  0.7561462E-02  0.1261541E+00
         -2   -1    0    0    0  501 -0.00000000000E+00  0.00000000000E+00  0.55228177140E+02  0.55228177140E+02  0.00000000000E+00 0.  1.
          2   -1    0    0  501    0  0.00000000000E+00 -0.00000000000E+00 -0.33499784012E+03  0.33499784012E+03  0.00000000000E+00 0. -1.
         25    2    1    2    0    0  0.46503150603E+02 -0.58149735167E+02 -0.20010769874E+03  0.24745623608E+03  0.12509021930E+03 0.  0.
          5    1    3    3  502    0  0.51616430349E+02 -0.91025308590E+02 -0.18030824897E+03  0.20851474704E+03  0.41800000000E+01 0.  1.
         -5    1    3    3    0  502 -0.51132797467E+01  0.32875573424E+02 -0.19799449766E+02  0.38941489041E+02  0.41800000000E+01 0.  1.
        -11    1    1    2    0    0  0.17700022112E+01  0.17496929683E+02 -0.77661181377E+02  0.79627473582E+02  0.00000000000E+00 0. -1.
         11    1    1    2    0    0 -0.48273152814E+02  0.40652805484E+02 -0.20007828620E+01  0.63142307594E+02  0.00000000000E+00 0.  1.
</event>
<event>
 7    1  0.2480409E-009  0.1051140E+03  0.7561462E-02  0.1269895E+00
         -2   -1    0    0    0  501 -0.00000000000E+00  0.00000000000E+00  0.42604054830E+02  0.42604054830E+02  0.00000000000E+00 0.  1.
          2   -1    0    0  501    0  0.00000000000E+00 -0.00000000000E+00 -0.28008204834E+03  0.28008204834E+03  0.00000000000E+00 0. -1.
         25    2    1    2    0    0 -0.76251509853E+01  0.67259229381E+01 -0.12233064598E+03  0.17526084494E+03  0.12509274902E+03 0.  0.
          5    1    3    3  502    0  0.31681877282E+02 -0.43715288239E+02 -0.85904776297E+02  0.10154738187E+03  0.41800000000E+01 0.  1.
         -5    1    3    3    0  502 -0.39307028267E+02  0.50441211177E+02 -0.36425869683E+02  0.73713463074E+02  0.41800000000E+01 0.  1.
        -11    1    1    2    0    0  0.66493578537E+01  0.42369577045E+02 -0.56514722279E+02  0.70945816319E+02  0.00000000000E+00 0.  1.
         11    1    1    2    0    0  0.97579313156E+00 -0.49095499983E+02 -0.58632625252E+02  0.76479441910E+02  0.00000000000E+00 0. -1.
</event>
<event>
 7    1  0.2480409E-009  0.1087634E+03  0.7561462E-02  0.1262877E+00
          2   -1    0    0  501    0  0.00000000000E+00  0.00000000000E+00  0.11446965417E+03  0.11446965417E+03  0.00000000000E+00 0. -1.
         -2   -1    0    0    0  501 -0.00000000000E+00 -0.00000000000E+00 -0.20677391692E+03  0.20677391692E+03  0.00000000000E+00 0.  1.
         25    2    1    2    0    0 -0.32253520027E+02  0.94211585342E+02 -0.92709951672E+02  0.18481802550E+03  0.12508579074E+03 0.  0.
          5    1    3    3  502    0 -0.19567882668E+02  0.85614205694E+02  0.28297230495E+01  0.87966891393E+02  0.41800000000E+01 0.  1.
         -5    1    3    3    0  502 -0.12685637359E+02  0.85973796480E+01 -0.95539674721E+02  0.96851134107E+02  0.41800000000E+01 0.  1.
        -11    1    1    2    0    0 -0.15578694633E+02 -0.18757281494E+02  0.33257994696E+02  0.41238641426E+02  0.00000000000E+00 0. -1.
         11    1    1    2    0    0  0.47832214660E+02 -0.75454303848E+02 -0.32852305773E+02  0.95186904158E+02  0.00000000000E+00 0.  1.
</event>
<event>
 7    1  0.2480409E-009  0.3101126E+03  0.7561462E-02  0.1080292E+00
          2   -1    0    0  501    0  0.00000000000E+00  0.00000000000E+00  0.35495160049E+03  0.35495160049E+03  0.00000000000E+00 0. -1.
         -2   -1    0    0    0  501 -0.00000000000E+00 -0.00000000000E+00 -0.29707364954E+03  0.29707364954E+03  0.00000000000E+00 0.  1.
         25    2    1    2    0    0 -0.19478201576E+03  0.21989209526E+03  0.11337823265E+03  0.33881348105E+03  0.12508950426E+03 0.  0.
          5    1    3    3  502    0 -0.12848116669E+03  0.63981866205E+02  0.19029518992E+02  0.14484710695E+03  0.41800000000E+01 0. -1.
         -5    1    3    3    0  502 -0.66300849069E+02  0.15591022906E+03  0.94348713655E+02  0.19396637410E+03  0.41800000000E+01 0. -1.
        -11    1    1    2    0    0  0.23621265396E+02 -0.87894850901E+02 -0.44707745932E+01  0.91123305577E+02  0.00000000000E+00 0. -1.
         11    1    1    2    0    0  0.17116075036E+03 -0.13199724436E+03 -0.51029507105E+02  0.22208846341E+03  0.00000000000E+00 0.  1.
</event>
<event>
 7    1  0.2480409E-009  0.6677934E+02  0.7561462E-02  0.1371401E+00
         -2   -1    0    0    0  501 -0.00000000000E+00  0.00000000000E+00  0.14182970180E+03  0.14182970180E+03  0.00000000000E+00 0.  1.
          2   -1    0    0  501    0  0.00000000000E+00 -0.00000000000E+00 -0.85381458210E+02  0.85381458210E+02  0.00000000000E+00 0. -1.
         25    2    1    2    0    0  0.17877675857E+02  0.18530457821E+01  0.32572540286E+02  0.13050687958E+03  0.12509208674E+03 0.  0.
          5    1    3    3  502    0  0.29855273450E+02 -0.76239521119E+01  0.77160470210E+02  0.83190579765E+02  0.41800000000E+01 0.  1.
         -5    1    3    3    0  502 -0.11977597592E+02  0.94769978940E+01 -0.44587929924E+02  0.47316299814E+02  0.41800000000E+01 0.  1.
        -11    1    1    2    0    0  0.16569209796E+02  0.33434404569E+02  0.28813291027E+02  0.47144499806E+02  0.00000000000E+00 0.  1.
         11    1    1    2    0    0 -0.34446885654E+02 -0.35287450351E+02 -0.49375877191E+01  0.49559780629E+02  0.00000000000E+00 0. -1.
</event>
<event>
 7    1  0.2480409E-009  0.8490385E+02  0.7561462E-02  0.1315684E+00
         -2   -1    0    0    0  501 -0.00000000000E+00  0.00000000000E+00  0.30562290055E+02  0.30562290055E+02  0.00000000000E+00 0.  1.
          2   -1    0    0  501    0  0.00000000000E+00 -0.00000000000E+00 -0.53906444881E+03  0.53906444881E+03  0.00000000000E+00 0. -1.
         25    2    1    2    0    0 -0.59817638334E+02 -0.11216655463E+02 -0.20706473923E+03  0.24945963469E+03  0.12510131850E+03 0.  0.
          5    1    3    3  502    0 -0.17710155758E+02 -0.99756094429E+01  0.13573738169E+02  0.24796797547E+02  0.41800000000E+01 0.  1.
         -5    1    3    3    0  502 -0.42107482576E+02 -0.12410460205E+01 -0.22063847740E+03  0.22466283714E+03  0.41800000000E+01 0.  1.
        -11    1    1    2    0    0  0.44096761262E+01  0.42745899073E+02 -0.98874046681E+02  0.10780878553E+03  0.00000000000E+00 0.  1.
         11    1    1    2    0    0  0.55407962207E+02 -0.31529243610E+02 -0.20256337285E+03  0.21235831864E+03  0.00000000000E+00 0. -1.
</event>
<event>
 7    1  0.2480409E-009  0.9449578E+02  0.7561462E-02  0.1292316E+00
         -2   -1    0    0    0  501 -0.00000000000E+00  0.00000000000E+00  0.28260611370E+02  0.28260611370E+02  0.00000000000E+00 0.  1.
          2   -1    0    0  501    0  0.00000000000E+00 -0.00000000000E+00 -0.46187990315E+03  0.46187990315E+03  0.00000000000E+00 0. -1.
         25    2    1    2    0    0  0.14312867799E+02 -0.23409261779E+02 -0.27506636824E+03  0.30341629886E+03  0.12508833580E+03 0.  0.
          5    1    3    3  502    0 -0.35644580382E+02  0.13051698014E+02 -0.24676840919E+02  0.45467590759E+02  0.41800000000E+01 0. -1.
         -5    1    3    3    0  502  0.49957448181E+02 -0.36460959793E+02 -0.25038952732E+03  0.25794870810E+03  0.41800000000E+01 0. -1.
        -11    1    1    2    0    0 -0.49270726865E+02  0.56193698765E+01 -0.46410436863E+02  0.67919882902E+02  0.00000000000E+00 0.  1.
         11    1    1    2    0    0  0.34957859066E+02  0.17789891903E+02 -0.11214248667E+03  0.11880433275E+03  0.00000000000E+00 0. -1.
</event>
<event>
 7    1  0.2480409E-009  0.1917706E+03  0.7561462E-02  0.1156874E+00
         -1   -1    0    0    0  501 -0.00000000000E+00  0.00000000000E+00  0.49297111748E+03  0.49297111748E+03  0.00000000000E+00 0.  1.
          1   -1    0    0  501    0  0.00000000000E+00 -0.00000000000E+00 -0.12373382910E+03  0.12373382910E+03  0.00000000000E+00 0. -1.
         25    2    1    2    0    0  0.15679716077E+03  0.55021937743E+02  0.68716199557E+01  0.20810308491E+03  0.12508761540E+03 0.  0.
          5    1    3    3  502    0 -0.21544293601E+02  0.87089839490E+01 -0.98563458745E+00  0.23631480354E+02  0.41800000000E+01 0.  1.
         -5    1    3    3    0  502  0.17834145437E+03  0.46312953794E+02  0.78572545432E+01  0.18447160455E+03  0.41800000000E+01 0.  1.
        -11    1    1    2    0    0 -0.65880888782E+02 -0.53220717282E+02  0.25055492585E+03  0.26448158182E+03  0.00000000000E+00 0.  1.
         11    1    1    2    0    0 -0.90916271989E+02 -0.18012204616E+01  0.11181074257E+03  0.14412027985E+03  0.00000000000E+00 0. -1.
</event>
<event>
 7    1  0.2480409E-009  0.1037964E+03  0.7561462E-02  0.1272509E+00
         -1   -1    0    0    0  501 -0.00000000000E+00  0.00000000000E+00  0.79204273727E+02  0.79204273727E+02  0.00000000000E+00 0.  1.
          1   -1    0    0  501    0  0.00000000000E+00 -0.00000000000E+00 -0.20629940005E+03  0.20629940005E+03  0.00000000000E+00 0. -1.
         25    2    1    2    0    0 -0.50885854129E+02 -0.95425607618E+01 -0.11969849667E+03  0.18070947083E+03  0.12509097539E+03 0.  0.
          5    1    3    3  502    0  0.35961208601E+02 -0.51472046625E+01 -0.52961996121E+01  0.36948942748E+02  0.41800000000E+01 0. -1.
         -5    1    3    3    0  502 -0.86847062730E+02 -0.43953560993E+01 -0.11440229706E+03  0.14376052808E+03  0.41800000000E+01 0. -1.
        -11    1    1    2    0    0  0.91570652209E+01  0.34262878900E+02 -0.34293573025E+02  0.49334023400E+02  0.00000000000E+00 0. -1.
         11    1    1    2    0    0  0.41728788908E+02 -0.24720318138E+02  0.26896943378E+02  0.55460179549E+02  0.00000000000E+00 0.  1.
</event>
<event>
 7    1  0.2480409E-009  0.1596208E+03  0.7561462E-02  0.1189126E+00
          3   -1    0    0  501    0  0.00000000000E+00  0.00000000000E+00  0.47339795021E+03  0.47339795021E+03  0.00000000000E+00 0. -1.
         -3   -1    0    0    0  501 -0.00000000000E+00 -0.00000000000E+00 -0.12584596288E+03  0.12584596288E+03  0.00000000000E+00 0.  1.
         25    2    1    2    0    0 -0.14233352186E+03  0.26330422559E+02  0.38018303402E+03  0.42560334081E+03  0.12508773625E+03 0.  0.
          5    1    3    3  502    0 -0.46576950332E+02  0.31907637392E+02  0.33302979109E+02  0.65681583749E+02  0.41800000000E+01 0. -1.
         -5    1    3    3    0  502 -0.95756571528E+02 -0.55772148329E+01  0.34688005491E+03  0.35992175706E+03  0.41800000000E+01 0. -1.
        -11    1    1    2    0    0  0.12792529848E+03 -0.51269809532E+02 -0.12257260032E+02  0.13836081737E+03  0.00000000000E+00 0. -1.
         11    1    1    2    0    0  0.14408223378E+02  0.24939386973E+02 -0.20373786659E+02  0.35279754907E+02  0.00000000000E+00 0.  1.
</event>
<event>
 7    1  0.2480409E-009  0.1417208E+03  0.7561462E-02  0.1211032E+00
         -2   -1    0    0    0  501 -0.00000000000E+00  0.00000000000E+00  0.66472464968E+02  0.66472464968E+02  0.00000000000E+00 0.  1.
          2   -1    0    0  501    0  0.00000000000E+00 -0.00000000000E+00 -0.37318212296E+03  0.37318212296E+03  0.00000000000E+00 0. -1.
         25    2    1    2    0    0  0.70798286470E+02 -0.85733298733E+02 -0.20559961635E+03  0.26510883401E+03  0.12509554648E+03 0.  0.
          5    1    3    3  502    0  0.27154678786E+02  0.25296947640E+02 -0.96173939377E+02  0.10317078635E+03  0.41800000000E+01 0. -1.
         -5    1    3    3    0  502  0.43643607684E+02 -0.11103024637E+03 -0.10942567697E+03  0.16193804766E+03  0.41800000000E+01 0. -1.
        -11    1    1    2    0    0 -0.69285664168E+02  0.38111704458E+02 -0.99201537766E+02  0.12686193429E+03  0.00000000000E+00 0. -1.
         11    1    1    2    0    0 -0.15126223017E+01  0.47621594275E+02 -0.19085038796E+01  0.47683819631E+02  0.00000000000E+00 0.  1.
</event>
<event>
 7    1  0.2480409E-009  0.9966370E+02  0.7561462E-02  0.1281005E+00
          1   -1    0    0  501    0  0.00000000000E+00  0.00000000000E+00  0.32502564160E+03  0.32502564160E+03  0.00000000000E+00 0. -1.
         -1   -1    0    0    0  501 -0.00000000000E+00 -0.00000000000E+00 -0.45849264978E+02  0.45849264978E+02  0.00000000000E+00 0.  1.
         25    2    1    2    0    0  0.31159318963E+01 -0.54414453938E+02  0.17195792508E+03  0.21950841677E+03  0.12507507827E+03 0.  0.
          5    1    3    3  502    0  0.51678752922E+02 -0.13929824400E+02  0.24497978711E+02  0.59011497797E+02  0.41800000000E+01 0.  1.
         -5    1    3    3    0  502 -0.48562821025E+02 -0.40484629538E+02  0.14745994637E+03  0.16049691897E+03  0.41800000000E+01 0.  1.
        -11    1    1    2    0    0  0.25163793996E+02  0.54698296352E+01 -0.45184898918E+01  0.26144833437E+02  0.00000000000E+00 0.  1.
         11    1    1    2    0    0 -0.28279725893E+02  0.48944624303E+02  0.11173694143E+03  0.12522165638E+03  0.00000000000E+00 0. -1.
</event>
<event>
 7    1  0.2480409E-009  0.1815600E+03  0.7561462E-02  0.1166302E+00
         -3   -1    0    0    0  501 -0.00000000000E+00  0.00000000000E+00  0.21890399681E+03  0.21890399681E+03  0.00000000000E+00 0.  1.
          3   -1    0    0  501    0  0.00000000000E+00 -0.00000000000E+00 -0.18543611419E+03  0.18543611419E+03  0.00000000000E+00 0. -1.
         25    2    1    2    0    0 -0.77849885622E+02 -0.14547147310E+03 -0.21096216227E+02  0.20812289368E+03  0.12509010496E+03 0.  0.
          5    1    3    3  502    0 -0.67748007163E+02 -0.63287129844E+02 -0.65958256105E+02  0.11385524681E+03  0.41800000000E+01 0. -1.
         -5    1    3    3    0  502 -0.10101878459E+02 -0.82184343254E+02  0.44862039877E+02  0.94267646871E+02  0.41800000000E+01 0. -1.
        -11    1    1    2    0    0  0.92777634908E+02  0.87445727422E+02  0.46753140652E+02  0.13579506966E+03  0.00000000000E+00 0. -1.
         11    1    1    2    0    0 -0.14927749287E+02  0.58025745677E+02  0.78109581928E+01  0.60422147662E+02  0.00000000000E+00 0.  1.
</event>
<event>
 7    1  0.2480409E-009  0.9767489E+02  0.7561462E-02  0.1285263E+00
         -3   -1    0    0    0  501 -0.00000000000E+00  0.00000000000E+00  0.22823206074E+03  0.22823206074E+03  0.00000000000E+00 0.  1.
          3   -1    0    0  501    0  0.00000000000E+00 -0.00000000000E+00 -0.58638918313E+02  0.58638918313E+02  0.00000000000E+00 0. -1.
         25    2    1    2    0    0 -0.11769189878E+02 -0.41784285113E+02  0.90363767355E+02  0.16030435588E+03  0.12508971081E+03 0.  0.
          5    1    3    3  502    0 -0.48473585388E+02 -0.14295588989E+02 -0.83368875434E+01  0.51390937322E+02  0.41800000000E+01 0. -1.
         -5    1    3    3    0  502  0.36704395510E+02 -0.27488696124E+02  0.98700654898E+02  0.10891341856E+03  0.41800000000E+01 0. -1.
        -11    1    1    2    0    0 -0.29858524507E+02  0.47974383426E+02  0.42469943582E+02  0.70687828222E+02  0.00000000000E+00 0. -1.
         11    1    1    2    0    0  0.41627714385E+02 -0.61900983135E+01  0.36759431494E+02  0.55878794957E+02  0.00000000000E+00 0.  1.
</event>
<event>
 7    1  0.2480409E-009  0.1098679E+03  0.7561462E-02  0.1260815E+00
         -2   -1    0    0    0  501 -0.00000000000E+00  0.00000000000E+00  0.18238127077E+02  0.18238127077E+02  0.00000000000E+00 0.  1.
          2   -1    0    0  501    0  0.00000000000E+00 -0.00000000000E+00 -0.82646434183E+03  0.82646434183E+03  0.00000000000E+00 0. -1.
         25    2    1    2    0    0  0.51677971674E+02  0.17818966712E+02 -0.53204652676E+03  0.54927828133E+03  0.12507995590E+03 0.  0.
          5    1    3    3  502    0  0.74262355795E+02 -0.32165706458E+02 -0.29453270050E+03  0.30547751836E+03  0.41800000000E+01 0.  1.
         -5    1    3    3    0  502 -0.22584384121E+02  0.49984673170E+02 -0.23751382626E+03  0.24380076296E+03  0.41800000000E+01 0.  1.
        -11    1    1    2    0    0  0.69119129994E+01  0.15013060453E+02 -0.69255051098E+01  0.17920076632E+02  0.00000000000E+00 0.  1.
         11    1    1    2    0    0 -0.58589884674E+02 -0.32832027165E+02 -0.26925418289E+03  0.27750411095E+03  0.00000000000E+00 0. -1.
</event>
<event>
 7    1  0.2480409E-009  0.1925487E+03  0.7561462E-02  0.1156182E+00
          2   -1    0    0  501    0  0.00000000000E+00  0.00000000000E+00  0.14524595131E+04  0.14524595131E+04  0.00000000000E+00 0. -1.
         -2   -1    0    0    0  501 -0.00000000000E+00 -0.00000000000E+00 -0.26512628166E+02  0.26512628166E+02  0.00000000000E+00 0.  1.
         25    2    1    2    0    0  0.16092155705E+03  0.23966351339E+02  0.80824711073E+03  0.83389548067E+03  0.12509255439E+03 0.  0.
          5    1    3    3  502    0 -0.12271775127E+02  0.28281760668E+02  0.15207814680E+03  0.15522786344E+03  0.41800000000E+01 0.  1.
         -5    1    3    3    0  502  0.17319333218E+03 -0.43154093296E+01  0.65616896392E+03  0.67866761724E+03  0.41800000000E+01 0.  1.
        -11    1    1    2    0    0 -0.18681498549E+02 -0.33257396765E+02  0.77385827815E+02  0.86276411459E+02  0.00000000000E+00 0. -1.
         11    1    1    2    0    0 -0.14224005850E+03  0.92910454265E+01  0.54031394638E+03  0.55880024912E+03  0.00000000000E+00 0.  1.
</event>
<event>
 7    1  0.2480409E-009  0.1897301E+03  0.7561462E-02  0.1158705E+00
          1   -1    0    0  501    0  0.00000000000E+00  0.00000000000E+00  0.11889291637E+04  0.11889291637E+04  0.00000000000E+00 0. -1.
         -1   -1    0    0    0  501 -0.00000000000E+00 -0.00000000000E+00 -0.37844785474E+02  0.37844785474E+02  0.00000000000E+00 0.  1.
         25    2    1    2    0    0  0.16818690532E+03 -0.22891526194E+02  0.79856606072E+03  0.82593618753E+03  0.12510785524E+03 0.  0.
          5    1    3    3  502    0  0.14950885058E+03 -0.53791491716E+02  0.48758590718E+03  0.51283906858E+03  0.41800000000E+01 0. -1.
         -5    1    3    3    0  502  0.18678054748E+02  0.30899965522E+02  0.31098015354E+03  0.31309711895E+03  0.41800000000E+01 0. -1.
        -11    1    1    2    0    0 -0.75312775815E+02 -0.25408688443E+02  0.10188669667E+03  0.12922273255E+03  0.00000000000E+00 0.  1.
         11    1    1    2    0    0 -0.92874129510E+02  0.48300214637E+02  0.25063162080E+03  0.27161502906E+03  0.00000000000E+00 0. -1.
</event>
<event>
 7    1  0.2480409E-009  0.1109470E+03  0.7561462E-02  0.1258826E+00
         -2   -1    0    0    0  501 -0.00000000000E+00  0.00000000000E+00  0.30419211410E+02  0.30419211410E+02  0.00000000000E+00 0.  1.
          2   -1    0    0  501    0  0.00000000000E+00 -0.00000000000E+00 -0.48596729258E+03  0.48596729258E+03  0.00000000000E+00 0. -1.
         25    2    1    2    0    0  0.39127548715E+02  0.37733300236E+02 -0.23472542989E+03  0.27147099918E+03  0.12508280836E+03 0.  0.
          5    1    3    3  502    0 -0.38684846726E+02  0.21628848479E+02 -0.14434631370E+03  0.15105513938E+03  0.41800000000E+01 0.  1.
         -5    1    3    3    0  502  0.77812395441E+02  0.16104451758E+02 -0.90379116185E+02  0.12041585981E+03  0.41800000000E+01 0.  1.
        -11    1    1    2    0    0  0.19216932833E+01  0.23777550771E+02 -0.20761563569E+02  0.31624473870E+02  0.00000000000E+00 0.  1.
         11    1    1    2    0    0 -0.41049241998E+02 -0.61510851007E+02 -0.20006108771E+03  0.21329103093E+03  0.00000000000E+00 0. -1.
</event>
<event>
 7    1  0.2480409E-009  0.1151280E+03  0.7561462E-02  0.1251358E+00
         -2   -1    0    0    0  501 -0.00000000000E+00  0.00000000000E+00  0.76737098052E+02  0.76737098052E+02  0.00000000000E+00 0. -1.
          2   -1    0    0  501    0  0.00000000000E+00 -0.00000000000E+00 -0.35183418180E+03  0.35183418180E+03  0.00000000000E+00 0.  1.
         25    2    1    2    0    0 -0.64996245193E+02 -0.53700530619E+02 -0.30392393510E+02  0.15387505990E+03  0.12508228331E+03 0.  0.
          5    1    3    3  502    0 -0.22435962348E+01  0.20177248290E+02  0.32286868539E+02  0.38367555990E+02  0.41800000000E+01 0. -1.
         -5    1    3    3    0  502 -0.62752648958E+02 -0.73877778908E+02 -0.62679262049E+02  0.11550750391E+03  0.41800000000E+01 0. -1.
        -11    1    1    2    0    0  0.73925271737E+02  0.64769140175E+02 -0.24059055444E+03  0.25989190484E+03  0.00000000000E+00 0.  1.
         11    1    1    2    0    0 -0.89290265439E+01 -0.11068609556E+02 -0.41141358051E+01  0.14804315113E+02  0.00000000000E+00 0. -1.
</event>
<event>
 7    1  0.2480409E-009  0.1259103E+03  0.7561462E-02  0.1233653E+00
          3   -1    0    0  501    0  0.00000000000E+00  0.00000000000E+00  0.12866418178E+03  0.12866418178E+03  0.00000000000E+00 0. -1.
         -3   -1    0    0    0  501 -0.00000000000E+00 -0.00000000000E+00 -0.14426979470E+03  0.14426979470E+03  0.00000000000E+00 0.  1.
         25    2    1    2    0    0 -0.65560680471E+02  0.32603991048E+02 -0.43925628393E+02  0.15145714591E+03  0.12509429708E+03 0.  0.
          5    1    3    3  502    0 -0.17366683294E+02  0.77113683127E+02 -0.26089359692E+02  0.83344159383E+02  0.41800000000E+01 0. -1.
         -5    1    3    3    0  502 -0.48193997177E+02 -0.44509692079E+02 -0.17836268701E+02  0.68112986530E+02  0.41800000000E+01 0. -1.
        -11    1    1    2    0    0  0.28739333929E+02  0.25313429121E+02  0.35818249256E+02  0.52437257635E+02  0.00000000000E+00 0. -1.
         11    1    1    2    0    0  0.36821346542E+02 -0.57917420169E+02 -0.74982337797E+01  0.69039572927E+02  0.00000000000E+00 0.  1.
</event>
<event>
 7    1  0.2480409E-009  0.8957490E+02  0.7561462E-02  0.1303884E+00
          1   -1    0    0  501    0  0.00000000000E+00  0.00000000000E+00  0.11985526020E+03  0.11985526020E+03  0.00000000000E+00 0. -1.
         -1   -1    0    0    0  501 -0.00000000000E+00 -0.00000000000E+00 -0.10729241589E+03  0.10729241589E+03  0.00000000000E+00 0.  1.
         25    2    1    2    0    0  0.26878846147E+02 -0.21785443494E+02  0.96803881463E+01  0.13015192133E+03  0.12509490315E+03 0.  0.
          5    1    3    3  502    0  0.35077590268E+02  0.22390941825E+02  0.53057077870E+02  0.67559733029E+02  0.41800000000E+01 0. -1.
         -5    1    3    3    0  502 -0.81987441212E+01 -0.44176385319E+02 -0.43376689724E+02  0.62592188302E+02  0.41800000000E+01 0. -1.
        -11    1    1    2    0    0  0.25286365251E+02 -0.14035876737E+02 -0.13068372815E+02  0.31736232785E+02  0.00000000000E+00 0.  1.
         11    1    1    2    0    0 -0.52165211398E+02  0.35821320231E+02  0.15950828978E+02  0.65259521975E+02  0.00000000000E+00 0. -1.
</event>
<event>
 7    1  0.2480409E-009  0.8682209E+02  0.7561462E-02  0.1310735E+00
          2   -1    0    0  501    0  0.00000000000E+00  0.00000000000E+00  0.21708130414E+03  0.21708130414E+03  0.00000000000E+00 0. -1.
         -2   -1    0    0    0  501 -0.00000000000E+00 -0.00000000000E+00 -0.73852849339E+02  0.73852849339E+02  0.00000000000E+00 0.  1.
         25    2    1    2    0    0  0.45481214378E+02  0.37623419186E+02  0.70749272129E+02  0.15535710921E+03  0.12508520832E+03 0.  0.
          5    1    3    3  502    0  0.24353750368E+01  0.43420566957E+02 -0.24855866484E+02  0.50264929972E+02  0.41800000000E+01 0.  1.
         -5    1    3    3    0  502  0.43045839342E+02 -0.57971477704E+01  0.95605138613E+02  0.10509217923E+03  0.41800000000E+01 0.  1.
        -11    1    1    2    0    0 -0.40150877281E+02 -0.55027139023E+02  0.88258193289E+02  0.11148806061E+03  0.00000000000E+00 0. -1.
         11    1    1    2    0    0 -0.53303370977E+01  0.17403719837E+02 -0.15779010620E+02  0.24088983663E+02  0.00000000000E+00 0.  1.
</event>
<event>
 7    1  0.2480409E-009  0.1163610E+03  0.7561462E-02  0.1249224E+00
         -1   -1    0    0    0  501 -0.00000000000E+00  0.00000000000E+00  0.43527850572E+03  0.43527850572E+03  0.00000000000E+00 0.  1.
          1   -1    0    0  501    0  0.00000000000E+00 -0.00000000000E+00 -0.48170439789E+02  0.48170439789E+02  0.00000000000E+00 0. -1.
         25    2    1    2    0    0 -0.13573878251E+02  0.81331121554E+02  0.29095703299E+03  0.32727086335E+03  0.12510484182E+03 0.  0.
          5    1    3    3  502    0  0.25633310714E+02 -0.25143226299E+02  0.76567684793E+02  0.84671903259E+02  0.41800000000E+01 0.  1.
         -5    1    3    3    0  502 -0.39207188965E+02  0.10647434785E+03  0.21438934820E+03  0.24259896009E+03  0.41800000000E+01 0.  1.
        -11    1    1    2    0    0  0.12882502969E+02 -0.48124739754E+02  0.10956375881E+03  0.12035849244E+03  0.00000000000E+00 0.  1.
         11    1    1    2    0    0  0.69137528208E+00 -0.33206381800E+02 -0.13412725868E+02  0.35819589713E+02  0.00000000000E+00 0. -1.
</event>
<event>
 7    1  0.2480409E-009  0.2957270E+03  0.7561462E-02  0.1087396E+00
         -2   -1    0    0    0  501 -0.00000000000E+00  0.00000000000E+00  0.15586673485E+03  0.15586673485E+03  0.00000000000E+00 0.  1.
          2   -1    0    0  501    0  0.00000000000E+00 -0.00000000000E+00 -0.61198304631E+03  0.61198304631E+03  0.00000000000E+00 0. -1.
         25    2    1    2    0    0 -0.12424999827E+03 -0.25287339942E+03 -0.15369444835E+03  0.34446075377E+03  0.12509280247E+03 0.  0.
          5    1    3    3  502    0 -0.42072266055E+02 -0.16371895453E+02  0.84804035240E+01  0.46124875888E+02  0.41800000000E+01 0. -1.
         -5    1    3    3    0  502 -0.82177732214E+02 -0.23650150397E+03 -0.16217485187E+03  0.29833587788E+03  0.41800000000E+01 0. -1.
        -11    1    1    2    0    0  0.96062066083E+02  0.24945739665E+03 -0.28085900148E+03  0.38773533757E+03  0.00000000000E+00 0. -1.
         11    1    1    2    0    0  0.28187932186E+02  0.34160027731E+01 -0.21562861628E+02  0.35653689815E+02  0.00000000000E+00 0.  1.
</event>
<event>
 7    1  0.2480409E-009  0.2207708E+03  0.7561462E-02  0.1133310E+00
         -2   -1    0    0    0  501 -0.00000000000E+00  0.00000000000E+00  0.91231578396E+02  0.91231578396E+02  0.00000000000E+00 0.  1.
          2   -1    0    0  501    0  0.00000000000E+00 -0.00000000000E+00 -0.61763269346E+03  0.61763269346E+03  0.00000000000E+00 0. -1.
         25    2    1    2    0    0 -0.19111600883E+03  0.36648675897E+02 -0.14855416085E+03  0.27492499298E+03  0.12508780428E+03 0.  0.
          5    1    3    3  502    0 -0.12284465848E+03  0.82236949315E+02 -0.81596838209E+02  0.16890601634E+03  0.41800000000E+01 0. -1.
         -5    1    3    3    0  502 -0.68271350359E+02 -0.45588273418E+02 -0.66957322640E+02  0.10601897664E+03  0.41800000000E+01 0. -1.
        -11    1    1    2    0    0  0.12019228129E+03 -0.63110258210E+02 -0.21362732016E+03  0.25311207219E+03  0.00000000000E+00 0.  1.
         11    1    1    2    0    0  0.70923727543E+02  0.26461582313E+02 -0.16421963406E+03  0.18082720669E+03  0.00000000000E+00 0. -1.
</event>
<event>
 7    1  0.2480409E-009  0.3266277E+03  0.7561462E-02  0.1072639E+00
          1   -1    0    0  501    0  0.00000000000E+00  0.00000000000E+00  0.30489245800E+03  0.30489245800E+03  0.00000000000E+00 0. -1.
         -1   -1    0    0    0  501 -0.00000000000E+00 -0.00000000000E+00 -0.46861857805E+03  0.46861857805E+03  0.00000000000E+00 0.  1.
         25    2    1    2    0    0  0.21061402645E+03 -0.22708326644E+03  0.10834224270E+03  0.35115627162E+03  0.12509039737E+03 0.  0.
          5    1    3    3  502    0 -0.11399288088E+02 -0.42040733033E+02  0.43629551552E+01  0.43975843148E+02  0.41800000000E+01 0. -1.
         -5    1    3    3    0  502  0.22201331453E+03 -0.18504253341E+03  0.10397928754E+03  0.30718042848E+03  0.41800000000E+01 0. -1.
        -11    1    1    2    0    0 -0.11127785696E+03  0.17732286759E+03 -0.15158845486E+03  0.25846705877E+03  0.00000000000E+00 0. -1.
         11    1    1    2    0    0 -0.99336169482E+02  0.49760398849E+02 -0.12047990789E+03  0.16388770566E+03  0.00000000000E+00 0.  1.
</event>
<event>
 7    1  0.2480409E-009  0.9096214E+02  0.7561462E-02  0.1300538E+00
         -4   -1    0    0    0  501 -0.00000000000E+00  0.00000000000E+00  0.99979154260E+02  0.99979154260E+02  0.00000000000E+00 0.  1.
          4   -1    0    0  501    0  0.00000000000E+00 -0.00000000000E+00 -0.13093335326E+03  0.13093335326E+03  0.00000000000E+00 0. -1.
         25    2    1    2    0    0 -0.16213097487E+02 -0.19072696758E+02 -0.28924019845E+02  0.13081514322E+03  0.12509744394E+03 0.  0.
          5    1    3    3  502    0 -0.47502505080E+01  0.38210309471E+02 -0.54537728452E+02  0.66891171723E+02  0.41800000000E+01 0.  1.
         -5    1    3    3    0  502 -0.11462846979E+02 -0.57283006229E+02  0.25613708607E+02  0.63923971498E+02  0.41800000000E+01 0.  1.
        -11    1    1    2    0    0 -0.32457584562E+02  0.15085113397E+02  0.25585243106E+02  0.43996137405E+02  0.00000000000E+00 0.  1.
         11    1    1    2    0    0  0.48670682049E+02  0.39875833611E+01 -0.27615422258E+02  0.56101226891E+02  0.00000000000E+00 0. -1.
</event>
<event>
 7    1  0.2480409E-009  0.1326120E+03  0.7561462E-02  0.1223631E+00
         -2   -1    0    0    0  501 -0.00000000000E+00  0.00000000000E+00  0.27231150192E+03  0.27231150192E+03  0.00000000000E+00 0. -1.
          2   -1    0    0  501    0  0.00000000000E+00 -0.00000000000E+00 -0.92735768340E+02  0.92735768340E+02  0.00000000000E+00 0.  1.
         25    2    1    2    0    0  0.62515577846E+02 -0.81598664757E+02  0.16389278467E+03  0.23037932519E+03  0.12508896452E+03 0.  0.
          5    1    3    3  502    0  0.84791237856E+02 -0.84582276615E+01  0.84533393121E+02  0.12010188419E+03  0.41800000000E+01 0. -1.
         -5    1    3    3    0  502 -0.22275660010E+02 -0.73140437095E+02  0.79359391549E+02  0.11027744100E+03  0.41800000000E+01 0. -1.
        -11    1    1    2    0    0 -0.19485228047E+02  0.33876268480E+02 -0.35283727282E+02  0.52651847917E+02  0.00000000000E+00 0.  1.
         11    1    1    2    0    0 -0.43030349799E+02  0.47722396277E+02  0.50966676190E+02  0.82016097152E+02  0.00000000000E+00 0. -1.
</event>
<event>
 7    1  0.2480409E-009  0.9346106E+02  0.7561462E-02  0.1294680E+00
          1   -1    0    0  501    0  0.00000000000E+00  0.00000000000E+00  0.46564295338E+02  0.46564295338E+02  0.00000000000E+00 0. -1.
         -1   -1    0    0    0  501 -0.00000000000E+00 -0.00000000000E+00 -0.28775211676E+03  0.28775211676E+03  0.00000000000E+00 0.  1.
         25    2    1    2    0    0 -0.26288683207E+02  0.35970494485E+02 -0.10877567945E+03  0.17165467793E+03  0.12509280025E+03 0.  0.
          5    1    3    3  502    0 -0.56834294826E+02  0.59383049576E+01 -0.29052123905E+01  0.57369967694E+02  0.41800000000E+01 0.  1.
         -5    1    3    3    0  502  0.30545611619E+02  0.30032189528E+02 -0.10587046706E+03  0.11428471023E+03  0.41800000000E+01 0.  1.
        -11    1    1    2    0    0 -0.25856161369E+02 -0.63860732053E+01 -0.75255777652E+02  0.79829537652E+02  0.00000000000E+00 0. -1.
         11    1    1    2    0    0  0.52144844576E+02 -0.29584421280E+02 -0.57156364321E+02  0.82832196523E+02  0.00000000000E+00 0.  1.
</event>
<event>
 7    1  0.2480409E-009  0.9881206E+02  0.7561462E-02  0.1282814E+00
          2   -1    0    0  501    0  0.00000000000E+00  0.00000000000E+00  0.50395156249E+03  0.50395156249E+03  0.00000000000E+00 0. -1.
         -2   -1    0    0    0  501 -0.00000000000E+00 -0.00000000000E+00 -0.37005647890E+02  0.37005647890E+02  0.00000000000E+00 0.  1.
         25    2    1    2    0    0  0.25363504969E+01 -0.59935377082E+02  0.14402385528E+03  0.19997132944E+03  0.12508788593E+03 0.  0.
          5    1    3    3  502    0 -0.47922456055E+02 -0.31100824570E+02  0.12691733542E+03  0.13924548651E+03  0.41800000000E+01 0.  1.
         -5    1    3    3    0  502  0.50458806552E+02 -0.28834552512E+02  0.17106519857E+02  0.60725842924E+02  0.41800000000E+01 0.  1.
        -11    1    1    2    0    0 -0.47341394653E+01 -0.10545713888E+02  0.11943383885E+01  0.11621127401E+02  0.00000000000E+00 0.  1.
         11    1    1    2    0    0  0.21977889684E+01  0.70481090969E+02  0.32172772093E+03  0.32936475355E+03  0.00000000000E+00 0. -1.
</event>
<event>
 7    1  0.2480409E-009  0.1088747E+03  0.7561462E-02  0.1262668E+00
         -2   -1    0    0    0  501 -0.00000000000E+00  0.00000000000E+00  0.15345736196E+03  0.15345736196E+03  0.00000000000E+00 0. -1.
          2   -1    0    0  501    0  0.00000000000E+00 -0.00000000000E+00 -0.10036015137E+03  0.10036015137E+03  0.00000000000E+00 0.  1.
         25    2    1    2    0    0  0.47148439149E+02 -0.35126009208E+02  0.42453450274E+02  0.14458307871E+03  0.12508061150E+03 0.  0.
          5    1    3    3  502    0  0.69846118454E+02  0.21795080488E+02  0.68946019130E+01  0.73610554489E+02  0.41800000000E+01 0.  1.
         -5    1    3    3    0  502 -0.22697679305E+02 -0.56921089696E+02  0.35558848361E+02  0.70972524224E+02  0.41800000000E+01 0.  1.
        -11    1    1    2    0    0  0.13765386495E+02  0.10602966504E+02 -0.28065820481E+02  0.33009075166E+02  0.00000000000E+00 0.  1.
         11    1    1    2    0    0 -0.60913825644E+02  0.24523042704E+02  0.38709580795E+02  0.76225359451E+02  0.00000000000E+00 0. -1.
</event>
<event>
 7    1  0.2480409E-009  0.1475425E+03  0.7561462E-02  0.1203526E+00
          2   -1    0    0  501    0  0.00000000000E+00  0.00000000000E+00  0.20394213769E+04  0.20394213769E+04  0.00000000000E+00 0. -1.
         -2   -1    0    0    0  501 -0.00000000000E+00 -0.00000000000E+00 -0.12340900752E+02  0.12340900752E+02  0.00000000000E+00 0.  1.
         25    2    1    2    0    0 -0.23624764625E+01  0.10332596371E+03  0.14007707426E+04  0.14101374867E+04  0.12508885636E+03 0.  0.
          5    1    3    3  502    0 -0.14328725964E+02  0.12822360752E+03  0.12618073221E+04  0.12683933918E+04  0.41800000000E+01 0. -1.
         -5    1    3    3    0  502  0.11966249502E+02 -0.24897643807E+02  0.13896342052E+03  0.14174409490E+03  0.41800000000E+01 0. -1.
        -11    1    1    2    0    0  0.23579445063E+02  0.78676190353E+01  0.15019185680E+03  0.15223496151E+03  0.00000000000E+00 0. -1.
         11    1    1    2    0    0 -0.21216968601E+02 -0.11119358275E+03  0.47611787672E+03  0.48938982941E+03  0.00000000000E+00 0.  1.
</event>
<event>
 7    1  0.2480409E-009  0.7413308E+02  0.7561462E-02  0.1346577E+00
          1   -1    0    0  501    0  0.00000000000E+00  0.00000000000E+00  0.21286898618E+03  0.21286898618E+03  0.00000000000E+00 0. -1.
         -1   -1    0    0    0  501 -0.00000000000E+00 -0.00000000000E+00 -0.55990206990E+02  0.55990206990E+02  0.00000000000E+00 0.  1.
         25    2    1    2    0    0 -0.41755088187E+01 -0.10144928382E+02  0.82653730078E+02  0.15033184405E+03  0.12509064631E+03 0.  0.
          5    1    3    3  502    0  0.39185562100E+02 -0.12492679620E+02 -0.14518627041E+02  0.43815958877E+02  0.41800000000E+01 0.  1.
         -5    1    3    3    0  502 -0.43361070918E+02  0.23477512383E+01  0.97172357119E+02  0.10651588518E+03  0.41800000000E+01 0.  1.
        -11    1    1    2    0    0 -0.29148959607E+02  0.52563909023E+01  0.79129299375E+02  0.84491049887E+02  0.00000000000E+00 0. -1.
         11    1    1    2    0    0  0.33324468425E+02  0.48885374795E+01 -0.49042502634E+01  0.34036299229E+02  0.00000000000E+00 0.  1.
</event>
<event>
 7    1  0.2480409E-009  0.1149065E+03  0.7561462E-02  0.1251744E+00
         -1   -1    0    0    0  501 -0.00000000000E+00  0.00000000000E+00  0.93927423520E+02  0.93927423520E+02  0.00000000000E+00 0.  1.
          1   -1    0    0  501    0  0.00000000000E+00 -0.00000000000E+00 -0.21116956214E+03  0.21116956214E+03  0.00000000000E+00 0. -1.
         25    2    1    2    0    0  0.83152429414E+01 -0.45383949682E+02  0.19421780372E+02  0.13473311292E+03  0.12508780920E+03 0.  0.
          5    1    3    3  502    0  0.46139870924E+02  0.21655665513E+02 -0.10204793568E+02  0.52148497097E+02  0.41800000000E+01 0. -1.
         -5    1    3    3    0  502 -0.37824627983E+02 -0.67039615194E+02  0.29626573940E+02  0.82584615824E+02  0.41800000000E+01 0. -1.
        -11    1    1    2    0    0  0.40601763368E+02  0.11914188275E+02 -0.61268485332E+02  0.74459911132E+02  0.00000000000E+00 0.  1.
         11    1    1    2    0    0 -0.48917006309E+02  0.33469761406E+02 -0.75395433657E+02  0.95903961603E+02  0.00000000000E+00 0. -1.
</event>
<event>
 7    1  0.2480409E-009  0.8503820E+02  0.7561462E-02  0.1315333E+00
         -2   -1    0    0    0  501 -0.00000000000E+00  0.00000000000E+00  0.13752437351E+03  0.13752437351E+03  0.00000000000E+00 0.  1.
          2   -1    0    0  501    0  0.00000000000E+00 -0.00000000000E+00 -0.95285524001E+02  0.95285524001E+02  0.00000000000E+00 0. -1.
         25    2    1    2    0    0  0.24163852342E+02 -0.17905973882E+02 -0.18138090351E+01  0.12866904493E+03  0.12509163664E+03 0.  0.
          5    1    3    3  502    0 -0.43860507687E+02  0.21983268815E+01 -0.28775688351E+02  0.52669625172E+02  0.41800000000E+01 0. -1.
         -5    1    3    3    0  502  0.68024360030E+02 -0.20104300763E+02  0.26961879316E+02  0.75999419753E+02  0.41800000000E+01 0. -1.
        -11    1    1    2    0    0 -0.35540268137E+02  0.23112999833E+02  0.66253935554E+02  0.78656883977E+02  0.00000000000E+00 0.  1.
         11    1    1    2    0    0  0.11376415795E+02 -0.52070259516E+01 -0.22201277006E+02  0.25483968613E+02  0.00000000000E+00 0. -1.
</event>
<event>
 7    1  0.2480409E-009  0.1136902E+03  0.7561462E-02  0.1253885E+00
          1   -1    0    0  501    0  0.00000000000E+00  0.00000000000E+00  0.32877250477E+03  0.32877250477E+03  0.00000000000E+00 0. -1.
         -1   -1    0    0    0  501 -0.00000000000E+00 -0.00000000000E+00 -0.75245005023E+02  0.75245005023E+02  0.00000000000E+00 0.  1.
         25    2    1    2    0    0 -0.28506022156E+00  0.74390288619E+02  0.36618600740E+02  0.15007401839E+03  0.12508913932E+03 0.  0.
          5    1    3    3  502    0  0.85031406884E+01 -0.83061544386E+01 -0.36902289678E+02  0.38994191703E+02  0.41800000000E+01 0. -1.
         -5    1    3    3    0  502 -0.87882009099E+01  0.82696443058E+02  0.73520890417E+02  0.11107982669E+03  0.41800000000E+01 0. -1.
        -11    1    1    2    0    0 -0.54083277842E+02 -0.37016274103E+02  0.96633153755E+02  0.11676117461E+03  0.00000000000E+00 0.  1.
         11    1    1    2    0    0  0.54368338064E+02 -0.37374014517E+02  0.12027574525E+03  0.13718231679E+03  0.00000000000E+00 0. -1.
</event>
<event>
 7    1  0.2480409E-009  0.1409079E+03  0.7561462E-02  0.1212113E+00
         -2   -1    0    0    0  501 -0.00000000000E+00  0.00000000000E+00  0.40613127011E+03  0.40613127011E+03  0.00000000000E+00 0.  1.
          2   -1    0    0  501    0  0.00000000000E+00 -0.00000000000E+00 -0.59119785061E+02  0.59119785061E+02  0.00000000000E+00 0. -1.
         25    2    1    2    0    0  0.88038236011E+02 -0.50332175775E+02  0.26184672016E+03  0.30740149566E+03  0.12509162944E+03 0.  0.
          5    1    3    3  502    0  0.84982787073E+02 -0.82159138324E+02  0.15013290117E+03  0.19112707428E+03  0.41800000000E+01 0.  1.
         -5    1    3    3    0  502  0.30554489381E+01  0.31826962550E+02  0.11171381899E+03  0.11627442138E+03  0.41800000000E+01 0.  1.
        -11    1    1    2    0    0  0.10877089165E+02  0.27787529456E+02  0.95941902969E+01  0.31344957320E+02  0.00000000000E+00 0.  1.
         11    1    1    2    0    0 -0.98915325176E+02  0.22544646319E+02  0.75570574594E+02  0.12650460220E+03  0.00000000000E+00 0. -1.
</event>
<event>
 7    1  0.2480409E-009  0.1254021E+03  0.7561462E-02  0.1234442E+00
         -2   -1    0    0    0  501 -0.00000000000E+00  0.00000000000E+00  0.68580470991E+02  0.68580470991E+02  0.00000000000E+00 0.  1.
          2   -1    0    0  501    0  0.00000000000E+00 -0.00000000000E+00 -0.24279065406E+03  0.24279065406E+03  0.00000000000E+00 0. -1.
         25    2    1    2    0    0 -0.43320745622E+02 -0.52676437200E+02 -0.99070852297E+02  0.17353469905E+03  0.12509102271E+03 0.  0.
          5    1    3    3  502    0 -0.25149503499E+02 -0.91151577650E+02 -0.88301830376E+02  0.12944417052E+03  0.41800000000E+01 0.  1.
         -5    1    3    3    0  502 -0.18171242123E+02  0.38475140450E+02 -0.10769021921E+02  0.44090528530E+02  0.41800000000E+01 0.  1.
        -11    1    1    2    0    0 -0.18406099663E+02 -0.13558259947E+02 -0.52367337637E+01  0.23452810025E+02  0.00000000000E+00 0. -1.
         11    1    1    2    0    0  0.61726845285E+02  0.66234697146E+02 -0.69902597008E+02  0.11438361597E+03  0.00000000000E+00 0.  1.
</event>
<event>
 7    1  0.2602443E-009  0.1190241E+03  0.7561462E-02  0.1244716E+00
          2   -1    0    0  501    0  0.00000000000E+00  0.00000000000E+00  0.43064676298E+03  0.43064676298E+03  0.00000000000E+00 0. -1.
         -2   -1    0    0    0  501 -0.00000000000E+00 -0.00000000000E+00 -0.62184716088E+02  0.62184716088E+02  0.00000000000E+00 0.  1.
         25    2    1    2    0    0 -0.24020349912E+02  0.77191740600E+02  0.33440137374E+03  0.36607121541E+03  0.12509322111E+03 0.  0.
          5    1    3    3  502    0  0.29984023863E+02  0.13260186357E+02  0.22923353232E+03  0.23160388375E+03  0.41800000000E+01 0. -1.
         -5    1    3    3    0  502 -0.54004373775E+02  0.63931554243E+02  0.10516784142E+03  0.13446733166E+03  0.41800000000E+01 0. -1.
        -11    1    1    2    0    0 -0.29224479231E+02 -0.57380179114E+02  0.10441258245E+02  0.65234768454E+02  0.00000000000E+00 0.  1.
         11    1    1    2    0    0  0.53244829144E+02 -0.19811561486E+02  0.23619414906E+02  0.61525495200E+02  0.00000000000E+00 0. -1.
</event>
<event>
 7    1  0.2480409E-009  0.1028746E+03  0.7561462E-02  0.1274365E+00
         -2   -1    0    0    0  501 -0.00000000000E+00  0.00000000000E+00  0.54435284218E+02  0.54435284218E+02  0.00000000000E+00 0. -1.
          2   -1    0    0  501    0  0.00000000000E+00 -0.00000000000E+00 -0.23690876396E+03  0.23690876396E+03  0.00000000000E+00 0.  1.
         25    2    1    2    0    0  0.87133832942E+01  0.19769090143E+00 -0.57421795263E+02  0.13791616882E+03  0.12509054689E+03 0.  0.
          5    1    3    3  502    0 -0.49831847066E+02 -0.26969242182E+02 -0.44001143222E+02  0.71861853655E+02  0.41800000000E+01 0.  1.
         -5    1    3    3    0  502  0.58545230360E+02  0.27166933084E+02 -0.13420652041E+02  0.66054315168E+02  0.41800000000E+01 0.  1.
        -11    1    1    2    0    0 -0.28253153725E+02 -0.34613935518E+02 -0.90342302210E+02  0.10078738411E+03  0.00000000000E+00 0.  1.
         11    1    1    2    0    0  0.19539770431E+02  0.34416244616E+02 -0.34709382266E+02  0.52640495242E+02  0.00000000000E+00 0. -1.
</event>
<event>
 7    1  0.2480409E-009  0.7990708E+02  0.7561462E-02  0.1329315E+00
          1   -1    0    0  501    0  0.00000000000E+00  0.00000000000E+00  0.27189695420E+02  0.27189695420E+02  0.00000000000E+00 0. -1.
         -1   -1    0    0    0  501 -0.00000000000E+00 -0.00000000000E+00 -0.55415893410E+03  0.55415893410E+03  0.00000000000E+00 0.  1.
         25    2    1    2    0    0  0.51101470769E+02  0.20753847567E+02 -0.28507060188E+03  0.31615725285E+03  0.12509227781E+03 0.  0.
          5    1    3    3  502    0  0.32280906245E+02  0.10068634267E+02 -0.29127297179E+03  0.29325901657E+03  0.41800000000E+01 0.  1.
         -5    1    3    3    0  502  0.18820564524E+02  0.10685213300E+02  0.62023699054E+01  0.22898236280E+02  0.41800000000E+01 0.  1.
        -11    1    1    2    0    0 -0.56648130799E+02  0.21865132915E+02 -0.17893960360E+03  0.18896157413E+03  0.00000000000E+00 0.  1.
         11    1    1    2    0    0  0.55466600302E+01 -0.42618980482E+02 -0.62959033194E+02  0.76229802542E+02  0.00000000000E+00 0. -1.
</event>
<event>
 7    1  0.2480409E-009  0.1459245E+03  0.7561462E-02  0.1205572E+00
         -1   -1    0    0    0  501 -0.00000000000E+00  0.00000000000E+00  0.22522764125E+03  0.22522764125E+03  0.00000000000E+00 0.  1.
          1   -1    0    0  501    0  0.00000000000E+00 -0.00000000000E+00 -0.13348103958E+03  0.13348103958E+03  0.00000000000E+00 0. -1.
         25    2    1    2    0    0  0.10731759567E+03 -0.53184708623E+02 -0.14473007072E+02  0.17379009714E+03  0.12509136805E+03 0.  0.
          5    1    3    3  502    0 -0.25104761080E+02 -0.21773175984E+02 -0.17095360280E+02  0.37603775933E+02  0.41800000000E+01 0. -1.
         -5    1    3    3    0  502  0.13242235675E+03 -0.31411532639E+02  0.26223532080E+01  0.13618632121E+03  0.41800000000E+01 0. -1.
        -11    1    1    2    0    0 -0.40174020291E+02  0.72007154818E+01  0.94191509933E+02  0.10265399531E+03  0.00000000000E+00 0.  1.
         11    1    1    2    0    0 -0.67143575374E+02  0.45983993141E+02  0.12028098818E+02  0.82264588374E+02  0.00000000000E+00 0. -1.
</event>
<event>
 7    1  0.2480409E-009  0.6536223E+02  0.7561462E-02  0.1376614E+00
          2   -1    0    0  501    0  0.00000000000E+00  0.00000000000E+00  0.65751595602E+03  0.65751595602E+03  0.00000000000E+00 0. -1.
         -2   -1    0    0    0  501 -0.00000000000E+00 -0.00000000000E+00 -0.22149847363E+02  0.22149847363E+02  0.00000000000E+00 0.  1.
         25    2    1    2    0    0  0.25138629985E+01  0.37356670871E+02  0.46351738965E+03  0.48155458847E+03  0.12507841862E+03 0.  0.
          5    1    3    3  502    0 -0.43745174054E+01  0.10486083769E+02 -0.43370448107E+01  0.12859887753E+02  0.41800000000E+01 0.  1.
         -5    1    3    3    0  502  0.68883804039E+01  0.26870587102E+02  0.46785443446E+03  0.46869470072E+03  0.41800000000E+01 0.  1.
        -11    1    1    2    0    0 -0.21062177243E+02  0.20752154779E+02  0.97812771227E+02  0.10218417418E+03  0.00000000000E+00 0. -1.
         11    1    1    2    0    0  0.18548314245E+02 -0.58108825650E+02  0.74035947781E+02  0.95927040732E+02  0.00000000000E+00 0.  1.
</event>
<event>
 7    1  0.2480409E-009  0.1276500E+03  0.7561462E-02  0.1230985E+00
          3   -1    0    0  501    0  0.00000000000E+00  0.00000000000E+00  0.10790596723E+03  0.10790596723E+03  0.00000000000E+00 0. -1.
         -3   -1    0    0    0  501 -0.00000000000E+00 -0.00000000000E+00 -0.18832970486E+03  0.18832970486E+03  0.00000000000E+00 0.  1.
         25    2    1    2    0    0 -0.53469699579E+01  0.73344369907E+02 -0.97642752688E+02  0.17489794457E+03  0.12508875720E+03 0.  0.
          5    1    3    3  502    0  0.52462730891E+02  0.19387631855E+02 -0.10340494020E+02  0.57031715896E+02  0.41800000000E+01 0.  1.
         -5    1    3    3    0  502 -0.57809700849E+02  0.53956738052E+02 -0.87302258669E+02  0.11786622868E+03  0.41800000000E+01 0.  1.
        -11    1    1    2    0    0  0.41083805030E+02 -0.73597053103E+02  0.10007483872E+02  0.84879650062E+02  0.00000000000E+00 0. -1.
         11    1    1    2    0    0 -0.35736835072E+02  0.25268319670E+00  0.72115311900E+01  0.36458077457E+02  0.00000000000E+00 0.  1.
</event>
<event>
 7    1  0.2480409E-009  0.1133589E+03  0.7561462E-02  0.1254473E+00
         -1   -1    0    0    0  501 -0.00000000000E+00  0.00000000000E+00  0.55313441075E+02  0.55313441075E+02  0.00000000000E+00 0.  1.
          1   -1    0    0  501    0  0.00000000000E+00 -0.00000000000E+00 -0.50454667395E+03  0.50454667395E+03  0.00000000000E+00 0. -1.
         25    2    1    2    0    0  0.22107052447E+02 -0.70272698155E+02 -0.41375498184E+03  0.43848331606E+03  0.12508980609E+03 0.  0.
          5    1    3    3  502    0  0.94216894688E+01  0.26160219123E+02 -0.21852371256E+03  0.22032523834E+03  0.41800000000E+01 0. -1.
         -5    1    3    3    0  502  0.12685362978E+02 -0.96432917278E+02 -0.19523126928E+03  0.21815807771E+03  0.41800000000E+01 0. -1.
        -11    1    1    2    0    0 -0.26928928831E+02 -0.36427598259E+01  0.15662696358E+02  0.31364900197E+02  0.00000000000E+00 0.  1.
         11    1    1    2    0    0  0.48218763843E+01  0.73915457981E+02 -0.51140947390E+02  0.90011898771E+02  0.00000000000E+00 0. -1.
</event>
<event>
 7    1  0.2480409E-009  0.2815287E+03  0.7561462E-02  0.1094857E+00
         -1   -1    0    0    0  501 -0.00000000000E+00  0.00000000000E+00  0.22214665754E+03  0.22214665754E+03  0.00000000000E+00 0.  1.
          1   -1    0    0  501    0  0.00000000000E+00 -0.00000000000E+00 -0.40724270797E+03  0.40724270797E+03  0.00000000000E+00 0. -1.
         25    2    1    2    0    0 -0.26834258945E+03  0.61061215122E+02 -0.14853738373E+03  0.33681902753E+03  0.12508991021E+03 0.  0.
          5    1    3    3  502    0  0.35758690008E+01  0.70327507542E+01 -0.36829331593E+02  0.37896153999E+02  0.41800000000E+01 0. -1.
         -5    1    3    3    0  502 -0.27191845845E+03  0.54028464367E+02 -0.11170805214E+03  0.29892287353E+03  0.41800000000E+01 0. -1.
        -11    1    1    2    0    0  0.78171624706E+02 -0.32073600785E+02 -0.52607867687E+02  0.99534448906E+02  0.00000000000E+00 0.  1.
         11    1    1    2    0    0  0.19017096475E+03 -0.28987614337E+02  0.16049200986E+02  0.19303588907E+03  0.00000000000E+00 0. -1.
</event>
<event>
 7    1  0.2480409E-009  0.3258802E+03  0.7561462E-02  0.1072974E+00
         -1   -1    0    0    0  501 -0.00000000000E+00  0.00000000000E+00  0.11068493891E+03  0.11068493891E+03  0.00000000000E+00 0.  1.
          1   -1    0    0  501    0  0.00000000000E+00 -0.00000000000E+00 -0.10442384068E+04  0.10442384068E+04  0.00000000000E+00 0. -1.
         25    2    1    2    0    0 -0.88157355134E+01  0.31942312768E+03 -0.53880454075E+03  0.63879890639E+03  0.12507940672E+03 0.  0.
          5    1    3    3  502    0  0.26714640206E+02  0.24416250360E+03 -0.31155773718E+03  0.39675520936E+03  0.41800000000E+01 0. -1.
         -5    1    3    3    0  502 -0.35530375719E+02  0.75260624079E+02 -0.22724680357E+03  0.24204369702E+03  0.41800000000E+01 0. -1.
        -11    1    1    2    0    0 -0.18641081477E+02 -0.14733444846E+03 -0.12075318344E+03  0.19140601070E+03  0.00000000000E+00 0.  1.
         11    1    1    2    0    0  0.27456816991E+02 -0.17208867922E+03 -0.27399574368E+03  0.32471842859E+03  0.00000000000E+00 0. -1.
</event>
<event>
 7    1  0.2480409E-009  0.1095224E+03  0.7561462E-02  0.1261457E+00
         -2   -1    0    0    0  501 -0.00000000000E+00  0.00000000000E+00  0.50491494484E+02  0.50491494484E+02  0.00000000000E+00 0.  1.
          2   -1    0    0  501    0  0.00000000000E+00 -0.00000000000E+00 -0.26135143875E+03  0.26135143875E+03  0.00000000000E+00 0. -1.
         25    2    1    2    0    0 -0.22893491092E+02  0.12528768373E+02 -0.95976827336E+02  0.15981667709E+03  0.12509491164E+03 0.  0.
          5    1    3    3  502    0 -0.38537676633E+02  0.62630479296E+02 -0.67740393620E+02  0.10006978957E+03  0.41800000000E+01 0.  1.
         -5    1    3    3    0  502  0.15644185541E+02 -0.50101710923E+02 -0.28236433716E+02  0.59746887514E+02  0.41800000000E+01 0.  1.
        -11    1    1    2    0    0 -0.10868653264E+02  0.33746058440E+02 -0.72713089758E+02  0.80895719949E+02  0.00000000000E+00 0. -1.
         11    1    1    2    0    0  0.33762144355E+02 -0.46274826814E+02 -0.42170027170E+02  0.71130536197E+02  0.00000000000E+00 0.  1.
</event>
<event>
 7    1  0.2480409E-009  0.1141618E+03  0.7561462E-02  0.1253051E+00
         -1   -1    0    0    0  501 -0.00000000000E+00  0.00000000000E+00  0.98447753252E+02  0.98447753252E+02  0.00000000000E+00 0.  1.
          1   -1    0    0  501    0  0.00000000000E+00 -0.00000000000E+00 -0.16617426334E+03  0.16617426334E+03  0.00000000000E+00 0. -1.
         25    2    1    2    0    0 -0.40890550050E+02 -0.45786727673E+02 -0.70119386070E+02  0.15598783522E+03  0.12508802868E+03 0.  0.
          5    1    3    3  502    0 -0.82128450140E+02 -0.42844163662E+02 -0.66839090051E+02  0.11430503506E+03  0.41800000000E+01 0. -1.
         -5    1    3    3    0  502  0.41237900090E+02 -0.29425640107E+01 -0.32802960194E+01  0.41682800155E+02  0.41800000000E+01 0. -1.
        -11    1    1    2    0    0 -0.41809519383E+01  0.48699078362E+02 -0.25922430380E+02  0.55326783651E+02  0.00000000000E+00 0. -1.
         11    1    1    2    0    0  0.45071501988E+02 -0.29123506890E+01  0.28315306358E+02  0.53307397725E+02  0.00000000000E+00 0.  1.
</event>
<event>
 7    1  0.2480409E-009  0.1897372E+03  0.7561462E-02  0.1158699E+00
         -2   -1    0    0    0  501 -0.00000000000E+00  0.00000000000E+00  0.38144916854E+03  0.38144916854E+03  0.00000000000E+00 0.  1.
          2   -1    0    0  501    0  0.00000000000E+00 -0.00000000000E+00 -0.13708092251E+03  0.13708092251E+03  0.00000000000E+00 0. -1.
         25    2    1    2    0    0  0.11788090052E+03 -0.13439069277E+03  0.23114366322E+03  0.31785610955E+03  0.12509335842E+03 0.  0.
          5    1    3    3  502    0  0.75197414675E+02 -0.10125732736E+03  0.62708688510E+02  0.14091681778E+03  0.41800000000E+01 0.  1.
         -5    1    3    3    0  502  0.42683485850E+02 -0.33133365414E+02  0.16843497471E+03  0.17693929178E+03  0.41800000000E+01 0.  1.
        -11    1    1    2    0    0 -0.90643190623E+02  0.14404002212E+03  0.36288353113E+01  0.17022598046E+03  0.00000000000E+00 0. -1.
         11    1    1    2    0    0 -0.27237709901E+02 -0.96493293485E+01  0.95957474990E+01  0.30448001044E+02  0.00000000000E+00 0.  1.
</event>
<event>
 7    1  0.2480409E-009  0.1424515E+03  0.7561462E-02  0.1210068E+00
         -2   -1    0    0    0  501 -0.00000000000E+00  0.00000000000E+00  0.15376688860E+03  0.15376688860E+03  0.00000000000E+00 0.  1.
          2   -1    0    0  501    0  0.00000000000E+00 -0.00000000000E+00 -0.16514150948E+03  0.16514150948E+03  0.00000000000E+00 0. -1.
         25    2    1    2    0    0 -0.27263237463E+02 -0.89718889643E+02 -0.76214813051E+02  0.17392540904E+03  0.12509431204E+03 0.  0.
          5    1    3    3  502    0  0.36641563864E+02 -0.83073515223E+02 -0.54489888501E+02  0.10597373959E+03  0.41800000000E+01 0. -1.
         -5    1    3    3    0  502 -0.63904801327E+02 -0.66453744205E+01 -0.21724924550E+02  0.67951669447E+02  0.41800000000E+01 0. -1.
        -11    1    1    2    0    0 -0.22962383186E+02  0.73257101570E+02  0.40369537581E+02  0.86738535476E+02  0.00000000000E+00 0.  1.
         11    1    1    2    0    0  0.50225620648E+02  0.16461788073E+02  0.24470654590E+02  0.58244453574E+02  0.00000000000E+00 0. -1.
</event>
<event>
 7    1  0.2481283E-009  0.9122613E+02  0.7561462E-02  0.1299909E+00
         -2   -1    0    0    0  501 -0.00000000000E+00  0.00000000000E+00  0.68052823918E+02  0.68052823918E+02  0.00000000000E+00 0.  1.
          2   -1    0    0  501    0  0.00000000000E+00 -0.00000000000E+00 -0.30714308364E+03  0.30714308364E+03  0.00000000000E+00 0. -1.
         25    2    1    2    0    0  0.64099055842E+02  0.12068020866E+02 -0.39850798429E+02  0.14659453383E+03  0.12509014800E+03 0.  0.
          5    1    3    3  502    0 -0.17968342359E+02 -0.65643830503E+00  0.31839704301E+02  0.36803959140E+02  0.41800000000E+01 0. -1.
         -5    1    3    3    0  502  0.82067398201E+02  0.12724459171E+02 -0.71690502730E+02  0.10979057469E+03  0.41800000000E+01 0. -1.
        -11    1    1    2    0    0  0.12042160753E+01  0.11387837708E+02  0.52958960323E+01  0.12616635795E+02  0.00000000000E+00 0.  1.
         11    1    1    2    0    0 -0.65303271917E+02 -0.23455858574E+02 -0.20453535733E+03  0.21598473794E+03  0.00000000000E+00 0. -1.
</event>
<event>
 7    1  0.2480409E-009  0.1309279E+03  0.7561462E-02  0.1226085E+00
          1   -1    0    0  501    0  0.00000000000E+00  0.00000000000E+00  0.68951424986E+02  0.68951424986E+02  0.00000000000E+00 0. -1.
         -1   -1    0    0    0  501 -0.00000000000E+00 -0.00000000000E+00 -0.44902042458E+03  0.44902042458E+03  0.00000000000E+00 0.  1.
         25    2    1    2    0    0  0.63034484897E+02  0.10168398867E+03 -0.30398230044E+03  0.34980805472E+03  0.12508979307E+03 0.  0.
          5    1    3    3  502    0  0.27865196055E+02 -0.50705906888E+01 -0.18059015752E+03  0.18284544686E+03  0.41800000000E+01 0. -1.
         -5    1    3    3    0  502  0.35169288842E+02  0.10675457936E+03 -0.12339214291E+03  0.16696260786E+03  0.41800000000E+01 0.  1.
        -11    1    1    2    0    0 -0.52840288102E+02 -0.71607168206E+02 -0.95822677731E+02  0.13077334649E+03  0.00000000000E+00 0.  1.
         11    1    1    2    0    0 -0.10194196795E+02 -0.30076820465E+02  0.19735978576E+02  0.37390448352E+02  0.00000000000E+00 0. -1.
</event>
<event>
 7    1  0.2480409E-009  0.1826802E+03  0.7561462E-02  0.1165234E+00
          2   -1    0    0  501    0  0.00000000000E+00  0.00000000000E+00  0.43859168649E+03  0.43859168649E+03  0.00000000000E+00 0. -1.
         -2   -1    0    0    0  501 -0.00000000000E+00 -0.00000000000E+00 -0.10062398211E+03  0.10062398211E+03  0.00000000000E+00 0.  1.
         25    2    1    2    0    0  0.10952450438E+03  0.10206700424E+03  0.30410454603E+03  0.36130211202E+03  0.12508537412E+03 0.  0.
          5    1    3    3  502    0 -0.50370854350E+01  0.75756150740E+02  0.14122859983E+03  0.16039749504E+03  0.41800000000E+01 0. -1.
         -5    1    3    3    0  502  0.11456158982E+03  0.26310853497E+02  0.16287594621E+03  0.20090461698E+03  0.41800000000E+01 0. -1.
        -11    1    1    2    0    0 -0.11291191058E+03 -0.56952661302E+02  0.10240444722E+02  0.12687620695E+03  0.00000000000E+00 0.  1.
         11    1    1    2    0    0  0.33874062017E+01 -0.45114342934E+02  0.23622713623E+02  0.51037349638E+02  0.00000000000E+00 0. -1.
</event>
<event>
 7    1  0.2480409E-009  0.2310926E+03  0.7561462E-02  0.1125873E+00
         -1   -1    0    0    0  501 -0.00000000000E+00  0.00000000000E+00  0.95190850426E+02  0.95190850426E+02  0.00000000000E+00 0.  1.
          1   -1    0    0  501    0  0.00000000000E+00 -0.00000000000E+00 -0.58957449841E+03  0.58957449841E+03  0.00000000000E+00 0. -1.
         25    2    1    2    0    0 -0.19946800163E+03  0.66536271600E+02 -0.23141368996E+03  0.33677084893E+03  0.12509096559E+03 0.  0.
          5    1    3    3  502    0 -0.51378046733E+02 -0.34613539454E+02 -0.84747220365E+02  0.10505886235E+03  0.41800000000E+01 0. -1.
         -5    1    3    3    0  502 -0.14808995490E+03  0.10114981105E+03 -0.14666646960E+03  0.23171198657E+03  0.41800000000E+01 0. -1.
        -11    1    1    2    0    0  0.65353376849E+02 -0.56202147583E+02 -0.62060132089E+02  0.10621301829E+03  0.00000000000E+00 0.  1.
         11    1    1    2    0    0  0.13411462478E+03 -0.10334124017E+02 -0.20090982593E+03  0.24178148162E+03  0.00000000000E+00 0. -1.
</event>
<event>
 7    1  0.2480409E-009  0.1174463E+03  0.7561462E-02  0.1247370E+00
         -2   -1    0    0    0  501 -0.00000000000E+00  0.00000000000E+00  0.20374245481E+02  0.20374245481E+02  0.00000000000E+00 0. -1.
          2   -1    0    0  501    0  0.00000000000E+00 -0.00000000000E+00 -0.12669860427E+04  0.12669860427E+04  0.00000000000E+00 0.  1.
         25    2    1    2    0    0 -0.66449342300E+02  0.54481215420E+01 -0.10613481688E+04  0.10707716946E+04  0.12508752737E+03 0.  0.
          5    1    3    3  502    0 -0.50755990681E+02 -0.55592854266E+02 -0.68792266024E+03  0.69204175807E+03  0.41800000000E+01 0.  1.
         -5    1    3    3    0  502 -0.15693351620E+02  0.61040975808E+02 -0.37342550854E+03  0.37872993655E+03  0.41800000000E+01 0.  1.
        -11    1    1    2    0    0  0.25643564871E+02  0.31960506137E+02 -0.13749089340E+03  0.14346711170E+03  0.00000000000E+00 0.  1.
         11    1    1    2    0    0  0.40805777429E+02 -0.37408627679E+02 -0.47772735034E+02  0.73121481858E+02  0.00000000000E+00 0. -1.
</event>
<event>
 7    1  0.2480409E-009  0.7457746E+02  0.7561462E-02  0.1345185E+00
         -2   -1    0    0    0  501 -0.00000000000E+00  0.00000000000E+00  0.22430479388E+02  0.22430479388E+02  0.00000000000E+00 0.  1.
          2   -1    0    0  501    0  0.00000000000E+00 -0.00000000000E+00 -0.60494718161E+03  0.60494718161E+03  0.00000000000E+00 0. -1.
         25    2    1    2    0    0 -0.28508523173E+02  0.25526825326E+02 -0.27692478462E+03  0.30626768935E+03  0.12509279155E+03 0.  0.
          5    1    3    3  502    0 -0.12391082782E+02  0.35038125695E+02 -0.10078309309E+02  0.38733111200E+02  0.41800000000E+01 0.  1.
         -5    1    3    3    0  502 -0.16117440391E+02 -0.95113003692E+01 -0.26684647531E+03  0.26753457815E+03  0.41800000000E+01 0.  1.
        -11    1    1    2    0    0 -0.20605210473E+02  0.17691903059E+02 -0.14811538300E+03  0.15058467656E+03  0.00000000000E+00 0. -1.
         11    1    1    2    0    0  0.49113733646E+02 -0.43218728385E+02 -0.15747653460E+03  0.17052529509E+03  0.00000000000E+00 0.  1.
</event>
<event>
 7    1  0.2480409E-009  0.6854367E+02  0.7561462E-02  0.1365117E+00
          1   -1    0    0  501    0  0.00000000000E+00  0.00000000000E+00  0.42115309016E+02  0.42115309016E+02  0.00000000000E+00 0. -1.
         -1   -1    0    0    0  501 -0.00000000000E+00 -0.00000000000E+00 -0.29842538711E+03  0.29842538711E+03  0.00000000000E+00 0.  1.
         25    2    1    2    0    0  0.72404453903E+01  0.25900426567E+01 -0.18595822190E+03  0.22424907225E+03  0.12509218099E+03 0.  0.
          5    1    3    3  502    0  0.16745631027E+02  0.21348438251E+02 -0.19784048812E+03  0.19973608366E+03  0.41800000000E+01 0. -1.
         -5    1    3    3    0  502 -0.95051856370E+01 -0.18758395594E+02  0.11882266223E+02  0.24512988595E+02  0.41800000000E+01 0. -1.
        -11    1    1    2    0    0 -0.43672647946E+02  0.16957310491E+02 -0.19480815965E+02  0.50738079865E+02  0.00000000000E+00 0. -1.
         11    1    1    2    0    0  0.36432202555E+02 -0.19547353147E+02 -0.50871040231E+02  0.65553544010E+02  0.00000000000E+00 0.  1.
</event>
<event>
 7    1  0.2480409E-009  0.1223844E+03  0.7561462E-02  0.1239215E+00
          3   -1    0    0  501    0  0.00000000000E+00  0.00000000000E+00  0.21889663909E+02  0.21889663909E+02  0.00000000000E+00 0. -1.
         -3   -1    0    0    0  501 -0.00000000000E+00 -0.00000000000E+00 -0.95069234707E+03  0.95069234707E+03  0.00000000000E+00 0.  1.
         25    2    1    2    0    0  0.13172517794E+02 -0.74205140145E+02 -0.69998145419E+03  0.71505400971E+03  0.12509309549E+03 0.  0.
          5    1    3    3  502    0  0.66987646682E+02 -0.30938846487E+02 -0.28952618919E+03  0.29881004611E+03  0.41800000000E+01 0.  1.
         -5    1    3    3    0  502 -0.53815128887E+02 -0.43266293658E+02 -0.41045526501E+03  0.41624396360E+03  0.41800000000E+01 0.  1.
        -11    1    1    2    0    0  0.10735612450E+02  0.76882377240E+02 -0.10059761238E+03  0.12706704105E+03  0.00000000000E+00 0. -1.
         11    1    1    2    0    0 -0.23908130244E+02 -0.26772370944E+01 -0.12822361658E+03  0.13046096021E+03  0.00000000000E+00 0.  1.
</event>
<event>
 7    1  0.2480409E-009  0.1077562E+03  0.7561462E-02  0.1264782E+00
         -4   -1    0    0    0  501 -0.00000000000E+00  0.00000000000E+00  0.56690522036E+02  0.56690522036E+02  0.00000000000E+00 0.  1.
          4   -1    0    0  501    0  0.00000000000E+00 -0.00000000000E+00 -0.21511628400E+03  0.21511628400E+03  0.00000000000E+00 0. -1.
         25    2    1    2    0    0  0.83644579987E+01  0.57347126867E+01 -0.91030311257E+02  0.15503685616E+03  0.12508820133E+03 0.  0.
          5    1    3    3  502    0 -0.39040348789E+02  0.47265272018E+02 -0.54113021488E+02  0.81877019164E+02  0.41800000000E+01 0.  1.
         -5    1    3    3    0  502  0.47404806788E+02 -0.41530559331E+02 -0.36917289769E+02  0.73159836993E+02  0.41800000000E+01 0.  1.
        -11    1    1    2    0    0  0.50962800432E+01  0.41488159619E+02 -0.13654251137E+02  0.43973606094E+02  0.00000000000E+00 0.  1.
         11    1    1    2    0    0 -0.13460738042E+02 -0.47222872305E+02 -0.53741199574E+02  0.72796343789E+02  0.00000000000E+00 0. -1.
</event>
<event>
 7    1  0.2480409E-009  0.1308711E+03  0.7561462E-02  0.1226169E+00
         -2   -1    0    0    0  501 -0.00000000000E+00  0.00000000000E+00  0.52818346107E+02  0.52818346107E+02  0.00000000000E+00 0.  1.
          2   -1    0    0  501    0  0.00000000000E+00 -0.00000000000E+00 -0.43807862055E+03  0.43807862055E+03  0.00000000000E+00 0. -1.
         25    2    1    2    0    0  0.28563159198E+02  0.68217489778E+02 -0.86345892739E+02  0.16903589784E+03  0.12509213241E+03 0.  0.
          5    1    3    3  502    0 -0.84005100493E+00 -0.36262988369E+02 -0.18062301375E+02  0.40736091394E+02  0.41800000000E+01 0. -1.
         -5    1    3    3    0  502  0.29403210203E+02  0.10448047815E+03 -0.68283591363E+02  0.12829980644E+03  0.41800000000E+01 0. -1.
        -11    1    1    2    0    0 -0.51961512285E+02 -0.87346469339E+01 -0.16986057062E+03  0.17784517499E+03  0.00000000000E+00 0. -1.
         11    1    1    2    0    0  0.23398353087E+02 -0.59482842844E+02 -0.12905381108E+03  0.14401589383E+03  0.00000000000E+00 0.  1.
</event>
<event>
 7    1  0.2480409E-009  0.1339113E+03  0.7561462E-02  0.1221765E+00
          1   -1    0    0  501    0  0.00000000000E+00  0.00000000000E+00  0.64640494922E+03  0.64640494922E+03  0.00000000000E+00 0. -1.
         -1   -1    0    0    0  501 -0.00000000000E+00 -0.00000000000E+00 -0.38326464392E+02  0.38326464392E+02  0.00000000000E+00 0.  1.
         25    2    1    2    0    0  0.77326723029E+02  0.79733340177E+02  0.37635157688E+03  0.41185421445E+03  0.12508619793E+03 0.  0.
          5    1    3    3  502    0  0.10219284492E+03  0.59131339375E+02  0.35170386555E+03  0.37101613751E+03  0.41800000000E+01 0. -1.
         -5    1    3    3    0  502 -0.24866121889E+02  0.20602000802E+02  0.24647711332E+02  0.40838076947E+02  0.41800000000E+01 0. -1.
        -11    1    1    2    0    0 -0.44246647863E+01 -0.26459759984E+02  0.30258907605E+01  0.26997269710E+02  0.00000000000E+00 0.  1.
         11    1    1    2    0    0 -0.72902058242E+02 -0.53273580193E+02  0.22870101719E+03  0.24587992945E+03  0.00000000000E+00 0. -1.
</event>
<event>
 7    1  0.2480409E-009  0.9706185E+02  0.7561462E-02  0.1286599E+00
          1   -1    0    0  501    0  0.00000000000E+00  0.00000000000E+00  0.31955278382E+03  0.31955278382E+03  0.00000000000E+00 0. -1.
         -1   -1    0    0    0  501 -0.00000000000E+00 -0.00000000000E+00 -0.55835056196E+02  0.55835056196E+02  0.00000000000E+00 0.  1.
         25    2    1    2    0    0  0.71712234726E+02  0.82282373406E+01  0.17314385622E+03  0.22546901008E+03  0.12508849293E+03 0.  0.
          5    1    3    3  502    0  0.77782180984E+01  0.45191470771E+02  0.11135424399E+02  0.47373407981E+02  0.41800000000E+01 0.  1.
         -5    1    3    3    0  502  0.63934016627E+02 -0.36963233430E+02  0.16200843182E+03  0.17809560210E+03  0.41800000000E+01 0.  1.
        -11    1    1    2    0    0 -0.21308495596E+02  0.52276010991E+01 -0.18701452187E+02  0.28829223224E+02  0.00000000000E+00 0.  1.
         11    1    1    2    0    0 -0.50403739130E+02 -0.13455838440E+02  0.10927532359E+03  0.12108960671E+03  0.00000000000E+00 0. -1.
</event>
<event>
 7    1  0.2480409E-009  0.1008587E+03  0.7561462E-02  0.1278500E+00
         -1   -1    0    0    0  501 -0.00000000000E+00  0.00000000000E+00  0.22028504620E+03  0.22028504620E+03  0.00000000000E+00 0.  1.
          1   -1    0    0  501    0  0.00000000000E+00 -0.00000000000E+00 -0.72020817153E+02  0.72020817153E+02  0.00000000000E+00 0. -1.
         25    2    1    2    0    0 -0.56658605047E+02  0.35797415247E+02  0.71137125709E+02  0.15874377178E+03  0.12508973563E+03 0.  0.
          5    1    3    3  502    0  0.14435804883E+01 -0.39233762245E+02  0.45728371113E+02  0.60414636878E+02  0.41800000000E+01 0.  1.
         -5    1    3    3    0  502 -0.58102185535E+02  0.75031177492E+02  0.25408754596E+02  0.98329134898E+02  0.41800000000E+01 0.  1.
        -11    1    1    2    0    0  0.29034861512E+02 -0.21592408098E+02 -0.12831701935E+02  0.38391507459E+02  0.00000000000E+00 0. -1.
         11    1    1    2    0    0  0.27623743535E+02 -0.14205007149E+02  0.89958805275E+02  0.95170584119E+02  0.00000000000E+00 0.  1.
</event>
<event>
 7    1  0.2480409E-009  0.7136864E+02  0.7561462E-02  0.1355500E+00
         -2   -1    0    0    0  501 -0.00000000000E+00  0.00000000000E+00  0.15352640356E+03  0.15352640356E+03  0.00000000000E+00 0.  1.
          2   -1    0    0  501    0  0.00000000000E+00 -0.00000000000E+00 -0.82718262649E+02  0.82718262649E+02  0.00000000000E+00 0. -1.
         25    2    1    2    0    0  0.13967927795E+02  0.22748395645E+02  0.32004502538E+02  0.13184934367E+03  0.12508944293E+03 0.  0.
          5    1    3    3  502    0 -0.16036359141E+02 -0.47291023770E+00 -0.43879025762E+02  0.46906606789E+02  0.41800000000E+01 0. -1.
         -5    1    3    3    0  502  0.30004286937E+02  0.23221305883E+02  0.75883528301E+02  0.84942736881E+02  0.41800000000E+01 0. -1.
        -11    1    1    2    0    0  0.14419594023E+02 -0.47923392011E+02 -0.10949763897E+00  0.50045860802E+02  0.00000000000E+00 0.  1.
         11    1    1    2    0    0 -0.28387521819E+02  0.25174996366E+02  0.38913136016E+02  0.54349461742E+02  0.00000000000E+00 0. -1.
</event>
<event>
 7    1  0.2480409E-009  0.1045961E+03  0.7561462E-02  0.1270917E+00
          1   -1    0    0  501    0  0.00000000000E+00  0.00000000000E+00  0.35456065666E+02  0.35456065666E+02  0.00000000000E+00 0. -1.
         -1   -1    0    0    0  501 -0.00000000000E+00 -0.00000000000E+00 -0.64615289903E+03  0.64615289903E+03  0.00000000000E+00 0.  1.
         25    2    1    2    0    0  0.81623302542E+02 -0.58778635989E+00 -0.18244831504E+03  0.23579249209E+03  0.12509197677E+03 0.  0.
          5    1    3    3  502    0  0.23096488702E+02  0.35436157749E+02 -0.15657172340E+03  0.16223854670E+03  0.41800000000E+01 0.  1.
         -5    1    3    3    0  502  0.58526813840E+02 -0.36023944109E+02 -0.25876591644E+02  0.73553945391E+02  0.41800000000E+01 0.  1.
        -11    1    1    2    0    0  0.57523395162E+01  0.83241173774E+01 -0.15999541606E+01  0.10244032084E+02  0.00000000000E+00 0. -1.
         11    1    1    2    0    0 -0.87375642059E+02 -0.77363310175E+01 -0.42664856416E+03  0.43557244052E+03  0.00000000000E+00 0.  1.
</event>
<event>
 7    1  0.2480409E-009  0.7050474E+02  0.7561462E-02  0.1358385E+00
          1   -1    0    0  501    0  0.00000000000E+00  0.00000000000E+00  0.94134151706E+02  0.94134151706E+02  0.00000000000E+00 0. -1.
         -1   -1    0    0    0  501 -0.00000000000E+00 -0.00000000000E+00 -0.22829871324E+03  0.22829871324E+03  0.00000000000E+00 0.  1.
         25    2    1    2    0    0  0.43573078510E+02 -0.47524717701E+01 -0.16915283563E+03  0.21489210179E+03  0.12507891289E+03 0.  0.
          5    1    3    3  502    0  0.72173914306E+01  0.16430404851E+02  0.16348146523E+02  0.24632970535E+02  0.41800000000E+01 0.  1.
         -5    1    3    3    0  502  0.36355687079E+02 -0.21182876621E+02 -0.18550098215E+03  0.19025913125E+03  0.41800000000E+01 0.  1.
        -11    1    1    2    0    0  0.18103628935E+02  0.43615054091E+01  0.41533026768E+02  0.45516551084E+02  0.00000000000E+00 0. -1.
         11    1    1    2    0    0 -0.61676707445E+02  0.39096636100E+00 -0.65447526694E+01  0.62024212074E+02  0.00000000000E+00 0.  1.
</event>
<event>
 7    1  0.2480409E-009  0.7158651E+02  0.7561462E-02  0.1354780E+00
          1   -1    0    0  501    0  0.00000000000E+00  0.00000000000E+00  0.13202108203E+03  0.13202108203E+03  0.00000000000E+00 0. -1.
         -1   -1    0    0    0  501 -0.00000000000E+00 -0.00000000000E+00 -0.11839684349E+03  0.11839684349E+03  0.00000000000E+00 0.  1.
         25    2    1    2    0    0 -0.37649836138E+02  0.34365490136E+01 -0.43948323434E+02  0.13787000054E+03  0.12508941556E+03 0.  0.
          5    1    3    3  502    0 -0.48207319364E+01  0.32210022134E+02 -0.76504067352E+02  0.83253046213E+02  0.41800000000E+01 0.  1.
         -5    1    3    3    0  502 -0.32829104202E+02 -0.28773473120E+02  0.32555743918E+02  0.54616954329E+02  0.41800000000E+01 0.  1.
        -11    1    1    2    0    0 -0.13905013235E+02 -0.53360179477E+01  0.59087693739E+02  0.60935851778E+02  0.00000000000E+00 0. -1.
         11    1    1    2    0    0  0.51554849374E+02  0.18994689341E+01 -0.15151317672E+01  0.51612073204E+02  0.00000000000E+00 0.  1.
</event>
<event>
 7    1  0.2480409E-009  0.1839917E+03  0.7561462E-02  0.1163995E+00
          3   -1    0    0  501    0  0.00000000000E+00  0.00000000000E+00  0.23939484989E+03  0.23939484989E+03  0.00000000000E+00 0. -1.
         -3   -1    0    0    0  501 -0.00000000000E+00 -0.00000000000E+00 -0.27623895158E+03  0.27623895158E+03  0.00000000000E+00 0.  1.
         25    2    1    2    0    0  0.17482349653E+03 -0.36752441139E+02  0.13097626048E+03  0.25439125252E+03  0.12508449816E+03 0.  0.
          5    1    3    3  502    0  0.32013245981E+02 -0.27354037763E+02 -0.19577555939E+02  0.46624504252E+02  0.41800000000E+01 0. -1.
         -5    1    3    3    0  502  0.14281025055E+03 -0.93984033754E+01  0.15055381642E+03  0.20776674827E+03  0.41800000000E+01 0. -1.
        -11    1    1    2    0    0 -0.43510991185E+02  0.26113012029E+02 -0.10210380524E+03  0.11401878264E+03  0.00000000000E+00 0.  1.
         11    1    1    2    0    0 -0.13131250535E+03  0.10639429110E+02 -0.65716556936E+02  0.14722376631E+03  0.00000000000E+00 0. -1.
</event>
<event>
 7    1  0.2480409E-009  0.1019633E+03  0.7561462E-02  0.1276221E+00
          2   -1    0    0  501    0  0.00000000000E+00  0.00000000000E+00  0.14010964171E+04  0.14010964171E+04  0.00000000000E+00 0. -1.
         -2   -1    0    0    0  501 -0.00000000000E+00 -0.00000000000E+00 -0.10766500156E+02  0.10766500156E+02  0.00000000000E+00 0.  1.
         25    2    1    2    0    0 -0.54460706389E+02  0.20667113718E+02  0.82502885553E+03  0.83648916745E+03  0.12509363161E+03 0.  0.
          5    1    3    3  502    0  0.72360832410E+01 -0.21287301394E+02  0.57687397249E+03  0.57732708462E+03  0.41800000000E+01 0. -1.
         -5    1    3    3    0  502 -0.61696789630E+02  0.41954415112E+02  0.24815488304E+03  0.25916208282E+03  0.41800000000E+01 0. -1.
        -11    1    1    2    0    0  0.43991681666E+02  0.30869277205E+02  0.32201373232E+03  0.32646749322E+03  0.00000000000E+00 0. -1.
         11    1    1    2    0    0  0.10469024723E+02 -0.51536390923E+02  0.24328732907E+03  0.24890625656E+03  0.00000000000E+00 0.  1.
</event>
<event>
 7    1  0.2480409E-009  0.1155612E+03  0.7561462E-02  0.1250605E+00
         -2   -1    0    0    0  501 -0.00000000000E+00  0.00000000000E+00  0.36735468442E+02  0.36735468442E+02  0.00000000000E+00 0. -1.
          2   -1    0    0  501    0  0.00000000000E+00 -0.00000000000E+00 -0.43144259600E+03  0.43144259600E+03  0.00000000000E+00 0.  1.
         25    2    1    2    0    0  0.50095998788E+02  0.27735189454E+02 -0.28047730665E+03  0.31239494726E+03  0.12507691114E+03 0.  0.
          5    1    3    3  502    0 -0.20217142968E+02  0.55801340072E+02 -0.15174400091E+03  0.16299152320E+03  0.41800000000E+01 0.  1.
         -5    1    3    3    0  502  0.70313141756E+02 -0.28066150618E+02 -0.12873330574E+03  0.14940342406E+03  0.41800000000E+01 0.  1.
        -11    1    1    2    0    0 -0.45181854285E+02  0.18851143010E+02 -0.91367612057E+02  0.10365715645E+03  0.00000000000E+00 0.  1.
         11    1    1    2    0    0 -0.49141445033E+01 -0.46586332465E+02 -0.22862208849E+02  0.52125960731E+02  0.00000000000E+00 0. -1.
</event>
<event>
 7    1  0.3783923E-009  0.1190300E+03  0.7561462E-02  0.1244706E+00
          1   -1    0    0  501    0  0.00000000000E+00  0.00000000000E+00  0.12858104265E+04  0.12858104265E+04  0.00000000000E+00 0. -1.
         -1   -1    0    0    0  501 -0.00000000000E+00 -0.00000000000E+00 -0.12934799912E+02  0.12934799912E+02  0.00000000000E+00 0.  1.
         25    2    1    2    0    0 -0.62662469917E+02  0.10463545648E+02  0.84818683359E+03  0.85971225442E+03  0.12509270482E+03 0.  0.
          5    1    3    3  502    0  0.15674589343E+01 -0.44596189003E+02  0.47121131782E+03  0.47333799282E+03  0.41800000000E+01 0. -1.
         -5    1    3    3    0  502 -0.64229928852E+02  0.55059734650E+02  0.37697551577E+03  0.38637426161E+03  0.41800000000E+01 0. -1.
        -11    1    1    2    0    0  0.79830774130E+02  0.11506647223E+02  0.35336025068E+03  0.36244837175E+03  0.00000000000E+00 0.  1.
         11    1    1    2    0    0 -0.17168304212E+02 -0.21970192871E+02  0.71328542348E+02  0.76584600266E+02  0.00000000000E+00 0. -1.
</event>
<event>
 7    1  0.2480409E-009  0.1142879E+03  0.7561462E-02  0.1252829E+00
         -2   -1    0    0    0  501 -0.00000000000E+00  0.00000000000E+00  0.14299157855E+02  0.14299157855E+02  0.00000000000E+00 0.  1.
          2   -1    0    0  501    0  0.00000000000E+00 -0.00000000000E+00 -0.25232859574E+04  0.25232859574E+04  0.00000000000E+00 0. -1.
         25    2    1    2    0    0 -0.56342489205E+02  0.46826007036E+02 -0.22367263600E+04  0.22414191362E+04  0.12509110033E+03 0.  0.
          5    1    3    3  502    0  0.27730936974E+02  0.53468941822E+02 -0.88281095207E+03  0.88487320114E+03  0.41800000000E+01 0.  1.
         -5    1    3    3    0  502 -0.84073426179E+02 -0.66429347856E+01 -0.13539154080E+04  0.13565459350E+04  0.41800000000E+01 0.  1.
        -11    1    1    2    0    0  0.30822264784E+02 -0.45007258470E+00 -0.16457826507E+02  0.34943878220E+02  0.00000000000E+00 0.  1.
         11    1    1    2    0    0  0.25520224421E+02 -0.46375934452E+02 -0.25580261302E+03  0.26122210087E+03  0.00000000000E+00 0. -1.
</event>
<event>
 7    1  0.2480409E-009  0.1259176E+03  0.7561462E-02  0.1233642E+00
          1   -1    0    0  501    0  0.00000000000E+00  0.00000000000E+00  0.52743674430E+03  0.52743674430E+03  0.00000000000E+00 0. -1.
         -1   -1    0    0    0  501 -0.00000000000E+00 -0.00000000000E+00 -0.45372510420E+02  0.45372510420E+02  0.00000000000E+00 0.  1.
         25    2    1    2    0    0  0.80023612357E+02 -0.73099199020E+02  0.28402822650E+03  0.32873562968E+03  0.12509120409E+03 0.  0.
          5    1    3    3  502    0  0.50706393691E+02 -0.64051266368E+02  0.57227106518E+02  0.99830442276E+02  0.41800000000E+01 0. -1.
         -5    1    3    3    0  502  0.29317218665E+02 -0.90479326516E+01  0.22680111998E+03  0.22890518741E+03  0.41800000000E+01 0. -1.
        -11    1    1    2    0    0 -0.55464286987E+02  0.92444866546E+02  0.12782854354E+03  0.16721984639E+03  0.00000000000E+00 0.  1.
         11    1    1    2    0    0 -0.24559325370E+02 -0.19345667526E+02  0.70207463829E+02  0.76853778645E+02  0.00000000000E+00 0. -1.
</event>
<event>
 7    1  0.2480409E-009  0.9606858E+02  0.7561462E-02  0.1288787E+00
         -1   -1    0    0    0  501 -0.00000000000E+00  0.00000000000E+00  0.21866012198E+03  0.21866012198E+03  0.00000000000E+00 0.  1.
          1   -1    0    0  501    0  0.00000000000E+00 -0.00000000000E+00 -0.13644378743E+03  0.13644378743E+03  0.00000000000E+00 0. -1.
         25    2    1    2    0    0 -0.21163023819E+01 -0.68704335552E+02  0.16245206169E+03  0.21624951546E+03  0.12509362946E+03 0.  0.
          5    1    3    3  502    0 -0.24888963230E+02 -0.71601918094E+02  0.17427349445E+03  0.19009213144E+03  0.41800000000E+01 0.  1.
         -5    1    3    3    0  502  0.22772660848E+02  0.28975825424E+01 -0.11821432761E+02  0.26157384028E+02  0.41800000000E+01 0.  1.
        -11    1    1    2    0    0  0.17877654931E+02 -0.41426883000E+01 -0.58360712286E+02  0.61177979295E+02  0.00000000000E+00 0.  1.
         11    1    1    2    0    0 -0.15761352549E+02  0.72847023852E+02 -0.21875014862E+02  0.77676414654E+02  0.00000000000E+00 0. -1.
</event>
<event>
 7    1  0.2480409E-009  0.1223450E+03  0.7561462E-02  0.1239278E+00
         -1   -1    0    0    0  501 -0.00000000000E+00  0.00000000000E+00  0.44121450338E+02  0.44121450338E+02  0.00000000000E+00 0.  1.
          1   -1    0    0  501    0  0.00000000000E+00 -0.00000000000E+00 -0.49656171666E+03  0.49656171666E+03  0.00000000000E+00 0. -1.
         25    2    1    2    0    0 -0.56440113075E+02  0.63635532977E+02 -0.35083107484E+03  0.38205368907E+03  0.12509041066E+03 0.  0.
          5    1    3    3  502    0  0.24751080756E+02  0.56762547914E+02 -0.94566250719E+02  0.11311432721E+03  0.41800000000E+01 0. -1.
         -5    1    3    3    0  502 -0.81191193831E+02  0.68729850635E+01 -0.25626482412E+03  0.26893936187E+03  0.41800000000E+01 0. -1.
        -11    1    1    2    0    0 -0.50117214057E+01 -0.31103204769E+02  0.44424921175E+01  0.31816071954E+02  0.00000000000E+00 0.  1.
         11    1    1    2    0    0  0.61451834481E+02 -0.32532328208E+02 -0.10605168360E+03  0.12681340597E+03  0.00000000000E+00 0. -1.
</event>
<event>
 7    1  0.3141547E-009  0.1328566E+03  0.7561462E-02  0.1223278E+00
          2   -1    0    0  501    0  0.00000000000E+00  0.00000000000E+00  0.77047243541E+03  0.77047243541E+03  0.00000000000E+00 0. -1.
         -2   -1    0    0    0  501 -0.00000000000E+00 -0.00000000000E+00 -0.24117667197E+02  0.24117667197E+02  0.00000000000E+00 0.  1.
         25    2    1    2    0    0 -0.65929247936E+02  0.46703398313E+02  0.36958114077E+03  0.39845521057E+03  0.12509381307E+03 0.  0.
          5    1    3    3  502    0  0.18899877379E+02 -0.25721102452E+02  0.13336657383E+03  0.13719655933E+03  0.41800000000E+01 0.  1.
         -5    1    3    3    0  502 -0.84829125316E+02  0.72424500764E+02  0.23621456694E+03  0.26125865124E+03  0.41800000000E+01 0.  1.
        -11    1    1    2    0    0  0.65929884184E+01  0.26708477263E+02  0.99572934088E+02  0.10330333710E+03  0.00000000000E+00 0.  1.
         11    1    1    2    0    0  0.59336259518E+02 -0.73411875576E+02  0.27720069335E+03  0.29283155493E+03  0.00000000000E+00 0. -1.
</event>
<event>
 7    1  0.2480409E-009  0.1286902E+03  0.7561462E-02  0.1229412E+00
         -2   -1    0    0    0  501 -0.00000000000E+00  0.00000000000E+00  0.16540172016E+03  0.16540172016E+03  0.00000000000E+00 0.  1.
          2   -1    0    0  501    0  0.00000000000E+00 -0.00000000000E+00 -0.11418068969E+03  0.11418068969E+03  0.00000000000E+00 0. -1.
         25    2    1    2    0    0 -0.71143771101E+02 -0.49256936654E+02  0.64293239577E+02  0.16513281059E+03  0.12509013751E+03 0.  0.
          5    1    3    3  502    0 -0.74185345962E+02  0.21582338299E+02  0.15367913905E+02  0.78885410944E+02  0.41800000000E+01 0. -1.
         -5    1    3    3    0  502  0.30415748611E+01 -0.70839274953E+02  0.48925325672E+02  0.86247399646E+02  0.41800000000E+01 0. -1.
        -11    1    1    2    0    0  0.84128649565E+02  0.44303534093E+02 -0.22435226350E+02  0.97692231995E+02  0.00000000000E+00 0. -1.
         11    1    1    2    0    0 -0.12984878464E+02  0.49534025612E+01  0.93630172500E+01  0.16757367266E+02  0.00000000000E+00 0.  1.
</event>
<event>
 7    1  0.2480409E-009  0.2963518E+03  0.7561462E-02  0.1087079E+00
         -4   -1    0    0    0  501 -0.00000000000E+00  0.00000000000E+00  0.11747981042E+03  0.11747981042E+03  0.00000000000E+00 0.  1.
          4   -1    0    0  501    0  0.00000000000E+00 -0.00000000000E+00 -0.89855974804E+03  0.89855974804E+03  0.00000000000E+00 0. -1.
         25    2    1    2    0    0 -0.22923636292E+03  0.17482129976E+03 -0.23767793227E+03  0.39401875756E+03  0.12509270520E+03 0.  0.
          5    1    3    3  502    0 -0.39366307318E+02  0.67837117933E+02 -0.10605732271E+02  0.79256133379E+02  0.41800000000E+01 0. -1.
         -5    1    3    3    0  502 -0.18987005560E+03  0.10698418182E+03 -0.22707220000E+03  0.31476262419E+03  0.41800000000E+01 0. -1.
        -11    1    1    2    0    0  0.39708299811E+02 -0.21071506091E+01 -0.36606714327E+02  0.54048503137E+02  0.00000000000E+00 0.  1.
         11    1    1    2    0    0  0.18952806310E+03 -0.17271414915E+03 -0.50679529103E+03  0.56797229776E+03  0.00000000000E+00 0. -1.
</event>
<event>
 7    1  0.2480409E-009  0.1013456E+03  0.7561462E-02  0.1277491E+00
         -2   -1    0    0    0  501 -0.00000000000E+00  0.00000000000E+00  0.41166199505E+02  0.41166199505E+02  0.00000000000E+00 0.  1.
          2   -1    0    0  501    0  0.00000000000E+00 -0.00000000000E+00 -0.40790148439E+03  0.40790148439E+03  0.00000000000E+00 0. -1.
         25    2    1    2    0    0 -0.46136995375E+02 -0.44786344442E+02 -0.15085009271E+03  0.20624333140E+03  0.12508446061E+03 0.  0.
          5    1    3    3  502    0  0.96327513007E+01  0.22715644245E+02 -0.10376139210E+03  0.10673654145E+03  0.41800000000E+01 0. -1.
         -5    1    3    3    0  502 -0.55769746676E+02 -0.67501988687E+02 -0.47088700618E+02  0.99506789954E+02  0.41800000000E+01 0. -1.
        -11    1    1    2    0    0 -0.70194424787E+01  0.35323213750E+02 -0.23491701586E+02  0.42998395851E+02  0.00000000000E+00 0.  1.
         11    1    1    2    0    0  0.53156437854E+02  0.94631306923E+01 -0.19239349059E+03  0.19982595664E+03  0.00000000000E+00 0. -1.
</event>
<event>
 7    1  0.2480409E-009  0.1105143E+03  0.7561462E-02  0.1259620E+00
         -2   -1    0    0    0  501 -0.00000000000E+00  0.00000000000E+00  0.11974922756E+02  0.11974922756E+02  0.00000000000E+00 0.  1.
          2   -1    0    0  501    0  0.00000000000E+00 -0.00000000000E+00 -0.14556740553E+04  0.14556740553E+04  0.00000000000E+00 0. -1.
         25    2    1    2    0    0 -0.28456206995E+02  0.28911224362E+01 -0.11569789221E+04  0.11640726736E+04  0.12508736540E+03 0.  0.
          5    1    3    3  502    0  0.29621671002E+01  0.57875468246E+02 -0.36947148438E+03  0.37401202444E+03  0.41800000000E+01 0.  1.
         -5    1    3    3    0  502 -0.31418374096E+02 -0.54984345810E+02 -0.78750743771E+03  0.79006064917E+03  0.41800000000E+01 0.  1.
        -11    1    1    2    0    0 -0.34966872064E+02  0.58032299785E+01 -0.91359343738E+02  0.97994333042E+02  0.00000000000E+00 0.  1.
         11    1    1    2    0    0  0.63423079059E+02 -0.86943524148E+01 -0.19536086668E+03  0.20558197137E+03  0.00000000000E+00 0. -1.
</event>
<event>
 7    1  0.2480409E-009  0.1072042E+03  0.7561462E-02  0.1265837E+00
         -1   -1    0    0    0  501 -0.00000000000E+00  0.00000000000E+00  0.99677459419E+02  0.99677459419E+02  0.00000000000E+00 0. -1.
          1   -1    0    0  501    0  0.00000000000E+00 -0.00000000000E+00 -0.14686236140E+03  0.14686236140E+03  0.00000000000E+00 0.  1.
         25    2    1    2    0    0 -0.39197182930E+02  0.33626923145E+02 -0.43497345970E+02  0.14214951219E+03  0.12508907066E+03 0.  0.
          5    1    3    3  502    0 -0.71892019024E+02  0.28785873985E+02  0.10945841105E+02  0.78322236804E+02  0.41800000000E+01 0. -1.
         -5    1    3    3    0  502  0.32694836094E+02  0.48410491595E+01 -0.54443187075E+02  0.63827275385E+02  0.41800000000E+01 0. -1.
        -11    1    1    2    0    0  0.36229211737E+02  0.25522461964E+02  0.47425303771E+01  0.44569534911E+02  0.00000000000E+00 0. -1.
         11    1    1    2    0    0  0.29679711934E+01 -0.59149385109E+02 -0.84300863865E+01  0.59820773718E+02  0.00000000000E+00 0.  1.
</event>
<event>
 7    1  0.2480409E-009  0.1184003E+03  0.7561462E-02  0.1245760E+00
          1   -1    0    0  501    0  0.00000000000E+00  0.00000000000E+00  0.21797622015E+02  0.21797622015E+02  0.00000000000E+00 0. -1.
         -1   -1    0    0    0  501 -0.00000000000E+00 -0.00000000000E+00 -0.72747871553E+03  0.72747871553E+03  0.00000000000E+00 0.  1.
         25    2    1    2    0    0  0.54638653337E+01 -0.60905297038E+02 -0.44279515496E+03  0.46417115914E+03  0.12509199294E+03 0.  0.
          5    1    3    3  502    0  0.51755091791E+02 -0.62365502522E+02 -0.18214020805E+03  0.19940053465E+03  0.41800000000E+01 0.  1.
         -5    1    3    3    0  502 -0.46291226457E+02  0.14602054835E+01 -0.26065494691E+03  0.26477062450E+03  0.41800000000E+01 0.  1.
        -11    1    1    2    0    0  0.39730553705E+02  0.97938279086E+01 -0.78971861218E+02  0.88943750916E+02  0.00000000000E+00 0.  1.
         11    1    1    2    0    0 -0.45194419038E+02  0.51111469130E+02 -0.18391407734E+03  0.19616142749E+03  0.00000000000E+00 0. -1.
</event>
<event>
 7    1  0.2480409E-009  0.1996308E+03  0.7561462E-02  0.1150051E+00
          1   -1    0    0  501    0  0.00000000000E+00  0.00000000000E+00  0.42041617425E+03  0.42041617425E+03  0.00000000000E+00 0. -1.
         -1   -1    0    0    0  501 -0.00000000000E+00 -0.00000000000E+00 -0.98132021404E+02  0.98132021404E+02  0.00000000000E+00 0.  1.
         25    2    1    2    0    0  0.59695088945E+02 -0.15902226239E+03  0.15346299670E+03  0.26086936410E+03  0.12510135966E+03 0.  0.
          5    1    3    3  502    0 -0.31445099949E+02 -0.14865538965E+02  0.63615319230E+01  0.35605056494E+02  0.41800000000E+01 0. -1.
         -5    1    3    3    0  502  0.91140188893E+02 -0.14415672342E+03  0.14710146478E+03  0.22526430760E+03  0.41800000000E+01 0. -1.
        -11    1    1    2    0    0 -0.69775394333E+02  0.16685793249E+03  0.16363312898E+03  0.24389747065E+03  0.00000000000E+00 0. -1.
         11    1    1    2    0    0  0.10080305389E+02 -0.78356700975E+01  0.51880271557E+01  0.13781360904E+02  0.00000000000E+00 0.  1.
</event>
<event>
 7    1  0.2480409E-009  0.2979338E+03  0.7561462E-02  0.1086278E+00
          1   -1    0    0  501    0  0.00000000000E+00  0.00000000000E+00  0.10516779659E+04  0.10516779659E+04  0.00000000000E+00 0. -1.
         -1   -1    0    0    0  501 -0.00000000000E+00 -0.00000000000E+00 -0.97691635599E+02  0.97691635599E+02  0.00000000000E+00 0.  1.
         25    2    1    2    0    0 -0.28306948274E+03 -0.89481945749E+02  0.35946490476E+03  0.48269876434E+03  0.12509088162E+03 0.  0.
          5    1    3    3  502    0 -0.15633607092E+03 -0.32143078396E+02  0.28032870003E+03  0.32260780682E+03  0.41800000000E+01 0. -1.
         -5    1    3    3    0  502 -0.12673341182E+03 -0.57338867353E+02  0.79136204732E+02  0.16009095752E+03  0.41800000000E+01 0. -1.
        -11    1    1    2    0    0  0.20952109076E+03  0.70785532405E+02  0.38734921861E+03  0.44603710185E+03  0.00000000000E+00 0.  1.
         11    1    1    2    0    0  0.73548391981E+02  0.18696413344E+02  0.20717220696E+03  0.22063373535E+03  0.00000000000E+00 0. -1.
</event>
<event>
 7    1  0.2480409E-009  0.9179407E+02  0.7561462E-02  0.1298564E+00
          2   -1    0    0  501    0  0.00000000000E+00  0.00000000000E+00  0.10278155811E+03  0.10278155811E+03  0.00000000000E+00 0.  1.
         -2   -1    0    0    0  501 -0.00000000000E+00 -0.00000000000E+00 -0.13278027205E+03  0.13278027205E+03  0.00000000000E+00 0. -1.
         25    2    1    2    0    0  0.40208765272E+02 -0.13580401139E+01  0.37224450210E+01  0.13145106187E+03  0.12508771319E+03 0.  0.
          5    1    3    3  502    0 -0.28592599791E+02  0.93636794376E+01  0.42037771578E+02  0.51863878515E+02  0.41800000000E+01 0. -1.
         -5    1    3    3    0  502  0.68801365063E+02 -0.10721719552E+02 -0.38315326557E+02  0.79587183351E+02  0.41800000000E+01 0. -1.
        -11    1    1    2    0    0 -0.60137770071E+02  0.11290196428E+02  0.28937417240E+01  0.61256784650E+02  0.00000000000E+00 0.  1.
         11    1    1    2    0    0  0.19929004799E+02 -0.99321563145E+01 -0.36614900694E+02  0.42853983644E+02  0.00000000000E+00 0. -1.
</event>
<event>
 7    1  0.2480409E-009  0.1169390E+03  0.7561462E-02  0.1248234E+00
         -4   -1    0    0    0  501 -0.00000000000E+00  0.00000000000E+00  0.25342044596E+02  0.25342044596E+02  0.00000000000E+00 0. -1.
          4   -1    0    0  501    0  0.00000000000E+00 -0.00000000000E+00 -0.60508172487E+03  0.60508172487E+03  0.00000000000E+00 0.  1.
         25    2    1    2    0    0  0.20296647932E+02 -0.55809997326E+02 -0.32733815584E+03  0.35541761916E+03  0.12507879925E+03 0.  0.
          5    1    3    3  502    0  0.37064005437E+02  0.25654227932E+02 -0.18545764249E+03  0.19090282729E+03  0.41800000000E+01 0.  1.
         -5    1    3    3    0  502 -0.16767357505E+02 -0.81464225258E+02 -0.14188051335E+03  0.16451479187E+03  0.41800000000E+01 0.  1.
        -11    1    1    2    0    0  0.29018077622E+02 -0.23087442198E+01 -0.10634484239E+03  0.11025699357E+03  0.00000000000E+00 0.  1.
         11    1    1    2    0    0 -0.49314725554E+02  0.58118741546E+02 -0.14605668204E+03  0.16474915674E+03  0.00000000000E+00 0. -1.
</event>
<event>
 7    1  0.2480409E-009  0.1194980E+03  0.7561462E-02  0.1243928E+00
         -1   -1    0    0    0  501 -0.00000000000E+00  0.00000000000E+00  0.13955540713E+04  0.13955540713E+04  0.00000000000E+00 0.  1.
          1   -1    0    0  501    0  0.00000000000E+00 -0.00000000000E+00 -0.15054732389E+02  0.15054732389E+02  0.00000000000E+00 0. -1.
         25    2    1    2    0    0  0.65072258012E+01  0.71033772442E+02  0.10591807862E+04  0.10689251980E+04  0.12509596386E+03 0.  0.
          5    1    3    3  502    0 -0.45973796198E+02 -0.99473827362E+01  0.37410719624E+03  0.37707586377E+03  0.41800000000E+01 0. -1.
         -5    1    3    3    0  502  0.52481022000E+02  0.80981155178E+02  0.68507359000E+03  0.69184933423E+03  0.41800000000E+01 0. -1.
        -11    1    1    2    0    0  0.24564222712E+02 -0.54960298064E+02  0.28487794428E+03  0.29116915794E+03  0.00000000000E+00 0.  1.
         11    1    1    2    0    0 -0.31071448513E+02 -0.16073474377E+02  0.36440608414E+02  0.50514447764E+02  0.00000000000E+00 0. -1.
</event>
<event>
 7    1  0.2480409E-009  0.1537010E+03  0.7561462E-02  0.1195998E+00
          2   -1    0    0  501    0  0.00000000000E+00  0.00000000000E+00  0.27254262279E+03  0.27254262279E+03  0.00000000000E+00 0. -1.
         -2   -1    0    0    0  501 -0.00000000000E+00 -0.00000000000E+00 -0.12449714005E+03  0.12449714005E+03  0.00000000000E+00 0.  1.
         25    2    1    2    0    0  0.14699919137E+03  0.48352275563E+01  0.97665495698E+02  0.21637705134E+03  0.12509331560E+03 0.  0.
          5    1    3    3  502    0  0.48414708004E+02 -0.16682703348E+02 -0.25287398102E+02  0.57264486769E+02  0.41800000000E+01 0. -1.
         -5    1    3    3    0  502  0.98584483362E+02  0.21517930905E+02  0.12295289380E+03  0.15911256457E+03  0.41800000000E+01 0. -1.
        -11    1    1    2    0    0 -0.14107680219E+02 -0.16405265971E+02 -0.20327068167E+02  0.29687524198E+02  0.00000000000E+00 0.  1.
         11    1    1    2    0    0 -0.13289151115E+03  0.11570038414E+02  0.70707055207E+02  0.15097518730E+03  0.00000000000E+00 0. -1.
</event>
<event>
 7    1  0.2480409E-009  0.2457818E+03  0.7561462E-02  0.1116000E+00
         -2   -1    0    0    0  501 -0.00000000000E+00  0.00000000000E+00  0.10983386142E+03  0.10983386142E+03  0.00000000000E+00 0.  1.
          2   -1    0    0  501    0  0.00000000000E+00 -0.00000000000E+00 -0.59718539922E+03  0.59718539922E+03  0.00000000000E+00 0. -1.
         25    2    1    2    0    0 -0.10125663963E+03 -0.20737104707E+03 -0.22512098192E+03  0.34580640351E+03  0.12508778507E+03 0.  0.
          5    1    3    3  502    0 -0.10622534536E+03 -0.21069815259E+03 -0.17159963337E+03  0.29179006507E+03  0.41800000000E+01 0. -1.
         -5    1    3    3    0  502  0.49687057298E+01  0.33271055123E+01 -0.53521348556E+02  0.54016338444E+02  0.41800000000E+01 0. -1.
        -11    1    1    2    0    0  0.33609870584E+02  0.38845127583E+01 -0.40083271658E+02  0.52453612905E+02  0.00000000000E+00 0. -1.
         11    1    1    2    0    0  0.67646769044E+02  0.20348653432E+03 -0.22214728421E+03  0.30875924422E+03  0.00000000000E+00 0.  1.
</event>
<event>
 7    1  0.2480409E-009  0.1641442E+03  0.7561462E-02  0.1184096E+00
         -2   -1    0    0    0  501 -0.00000000000E+00  0.00000000000E+00  0.11496645825E+03  0.11496645825E+03  0.00000000000E+00 0.  1.
          2   -1    0    0  501    0  0.00000000000E+00 -0.00000000000E+00 -0.30120405279E+03  0.30120405279E+03  0.00000000000E+00 0. -1.
         25    2    1    2    0    0  0.75090671499E+02  0.12468202564E+03 -0.53036087953E+02  0.19911111923E+03  0.12509274445E+03 0.  0.
          5    1    3    3  502    0 -0.25125094519E+01  0.46722171839E+02  0.34652906441E+02  0.58374398240E+02  0.41800000000E+01 0. -1.
         -5    1    3    3    0  502  0.77603180951E+02  0.77959853801E+02 -0.87688994395E+02  0.14073672099E+03  0.41800000000E+01 0. -1.
        -11    1    1    2    0    0 -0.90565368411E+02 -0.12657985848E+03 -0.12359496487E+03  0.19874672794E+03  0.00000000000E+00 0. -1.
         11    1    1    2    0    0  0.15474696913E+02  0.18978328376E+01 -0.96065417171E+01  0.18312663864E+02  0.00000000000E+00 0.  1.
</event>
<event>
 7    1  0.2480409E-009  0.1159719E+03  0.7561462E-02  0.1249894E+00
          2   -1    0    0  501    0  0.00000000000E+00  0.00000000000E+00  0.80055420244E+03  0.80055420244E+03  0.00000000000E+00 0. -1.
         -2   -1    0    0    0  501 -0.00000000000E+00 -0.00000000000E+00 -0.18276245398E+02  0.18276245398E+02  0.00000000000E+00 0.  1.
         25    2    1    2    0    0  0.51182405376E+02  0.15342974842E+02  0.48952711151E+03  0.50807516951E+03  0.12509412245E+03 0.  0.
          5    1    3    3  502    0  0.70171367791E+02 -0.31733151849E+02  0.20506857849E+03  0.21909269286E+03  0.41800000000E+01 0. -1.
         -5    1    3    3    0  502 -0.18988962415E+02  0.47076126690E+02  0.28445853303E+03  0.28898247665E+03  0.41800000000E+01 0. -1.
        -11    1    1    2    0    0 -0.20799586623E+02 -0.52157058788E+02  0.14538387506E+03  0.15585073857E+03  0.00000000000E+00 0.  1.
         11    1    1    2    0    0 -0.30382818753E+02  0.36814083946E+02  0.14736697047E+03  0.15490453976E+03  0.00000000000E+00 0. -1.
</event>
<event>
 7    1  0.2480409E-009  0.2645385E+03  0.7561462E-02  0.1104447E+00
         -1   -1    0    0    0  501 -0.00000000000E+00  0.00000000000E+00  0.30113909046E+03  0.30113909046E+03  0.00000000000E+00 0.  1.
          1   -1    0    0  501    0  0.00000000000E+00 -0.00000000000E+00 -0.26912382796E+03  0.26912382796E+03  0.00000000000E+00 0. -1.
         25    2    1    2    0    0 -0.25424932673E+03  0.14546019461E+02  0.80382221123E+02  0.29489445969E+03  0.12508850489E+03 0.  0.
          5    1    3    3  502    0 -0.18187152545E+03 -0.28050938346E+02  0.84913098406E+01  0.18426524810E+03  0.41800000000E+01 0.  1.
         -5    1    3    3    0  502 -0.72377801282E+02  0.42596957808E+02  0.71890911282E+02  0.11062921159E+03  0.41800000000E+01 0.  1.
        -11    1    1    2    0    0  0.17176597198E+03 -0.36424234967E+02 -0.67154243994E+02  0.18798927233E+03  0.00000000000E+00 0. -1.
         11    1    1    2    0    0  0.82483354750E+02  0.21878215505E+02  0.18787285375E+02  0.87379186402E+02  0.00000000000E+00 0.  1.
</event>
<event>
 7    1  0.2480409E-009  0.1143518E+03  0.7561462E-02  0.1252717E+00
         -1   -1    0    0    0  501 -0.00000000000E+00  0.00000000000E+00  0.25819599330E+03  0.25819599330E+03  0.00000000000E+00 0.  1.
          1   -1    0    0  501    0  0.00000000000E+00 -0.00000000000E+00 -0.91427183562E+02  0.91427183562E+02  0.00000000000E+00 0. -1.
         25    2    1    2    0    0 -0.74728150893E+02  0.33763829427E+02  0.16809925374E+03  0.22500925295E+03  0.12509001595E+03 0.  0.
          5    1    3    3  502    0 -0.46691337636E+01  0.36009499115E+02 -0.62220491070E+01  0.37076557711E+02  0.41800000000E+01 0. -1.
         -5    1    3    3    0  502 -0.70059017129E+02 -0.22456696878E+01  0.17432130284E+03  0.18793269524E+03  0.41800000000E+01 0. -1.
        -11    1    1    2    0    0 -0.21217908855E+02 -0.63446385166E+01  0.97813272207E+01  0.24210089968E+02  0.00000000000E+00 0.  1.
         11    1    1    2    0    0  0.95946059748E+02 -0.27419190910E+02 -0.11111771220E+02  0.10040383395E+03  0.00000000000E+00 0. -1.
</event>
<event>
 7    1  0.2480409E-009  0.9728236E+02  0.7561462E-02  0.1286117E+00
          1   -1    0    0  501    0  0.00000000000E+00  0.00000000000E+00  0.92196984435E+02  0.92196984435E+02  0.00000000000E+00 0. -1.
         -1   -1    0    0    0  501 -0.00000000000E+00 -0.00000000000E+00 -0.15076641512E+03  0.15076641512E+03  0.00000000000E+00 0.  1.
         25    2    1    2    0    0 -0.20140368617E+02  0.51026506204E+02 -0.91126965650E+01  0.13688835242E+03  0.12508413571E+03 0.  0.
          5    1    3    3  502    0  0.36304601191E+02  0.47302608450E+02  0.31077801647E+02  0.67371084220E+02  0.41800000000E+01 0. -1.
         -5    1    3    3    0  502 -0.56444969808E+02  0.37238977545E+01 -0.40190498211E+02  0.69517268197E+02  0.41800000000E+01 0. -1.
        -11    1    1    2    0    0  0.26113536868E+02 -0.61049564463E+02 -0.60632692483E+02  0.89918238009E+02  0.00000000000E+00 0.  1.
         11    1    1    2    0    0 -0.59731682516E+01  0.10023058259E+02  0.11175958365E+02  0.16156809128E+02  0.00000000000E+00 0. -1.
</event>
<event>
 7    1  0.2480409E-009  0.1151771E+03  0.7561462E-02  0.1251272E+00
         -2   -1    0    0    0  501 -0.00000000000E+00  0.00000000000E+00  0.32838267600E+02  0.32838267600E+02  0.00000000000E+00 0.  1.
          2   -1    0    0  501    0  0.00000000000E+00 -0.00000000000E+00 -0.52306559772E+03  0.52306559772E+03  0.00000000000E+00 0. -1.
         25    2    1    2    0    0 -0.16863615981E+02  0.67238263216E+02 -0.21482938375E+03  0.25807904168E+03  0.12509101505E+03 0.  0.
          5    1    3    3  502    0 -0.54402464604E+02  0.23254362573E+02 -0.18207121108E+03  0.19148835953E+03  0.41800000000E+01 0. -1.
         -5    1    3    3    0  502  0.37538848622E+02  0.43983900643E+02 -0.32758172674E+02  0.66590682145E+02  0.41800000000E+01 0. -1.
        -11    1    1    2    0    0  0.16471274882E+01  0.22241384120E+02 -0.63641945200E+02  0.67436558226E+02  0.00000000000E+00 0.  1.
         11    1    1    2    0    0  0.15216488493E+02 -0.89479647337E+02 -0.21175600117E+03  0.23038826541E+03  0.00000000000E+00 0. -1.
</event>
<event>
 7    1  0.2480409E-009  0.1080924E+03  0.7561462E-02  0.1264144E+00
          1   -1    0    0  501    0  0.00000000000E+00  0.00000000000E+00  0.90234177544E+03  0.90234177544E+03  0.00000000000E+00 0. -1.
         -1   -1    0    0    0  501 -0.00000000000E+00 -0.00000000000E+00 -0.26634110159E+02  0.26634110159E+02  0.00000000000E+00 0.  1.
         25    2    1    2    0    0 -0.37708707017E+02 -0.16039888112E+01  0.78092790041E+03  0.79178434947E+03  0.12509816567E+03 0.  0.
          5    1    3    3  502    0 -0.58242644790E+02 -0.41758521508E+02  0.63353164267E+03  0.63758591143E+03  0.41800000000E+01 0.  1.
         -5    1    3    3    0  502  0.20533937773E+02  0.40154532697E+02  0.14739625774E+03  0.15419843803E+03  0.41800000000E+01 0.  1.
        -11    1    1    2    0    0 -0.29670824893E+02  0.97544200673E+01  0.32530568167E+02  0.45097055624E+02  0.00000000000E+00 0. -1.
         11    1    1    2    0    0  0.67379531910E+02 -0.81504312561E+01  0.62249196702E+02  0.92094480509E+02  0.00000000000E+00 0.  1.
</event>
<event>
 7    1  0.2480409E-009  0.9490030E+02  0.7561462E-02  0.1291401E+00
         -1   -1    0    0    0  501 -0.00000000000E+00  0.00000000000E+00  0.60311734842E+02  0.60311734842E+02  0.00000000000E+00 0. -1.
          1   -1    0    0  501    0  0.00000000000E+00 -0.00000000000E+00 -0.24163823392E+03  0.24163823392E+03  0.00000000000E+00 0.  1.
         25    2    1    2    0    0  0.76208703660E+01  0.50308571773E+02 -0.80345299042E+02  0.15713703206E+03  0.12509056602E+03 0.  0.
          5    1    3    3  502    0  0.52080791322E+02  0.34639045752E+02 -0.89165774608E+02  0.10899669755E+03  0.41800000000E+01 0.  1.
         -5    1    3    3    0  502 -0.44459920956E+02  0.15669526021E+02  0.88204755660E+01  0.48140334506E+02  0.41800000000E+01 0.  1.
        -11    1    1    2    0    0 -0.30814757329E+02 -0.84823856440E+01 -0.90325926514E+02  0.95813741896E+02  0.00000000000E+00 0.  1.
         11    1    1    2    0    0  0.23193886963E+02 -0.41826186129E+02 -0.10655273526E+02  0.48999194815E+02  0.00000000000E+00 0. -1.
</event>
<event>
 7    1  0.2480409E-009  0.1546485E+03  0.7561462E-02  0.1194875E+00
          1   -1    0    0  501    0  0.00000000000E+00  0.00000000000E+00  0.27395917444E+03  0.27395917444E+03  0.00000000000E+00 0. -1.
         -1   -1    0    0    0  501 -0.00000000000E+00 -0.00000000000E+00 -0.10357593961E+03  0.10357593961E+03  0.00000000000E+00 0.  1.
         25    2    1    2    0    0  0.68072006492E+02 -0.10537036551E+03  0.12158142142E+03  0.21486291983E+03  0.12508924929E+03 0.  0.
          5    1    3    3  502    0 -0.13500575536E+02  0.93230530018E+01 -0.12017903158E+02  0.20762640810E+02  0.41800000000E+01 0. -1.
         -5    1    3    3    0  502  0.81572582029E+02 -0.11469341852E+03  0.13359932458E+03  0.19410027902E+03  0.41800000000E+01 0. -1.
        -11    1    1    2    0    0 -0.16533885171E+02  0.98133998541E+02  0.48316879229E+02  0.11062627105E+03  0.00000000000E+00 0. -1.
         11    1    1    2    0    0 -0.51538121321E+02  0.72363669738E+01  0.48493417854E+00  0.52045923159E+02  0.00000000000E+00 0.  1.
</event>
<event>
 7    1  0.2480409E-009  0.1048511E+03  0.7561462E-02  0.1270413E+00
          2   -1    0    0  501    0  0.00000000000E+00  0.00000000000E+00  0.63291091793E+03  0.63291091793E+03  0.00000000000E+00 0. -1.
         -2   -1    0    0    0  501 -0.00000000000E+00 -0.00000000000E+00 -0.37975576038E+02  0.37975576038E+02  0.00000000000E+00 0.  1.
         25    2    1    2    0    0 -0.75786177378E+02  0.63600045738E+02  0.20997283046E+03  0.26367554503E+03  0.12509073914E+03 0.  0.
          5    1    3    3  502    0 -0.58216103203E+02  0.45403304285E+02  0.26701175756E+02  0.78619335402E+02  0.41800000000E+01 0. -1.
         -5    1    3    3    0  502 -0.17570074175E+02  0.18196741452E+02  0.18327165470E+03  0.18505620963E+03  0.41800000000E+01 0. -1.
        -11    1    1    2    0    0  0.17596621748E+02 -0.46115226976E+02  0.65464979936E+02  0.81987309103E+02  0.00000000000E+00 0.  1.
         11    1    1    2    0    0  0.58189555631E+02 -0.17484818761E+02  0.31949753150E+03  0.32522363983E+03  0.00000000000E+00 0. -1.
</event>
<event>
 7    1  0.2480409E-009  0.1196481E+03  0.7561462E-02  0.1243679E+00
         -3   -1    0    0    0  501 -0.00000000000E+00  0.00000000000E+00  0.17431489658E+03  0.17431489658E+03  0.00000000000E+00 0.  1.
          3   -1    0    0  501    0  0.00000000000E+00 -0.00000000000E+00 -0.93696919787E+02  0.93696919787E+02  0.00000000000E+00 0. -1.
         25    2    1    2    0    0 -0.42761229378E+02  0.54588124307E+02  0.63365692268E+02  0.15643279275E+03  0.12509045383E+03 0.  0.
          5    1    3    3  502    0  0.42379476414E+02  0.93114337481E+01  0.56088261328E+01  0.43950587598E+02  0.41800000000E+01 0. -1.
         -5    1    3    3    0  502 -0.85140705793E+02  0.45276690558E+02  0.57756866135E+02  0.11248220516E+03  0.41800000000E+01 0. -1.
        -11    1    1    2    0    0 -0.12764639738E+02 -0.39692228782E+02  0.31612295550E+02  0.52323477362E+02  0.00000000000E+00 0.  1.
         11    1    1    2    0    0  0.55525869117E+02 -0.14895895525E+02 -0.14360011027E+02  0.59255546249E+02  0.00000000000E+00 0. -1.
</event>
<event>
 7    1  0.2480409E-009  0.1314253E+03  0.7561462E-02  0.1225356E+00
          1   -1    0    0  501    0  0.00000000000E+00  0.00000000000E+00  0.15316219205E+03  0.15316219205E+03  0.00000000000E+00 0. -1.
         -1   -1    0    0    0  501 -0.00000000000E+00 -0.00000000000E+00 -0.14742072558E+03  0.14742072558E+03  0.00000000000E+00 0.  1.
         25    2    1    2    0    0  0.12994795879E+02 -0.74313676704E+02 -0.55989628701E+02  0.15643900554E+03  0.12508771589E+03 0.  0.
          5    1    3    3  502    0 -0.26020995256E+02 -0.87451656537E+02 -0.67402254794E+02  0.11351396732E+03  0.41800000000E+01 0. -1.
         -5    1    3    3    0  502  0.39015791135E+02  0.13137979833E+02  0.11412626094E+02  0.42925038221E+02  0.41800000000E+01 0. -1.
        -11    1    1    2    0    0  0.36837494043E+02  0.71247801320E+02  0.41072064798E+02  0.90111956293E+02  0.00000000000E+00 0. -1.
         11    1    1    2    0    0 -0.49832289921E+02  0.30658753840E+01  0.20659030376E+02  0.54031955793E+02  0.00000000000E+00 0.  1.
</event>
<event>
 7    1  0.2480409E-009  0.1182159E+03  0.7561462E-02  0.1246070E+00
          2   -1    0    0  501    0  0.00000000000E+00  0.00000000000E+00  0.89135922219E+02  0.89135922219E+02  0.00000000000E+00 0. -1.
         -2   -1    0    0    0  501 -0.00000000000E+00 -0.00000000000E+00 -0.18744097219E+03  0.18744097219E+03  0.00000000000E+00 0.  1.
         25    2    1    2    0    0  0.56409799755E+02 -0.36040728849E+02 -0.37335117006E+02  0.14670560889E+03  0.12509046756E+03 0.  0.
          5    1    3    3  502    0  0.49850352728E+02 -0.81286416612E+02 -0.19284098277E+02  0.97374986722E+02  0.41800000000E+01 0.  1.
         -5    1    3    3    0  502  0.65594470267E+01  0.45245687763E+02 -0.18051018729E+02  0.49330622169E+02  0.41800000000E+01 0.  1.
        -11    1    1    2    0    0  0.96648165319E+01 -0.10488583938E+02 -0.45378954444E+02  0.47567515997E+02  0.00000000000E+00 0.  1.
         11    1    1    2    0    0 -0.66074616287E+02  0.46529312787E+02 -0.15590978517E+02  0.82303769519E+02  0.00000000000E+00 0. -1.
</event>
<event>
 7    1  0.2480409E-009  0.1060723E+03  0.7561462E-02  0.1268021E+00
          1   -1    0    0  501    0  0.00000000000E+00  0.00000000000E+00  0.53997808655E+03  0.53997808655E+03  0.00000000000E+00 0. -1.
         -1   -1    0    0    0  501 -0.00000000000E+00 -0.00000000000E+00 -0.48810591408E+02  0.48810591408E+02  0.00000000000E+00 0.  1.
         25    2    1    2    0    0  0.65947409664E+02  0.24135784350E+02  0.44081141235E+03  0.46356647611E+03  0.12509028575E+03 0.  0.
          5    1    3    3  502    0  0.95949643451E+02 -0.69727648698E+01  0.34840397712E+03  0.36146612179E+03  0.41800000000E+01 0.  1.
         -5    1    3    3    0  502 -0.30002233787E+02  0.31108549220E+02  0.92407435236E+02  0.10210035433E+03  0.41800000000E+01 0.  1.
        -11    1    1    2    0    0 -0.50341203552E+02 -0.98968360095E+01 -0.17457919623E+02  0.54193755135E+02  0.00000000000E+00 0.  1.
         11    1    1    2    0    0 -0.15606206111E+02 -0.14238948340E+02  0.67814002413E+02  0.71028446712E+02  0.00000000000E+00 0. -1.
</event>
<event>
 7    1  0.2480409E-009  0.1027939E+03  0.7561462E-02  0.1274528E+00
         -1   -1    0    0    0  501 -0.00000000000E+00  0.00000000000E+00  0.42794427144E+03  0.42794427144E+03  0.00000000000E+00 0.  1.
          1   -1    0    0  501    0  0.00000000000E+00 -0.00000000000E+00 -0.43286244658E+02  0.43286244658E+02  0.00000000000E+00 0. -1.
         25    2    1    2    0    0  0.50285723453E+02 -0.37501457148E+02  0.29770655483E+03  0.32895410344E+03  0.12508635461E+03 0.  0.
          5    1    3    3  502    0 -0.20310746940E+01 -0.46379556525E+02  0.28715606954E+02  0.54747118743E+02  0.41800000000E+01 0. -1.
         -5    1    3    3    0  502  0.52316798147E+02  0.88780993771E+01  0.26899094788E+03  0.27420698470E+03  0.41800000000E+01 0. -1.
        -11    1    1    2    0    0  0.81923774705E+01  0.45938489748E+02  0.63286358909E+02  0.78629657973E+02  0.00000000000E+00 0.  1.
         11    1    1    2    0    0 -0.58478100923E+02 -0.84370326002E+01  0.23665113041E+02  0.63646754685E+02  0.00000000000E+00 0. -1.
</event>
<event>
 7    1  0.2480409E-009  0.1107983E+03  0.7561462E-02  0.1259099E+00
         -2   -1    0    0    0  501 -0.00000000000E+00  0.00000000000E+00  0.13337869633E+02  0.13337869633E+02  0.00000000000E+00 0.  1.
          2   -1    0    0  501    0  0.00000000000E+00 -0.00000000000E+00 -0.12048060466E+04  0.12048060466E+04  0.00000000000E+00 0. -1.
         25    2    1    2    0    0  0.43139854350E+02  0.54868977961E+02 -0.96266587032E+03  0.97326487038E+03  0.12508908134E+03 0.  0.
          5    1    3    3  502    0 -0.28897772052E+02 -0.21597647625E+02 -0.18574769723E+03  0.18926494403E+03  0.41800000000E+01 0. -1.
         -5    1    3    3    0  502  0.72037626402E+02  0.76466625586E+02 -0.77691817309E+03  0.78399992635E+03  0.41800000000E+01 0. -1.
        -11    1    1    2    0    0 -0.21076375875E+02 -0.80973647313E-01 -0.11229323476E+03  0.11425406229E+03  0.00000000000E+00 0. -1.
         11    1    1    2    0    0 -0.22063478475E+02 -0.54788004313E+02 -0.11650907192E+03  0.13062498360E+03  0.00000000000E+00 0.  1.
</event>
<event>
 7    1  0.2480409E-009  0.2495335E+03  0.7561462E-02  0.1113600E+00
          1   -1    0    0  501    0  0.00000000000E+00  0.00000000000E+00  0.81778235263E+03  0.81778235263E+03  0.00000000000E+00 0. -1.
         -1   -1    0    0    0  501 -0.00000000000E+00 -0.00000000000E+00 -0.96872070118E+02  0.96872070118E+02  0.00000000000E+00 0.  1.
         25    2    1    2    0    0 -0.21082349346E+03  0.76600370990E+02  0.57727930693E+03  0.63183338428E+03  0.12509142675E+03 0.  0.
          5    1    3    3  502    0 -0.89968757721E+02 -0.30704284465E+02  0.21552481032E+03  0.23559615173E+03  0.41800000000E+01 0. -1.
         -5    1    3    3    0  502 -0.12085473574E+03  0.10730465545E+03  0.36175449662E+03  0.39623723255E+03  0.41800000000E+01 0. -1.
        -11    1    1    2    0    0  0.83876583413E+02 -0.79067700631E+02  0.83477694935E+02  0.14232184681E+03  0.00000000000E+00 0.  1.
         11    1    1    2    0    0  0.12694691004E+03  0.24673296408E+01  0.60153280648E+02  0.14049919166E+03  0.00000000000E+00 0. -1.
</event>
<event>
 7    1  0.2480409E-009  0.8493234E+02  0.7561462E-02  0.1315610E+00
          1   -1    0    0  501    0  0.00000000000E+00  0.00000000000E+00  0.67515304125E+03  0.67515304125E+03  0.00000000000E+00 0. -1.
         -1   -1    0    0    0  501 -0.00000000000E+00 -0.00000000000E+00 -0.27986658568E+02  0.27986658568E+02  0.00000000000E+00 0.  1.
         25    2    1    2    0    0  0.28629582694E+02 -0.31301107343E+02  0.54320092434E+03  0.55902978838E+03  0.12509055830E+03 0.  0.
          5    1    3    3  502    0 -0.51046434665E+01 -0.42034170220E+02  0.50496709730E+03  0.50675652004E+03  0.41800000000E+01 0. -1.
         -5    1    3    3    0  502  0.33734226160E+02  0.10733062878E+02  0.38233827039E+02  0.52273268344E+02  0.41800000000E+01 0. -1.
        -11    1    1    2    0    0  0.19868935430E+02 -0.14784941711E+02  0.60060771634E+01  0.25484153104E+02  0.00000000000E+00 0.  1.
         11    1    1    2    0    0 -0.48498518124E+02  0.46086049053E+02  0.97959381182E+02  0.11862575833E+03  0.00000000000E+00 0. -1.
</event>
<event>
 7    1  0.2480409E-009  0.6497855E+02  0.7561462E-02  0.1378052E+00
         -1   -1    0    0    0  501 -0.00000000000E+00  0.00000000000E+00  0.27272878207E+02  0.27272878207E+02  0.00000000000E+00 0.  1.
          1   -1    0    0  501    0  0.00000000000E+00 -0.00000000000E+00 -0.47769451566E+03  0.47769451566E+03  0.00000000000E+00 0. -1.
         25    2    1    2    0    0  0.16181671809E+02  0.18241378560E+02 -0.20859617766E+03  0.24444186461E+03  0.12507943654E+03 0.  0.
          5    1    3    3  502    0  0.21118762571E+02  0.32693767848E+02 -0.41289883214E+01  0.39362488910E+02  0.41800000000E+01 0.  1.
         -5    1    3    3    0  502 -0.49370907618E+01 -0.14452389289E+02 -0.20446718934E+03  0.20507937570E+03  0.41800000000E+01 0.  1.
        -11    1    1    2    0    0 -0.43672789905E+02 -0.35747425152E+01 -0.21497011076E+03  0.21939061029E+03  0.00000000000E+00 0. -1.
         11    1    1    2    0    0  0.27491118096E+02 -0.14666636044E+02 -0.26855349037E+02  0.41134918973E+02  0.00000000000E+00 0.  1.
</event>
<event>
 7    1  0.2480409E-009  0.3316333E+03  0.7561462E-02  0.1070416E+00
         -2   -1    0    0    0  501 -0.00000000000E+00  0.00000000000E+00  0.16109296686E+03  0.16109296686E+03  0.00000000000E+00 0.  1.
          2   -1    0    0  501    0  0.00000000000E+00 -0.00000000000E+00 -0.73601969109E+03  0.73601969109E+03  0.00000000000E+00 0. -1.
         25    2    1    2    0    0  0.15245792941E+03  0.28804843467E+03 -0.27550024307E+03  0.44470622943E+03  0.12509166882E+03 0.  0.
          5    1    3    3  502    0  0.35056071074E+02  0.15886507886E+03 -0.76082918225E+02  0.17964722165E+03  0.41800000000E+01 0. -1.
         -5    1    3    3    0  502  0.11740185833E+03  0.12918335581E+03 -0.19941732485E+03  0.26505900778E+03  0.41800000000E+01 0.  1.
        -11    1    1    2    0    0 -0.19135887031E+02 -0.34555336562E+02 -0.20835483807E+01  0.39554957100E+02  0.00000000000E+00 0.  1.
         11    1    1    2    0    0 -0.13332204238E+03 -0.25349309811E+03 -0.29734293278E+03  0.41285147141E+03  0.00000000000E+00 0. -1.
</event>
<event>
 7    1  0.2480409E-009  0.7633735E+02  0.7561462E-02  0.1339779E+00
         -2   -1    0    0    0  501 -0.00000000000E+00  0.00000000000E+00  0.21749751643E+02  0.21749751643E+02  0.00000000000E+00 0. -1.
          2   -1    0    0  501    0  0.00000000000E+00 -0.00000000000E+00 -0.73341103368E+03  0.73341103368E+03  0.00000000000E+00 0.  1.
         25    2    1    2    0    0  0.19312276220E+02 -0.11187787896E+02 -0.57662813504E+03  0.59046275722E+03  0.12509248951E+03 0.  0.
          5    1    3    3  502    0  0.51668816982E+02  0.51112018883E+01 -0.10290021903E+03  0.11533307639E+03  0.41800000000E+01 0.  1.
         -5    1    3    3    0  502 -0.32356540763E+02 -0.16298989784E+02 -0.47372791601E+03  0.47512968083E+03  0.41800000000E+01 0.  1.
        -11    1    1    2    0    0  0.27065511259E+01 -0.23159128284E+02 -0.11834179327E+03  0.12061695849E+03  0.00000000000E+00 0.  1.
         11    1    1    2    0    0 -0.22018827345E+02  0.34346916180E+02 -0.16691353727E+02  0.44081069610E+02  0.00000000000E+00 0. -1.
</event>
<event>
 7    1  0.2480409E-009  0.1009841E+03  0.7561462E-02  0.1278240E+00
          2   -1    0    0  501    0  0.00000000000E+00  0.00000000000E+00  0.17740967577E+03  0.17740967577E+03  0.00000000000E+00 0. -1.
         -2   -1    0    0    0  501 -0.00000000000E+00 -0.00000000000E+00 -0.10358163671E+03  0.10358163671E+03  0.00000000000E+00 0.  1.
         25    2    1    2    0    0 -0.18447402112E+02  0.78753227486E+02  0.26393227193E+02  0.15128365165E+03  0.12509102018E+03 0.  0.
          5    1    3    3  502    0 -0.29842013949E+01  0.32061512312E+02 -0.50423479641E+02  0.59973708646E+02  0.41800000000E+01 0.  1.
         -5    1    3    3    0  502 -0.15463200718E+02  0.46691715174E+02  0.76816706834E+02  0.91309943003E+02  0.41800000000E+01 0.  1.
        -11    1    1    2    0    0 -0.17507925696E+02  0.12856916545E+02  0.13660539696E+02  0.25660048909E+02  0.00000000000E+00 0. -1.
         11    1    1    2    0    0  0.35955327809E+02 -0.91610144031E+02  0.33774272168E+02  0.10404761193E+03  0.00000000000E+00 0.  1.
</event>
<event>
 7    1  0.2480409E-009  0.8311351E+02  0.7561462E-02  0.1320441E+00
         -2   -1    0    0    0  501 -0.00000000000E+00  0.00000000000E+00  0.38076783444E+02  0.38076783444E+02  0.00000000000E+00 0.  1.
          2   -1    0    0  501    0  0.00000000000E+00 -0.00000000000E+00 -0.35222102636E+03  0.35222102636E+03  0.00000000000E+00 0. -1.
         25    2    1    2    0    0 -0.47818895797E+01  0.24295252276E+02 -0.23001797873E+03  0.26300001826E+03  0.12509042054E+03 0.  0.
          5    1    3    3  502    0 -0.34499208601E+02  0.27383627207E+02 -0.16281040497E+02  0.47144491860E+02  0.41800000000E+01 0. -1.
         -5    1    3    3    0  502  0.29717319022E+02 -0.30883749304E+01 -0.21373693823E+03  0.21585552639E+03  0.41800000000E+01 0. -1.
        -11    1    1    2    0    0 -0.37606721850E+02  0.80942584410E+01 -0.53148655525E+02  0.65609161953E+02  0.00000000000E+00 0. -1.
         11    1    1    2    0    0  0.42388611430E+02 -0.32389510717E+02 -0.30977608665E+02  0.61688629601E+02  0.00000000000E+00 0.  1.
</event>
<event>
 7    1  0.2480409E-009  0.2905954E+03  0.7561462E-02  0.1090039E+00
          1   -1    0    0  501    0  0.00000000000E+00  0.00000000000E+00  0.47583709844E+03  0.47583709844E+03  0.00000000000E+00 0. -1.
         -1   -1    0    0    0  501 -0.00000000000E+00 -0.00000000000E+00 -0.24845038669E+03  0.24845038669E+03  0.00000000000E+00 0.  1.
         25    2    1    2    0    0 -0.27482549648E+03  0.75991512909E+02 -0.50883789114E+02  0.31550068671E+03  0.12509100594E+03 0.  0.
          5    1    3    3  502    0 -0.10605822137E+03 -0.94505939472E+01 -0.66565089375E+02  0.12564252293E+03  0.41800000000E+01 0. -1.
         -5    1    3    3    0  502 -0.16876727512E+03  0.85442106857E+02  0.15681300260E+02  0.18985816378E+03  0.41800000000E+01 0. -1.
        -11    1    1    2    0    0  0.24572964899E+03 -0.71944229300E+02  0.19910992059E+03  0.32435134191E+03  0.00000000000E+00 0.  1.
         11    1    1    2    0    0  0.29095847495E+02 -0.40472836094E+01  0.79160580273E+02  0.84435456505E+02  0.00000000000E+00 0. -1.
</event>
<event>
 7    1  0.2480409E-009  0.9805339E+02  0.7561462E-02  0.1284443E+00
         -1   -1    0    0    0  501 -0.00000000000E+00  0.00000000000E+00  0.77945026007E+02  0.77945026007E+02  0.00000000000E+00 0.  1.
          1   -1    0    0  501    0  0.00000000000E+00 -0.00000000000E+00 -0.54805466909E+03  0.54805466909E+03  0.00000000000E+00 0. -1.
         25    2    1    2    0    0 -0.48106185506E+02 -0.45321631389E+02 -0.49139397012E+03  0.51135404353E+03  0.12508664438E+03 0.  0.
          5    1    3    3  502    0 -0.58053344876E+02 -0.45608656045E+02 -0.49459799376E+03  0.50009497917E+03  0.41800000000E+01 0. -1.
         -5    1    3    3    0  502  0.99471593706E+01  0.28702465675E+00  0.32040236394E+01  0.11259064356E+02  0.41800000000E+01 0. -1.
        -11    1    1    2    0    0  0.38258693797E+02  0.72766077829E+02  0.79837982526E+01  0.82597643842E+02  0.00000000000E+00 0.  1.
         11    1    1    2    0    0  0.98474917082E+01 -0.27444446441E+02  0.13300528787E+02  0.32048007729E+02  0.00000000000E+00 0. -1.
</event>
<event>
 7    1  0.3325602E-009  0.1053559E+03  0.7561462E-02  0.1269420E+00
         -1   -1    0    0    0  501 -0.00000000000E+00  0.00000000000E+00  0.21056177775E+02  0.21056177775E+02  0.00000000000E+00 0.  1.
          1   -1    0    0  501    0  0.00000000000E+00 -0.00000000000E+00 -0.90544258368E+03  0.90544258368E+03  0.00000000000E+00 0. -1.
         25    2    1    2    0    0 -0.79663725361E+02 -0.29455340402E+02 -0.47206434761E+03  0.49569015797E+03  0.12510019268E+03 0.  0.
          5    1    3    3  502    0 -0.13962468978E+02  0.12572454449E+02 -0.21943933070E+01  0.19372787946E+02  0.41800000000E+01 0. -1.
         -5    1    3    3    0  502 -0.65701256384E+02 -0.42027794851E+02 -0.46986995430E+03  0.47631737002E+03  0.41800000000E+01 0. -1.
        -11    1    1    2    0    0  0.67648108418E+02 -0.13302942104E+02 -0.15444256598E+03  0.16913231810E+03  0.00000000000E+00 0.  1.
         11    1    1    2    0    0  0.12015616943E+02  0.42758282505E+02 -0.25787949232E+03  0.26167628539E+03  0.00000000000E+00 0. -1.
</event>
<event>
 7    1  0.2480409E-009  0.1347804E+03  0.7561462E-02  0.1220530E+00
          3   -1    0    0  501    0  0.00000000000E+00  0.00000000000E+00  0.75192176999E+02  0.75192176999E+02  0.00000000000E+00 0. -1.
         -3   -1    0    0    0  501 -0.00000000000E+00 -0.00000000000E+00 -0.25335131699E+03  0.25335131699E+03  0.00000000000E+00 0.  1.
         25    2    1    2    0    0 -0.60013636135E+02 -0.59031250489E+02 -0.10984900063E+03  0.18655078116E+03  0.12509222979E+03 0.  0.
          5    1    3    3  502    0  0.25633344074E+02  0.19941380923E+02 -0.35448803217E+02  0.48257818548E+02  0.41800000000E+01 0.  1.
         -5    1    3    3    0  502 -0.85646980209E+02 -0.78972631412E+02 -0.74400197415E+02  0.13829296261E+03  0.41800000000E+01 0.  1.
        -11    1    1    2    0    0  0.82126350099E+02  0.51223523852E+02 -0.38749277250E+02  0.10425973942E+03  0.00000000000E+00 0.  1.
         11    1    1    2    0    0 -0.22112713964E+02  0.78077266369E+01 -0.29560862106E+02  0.37732973413E+02  0.00000000000E+00 0. -1.
</event>
<event>
 7    1  0.2480409E-009  0.1364607E+03  0.7561462E-02  0.1218172E+00
          2   -1    0    0  501    0  0.00000000000E+00  0.00000000000E+00  0.17394060622E+04  0.17394060622E+04  0.00000000000E+00 0. -1.
         -2   -1    0    0    0  501 -0.00000000000E+00 -0.00000000000E+00 -0.14306785656E+02  0.14306785656E+02  0.00000000000E+00 0.  1.
         25    2    1    2    0    0 -0.11190056259E+03 -0.25597726901E+02  0.93833159336E+03  0.95356716410E+03  0.12508867984E+03 0.  0.
          5    1    3    3  502    0 -0.48767699331E+02  0.17001101790E+02  0.10849986854E+03  0.12023734791E+03  0.41800000000E+01 0.  1.
         -5    1    3    3    0  502 -0.63132863257E+02 -0.42598828692E+02  0.82983172482E+03  0.83332981619E+03  0.41800000000E+01 0.  1.
        -11    1    1    2    0    0  0.26914909381E+02  0.49677469104E+02  0.26528653427E+03  0.27123644399E+03  0.00000000000E+00 0. -1.
         11    1    1    2    0    0  0.84985653208E+02 -0.24079742203E+02  0.52148114894E+03  0.52890923979E+03  0.00000000000E+00 0.  1.
</event>
<event>
 7    1  0.2480409E-009  0.7892362E+02  0.7561462E-02  0.1332134E+00
          1   -1    0    0  501    0  0.00000000000E+00  0.00000000000E+00  0.18108779549E+03  0.18108779549E+03  0.00000000000E+00 0. -1.
         -1   -1    0    0    0  501 -0.00000000000E+00 -0.00000000000E+00 -0.78277424899E+02  0.78277424899E+02  0.00000000000E+00 0.  1.
         25    2    1    2    0    0 -0.20443441002E+01 -0.88002844585E+01  0.11043471510E+03  0.16711258660E+03  0.12509662645E+03 0.  0.
          5    1    3    3  502    0  0.47908248846E+02  0.15505408253E+02  0.89099574757E+01  0.51307677153E+02  0.41800000000E+01 0. -1.
         -5    1    3    3    0  502 -0.49952592947E+02 -0.24305692711E+02  0.10152475763E+03  0.11580490944E+03  0.41800000000E+01 0. -1.
        -11    1    1    2    0    0  0.14267164872E+02  0.26502097032E+02  0.33993836923E+02  0.45403679249E+02  0.00000000000E+00 0. -1.
         11    1    1    2    0    0 -0.12222820772E+02 -0.17701812573E+02 -0.41618181434E+02  0.46848954544E+02  0.00000000000E+00 0.  1.
</event>
<event>
 7    1  0.2480409E-009  0.8881120E+02  0.7561462E-02  0.1305756E+00
          2   -1    0    0  501    0  0.00000000000E+00  0.00000000000E+00  0.64531697359E+02  0.64531697359E+02  0.00000000000E+00 0. -1.
         -2   -1    0    0    0  501 -0.00000000000E+00 -0.00000000000E+00 -0.26517099858E+03  0.26517099858E+03  0.00000000000E+00 0.  1.
         25    2    1    2    0    0 -0.45785774946E+02 -0.33382993214E+02 -0.52982798575E+02  0.14719438768E+03  0.12509296301E+03 0.  0.
          5    1    3    3  502    0  0.64867576822E+01 -0.10849696167E+02 -0.82063938989E+02  0.83136973811E+02  0.41800000000E+01 0. -1.
         -5    1    3    3    0  502 -0.52272532628E+02 -0.22533297048E+02  0.29081140414E+02  0.64057413864E+02  0.41800000000E+01 0. -1.
        -11    1    1    2    0    0 -0.25673909744E+02  0.24026685317E+02 -0.46173305904E+02  0.58037965393E+02  0.00000000000E+00 0.  1.
         11    1    1    2    0    0  0.71459684690E+02  0.93563078973E+01 -0.10148319675E+03  0.12447034287E+03  0.00000000000E+00 0. -1.
</event>
<event>
 7    1  0.2480409E-009  0.9748314E+02  0.7561462E-02  0.1285679E+00
          1   -1    0    0  501    0  0.00000000000E+00  0.00000000000E+00  0.24768697156E+02  0.24768697156E+02  0.00000000000E+00 0. -1.
         -1   -1    0    0    0  501 -0.00000000000E+00 -0.00000000000E+00 -0.48784292365E+03  0.48784292365E+03  0.00000000000E+00 0.  1.
         25    2    1    2    0    0 -0.12728893003E+02  0.56232576633E+01 -0.31226419044E+03  0.33667460821E+03  0.12508885416E+03 0.  0.
          5    1    3    3  502    0 -0.45699858787E+02  0.36781439417E+02 -0.76207648512E+02  0.96262295165E+02  0.41800000000E+01 0.  1.
         -5    1    3    3    0  502  0.32970965784E+02 -0.31158181754E+02 -0.23605654193E+03  0.24041231304E+03  0.41800000000E+01 0.  1.
        -11    1    1    2    0    0 -0.33773881536E+02  0.18181274656E+02 -0.62443057789E+02  0.73282803496E+02  0.00000000000E+00 0. -1.
         11    1    1    2    0    0  0.46502774539E+02 -0.23804532319E+02 -0.88366978261E+02  0.10265420910E+03  0.00000000000E+00 0.  1.
</event>
<event>
 7    1  0.2480409E-009  0.2142686E+03  0.7561462E-02  0.1138230E+00
          1   -1    0    0  501    0  0.00000000000E+00  0.00000000000E+00  0.35475918186E+03  0.35475918186E+03  0.00000000000E+00 0. -1.
         -1   -1    0    0    0  501 -0.00000000000E+00 -0.00000000000E+00 -0.15686412913E+03  0.15686412913E+03  0.00000000000E+00 0.  1.
         25    2    1    2    0    0 -0.17538582575E+03  0.10853107758E+03  0.14446451365E+03  0.28116993394E+03  0.12508938155E+03 0.  0.
          5    1    3    3  502    0 -0.13574482974E+03  0.98308075978E+02  0.45092389459E+02  0.17361432138E+03  0.41800000000E+01 0.  1.
         -5    1    3    3    0  502 -0.39640996010E+02  0.10223001600E+02  0.99372124190E+02  0.10755561256E+03  0.41800000000E+01 0.  1.
        -11    1    1    2    0    0  0.10131748857E+03 -0.18240881488E+02  0.47884468969E+02  0.11353803599E+03  0.00000000000E+00 0.  1.
         11    1    1    2    0    0  0.74068337176E+02 -0.90290196090E+02  0.55460701155E+01  0.11691534106E+03  0.00000000000E+00 0. -1.
</event>
<event>
 7    1  0.2480409E-009  0.2108636E+03  0.7561462E-02  0.1140884E+00
          1   -1    0    0  501    0  0.00000000000E+00  0.00000000000E+00  0.65110449895E+03  0.65110449895E+03  0.00000000000E+00 0. -1.
         -1   -1    0    0    0  501 -0.00000000000E+00 -0.00000000000E+00 -0.71120476600E+02  0.71120476600E+02  0.00000000000E+00 0.  1.
         25    2    1    2    0    0 -0.58265264650E+02 -0.17566390037E+03  0.29341949722E+03  0.36877553382E+03  0.12509095106E+03 0.  0.
          5    1    3    3  502    0  0.21594136241E+02 -0.12375461453E+03  0.19286766188E+03  0.23021059649E+03  0.41800000000E+01 0. -1.
         -5    1    3    3    0  502 -0.79859400891E+02 -0.51909285841E+02  0.10055183535E+03  0.13856493733E+03  0.41800000000E+01 0. -1.
        -11    1    1    2    0    0  0.77187564337E+02  0.15123359345E+03  0.20474368659E+03  0.26598777618E+03  0.00000000000E+00 0.  1.
         11    1    1    2    0    0 -0.18922299687E+02  0.24430306927E+02  0.81820838532E+02  0.87461665546E+02  0.00000000000E+00 0. -1.
</event>
<event>
 7    1  0.2480409E-009  0.1161225E+03  0.7561462E-02  0.1249634E+00
         -2   -1    0    0    0  501 -0.00000000000E+00  0.00000000000E+00  0.29098682688E+02  0.29098682688E+02  0.00000000000E+00 0.  1.
          2   -1    0    0  501    0  0.00000000000E+00 -0.00000000000E+00 -0.59613685385E+03  0.59613685385E+03  0.00000000000E+00 0. -1.
         25    2    1    2    0    0  0.47064964700E+02 -0.23481425576E+02 -0.43876274330E+03  0.45926460273E+03  0.12507894374E+03 0.  0.
          5    1    3    3  502    0  0.69013813861E+02  0.29317332577E+02 -0.29699882007E+03  0.30634650972E+03  0.41800000000E+01 0.  1.
         -5    1    3    3    0  502 -0.21948849161E+02 -0.52798758153E+02 -0.14176392322E+03  0.15291809301E+03  0.41800000000E+01 0.  1.
        -11    1    1    2    0    0 -0.60649309934E+02 -0.11996549515E+02 -0.52106663165E+02  0.80853944505E+02  0.00000000000E+00 0.  1.
         11    1    1    2    0    0  0.13584345234E+02  0.35477975091E+02 -0.76168764694E+02  0.85116989297E+02  0.00000000000E+00 0. -1.
</event>
<event>
 7    1  0.2480409E-009  0.3579407E+03  0.7561462E-02  0.1059402E+00
         -2   -1    0    0    0  501 -0.00000000000E+00  0.00000000000E+00  0.57306762051E+02  0.57306762051E+02  0.00000000000E+00 0.  1.
          2   -1    0    0  501    0  0.00000000000E+00 -0.00000000000E+00 -0.24232680130E+04  0.24232680130E+04  0.00000000000E+00 0. -1.
         25    2    1    2    0    0  0.34080605692E+03  0.46599172317E+02 -0.89005909268E+03  0.96237846599E+03  0.12508745761E+03 0.  0.
          5    1    3    3  502    0  0.32255378537E+03  0.74771202695E+02 -0.82676801471E+03  0.89061467524E+03  0.41800000000E+01 0.  1.
         -5    1    3    3    0  502  0.18252271547E+02 -0.28172030378E+02 -0.63291077971E+02  0.71763790751E+02  0.41800000000E+01 0.  1.
        -11    1    1    2    0    0 -0.55740444639E+02  0.18099990480E+02 -0.16502282041E+03  0.17512035313E+03  0.00000000000E+00 0.  1.
         11    1    1    2    0    0 -0.28506561228E+03 -0.64699162797E+02 -0.13108793378E+04  0.13430759559E+04  0.00000000000E+00 0. -1.
</event>
<event>
 7    1  0.2480409E-009  0.8490154E+02  0.7561462E-02  0.1315690E+00
          3   -1    0    0  501    0  0.00000000000E+00  0.00000000000E+00  0.67200744101E+02  0.67200744101E+02  0.00000000000E+00 0. -1.
         -3   -1    0    0    0  501 -0.00000000000E+00 -0.00000000000E+00 -0.21467644724E+03  0.21467644724E+03  0.00000000000E+00 0.  1.
         25    2    1    2    0    0  0.47347535251E+02  0.19855611311E+02 -0.94620326628E+02  0.16504063936E+03  0.12509745015E+03 0.  0.
          5    1    3    3  502    0  0.12336081118E+01 -0.14791524427E+02 -0.10513670682E+03  0.10626151940E+03  0.41800000000E+01 0. -1.
         -5    1    3    3    0  502  0.46113927139E+02  0.34647135738E+02  0.10516380191E+02  0.58779119961E+02  0.41800000000E+01 0. -1.
        -11    1    1    2    0    0  0.17651978560E+02 -0.25822555145E+02 -0.39200868318E+02  0.50150820314E+02  0.00000000000E+00 0.  1.
         11    1    1    2    0    0 -0.64999513810E+02  0.59669438340E+01 -0.13654508193E+02  0.66685731669E+02  0.00000000000E+00 0. -1.
</event>
<event>
 7    1  0.2480409E-009  0.1028605E+03  0.7561462E-02  0.1274393E+00
          1   -1    0    0  501    0  0.00000000000E+00  0.00000000000E+00  0.76612476107E+02  0.76612476107E+02  0.00000000000E+00 0. -1.
         -1   -1    0    0    0  501 -0.00000000000E+00 -0.00000000000E+00 -0.31374213018E+03  0.31374213018E+03  0.00000000000E+00 0.  1.
         25    2    1    2    0    0 -0.57628981558E+02 -0.74645116504E+02 -0.56908522409E+02  0.16666882629E+03  0.12508766846E+03 0.  0.
          5    1    3    3  502    0 -0.56876101053E+02 -0.47049433113E+02  0.26634409407E+02  0.78583739995E+02  0.41800000000E+01 0.  1.
         -5    1    3    3    0  502 -0.75288050528E+00 -0.27595683391E+02 -0.83542931816E+02  0.88085086293E+02  0.41800000000E+01 0.  1.
        -11    1    1    2    0    0  0.54740995891E+02  0.36909302266E+02 -0.17298261617E+03  0.18515360845E+03  0.00000000000E+00 0.  1.
         11    1    1    2    0    0  0.28879856671E+01  0.37735814238E+02 -0.72385154882E+01  0.38532171544E+02  0.00000000000E+00 0. -1.
</event>
<event>
 7    1  0.2768661E-009  0.2178332E+03  0.7561462E-02  0.1135509E+00
         -1   -1    0    0    0  501 -0.00000000000E+00  0.00000000000E+00  0.66736303672E+02  0.66736303672E+02  0.00000000000E+00 0. -1.
          1   -1    0    0  501    0  0.00000000000E+00 -0.00000000000E+00 -0.10021849722E+04  0.10021849722E+04  0.00000000000E+00 0.  1.
         25    2    1    2    0    0  0.20490664416E+03  0.23653813390E+02 -0.71081473170E+03  0.75063360458E+03  0.12508792838E+03 0.  0.
          5    1    3    3  502    0  0.99476061107E+02  0.60316898136E+02 -0.48403960536E+03  0.49784076459E+03  0.41800000000E+01 0.  1.
         -5    1    3    3    0  502  0.10543058305E+03 -0.36663084747E+02 -0.22677512634E+03  0.25279283999E+03  0.41800000000E+01 0.  1.
        -11    1    1    2    0    0 -0.15190637365E+03 -0.72675455328E+01 -0.21281104695E+03  0.26156625409E+03  0.00000000000E+00 0.  1.
         11    1    1    2    0    0 -0.53000270510E+02 -0.16386267857E+02 -0.11822889925E+02  0.56721417247E+02  0.00000000000E+00 0. -1.
</event>
<event>
 7    1  0.2480409E-009  0.1780660E+03  0.7561462E-02  0.1169688E+00
         -2   -1    0    0    0  501 -0.00000000000E+00  0.00000000000E+00  0.45868346456E+02  0.45868346456E+02  0.00000000000E+00 0.  1.
          2   -1    0    0  501    0  0.00000000000E+00 -0.00000000000E+00 -0.10801969503E+04  0.10801969503E+04  0.00000000000E+00 0. -1.
         25    2    1    2    0    0  0.21619705842E+02  0.16563447386E+03 -0.28532369283E+03  0.35349626582E+03  0.12509120530E+03 0.  0.
          5    1    3    3  502    0 -0.29443193483E+02  0.10478027156E+03 -0.85654643388E+02  0.13856405480E+03  0.41800000000E+01 0.  1.
         -5    1    3    3    0  502  0.51062899325E+02  0.60854202304E+02 -0.19966904944E+03  0.21493221101E+03  0.41800000000E+01 0.  1.
        -11    1    1    2    0    0  0.55752125057E-01 -0.50889052093E+02 -0.90822165417E+02  0.10410746593E+03  0.00000000000E+00 0.  1.
         11    1    1    2    0    0 -0.21675457967E+02 -0.11474542177E+03 -0.65818274562E+03  0.66846156503E+03  0.00000000000E+00 0. -1.
</event>
<event>
 7    1  0.2924395E-009  0.1249078E+03  0.7561462E-02  0.1235213E+00
         -2   -1    0    0    0  501 -0.00000000000E+00  0.00000000000E+00  0.48191021057E+02  0.48191021057E+02  0.00000000000E+00 0.  1.
          2   -1    0    0  501    0  0.00000000000E+00 -0.00000000000E+00 -0.43731036113E+03  0.43731036113E+03  0.00000000000E+00 0. -1.
         25    2    1    2    0    0  0.86449576019E+02 -0.50825181684E+01 -0.28108074614E+03  0.31961370121E+03  0.12508865243E+03 0.  0.
          5    1    3    3  502    0  0.94391063147E+02 -0.46217986414E+02 -0.16050680632E+03  0.19190018850E+03  0.41800000000E+01 0.  1.
         -5    1    3    3    0  502 -0.79414871283E+01  0.41135468246E+02 -0.12057393982E+03  0.12771351271E+03  0.41800000000E+01 0.  1.
        -11    1    1    2    0    0 -0.39643863868E+02 -0.25021429791E+02 -0.29489812678E+01  0.46972378923E+02  0.00000000000E+00 0.  1.
         11    1    1    2    0    0 -0.46805712151E+02  0.30103947959E+02 -0.10508961266E+03  0.11891530205E+03  0.00000000000E+00 0. -1.
</event>
<event>
 7    1  0.2480409E-009  0.1123605E+03  0.7561462E-02  0.1256260E+00
          2   -1    0    0  501    0  0.00000000000E+00  0.00000000000E+00  0.55787722555E+03  0.55787722555E+03  0.00000000000E+00 0. -1.
         -2   -1    0    0    0  501 -0.00000000000E+00 -0.00000000000E+00 -0.33893274773E+02  0.33893274773E+02  0.00000000000E+00 0.  1.
         25    2    1    2    0    0 -0.35038258817E+02 -0.74385334603E+02  0.31719683573E+03  0.35074425903E+03  0.12508734974E+03 0.  0.
          5    1    3    3  502    0 -0.72497421156E+02 -0.66558916739E+02  0.28152766940E+03  0.29826375326E+03  0.41800000000E+01 0.  1.
         -5    1    3    3    0  502  0.37459162339E+02 -0.78264178644E+01  0.35669166331E+02  0.52480505775E+02  0.41800000000E+01 0.  1.
        -11    1    1    2    0    0 -0.45206446478E+01  0.19782334707E+02 -0.31423236029E+01  0.20534146978E+02  0.00000000000E+00 0.  1.
         11    1    1    2    0    0  0.39558903465E+02  0.54602999896E+02  0.20992943865E+03  0.22049209431E+03  0.00000000000E+00 0. -1.
</event>
<event>
 7    1  0.2480409E-009  0.2883444E+03  0.7561462E-02  0.1091217E+00
         -2   -1    0    0    0  501 -0.00000000000E+00  0.00000000000E+00  0.75411785687E+02  0.75411785687E+02  0.00000000000E+00 0.  1.
          2   -1    0    0  501    0  0.00000000000E+00 -0.00000000000E+00 -0.12565922975E+04  0.12565922975E+04  0.00000000000E+00 0. -1.
         25    2    1    2    0    0 -0.15506311498E+03  0.22203116774E+03 -0.39202103095E+03  0.49261641887E+03  0.12509211950E+03 0.  0.
          5    1    3    3  502    0 -0.16791143254E+03  0.17782459200E+03 -0.36402466294E+03  0.43857412410E+03  0.41800000000E+01 0. -1.
         -5    1    3    3    0  502  0.12848317563E+02  0.44206575743E+02 -0.27996368011E+02  0.54042294778E+02  0.41800000000E+01 0. -1.
        -11    1    1    2    0    0  0.57478789160E+02 -0.18911045438E+02 -0.17839854957E+03  0.18838121279E+03  0.00000000000E+00 0.  1.
         11    1    1    2    0    0  0.97584325821E+02 -0.20312012230E+03 -0.61076093128E+03  0.65100645151E+03  0.00000000000E+00 0. -1.
</event>
<event>
 7    1  0.2480409E-009  0.2002765E+03  0.7561462E-02  0.1149506E+00
         -1   -1    0    0    0  501 -0.00000000000E+00  0.00000000000E+00  0.91022296083E+02  0.91022296083E+02  0.00000000000E+00 0.  1.
          1   -1    0    0  501    0  0.00000000000E+00 -0.00000000000E+00 -0.63604975114E+03  0.63604975114E+03  0.00000000000E+00 0. -1.
         25    2    1    2    0    0  0.25791553264E+02 -0.18514694895E+03 -0.12765598543E+03  0.25862776765E+03  0.12509066576E+03 0.  0.
          5    1    3    3  502    0  0.65451768993E+02 -0.10521952551E+03 -0.11368698855E+03  0.16821797281E+03  0.41800000000E+01 0.  1.
         -5    1    3    3    0  502 -0.39660215729E+02 -0.79927423439E+02 -0.13968996883E+02  0.90409794841E+02  0.41800000000E+01 0.  1.
        -11    1    1    2    0    0 -0.13862698006E+02  0.62598302876E+02 -0.50966003279E+02  0.81903940133E+02  0.00000000000E+00 0.  1.
         11    1    1    2    0    0 -0.11928855258E+02  0.12254864607E+03 -0.36640546635E+03  0.38654033944E+03  0.00000000000E+00 0. -1.
</event>
<event>
 7    1  0.2480409E-009  0.1100335E+03  0.7561462E-02  0.1260508E+00
         -1   -1    0    0    0  501 -0.00000000000E+00  0.00000000000E+00  0.31206601714E+02  0.31206601714E+02  0.00000000000E+00 0.  1.
          1   -1    0    0  501    0  0.00000000000E+00 -0.00000000000E+00 -0.42641948414E+03  0.42641948414E+03  0.00000000000E+00 0. -1.
         25    2    1    2    0    0 -0.79797589661E+01 -0.42155054781E+02 -0.23118867023E+03  0.26633801840E+03  0.12508802345E+03 0.  0.
          5    1    3    3  502    0  0.26239542240E+02 -0.75050186720E+02 -0.17759907643E+03  0.19462771759E+03  0.41800000000E+01 0. -1.
         -5    1    3    3    0  502 -0.34219301206E+02  0.32895131939E+02 -0.53589593795E+02  0.71710300819E+02  0.41800000000E+01 0. -1.
        -11    1    1    2    0    0 -0.19436365049E+02 -0.18127715287E+02 -0.80024375660E+02  0.84322518034E+02  0.00000000000E+00 0. -1.
         11    1    1    2    0    0  0.27416124015E+02  0.60282770068E+02 -0.83999836538E+02  0.10696554941E+03  0.00000000000E+00 0.  1.
</event>
<event>
 7    1  0.2480409E-009  0.1134229E+03  0.7561462E-02  0.1254359E+00
         -1   -1    0    0    0  501 -0.00000000000E+00  0.00000000000E+00  0.46958945241E+02  0.46958945241E+02  0.00000000000E+00 0.  1.
          1   -1    0    0  501    0  0.00000000000E+00 -0.00000000000E+00 -0.50693510871E+03  0.50693510871E+03  0.00000000000E+00 0. -1.
         25    2    1    2    0    0 -0.83005133530E+02  0.46066766778E+02 -0.15131264360E+03  0.21807091011E+03  0.12508959401E+03 0.  0.
          5    1    3    3  502    0 -0.41316636042E+02  0.43530712250E+02 -0.16361960253E+03  0.17432967061E+03  0.41800000000E+01 0. -1.
         -5    1    3    3    0  502 -0.41688497488E+02  0.25360545282E+01  0.12306958927E+02  0.43741239504E+02  0.41800000000E+01 0. -1.
        -11    1    1    2    0    0  0.79424916091E+02 -0.92930850066E+00 -0.24604887496E+03  0.25855217999E+03  0.00000000000E+00 0. -1.
         11    1    1    2    0    0  0.35802174390E+01 -0.45137458277E+02 -0.62614644914E+02  0.77270963851E+02  0.00000000000E+00 0.  1.
</event>
<event>
 7    1  0.2480409E-009  0.1214110E+03  0.7561462E-02  0.1240787E+00
          1   -1    0    0  501    0  0.00000000000E+00  0.00000000000E+00  0.41710412774E+02  0.41710412774E+02  0.00000000000E+00 0. -1.
         -1   -1    0    0    0  501 -0.00000000000E+00 -0.00000000000E+00 -0.53423986213E+03  0.53423986213E+03  0.00000000000E+00 0.  1.
         25    2    1    2    0    0 -0.18700211938E+02 -0.76544796283E+02 -0.14623741456E+03  0.20794757543E+03  0.12509200193E+03 0.  0.
          5    1    3    3  502    0  0.37186289618E+02 -0.34786055151E+02 -0.62360034939E+01  0.51470864653E+02  0.41800000000E+01 0.  1.
         -5    1    3    3    0  502 -0.55886501556E+02 -0.41758741132E+02 -0.14000141106E+03  0.15647671078E+03  0.41800000000E+01 0.  1.
        -11    1    1    2    0    0 -0.19650634950E+02  0.80891601814E+02 -0.19837563416E+03  0.21513365828E+03  0.00000000000E+00 0. -1.
         11    1    1    2    0    0  0.38350846888E+02 -0.43468055307E+01 -0.14791640065E+03  0.15286904119E+03  0.00000000000E+00 0.  1.
</event>
<event>
 7    1  0.2480409E-009  0.2015713E+03  0.7561462E-02  0.1148420E+00
          2   -1    0    0  501    0  0.00000000000E+00  0.00000000000E+00  0.19825762940E+04  0.19825762940E+04  0.00000000000E+00 0. -1.
         -2   -1    0    0    0  501 -0.00000000000E+00 -0.00000000000E+00 -0.24516982266E+02  0.24516982266E+02  0.00000000000E+00 0.  1.
         25    2    1    2    0    0 -0.19058882024E+03 -0.16109885519E+01  0.11238422916E+04  0.11467322838E+04  0.12508693275E+03 0.  0.
          5    1    3    3  502    0 -0.17061331307E+03 -0.11122767056E+02  0.64279237702E+03  0.66515571929E+03  0.41800000000E+01 0.  1.
         -5    1    3    3    0  502 -0.19975507166E+02  0.95117785038E+01  0.48104991457E+03  0.48157656455E+03  0.41800000000E+01 0.  1.
        -11    1    1    2    0    0  0.32154830693E+02  0.35167221311E+02  0.15851156267E+03  0.16551912909E+03  0.00000000000E+00 0.  1.
         11    1    1    2    0    0  0.15843398954E+03 -0.33556232759E+02  0.67570545743E+03  0.69484186330E+03  0.00000000000E+00 0. -1.
</event>
<event>
 7    1  0.2480409E-009  0.1372524E+03  0.7561462E-02  0.1217075E+00
         -2   -1    0    0    0  501 -0.00000000000E+00  0.00000000000E+00  0.96793012638E+02  0.96793012638E+02  0.00000000000E+00 0.  1.
          2   -1    0    0  501    0  0.00000000000E+00 -0.00000000000E+00 -0.20600741771E+03  0.20600741771E+03  0.00000000000E+00 0. -1.
         25    2    1    2    0    0 -0.89724464591E+02 -0.19745244338E+02 -0.60143168282E+02  0.16644463946E+03  0.12508502345E+03 0.  0.
          5    1    3    3  502    0  0.23168006447E+01 -0.55907369091E+02 -0.18777447459E+02  0.59169810013E+02  0.41800000000E+01 0. -1.
         -5    1    3    3    0  502 -0.92041265236E+02  0.36162124753E+02 -0.41365720823E+02  0.10727482944E+03  0.41800000000E+01 0. -1.
        -11    1    1    2    0    0  0.51711398465E+02 -0.27665385102E+02 -0.64204539364E+00  0.58650272687E+02  0.00000000000E+00 0.  1.
         11    1    1    2    0    0  0.38013066126E+02  0.47410629440E+02 -0.48429191400E+02  0.77705518208E+02  0.00000000000E+00 0. -1.
</event>
<event>
 7    1  0.2480409E-009  0.1055549E+03  0.7561462E-02  0.1269030E+00
          2   -1    0    0  501    0  0.00000000000E+00  0.00000000000E+00  0.23049925025E+03  0.23049925025E+03  0.00000000000E+00 0. -1.
         -2   -1    0    0    0  501 -0.00000000000E+00 -0.00000000000E+00 -0.67700761340E+02  0.67700761340E+02  0.00000000000E+00 0.  1.
         25    2    1    2    0    0  0.28655942625E+02  0.32161496545E+02  0.13709119507E+03  0.19051872100E+03  0.12509141609E+03 0.  0.
          5    1    3    3  502    0 -0.19647591909E+00  0.70978157017E+02  0.11917326534E+03  0.13877203230E+03  0.41800000000E+01 0.  1.
         -5    1    3    3    0  502  0.28852418544E+02 -0.38816660472E+02  0.17917929725E+02  0.51746688702E+02  0.41800000000E+01 0.  1.
        -11    1    1    2    0    0 -0.36674727022E+02 -0.55647390572E+02  0.41268958019E+02  0.78388740107E+02  0.00000000000E+00 0. -1.
         11    1    1    2    0    0  0.80187843972E+01  0.23485894026E+02 -0.15561664180E+02  0.29292550478E+02  0.00000000000E+00 0.  1.
</event>
<event>
 7    1  0.2480409E-009  0.1022121E+03  0.7561462E-02  0.1275712E+00
         -1   -1    0    0    0  501 -0.00000000000E+00  0.00000000000E+00  0.15746352781E+03  0.15746352781E+03  0.00000000000E+00 0.  1.
          1   -1    0    0  501    0  0.00000000000E+00 -0.00000000000E+00 -0.94428446661E+02  0.94428446661E+02  0.00000000000E+00 0. -1.
         25    2    1    2    0    0  0.11122969956E+02  0.56599317157E+01  0.91901216743E+02  0.15572148535E+03  0.12509033564E+03 0.  0.
          5    1    3    3  502    0  0.27917838626E+02 -0.53183808032E+02  0.65425640749E+02  0.88915184405E+02  0.41800000000E+01 0.  1.
         -5    1    3    3    0  502 -0.16794868670E+02  0.58843739748E+02  0.26475575994E+02  0.66806300941E+02  0.41800000000E+01 0.  1.
        -11    1    1    2    0    0  0.35770336633E+02 -0.15531345832E+01 -0.33291396623E+02  0.48890145214E+02  0.00000000000E+00 0. -1.
         11    1    1    2    0    0 -0.46893306589E+02 -0.41067971325E+01  0.44252610333E+01  0.47280343916E+02  0.00000000000E+00 0.  1.
</event>
<event>
 7    1  0.2480409E-009  0.1449128E+03  0.7561462E-02  0.1206867E+00
         -2   -1    0    0    0  501 -0.00000000000E+00  0.00000000000E+00  0.13181788095E+03  0.13181788095E+03  0.00000000000E+00 0.  1.
          2   -1    0    0  501    0  0.00000000000E+00 -0.00000000000E+00 -0.20590725136E+03  0.20590725136E+03  0.00000000000E+00 0. -1.
         25    2    1    2    0    0 -0.16120006082E+02 -0.13287039861E+03 -0.68705022892E+02  0.19565994626E+03  0.12509211397E+03 0.  0.
          5    1    3    3  502    0 -0.13835404430E+02 -0.13922621234E+03 -0.14327897446E+02  0.14070578404E+03  0.41800000000E+01 0.  1.
         -5    1    3    3    0  502 -0.22846016520E+01  0.63558137312E+01 -0.54377125446E+02  0.54954162214E+02  0.41800000000E+01 0.  1.
        -11    1    1    2    0    0  0.19959481376E+01  0.12632602124E+03 -0.35583057472E+01  0.12639188658E+03  0.00000000000E+00 0.  1.
         11    1    1    2    0    0  0.14124057944E+02  0.65443773647E+01 -0.18260417637E+01  0.15673299475E+02  0.00000000000E+00 0. -1.
</event>
<event>
 7    1  0.2480409E-009  0.1331186E+03  0.7561462E-02  0.1222900E+00
         -1   -1    0    0    0  501 -0.00000000000E+00  0.00000000000E+00  0.72485820272E+02  0.72485820272E+02  0.00000000000E+00 0.  1.
          1   -1    0    0  501    0  0.00000000000E+00 -0.00000000000E+00 -0.35541293917E+03  0.35541293917E+03  0.00000000000E+00 0. -1.
         25    2    1    2    0    0  0.83296541576E+02 -0.68959251828E+02 -0.64304768555E+02  0.17741422033E+03  0.12508800927E+03 0.  0.
          5    1    3    3  502    0  0.88410602375E+02 -0.14709040954E+02  0.41508555470E+01  0.89819221216E+02  0.41800000000E+01 0.  1.
         -5    1    3    3    0  502 -0.51140607994E+01 -0.54250210874E+02 -0.68455624102E+02  0.87594999109E+02  0.41800000000E+01 0.  1.
        -11    1    1    2    0    0 -0.19283023498E+02  0.52264661675E+02 -0.89992538385E+02  0.10583991128E+03  0.00000000000E+00 0.  1.
         11    1    1    2    0    0 -0.64013518078E+02  0.16694590153E+02 -0.12862981195E+03  0.14464462783E+03  0.00000000000E+00 0. -1.
</event>
<event>
 7    1  0.2480409E-009  0.6985826E+02  0.7561462E-02  0.1360576E+00
         -3   -1    0    0    0  501 -0.00000000000E+00  0.00000000000E+00  0.18084307394E+03  0.18084307394E+03  0.00000000000E+00 0.  1.
          3   -1    0    0  501    0  0.00000000000E+00 -0.00000000000E+00 -0.79039640525E+02  0.79039640525E+02  0.00000000000E+00 0. -1.
         25    2    1    2    0    0 -0.36523351098E+01 -0.23739986475E+02  0.11674967758E+03  0.17278443108E+03  0.12508815251E+03 0.  0.
          5    1    3    3  502    0  0.24827194735E+02 -0.96291781245E+01 -0.19207805237E+02  0.33098683535E+02  0.41800000000E+01 0.  1.
         -5    1    3    3    0  502 -0.28479529844E+02 -0.14110808351E+02  0.13595748282E+03  0.13968574755E+03  0.41800000000E+01 0.  1.
        -11    1    1    2    0    0 -0.18712495798E+01  0.51937184362E+02 -0.23617074781E+02  0.57085365162E+02  0.00000000000E+00 0.  1.
         11    1    1    2    0    0  0.55235846896E+01 -0.28197197886E+02  0.86708306089E+01  0.30012918217E+02  0.00000000000E+00 0. -1.
</event>
<event>
 7    1  0.2480409E-009  0.2572517E+03  0.7561462E-02  0.1108806E+00
          3   -1    0    0  501    0  0.00000000000E+00  0.00000000000E+00  0.13765972484E+03  0.13765972484E+03  0.00000000000E+00 0. -1.
         -3   -1    0    0    0  501 -0.00000000000E+00 -0.00000000000E+00 -0.54299137609E+03  0.54299137609E+03  0.00000000000E+00 0.  1.
         25    2    1    2    0    0 -0.15044475278E+03 -0.19734760916E+03 -0.25249059186E+03  0.37547393869E+03  0.12509787040E+03 0.  0.
          5    1    3    3  502    0 -0.33361671985E+01 -0.20680409618E+02  0.12407151172E+02  0.24702614310E+02  0.41800000000E+01 0.  1.
         -5    1    3    3    0  502 -0.14710858559E+03 -0.17666719955E+03 -0.26489774303E+03  0.35077132438E+03  0.41800000000E+01 0.  1.
        -11    1    1    2    0    0  0.49874891931E+02  0.13729539925E+03 -0.97525003420E+02  0.17563785979E+03  0.00000000000E+00 0.  1.
         11    1    1    2    0    0  0.10056986085E+03  0.60052209912E+02 -0.55316055977E+02  0.12953930244E+03  0.00000000000E+00 0. -1.
</event>
<event>
 7    1  0.2480409E-009  0.7934267E+02  0.7561462E-02  0.1330927E+00
          2   -1    0    0  501    0  0.00000000000E+00  0.00000000000E+00  0.15362703559E+03  0.15362703559E+03  0.00000000000E+00 0. -1.
         -2   -1    0    0    0  501 -0.00000000000E+00 -0.00000000000E+00 -0.12070306662E+03  0.12070306662E+03  0.00000000000E+00 0.  1.
         25    2    1    2    0    0 -0.99601093457E+01  0.16616235095E+01  0.99779982747E+02  0.16032183329E+03  0.12508029621E+03 0.  0.
          5    1    3    3  502    0 -0.45132462961E+02 -0.13816911063E+02 -0.59411637350E+01  0.47755796201E+02  0.41800000000E+01 0.  1.
         -5    1    3    3    0  502  0.35172353616E+02  0.15478534573E+02  0.10572114648E+03  0.11256603708E+03  0.41800000000E+01 0.  1.
        -11    1    1    2    0    0 -0.11775182463E+02 -0.32699311688E+02 -0.67708295660E+02  0.76107248066E+02  0.00000000000E+00 0.  1.
         11    1    1    2    0    0  0.21735291809E+02  0.31037688179E+02  0.85228187854E+00  0.37901020855E+02  0.00000000000E+00 0. -1.
</event>
<event>
 7    1  0.2480409E-009  0.6883001E+02  0.7561462E-02  0.1364117E+00
         -1   -1    0    0    0  501 -0.00000000000E+00  0.00000000000E+00  0.10556940043E+03  0.10556940043E+03  0.00000000000E+00 0.  1.
          1   -1    0    0  501    0  0.00000000000E+00 -0.00000000000E+00 -0.13800593009E+03  0.13800593009E+03  0.00000000000E+00 0. -1.
         25    2    1    2    0    0  0.24170579025E+02  0.43328188953E+02 -0.36324955487E+02  0.13938670941E+03  0.12509038141E+03 0.  0.
          5    1    3    3  502    0  0.31833253478E+02  0.41923269552E+02 -0.79431909977E+02  0.95382478892E+02  0.41800000000E+01 0. -1.
         -5    1    3    3    0  502 -0.76626744529E+01  0.14049194015E+01  0.43106954490E+02  0.44004230521E+02  0.41800000000E+01 0. -1.
        -11    1    1    2    0    0 -0.39923170012E+02 -0.13257311574E+02  0.37545312577E+02  0.56384983023E+02  0.00000000000E+00 0.  1.
         11    1    1    2    0    0  0.15752590987E+02 -0.30070877380E+02 -0.33656886748E+02  0.47803638091E+02  0.00000000000E+00 0. -1.
</event>
<event>
 7    1  0.2480409E-009  0.1223959E+03  0.7561462E-02  0.1239196E+00
          2   -1    0    0  501    0  0.00000000000E+00  0.00000000000E+00  0.17077113396E+02  0.17077113396E+02  0.00000000000E+00 0. -1.
         -2   -1    0    0    0  501 -0.00000000000E+00 -0.00000000000E+00 -0.98812732151E+03  0.98812732151E+03  0.00000000000E+00 0.  1.
         25    2    1    2    0    0 -0.52371010249E+02  0.46801900719E+02 -0.47714078762E+03  0.49824143504E+03  0.12509218900E+03 0.  0.
          5    1    3    3  502    0 -0.53852998140E+02 -0.24315512493E+02 -0.11724182114E+03  0.13135641050E+03  0.41800000000E+01 0.  1.
         -5    1    3    3    0  502  0.14819878902E+01  0.71117413211E+02 -0.35989896649E+03  0.36688502453E+03  0.41800000000E+01 0.  1.
        -11    1    1    2    0    0 -0.19634492500E+02 -0.36656724033E+02 -0.18090044480E+03  0.18561842485E+03  0.00000000000E+00 0. -1.
         11    1    1    2    0    0  0.72005502749E+02 -0.10145176686E+02 -0.31300897568E+03  0.32134457502E+03  0.00000000000E+00 0.  1.
</event>
<event>
 7    1  0.2480409E-009  0.1017834E+03  0.7561462E-02  0.1276590E+00
          1   -1    0    0  501    0  0.00000000000E+00  0.00000000000E+00  0.53221456106E+02  0.53221456106E+02  0.00000000000E+00 0. -1.
         -1   -1    0    0    0  501 -0.00000000000E+00 -0.00000000000E+00 -0.35450507993E+03  0.35450507993E+03  0.00000000000E+00 0.  1.
         25    2    1    2    0    0  0.31692594534E+02  0.70111427891E+02 -0.11543870195E+03  0.18679713895E+03  0.12508814629E+03 0.  0.
          5    1    3    3  502    0  0.18683728630E+02  0.88899028689E+02 -0.13053795625E+03  0.15909038136E+03  0.41800000000E+01 0.  1.
         -5    1    3    3    0  502  0.13008865904E+02 -0.18787600798E+02  0.15099254304E+02  0.27706757594E+02  0.41800000000E+01 0.  1.
        -11    1    1    2    0    0  0.10780146519E+02 -0.55652757555E+01  0.64154188408E+01  0.13723755029E+02  0.00000000000E+00 0. -1.
         11    1    1    2    0    0 -0.42472741053E+02 -0.64546152136E+02 -0.19226034071E+03  0.20720564205E+03  0.00000000000E+00 0.  1.
</event>
<event>
 7    1  0.2480409E-009  0.1319321E+03  0.7561462E-02  0.1224617E+00
         -2   -1    0    0    0  501 -0.00000000000E+00  0.00000000000E+00  0.24775706349E+03  0.24775706349E+03  0.00000000000E+00 0.  1.
          2   -1    0    0  501    0  0.00000000000E+00 -0.00000000000E+00 -0.83879220481E+02  0.83879220481E+02  0.00000000000E+00 0. -1.
         25    2    1    2    0    0 -0.65833156645E+02 -0.63550381472E+02  0.10245274477E+03  0.18578470660E+03  0.12508691697E+03 0.  0.
          5    1    3    3  502    0 -0.30080688862E+02 -0.90448974775E+02  0.29079006702E+02  0.99744302649E+02  0.41800000000E+01 0. -1.
         -5    1    3    3    0  502 -0.35752467782E+02  0.26898593302E+02  0.73373738064E+02  0.86040403949E+02  0.41800000000E+01 0. -1.
        -11    1    1    2    0    0 -0.17374561713E+02 -0.21373241128E+01 -0.78787615384E+01  0.19196833918E+02  0.00000000000E+00 0. -1.
         11    1    1    2    0    0  0.83207718358E+02  0.65687705585E+02  0.69303859782E+02  0.12665474346E+03  0.00000000000E+00 0.  1.
</event>
<event>
 7    1  0.2480409E-009  0.1078188E+03  0.7561462E-02  0.1264663E+00
         -1   -1    0    0    0  501 -0.00000000000E+00  0.00000000000E+00  0.27257000291E+02  0.27257000291E+02  0.00000000000E+00 0.  1.
          1   -1    0    0  501    0  0.00000000000E+00 -0.00000000000E+00 -0.84293053860E+03  0.84293053860E+03  0.00000000000E+00 0. -1.
         25    2    1    2    0    0  0.46807573747E+02 -0.68003897642E+02 -0.62576946662E+03  0.64346843725E+03  0.12509486532E+03 0.  0.
          5    1    3    3  502    0  0.27471816410E+01  0.21750067479E+02 -0.21571029875E+02  0.31038591659E+02  0.41800000000E+01 0. -1.
         -5    1    3    3    0  502  0.44060392106E+02 -0.89753965121E+02 -0.60419843674E+03  0.61242984559E+03  0.41800000000E+01 0. -1.
        -11    1    1    2    0    0 -0.35768750791E+02  0.14466763686E+02 -0.11698324804E+02  0.40318005754E+02  0.00000000000E+00 0.  1.
         11    1    1    2    0    0 -0.11038822955E+02  0.53537133956E+02 -0.17820574689E+03  0.18640109589E+03  0.00000000000E+00 0. -1.
</event>
<event>
 7    1  0.2480409E-009  0.1127623E+03  0.7561462E-02  0.1255538E+00
          2   -1    0    0  501    0  0.00000000000E+00  0.00000000000E+00  0.11747605047E+04  0.11747605047E+04  0.00000000000E+00 0.  1.
         -2   -1    0    0    0  501 -0.00000000000E+00 -0.00000000000E+00 -0.17006064973E+02  0.17006064973E+02  0.00000000000E+00 0. -1.
         25    2    1    2    0    0  0.76756534742E+02  0.31391681992E+02  0.78445834287E+03  0.79868570839E+03  0.12508783223E+03 0.  0.
          5    1    3    3  502    0 -0.46403824429E+01 -0.14313432362E+02  0.98546670662E+01  0.18466032552E+02  0.41800000000E+01 0.  1.
         -5    1    3    3    0  502  0.81396917185E+02  0.45705114355E+02  0.77460367580E+03  0.78021967584E+03  0.41800000000E+01 0.  1.
        -11    1    1    2    0    0 -0.71858069492E+02  0.11950663506E+02  0.16654999175E+03  0.18178366336E+03  0.00000000000E+00 0.  1.
         11    1    1    2    0    0 -0.48984652497E+01 -0.43342345498E+02  0.20674610515E+03  0.21129719797E+03  0.00000000000E+00 0. -1.
</event>
<event>
 7    1  0.2480409E-009  0.1599684E+03  0.7561462E-02  0.1188732E+00
          2   -1    0    0  501    0  0.00000000000E+00  0.00000000000E+00  0.33429143033E+03  0.33429143033E+03  0.00000000000E+00 0. -1.
         -2   -1    0    0    0  501 -0.00000000000E+00 -0.00000000000E+00 -0.10477051908E+03  0.10477051908E+03  0.00000000000E+00 0.  1.
         25    2    1    2    0    0 -0.13026833053E+03  0.69912364195E+02  0.11757464982E+03  0.22656053046E+03  0.12509316157E+03 0.  0.
          5    1    3    3  502    0  0.34446851072E+01  0.13793325711E+02 -0.21157165778E+02  0.25830597233E+02  0.41800000000E+01 0. -1.
         -5    1    3    3    0  502 -0.13371301564E+03  0.56119038484E+02  0.13873181560E+03  0.20072993322E+03  0.41800000000E+01 0. -1.
        -11    1    1    2    0    0  0.82178122575E+02 -0.75546390736E+02  0.27190951251E+02  0.11489059497E+03  0.00000000000E+00 0.  1.
         11    1    1    2    0    0  0.48090207958E+02  0.56340265411E+01  0.84755310178E+02  0.97610823989E+02  0.00000000000E+00 0. -1.
</event>
<event>
 7    1  0.2480409E-009  0.1044301E+03  0.7561462E-02  0.1271247E+00
          2   -1    0    0  501    0  0.00000000000E+00  0.00000000000E+00  0.31383229313E+03  0.31383229313E+03  0.00000000000E+00 0. -1.
         -2   -1    0    0    0  501 -0.00000000000E+00 -0.00000000000E+00 -0.46750415747E+02  0.46750415747E+02  0.00000000000E+00 0.  1.
         25    2    1    2    0    0  0.33651836158E+02 -0.29157626861E+02  0.10961092165E+03  0.17217515994E+03  0.12508844181E+03 0.  0.
          5    1    3    3  502    0 -0.25469114930E+02 -0.41922384446E+02  0.99084291014E+02  0.11064054979E+03  0.41800000000E+01 0.  1.
         -5    1    3    3    0  502  0.59120951087E+02  0.12764757585E+02  0.10526630641E+02  0.61534610150E+02  0.41800000000E+01 0.  1.
        -11    1    1    2    0    0  0.24785710039E+02 -0.11987928179E+02  0.71446371180E+02  0.76567785647E+02  0.00000000000E+00 0.  1.
         11    1    1    2    0    0 -0.58437546197E+02  0.41145555040E+02  0.86024584551E+02  0.11183976329E+03  0.00000000000E+00 0. -1.
</event>
<event>
 7    1  0.2917057E-009  0.7215851E+02  0.7561462E-02  0.1352903E+00
         -2   -1    0    0    0  501 -0.00000000000E+00  0.00000000000E+00  0.17875426220E+02  0.17875426220E+02  0.00000000000E+00 0.  1.
          2   -1    0    0  501    0  0.00000000000E+00 -0.00000000000E+00 -0.75447576437E+03  0.75447576437E+03  0.00000000000E+00 0. -1.
         25    2    1    2    0    0 -0.31472216177E+02  0.17680476406E+01 -0.32566674048E+03  0.35028652367E+03  0.12509275130E+03 0.  0.
          5    1    3    3  502    0 -0.31645241714E+02  0.14439068587E+02 -0.13050723097E+02  0.37385850240E+02  0.41800000000E+01 0.  1.
         -5    1    3    3    0  502  0.17302553696E+00 -0.12671020946E+02 -0.31261601738E+03  0.31290067343E+03  0.41800000000E+01 0.  1.
        -11    1    1    2    0    0 -0.17633903041E+02 -0.33229909285E+02 -0.17908360028E+03  0.18299212359E+03  0.00000000000E+00 0. -1.
         11    1    1    2    0    0  0.49106119218E+02  0.31461861644E+02 -0.23184999740E+03  0.23907254333E+03  0.00000000000E+00 0.  1.
</event>
<event>
 7    1  0.2480409E-009  0.1476089E+03  0.7561462E-02  0.1203442E+00
         -1   -1    0    0    0  501 -0.00000000000E+00  0.00000000000E+00  0.71789371163E+02  0.71789371163E+02  0.00000000000E+00 0.  1.
          1   -1    0    0  501    0  0.00000000000E+00 -0.00000000000E+00 -0.33576808157E+03  0.33576808157E+03  0.00000000000E+00 0. -1.
         25    2    1    2    0    0 -0.10152966816E+03  0.43509118647E+02 -0.14928597645E+03  0.22390950262E+03  0.12509134933E+03 0.  0.
          5    1    3    3  502    0 -0.11747255397E+03  0.60121359937E+02 -0.15083503125E+03  0.20045712237E+03  0.41800000000E+01 0.  1.
         -5    1    3    3    0  502  0.15942885811E+02 -0.16612241291E+02  0.15490547971E+01  0.23452380251E+02  0.41800000000E+01 0.  1.
        -11    1    1    2    0    0 -0.34210833497E+01  0.17877262417E+02 -0.31315436099E+02  0.36220945058E+02  0.00000000000E+00 0. -1.
         11    1    1    2    0    0  0.10495075151E+03 -0.61386381064E+02 -0.83377297859E+02  0.14742700506E+03  0.00000000000E+00 0.  1.
</event>
<event>
 7    1  0.2480409E-009  0.1092578E+03  0.7561462E-02  0.1261950E+00
          2   -1    0    0  501    0  0.00000000000E+00  0.00000000000E+00  0.55128128949E+03  0.55128128949E+03  0.00000000000E+00 0. -1.
         -2   -1    0    0    0  501 -0.00000000000E+00 -0.00000000000E+00 -0.27166939992E+02  0.27166939992E+02  0.00000000000E+00 0.  1.
         25    2    1    2    0    0 -0.35940506698E+02  0.40824474010E+02  0.31292008243E+03  0.34135834684E+03  0.12509270671E+03 0.  0.
          5    1    3    3  502    0  0.32905771245E+02  0.26121230004E+02  0.35644886128E+02  0.55255214643E+02  0.41800000000E+01 0. -1.
         -5    1    3    3    0  502 -0.68846277943E+02  0.14703244006E+02  0.27727519630E+03  0.28610313220E+03  0.41800000000E+01 0. -1.
        -11    1    1    2    0    0  0.61418340036E+02 -0.47416472059E+01  0.10009407278E+03  0.11753092834E+03  0.00000000000E+00 0.  1.
         11    1    1    2    0    0 -0.25477833338E+02 -0.36082826805E+02  0.11110019429E+03  0.11955895430E+03  0.00000000000E+00 0. -1.
</event>
<event>
 7    1  0.2480409E-009  0.1283573E+03  0.7561462E-02  0.1229914E+00
          3   -1    0    0  501    0  0.00000000000E+00  0.00000000000E+00  0.35068589880E+03  0.35068589880E+03  0.00000000000E+00 0. -1.
         -3   -1    0    0    0  501 -0.00000000000E+00 -0.00000000000E+00 -0.57690770641E+02  0.57690770641E+02  0.00000000000E+00 0.  1.
         25    2    1    2    0    0 -0.11686427980E+02 -0.77599076413E+02  0.22765963866E+03  0.27135670779E+03  0.12508941815E+03 0.  0.
          5    1    3    3  502    0  0.56033306393E+02 -0.32300202112E+02  0.83339175278E+02  0.10557426305E+03  0.41800000000E+01 0. -1.
         -5    1    3    3    0  502 -0.67719734373E+02 -0.45298874301E+02  0.14432046338E+03  0.16578244475E+03  0.41800000000E+01 0. -1.
        -11    1    1    2    0    0  0.26246803975E+01  0.92686126768E+02  0.29849428574E+02  0.97409421662E+02  0.00000000000E+00 0.  1.
         11    1    1    2    0    0  0.90617475826E+01 -0.15087050354E+02  0.35486060924E+02  0.39610539980E+02  0.00000000000E+00 0. -1.
</event>
<event>
 7    1  0.2480409E-009  0.9197537E+02  0.7561462E-02  0.1298137E+00
          1   -1    0    0  501    0  0.00000000000E+00  0.00000000000E+00  0.22223777661E+03  0.22223777661E+03  0.00000000000E+00 0. -1.
         -1   -1    0    0    0  501 -0.00000000000E+00 -0.00000000000E+00 -0.69173470419E+02  0.69173470419E+02  0.00000000000E+00 0.  1.
         25    2    1    2    0    0 -0.21448311739E+01 -0.59282977544E+02  0.79516917140E+02  0.15965468792E+03  0.12509039746E+03 0.  0.
          5    1    3    3  502    0  0.25162684678E+02 -0.83625153995E+02  0.20028854355E+02  0.89693670276E+02  0.41800000000E+01 0. -1.
         -5    1    3    3    0  502 -0.27307515852E+02  0.24342176451E+02  0.59488062786E+02  0.69961017648E+02  0.41800000000E+01 0. -1.
        -11    1    1    2    0    0  0.45834015163E+01  0.41545003556E+02  0.95015206412E+02  0.10380214034E+03  0.00000000000E+00 0. -1.
         11    1    1    2    0    0 -0.24385703424E+01  0.17737973988E+02 -0.21467817358E+02  0.27954418767E+02  0.00000000000E+00 0.  1.
</event>
<event>
 7    1  0.3067503E-009  0.1203859E+03  0.7561462E-02  0.1242462E+00
         -3   -1    0    0    0  501 -0.00000000000E+00  0.00000000000E+00  0.83203539201E+02  0.83203539201E+02  0.00000000000E+00 0.  1.
          3   -1    0    0  501    0  0.00000000000E+00 -0.00000000000E+00 -0.20563379258E+03  0.20563379258E+03  0.00000000000E+00 0. -1.
         25    2    1    2    0    0 -0.36573513867E+02 -0.55162547325E+02 -0.10189351789E+03  0.17438534606E+03  0.12508969338E+03 0.  0.
          5    1    3    3  502    0  0.27792899171E+02  0.21233067076E+02 -0.51568430098E+02  0.62450490507E+02  0.41800000000E+01 0.  1.
         -5    1    3    3    0  502 -0.64366413038E+02 -0.76395614401E+02 -0.50325087788E+02  0.11193485555E+03  0.41800000000E+01 0.  1.
        -11    1    1    2    0    0  0.17649186534E+02 -0.20800099808E+02 -0.23653157757E+02  0.36105537099E+02  0.00000000000E+00 0. -1.
         11    1    1    2    0    0  0.18924327333E+02  0.75962647133E+02  0.31164222601E+01  0.78346448625E+02  0.00000000000E+00 0.  1.
</event>
<event>
 7    1  0.2480409E-009  0.1074249E+03  0.7561462E-02  0.1265414E+00
         -1   -1    0    0    0  501 -0.00000000000E+00  0.00000000000E+00  0.53627983531E+02  0.53627983531E+02  0.00000000000E+00 0.  1.
          1   -1    0    0  501    0  0.00000000000E+00 -0.00000000000E+00 -0.33411009119E+03  0.33411009119E+03  0.00000000000E+00 0. -1.
         25    2    1    2    0    0 -0.77591638976E+02  0.32169203589E+00 -0.16586596361E+03  0.22176279603E+03  0.12508658558E+03 0.  0.
          5    1    3    3  502    0  0.28725847201E+01 -0.20859761015E+02  0.12541307500E+02  0.24862384568E+02  0.41800000000E+01 0. -1.
         -5    1    3    3    0  502 -0.80464223696E+02  0.21181453051E+02 -0.17840727111E+03  0.19690041146E+03  0.41800000000E+01 0. -1.
        -11    1    1    2    0    0  0.93823839588E+02 -0.92943182709E+00 -0.65996775997E+02  0.11471421516E+03  0.00000000000E+00 0.  1.
         11    1    1    2    0    0 -0.16232200612E+02  0.60773979119E+00 -0.48619368051E+02  0.51261063529E+02  0.00000000000E+00 0. -1.
</event>
<event>
 7    1  0.2480409E-009  0.1419926E+03  0.7561462E-02  0.1210673E+00
          3   -1    0    0  501    0  0.00000000000E+00  0.00000000000E+00  0.21479337742E+03  0.21479337742E+03  0.00000000000E+00 0. -1.
         -3   -1    0    0    0  501 -0.00000000000E+00 -0.00000000000E+00 -0.13907331997E+03  0.13907331997E+03  0.00000000000E+00 0.  1.
         25    2    1    2    0    0  0.81595933509E+02  0.96223706738E+02 -0.62254492501E+01  0.17776853271E+03  0.12508395941E+03 0.  0.
          5    1    3    3  502    0  0.42935414120E+02  0.26231499217E+02 -0.62172405226E+02  0.80090084957E+02  0.41800000000E+01 0.  1.
         -5    1    3    3    0  502  0.38660519388E+02  0.69992207521E+02  0.55946955976E+02  0.97678447756E+02  0.41800000000E+01 0.  1.
        -11    1    1    2    0    0  0.18688440047E+02 -0.10127027283E+02  0.13667738764E+01  0.21299824971E+02  0.00000000000E+00 0. -1.
         11    1    1    2    0    0 -0.10028437356E+03 -0.86096679455E+02  0.80578732819E+02  0.15479833970E+03  0.00000000000E+00 0.  1.
</event>
<event>
 7    1  0.2480409E-009  0.9733171E+02  0.7561462E-02  0.1286009E+00
         -2   -1    0    0    0  501 -0.00000000000E+00  0.00000000000E+00  0.73846451779E+02  0.73846451779E+02  0.00000000000E+00 0.  1.
          2   -1    0    0  501    0  0.00000000000E+00 -0.00000000000E+00 -0.16431775547E+03  0.16431775547E+03  0.00000000000E+00 0. -1.
         25    2    1    2    0    0 -0.15878885283E+02  0.28158747372E+01 -0.60330527749E+02  0.13981275913E+03  0.12509103441E+03 0.  0.
          5    1    3    3  502    0 -0.29922676780E+02 -0.57011681383E+02 -0.31646150143E+02  0.71865496719E+02  0.41800000000E+01 0.  1.
         -5    1    3    3    0  502  0.14043791497E+02  0.59827556121E+02 -0.28684377606E+02  0.67947262414E+02  0.41800000000E+01 0.  1.
        -11    1    1    2    0    0  0.36904114185E+02  0.16099868384E+02  0.16736777282E+02  0.43603200795E+02  0.00000000000E+00 0.  1.
         11    1    1    2    0    0 -0.21025228903E+02 -0.18915743122E+02 -0.46877553225E+02  0.54748247320E+02  0.00000000000E+00 0. -1.
</event>
<event>
 7    1  0.2480409E-009  0.1164270E+03  0.7561462E-02  0.1249111E+00
          2   -1    0    0  501    0  0.00000000000E+00  0.00000000000E+00  0.54008333488E+03  0.54008333488E+03  0.00000000000E+00 0. -1.
         -2   -1    0    0    0  501 -0.00000000000E+00 -0.00000000000E+00 -0.34169447851E+02  0.34169447851E+02  0.00000000000E+00 0.  1.
         25    2    1    2    0    0 -0.60031257089E+02 -0.51155954879E+02  0.24719701860E+03  0.28805310570E+03  0.12509013612E+03 0.  0.
          5    1    3    3  502    0 -0.64959039123E+02 -0.63804084286E+01  0.23087281020E+03  0.23995856572E+03  0.41800000000E+01 0.  1.
         -5    1    3    3    0  502  0.49277820344E+01 -0.44775546450E+02  0.16324208399E+02  0.48094539977E+02  0.41800000000E+01 0.  1.
        -11    1    1    2    0    0  0.72563092332E+02  0.31900279886E+01  0.16102993712E+03  0.17665282137E+03  0.00000000000E+00 0. -1.
         11    1    1    2    0    0 -0.12531835244E+02  0.47965926890E+02  0.97686931308E+02  0.10954685566E+03  0.00000000000E+00 0.  1.
</event>
<event>
 7    1  0.2480409E-009  0.1190131E+03  0.7561462E-02  0.1244734E+00
          2   -1    0    0  501    0  0.00000000000E+00  0.00000000000E+00  0.20172111380E+03  0.20172111380E+03  0.00000000000E+00 0. -1.
         -2   -1    0    0    0  501 -0.00000000000E+00 -0.00000000000E+00 -0.72015400190E+02  0.72015400190E+02  0.00000000000E+00 0.  1.
         25    2    1    2    0    0 -0.11188966677E+01 -0.46649322131E+02  0.90536949053E+02  0.16131460329E+03  0.12509216964E+03 0.  0.
          5    1    3    3  502    0 -0.60022020300E+02 -0.39471508578E+01  0.46758518960E+02  0.76302388011E+02  0.41800000000E+01 0. -1.
         -5    1    3    3    0  502  0.58903123633E+02 -0.42702171274E+02  0.43778430092E+02  0.85012215278E+02  0.41800000000E+01 0. -1.
        -11    1    1    2    0    0 -0.43789773850E+02  0.40279938845E+02  0.27735211365E+02  0.65644951951E+02  0.00000000000E+00 0.  1.
         11    1    1    2    0    0  0.44908670518E+02  0.63693832867E+01  0.11433553191E+02  0.46776958748E+02  0.00000000000E+00 0. -1.
</event>
<event>
 7    1  0.2480409E-009  0.1440827E+03  0.7561462E-02  0.1207939E+00
         -2   -1    0    0    0  501 -0.00000000000E+00  0.00000000000E+00  0.58640820886E+02  0.58640820886E+02  0.00000000000E+00 0.  1.
          2   -1    0    0  501    0  0.00000000000E+00 -0.00000000000E+00 -0.43615274153E+03  0.43615274153E+03  0.00000000000E+00 0. -1.
         25    2    1    2    0    0 -0.15485243489E+02  0.11468069758E+03 -0.21883576183E+03  0.27735828664E+03  0.12508826224E+03 0.  0.
          5    1    3    3  502    0  0.27316872874E+02  0.12338979503E+03 -0.15865297490E+03  0.20287802224E+03  0.41800000000E+01 0.  1.
         -5    1    3    3    0  502 -0.42802116363E+02 -0.87090974475E+01 -0.60182786933E+02  0.74480264410E+02  0.41800000000E+01 0.  1.
        -11    1    1    2    0    0  0.21264951112E+02 -0.93224595811E+02 -0.52751706016E+02  0.10920515509E+03  0.00000000000E+00 0.  1.
         11    1    1    2    0    0 -0.57797076230E+01 -0.21456101773E+02 -0.10592445279E+03  0.10823012068E+03  0.00000000000E+00 0. -1.
</event>
<event>
 7    1  0.2480409E-009  0.8105432E+02  0.7561462E-02  0.1326086E+00
          1   -1    0    0  501    0  0.00000000000E+00  0.00000000000E+00  0.56516159403E+03  0.56516159403E+03  0.00000000000E+00 0. -1.
         -1   -1    0    0    0  501 -0.00000000000E+00 -0.00000000000E+00 -0.20984839647E+02  0.20984839647E+02  0.00000000000E+00 0.  1.
         25    2    1    2    0    0  0.32451955497E+01  0.46502351167E+01  0.33354345314E+03  0.35627491376E+03  0.12509365716E+03 0.  0.
          5    1    3    3  502    0 -0.11578206677E+02  0.45145044206E+02  0.29373329459E+03  0.29743713728E+03  0.41800000000E+01 0. -1.
         -5    1    3    3    0  502  0.14823402227E+02 -0.40494809090E+02  0.39810158547E+02  0.58837776474E+02  0.41800000000E+01 0. -1.
        -11    1    1    2    0    0 -0.23009308681E+02 -0.31277969916E+02  0.38890106338E+02  0.54956164886E+02  0.00000000000E+00 0. -1.
         11    1    1    2    0    0  0.19764113131E+02  0.26627734800E+02  0.17174319491E+03  0.17491535504E+03  0.00000000000E+00 0.  1.
</event>
<event>
 7    1  0.3473484E-009  0.1154462E+03  0.7561462E-02  0.1250804E+00
         -1   -1    0    0    0  501 -0.00000000000E+00  0.00000000000E+00  0.17572930127E+02  0.17572930127E+02  0.00000000000E+00 0.  1.
          1   -1    0    0  501    0  0.00000000000E+00 -0.00000000000E+00 -0.11295018537E+04  0.11295018537E+04  0.00000000000E+00 0. -1.
         25    2    1    2    0    0  0.68471934000E+02 -0.54663716958E+02 -0.68017949419E+03  0.69711384651E+03  0.12508814089E+03 0.  0.
          5    1    3    3  502    0  0.47462164157E+02  0.71975195750E+01 -0.80121827062E+02  0.93495673088E+02  0.41800000000E+01 0.  1.
         -5    1    3    3    0  502  0.21009769843E+02 -0.61861236533E+02 -0.60005766713E+03  0.60361817343E+03  0.41800000000E+01 0.  1.
        -11    1    1    2    0    0 -0.68890890112E+02  0.66344524503E+01 -0.16508928529E+03  0.17900961655E+03  0.00000000000E+00 0.  1.
         11    1    1    2    0    0  0.41895611148E+00  0.48029264508E+02 -0.26666014405E+03  0.27095132072E+03  0.00000000000E+00 0. -1.
</event>
<event>
 7    1  0.2480409E-009  0.1561635E+03  0.7561462E-02  0.1193098E+00
         -1   -1    0    0    0  501 -0.00000000000E+00  0.00000000000E+00  0.17280965132E+02  0.17280965132E+02  0.00000000000E+00 0.  1.
          1   -1    0    0  501    0  0.00000000000E+00 -0.00000000000E+00 -0.15060604731E+04  0.15060604731E+04  0.00000000000E+00 0. -1.
         25    2    1    2    0    0 -0.11713968906E+03  0.17111399180E+02 -0.88020708337E+03  0.89689843304E+03  0.12509109813E+03 0.  0.
          5    1    3    3  502    0 -0.13289044623E+03  0.39921882963E+02 -0.79947009710E+03  0.81143301387E+03  0.41800000000E+01 0. -1.
         -5    1    3    3    0  502  0.15750757161E+02 -0.22810483784E+02 -0.80736986269E+02  0.85465419167E+02  0.41800000000E+01 0. -1.
        -11    1    1    2    0    0  0.37345255636E+02  0.34171751176E+02 -0.27622154128E+03  0.28082150303E+03  0.00000000000E+00 0. -1.
         11    1    1    2    0    0  0.79794433428E+02 -0.51283150356E+02 -0.33235088328E+03  0.34562150212E+03  0.00000000000E+00 0.  1.
</event>
<event>
 7    1  0.2480409E-009  0.1999924E+03  0.7561462E-02  0.1149745E+00
         -2   -1    0    0    0  501 -0.00000000000E+00  0.00000000000E+00  0.74851467961E+02  0.74851467961E+02  0.00000000000E+00 0.  1.
          2   -1    0    0  501    0  0.00000000000E+00 -0.00000000000E+00 -0.60001289413E+03  0.60001289413E+03  0.00000000000E+00 0. -1.
         25    2    1    2    0    0  0.15276043915E+03  0.98525053512E+02 -0.26776496277E+03  0.34697161114E+03  0.12509310817E+03 0.  0.
          5    1    3    3  502    0  0.13748360797E+03  0.28848731420E+02 -0.21987714085E+03  0.26095482604E+03  0.41800000000E+01 0. -1.
         -5    1    3    3    0  502  0.15276831183E+02  0.69676322092E+02 -0.47887821919E+02  0.86016785103E+02  0.41800000000E+01 0. -1.
        -11    1    1    2    0    0 -0.89451044493E+02 -0.29173075273E+02 -0.19090751360E+03  0.21283382351E+03  0.00000000000E+00 0.  1.
         11    1    1    2    0    0 -0.63309394658E+02 -0.69351978238E+02 -0.66488949799E+02  0.11505892744E+03  0.00000000000E+00 0. -1.
</event>
<event>
 7    1  0.2480409E-009  0.1185502E+03  0.7561462E-02  0.1245508E+00
          2   -1    0    0  501    0  0.00000000000E+00  0.00000000000E+00  0.50845233900E+03  0.50845233900E+03  0.00000000000E+00 0. -1.
         -2   -1    0    0    0  501 -0.00000000000E+00 -0.00000000000E+00 -0.29871415350E+02  0.29871415350E+02  0.00000000000E+00 0.  1.
         25    2    1    2    0    0 -0.32123134275E+02  0.48960859302E+02  0.26134965183E+03  0.29560170743E+03  0.12509063684E+03 0.  0.
          5    1    3    3  502    0  0.11307058658E+02  0.76911219162E+02  0.20379706667E+03  0.21816026676E+03  0.41800000000E+01 0.  1.
         -5    1    3    3    0  502 -0.43430192933E+02 -0.27950359860E+02  0.57552585155E+02  0.77441440666E+02  0.41800000000E+01 0.  1.
        -11    1    1    2    0    0 -0.31595121037E+02 -0.20393485061E+02  0.62091331163E+02  0.72591179298E+02  0.00000000000E+00 0.  1.
         11    1    1    2    0    0  0.63718255311E+02 -0.28567374241E+02  0.15513994066E+03  0.17013086762E+03  0.00000000000E+00 0. -1.
</event>
<event>
 7    1  0.3055161E-009  0.1045085E+03  0.7561462E-02  0.1271091E+00
         -2   -1    0    0    0  501 -0.00000000000E+00  0.00000000000E+00  0.37823082463E+02  0.37823082463E+02  0.00000000000E+00 0.  1.
          2   -1    0    0  501    0  0.00000000000E+00 -0.00000000000E+00 -0.43572039117E+03  0.43572039117E+03  0.00000000000E+00 0. -1.
         25    2    1    2    0    0  0.38423821403E+02  0.39059276721E+02 -0.14552497339E+03  0.19956593285E+03  0.12508807507E+03 0.  0.
          5    1    3    3  502    0  0.71223181275E+02  0.61152441694E+02 -0.82502045506E+02  0.12504568201E+03  0.41800000000E+01 0.  1.
         -5    1    3    3    0  502 -0.32799359872E+02 -0.22093164973E+02 -0.63022927879E+02  0.74520250838E+02  0.41800000000E+01 0.  1.
        -11    1    1    2    0    0 -0.29604124589E+00 -0.37104200468E+02 -0.22230746275E+03  0.22538282394E+03  0.00000000000E+00 0. -1.
         11    1    1    2    0    0 -0.38127780157E+02 -0.19550762523E+01 -0.30064872577E+02  0.48594716852E+02  0.00000000000E+00 0.  1.
</event>
<event>
 7    1  0.2480409E-009  0.1136187E+03  0.7561462E-02  0.1254012E+00
         -2   -1    0    0    0  501 -0.00000000000E+00  0.00000000000E+00  0.54794064281E+02  0.54794064281E+02  0.00000000000E+00 0.  1.
          2   -1    0    0  501    0  0.00000000000E+00 -0.00000000000E+00 -0.30607843820E+03  0.30607843820E+03  0.00000000000E+00 0. -1.
         25    2    1    2    0    0 -0.64041006093E+02  0.30800474622E+02 -0.13900938670E+03  0.20004839614E+03  0.12508329827E+03 0.  0.
          5    1    3    3  502    0 -0.92609665843E+02  0.19024894215E+02 -0.13984344661E+03  0.16885543748E+03  0.41800000000E+01 0. -1.
         -5    1    3    3    0  502  0.28568659750E+02  0.11775580407E+02  0.83405990597E+00  0.31192958656E+02  0.41800000000E+01 0. -1.
        -11    1    1    2    0    0  0.13295436537E+02  0.23561223621E+02 -0.70534317009E+02  0.75544621034E+02  0.00000000000E+00 0. -1.
         11    1    1    2    0    0  0.50745569556E+02 -0.54361698243E+02 -0.41740670208E+02  0.85279485310E+02  0.00000000000E+00 0.  1.
</event>
<event>
 7    1  0.2480409E-009  0.9472684E+02  0.7561462E-02  0.1291792E+00
         -2   -1    0    0    0  501 -0.00000000000E+00  0.00000000000E+00  0.25703046601E+02  0.25703046601E+02  0.00000000000E+00 0.  1.
          2   -1    0    0  501    0  0.00000000000E+00 -0.00000000000E+00 -0.70050056781E+03  0.70050056781E+03  0.00000000000E+00 0. -1.
         25    2    1    2    0    0  0.45397335290E+02 -0.32309644702E+02 -0.22329507073E+03  0.26194133956E+03  0.12509094917E+03 0.  0.
          5    1    3    3  502    0  0.46941607470E+02 -0.48069724759E+02 -0.40808196723E+02  0.78720990022E+02  0.41800000000E+01 0.  1.
         -5    1    3    3    0  502 -0.15442721793E+01  0.15760080056E+02 -0.18248687400E+03  0.18322034954E+03  0.41800000000E+01 0.  1.
        -11    1    1    2    0    0  0.24335773596E+02  0.26198759673E+02 -0.20134253170E+03  0.20449308046E+03  0.00000000000E+00 0.  1.
         11    1    1    2    0    0 -0.69733108886E+02  0.61108850296E+01 -0.25015991879E+03  0.25976919440E+03  0.00000000000E+00 0. -1.
</event>
<event>
 7    1  0.2480409E-009  0.8965935E+02  0.7561462E-02  0.1303679E+00
         -1   -1    0    0    0  501 -0.00000000000E+00  0.00000000000E+00  0.18952841526E+02  0.18952841526E+02  0.00000000000E+00 0.  1.
          1   -1    0    0  501    0  0.00000000000E+00 -0.00000000000E+00 -0.70229041700E+03  0.70229041700E+03  0.00000000000E+00 0. -1.
         25    2    1    2    0    0  0.37764875853E+02  0.10331089499E+02 -0.37328040597E+03  0.39562433046E+03  0.12508969625E+03 0.  0.
          5    1    3    3  502    0  0.32785451476E+02 -0.26666373934E+02 -0.34354598691E+02  0.54623183526E+02  0.41800000000E+01 0.  1.
         -5    1    3    3    0  502  0.49794243770E+01  0.36997463433E+02 -0.33892580728E+03  0.34100114693E+03  0.41800000000E+01 0.  1.
        -11    1    1    2    0    0 -0.65934666244E+02  0.68530137529E+01 -0.19780127607E+03  0.20861373115E+03  0.00000000000E+00 0.  1.
         11    1    1    2    0    0  0.28169790390E+02 -0.17184103252E+02 -0.11225589343E+03  0.11700519692E+03  0.00000000000E+00 0. -1.
</event>
<event>
 7    1  0.2480409E-009  0.1147786E+03  0.7561462E-02  0.1251968E+00
         -2   -1    0    0    0  501 -0.00000000000E+00  0.00000000000E+00  0.37165887512E+02  0.37165887512E+02  0.00000000000E+00 0.  1.
          2   -1    0    0  501    0  0.00000000000E+00 -0.00000000000E+00 -0.51328423412E+03  0.51328423412E+03  0.00000000000E+00 0. -1.
         25    2    1    2    0    0 -0.33136905415E+02 -0.26487695317E+02 -0.11219771846E+03  0.17331135212E+03  0.12509534061E+03 0.  0.
          5    1    3    3  502    0 -0.57879845950E+02 -0.63428792792E+02 -0.85674773563E+02  0.12137103257E+03  0.41800000000E+01 0.  1.
         -5    1    3    3    0  502  0.24742940535E+02  0.36941097475E+02 -0.26522944897E+02  0.51940319550E+02  0.41800000000E+01 0.  1.
        -11    1    1    2    0    0  0.62000115693E+02  0.36200265165E+01 -0.22310797833E+03  0.23159077903E+03  0.00000000000E+00 0.  1.
         11    1    1    2    0    0 -0.28863210278E+02  0.22867668801E+02 -0.14081264982E+03  0.14554799048E+03  0.00000000000E+00 0. -1.
</event>
<event>
 7    1  0.2480409E-009  0.7419766E+02  0.7561462E-02  0.1346374E+00
          1   -1    0    0  501    0  0.00000000000E+00  0.00000000000E+00  0.32063716693E+03  0.32063716693E+03  0.00000000000E+00 0. -1.
         -1   -1    0    0    0  501 -0.00000000000E+00 -0.00000000000E+00 -0.40189236210E+02  0.40189236210E+02  0.00000000000E+00 0.  1.
         25    2    1    2    0    0 -0.20625884074E+02  0.34139299285E+01  0.20366959194E+03  0.23992871968E+03  0.12508959124E+03 0.  0.
          5    1    3    3  502    0  0.34310431025E+01  0.24457046485E+02 -0.76303886727E+01  0.26184239742E+02  0.41800000000E+01 0.  1.
         -5    1    3    3    0  502 -0.24056927176E+02 -0.21043116557E+02  0.21129998061E+03  0.21374447994E+03  0.41800000000E+01 0.  1.
        -11    1    1    2    0    0  0.45125583714E+02 -0.30595955691E+02  0.58591731997E+02  0.80033879505E+02  0.00000000000E+00 0. -1.
         11    1    1    2    0    0 -0.24499699641E+02  0.27182025762E+02  0.18186606786E+02  0.40863803952E+02  0.00000000000E+00 0.  1.
</event>
<event>
 7    1  0.2480409E-009  0.1392725E+03  0.7561462E-02  0.1214311E+00
         -1   -1    0    0    0  501 -0.00000000000E+00  0.00000000000E+00  0.29758563980E+02  0.29758563980E+02  0.00000000000E+00 0.  1.
          1   -1    0    0  501    0  0.00000000000E+00 -0.00000000000E+00 -0.74140416743E+03  0.74140416743E+03  0.00000000000E+00 0. -1.
         25    2    1    2    0    0 -0.99105701887E+02 -0.14366636745E+02 -0.42856783134E+03  0.45754414006E+03  0.12509162101E+03 0.  0.
          5    1    3    3  502    0 -0.38187177935E+02  0.45153958773E+02 -0.28033243485E+03  0.28653252343E+03  0.41800000000E+01 0. -1.
         -5    1    3    3    0  502 -0.60918523952E+02 -0.59520595519E+02 -0.14823539648E+03  0.17101161663E+03  0.41800000000E+01 0. -1.
        -11    1    1    2    0    0  0.75921944450E+02  0.50410010061E+02 -0.17393897114E+03  0.19636719799E+03  0.00000000000E+00 0.  1.
         11    1    1    2    0    0  0.23183757438E+02 -0.36043373316E+02 -0.10913880096E+03  0.11725139336E+03  0.00000000000E+00 0. -1.
</event>
<event>
 7    1  0.2480409E-009  0.2209335E+03  0.7561462E-02  0.1133189E+00
          1   -1    0    0  501    0  0.00000000000E+00  0.00000000000E+00  0.71569916336E+02  0.71569916336E+02  0.00000000000E+00 0. -1.
         -1   -1    0    0    0  501 -0.00000000000E+00 -0.00000000000E+00 -0.75096605433E+03  0.75096605433E+03  0.00000000000E+00 0.  1.
         25    2    1    2    0    0  0.12499399265E+03 -0.16045514886E+03 -0.31972638575E+03  0.39905182635E+03  0.12509214756E+03 0.  0.
          5    1    3    3  502    0  0.14317970413E+03 -0.15275066121E+03 -0.31510635549E+03  0.37834201439E+03  0.41800000000E+01 0.  1.
         -5    1    3    3    0  502 -0.18185711487E+02 -0.77044876407E+01 -0.46200302519E+01  0.20709811965E+02  0.41800000000E+01 0.  1.
        -11    1    1    2    0    0 -0.37970553066E+02  0.11349056542E+02 -0.24856273196E+02  0.46780319599E+02  0.00000000000E+00 0. -1.
         11    1    1    2    0    0 -0.87023439581E+02  0.14910609231E+03 -0.33481347905E+03  0.37670382472E+03  0.00000000000E+00 0.  1.
</event>
<event>
 7    1  0.2480409E-009  0.1036776E+03  0.7561462E-02  0.1272747E+00
          1   -1    0    0  501    0  0.00000000000E+00  0.00000000000E+00  0.41299951229E+02  0.41299951229E+02  0.00000000000E+00 0. -1.
         -1   -1    0    0    0  501 -0.00000000000E+00 -0.00000000000E+00 -0.36943004631E+03  0.36943004631E+03  0.00000000000E+00 0.  1.
         25    2    1    2    0    0 -0.46836231217E+02  0.33106483567E+02 -0.20385637144E+03  0.24595762618E+03  0.12509221356E+03 0.  0.
          5    1    3    3  502    0 -0.34984322301E+02  0.69580229755E+02 -0.64036088956E+02  0.10091285482E+03  0.41800000000E+01 0. -1.
         -5    1    3    3    0  502 -0.11851908917E+02 -0.36473746189E+02 -0.13982028248E+03  0.14504477136E+03  0.41800000000E+01 0. -1.
        -11    1    1    2    0    0 -0.30493281197E+01  0.18651877658E+02  0.24719352728E+01  0.19060467102E+02  0.00000000000E+00 0. -1.
         11    1    1    2    0    0  0.49885559337E+02 -0.51758361225E+02 -0.12674565891E+03  0.14571190425E+03  0.00000000000E+00 0.  1.
</event>
<event>
 7    1  0.2480409E-009  0.1097823E+03  0.7561462E-02  0.1260974E+00
         -1   -1    0    0    0  501 -0.00000000000E+00  0.00000000000E+00  0.13262465908E+03  0.13262465908E+03  0.00000000000E+00 0.  1.
          1   -1    0    0  501    0  0.00000000000E+00 -0.00000000000E+00 -0.14874208267E+03  0.14874208267E+03  0.00000000000E+00 0. -1.
         25    2    1    2    0    0 -0.15962536750E+01  0.89378665255E+02 -0.91538594037E+01  0.15403531453E+03  0.12510791802E+03 0.  0.
          5    1    3    3  502    0 -0.38874103916E+02  0.74985847724E+02 -0.48760836824E+02  0.97617441689E+02  0.41800000000E+01 0.  1.
         -5    1    3    3    0  502  0.37277850241E+02  0.14392817531E+02  0.39606977421E+02  0.56417872837E+02  0.41800000000E+01 0.  1.
        -11    1    1    2    0    0  0.13940961415E+02 -0.20170860456E+02 -0.42115030923E+02  0.48732841558E+02  0.00000000000E+00 0. -1.
         11    1    1    2    0    0 -0.12344707740E+02 -0.69207804799E+02  0.35151466734E+02  0.78598585661E+02  0.00000000000E+00 0.  1.
</event>
<event>
 7    1  0.2480409E-009  0.2664095E+03  0.7561462E-02  0.1103352E+00
         -1   -1    0    0    0  501 -0.00000000000E+00  0.00000000000E+00  0.49968199471E+02  0.49968199471E+02  0.00000000000E+00 0.  1.
          1   -1    0    0  501    0  0.00000000000E+00 -0.00000000000E+00 -0.18718755874E+04  0.18718755874E+04  0.00000000000E+00 0. -1.
         25    2    1    2    0    0 -0.13012642141E+03  0.21204776560E+03 -0.13737257315E+04  0.14016657619E+04  0.12508949712E+03 0.  0.
          5    1    3    3  502    0  0.86191552184E+01  0.69637096939E+02 -0.22094561733E+03  0.23185782999E+03  0.41800000000E+01 0. -1.
         -5    1    3    3    0  502 -0.13874557663E+03  0.14241066867E+03 -0.11527801142E+04  0.11698079320E+04  0.41800000000E+01 0. -1.
        -11    1    1    2    0    0  0.70230635034E+01 -0.90118297167E+02 -0.16717966209E+03  0.19005175696E+03  0.00000000000E+00 0. -1.
         11    1    1    2    0    0  0.12310335791E+03 -0.12192946844E+03 -0.28100199431E+03  0.33012626798E+03  0.00000000000E+00 0.  1.
</event>
<event>
 7    1  0.2480409E-009  0.1068391E+03  0.7561462E-02  0.1266538E+00
         -1   -1    0    0    0  501 -0.00000000000E+00  0.00000000000E+00  0.32192954665E+03  0.32192954665E+03  0.00000000000E+00 0.  1.
          1   -1    0    0  501    0  0.00000000000E+00 -0.00000000000E+00 -0.51580797065E+02  0.51580797065E+02  0.00000000000E+00 0. -1.
         25    2    1    2    0    0 -0.65756828562E+02  0.24088315753E+02  0.15355022404E+03  0.21006975629E+03  0.12508966284E+03 0.  0.
          5    1    3    3  502    0  0.21169065137E+02 -0.13427623241E+02 -0.44757446549E+01  0.25805717872E+02  0.41800000000E+01 0.  1.
         -5    1    3    3    0  502 -0.86925893699E+02  0.37515938994E+02  0.15802596869E+03  0.18426403842E+03  0.41800000000E+01 0.  1.
        -11    1    1    2    0    0  0.55793454743E+02  0.11131808734E+02  0.20589467380E+02  0.60504156261E+02  0.00000000000E+00 0. -1.
         11    1    1    2    0    0  0.99633738196E+01 -0.35220124487E+02  0.96209058169E+02  0.10293643116E+03  0.00000000000E+00 0.  1.
</event>
<event>
 7    1  0.2480409E-009  0.1588421E+03  0.7561462E-02  0.1190010E+00
          2   -1    0    0  501    0  0.00000000000E+00  0.00000000000E+00  0.34459265493E+03  0.34459265493E+03  0.00000000000E+00 0.  1.
         -2   -1    0    0    0  501 -0.00000000000E+00 -0.00000000000E+00 -0.83599642853E+02  0.83599642853E+02  0.00000000000E+00 0. -1.
         25    2    1    2    0    0 -0.31966735643E+02 -0.12535399417E+03  0.12337920107E+03  0.21819276065E+03  0.12510058953E+03 0.  0.
          5    1    3    3  502    0 -0.60395289210E+02 -0.19395916229E+02  0.18127526265E+02  0.66105008385E+02  0.41800000000E+01 0.  1.
         -5    1    3    3    0  502  0.28428553567E+02 -0.10595807795E+03  0.10525167480E+03  0.15208775226E+03  0.41800000000E+01 0.  1.
        -11    1    1    2    0    0  0.26903500838E+02  0.97537419437E+01  0.70844826517E+02  0.76406303951E+02  0.00000000000E+00 0.  1.
         11    1    1    2    0    0  0.50632348046E+01  0.11560025223E+03  0.66768984498E+02  0.13359323319E+03  0.00000000000E+00 0. -1.
</event>
<event>
 7    1  0.2480409E-009  0.8863545E+02  0.7561462E-02  0.1306190E+00
         -4   -1    0    0    0  501 -0.00000000000E+00  0.00000000000E+00  0.10290989107E+03  0.10290989107E+03  0.00000000000E+00 0.  1.
          4   -1    0    0  501    0  0.00000000000E+00 -0.00000000000E+00 -0.23908415551E+03  0.23908415551E+03  0.00000000000E+00 0. -1.
         25    2    1    2    0    0 -0.26234185218E+02 -0.60787398869E+01  0.46286325581E+02  0.13606807824E+03  0.12508762700E+03 0.  0.
          5    1    3    3  502    0 -0.18472782688E+02  0.50075454864E+02  0.57027465562E+02  0.78220196295E+02  0.41800000000E+01 0. -1.
         -5    1    3    3    0  502 -0.77614025307E+01 -0.56154194751E+02 -0.10741139982E+02  0.57847881944E+02  0.41800000000E+01 0. -1.
        -11    1    1    2    0    0 -0.15509996082E+02 -0.13704055342E+02 -0.33648557394E+01  0.20968628125E+02  0.00000000000E+00 0.  1.
         11    1    1    2    0    0  0.41744181300E+02  0.19782795229E+02 -0.17909573429E+03  0.18495734021E+03  0.00000000000E+00 0. -1.
</event>
<event>
 7    1  0.2480409E-009  0.1626675E+03  0.7561462E-02  0.1185718E+00
          2   -1    0    0  501    0  0.00000000000E+00  0.00000000000E+00  0.34344496155E+03  0.34344496155E+03  0.00000000000E+00 0.  1.
         -2   -1    0    0    0  501 -0.00000000000E+00 -0.00000000000E+00 -0.85851002998E+02  0.85851002998E+02  0.00000000000E+00 0. -1.
         25    2    1    2    0    0 -0.11191487497E+03 -0.67583972260E+02  0.16193988090E+03  0.24282556936E+03  0.12508876674E+03 0.  0.
          5    1    3    3  502    0 -0.89226327170E+01  0.32181285637E+02  0.13115223266E+02  0.36121046512E+02  0.41800000000E+01 0.  1.
         -5    1    3    3    0  502 -0.10299224225E+03 -0.99765257896E+02  0.14882465763E+03  0.20670452285E+03  0.41800000000E+01 0.  1.
        -11    1    1    2    0    0  0.11795745040E+03  0.47340514151E+02  0.50778133624E+02  0.13687038847E+03  0.00000000000E+00 0. -1.
         11    1    1    2    0    0 -0.60425754318E+01  0.20243458109E+02  0.44875944029E+02  0.49600006719E+02  0.00000000000E+00 0.  1.
</event>
<event>
 7    1  0.2480409E-009  0.2221461E+03  0.7561462E-02  0.1132293E+00
          2   -1    0    0  501    0  0.00000000000E+00  0.00000000000E+00  0.65663172268E+03  0.65663172268E+03  0.00000000000E+00 0. -1.
         -2   -1    0    0    0  501 -0.00000000000E+00 -0.00000000000E+00 -0.84706272153E+02  0.84706272153E+02  0.00000000000E+00 0.  1.
         25    2    1    2    0    0  0.73791575576E+02 -0.19018443892E+03  0.36647662609E+03  0.43768506544E+03  0.12509109324E+03 0.  0.
          5    1    3    3  502    0  0.15985063577E+01 -0.11947377804E+03  0.28058460368E+03  0.30499464107E+03  0.41800000000E+01 0.  1.
         -5    1    3    3    0  502  0.72193069218E+02 -0.70710660887E+02  0.85892022412E+02  0.13269042437E+03  0.41800000000E+01 0.  1.
        -11    1    1    2    0    0  0.14297467034E+02  0.85913740234E+02  0.80795986957E+02  0.11880058852E+03  0.00000000000E+00 0. -1.
         11    1    1    2    0    0 -0.88089042609E+02  0.10427069869E+03  0.12465283748E+03  0.18485234087E+03  0.00000000000E+00 0.  1.
</event>
<event>
 7    1  0.2480409E-009  0.9441241E+02  0.7561462E-02  0.1292505E+00
          2   -1    0    0  501    0  0.00000000000E+00  0.00000000000E+00  0.11934742673E+03  0.11934742673E+03  0.00000000000E+00 0.  1.
         -2   -1    0    0    0  501 -0.00000000000E+00 -0.00000000000E+00 -0.10277094706E+03  0.10277094706E+03  0.00000000000E+00 0. -1.
         25    2    1    2    0    0 -0.10089744943E+02  0.22862284668E+02  0.14146171491E+02  0.12834271673E+03  0.12508897536E+03 0.  0.
          5    1    3    3  502    0  0.13383210126E+02  0.60600528653E+02 -0.26836794642E+02  0.67743784460E+02  0.41800000000E+01 0. -1.
         -5    1    3    3    0  502 -0.23472955069E+02 -0.37738243985E+02  0.40982966134E+02  0.60598932266E+02  0.41800000000E+01 0. -1.
        -11    1    1    2    0    0  0.23226409242E+02  0.23950809222E+02  0.23475940787E+02  0.40794940183E+02  0.00000000000E+00 0. -1.
         11    1    1    2    0    0 -0.13136664300E+02 -0.46813093890E+02 -0.21045632608E+02  0.52980716873E+02  0.00000000000E+00 0.  1.
</event>
<event>
 7    1  0.2480409E-009  0.1230604E+03  0.7561462E-02  0.1238132E+00
         -2   -1    0    0    0  501 -0.00000000000E+00  0.00000000000E+00  0.19472095236E+03  0.19472095236E+03  0.00000000000E+00 0.  1.
          2   -1    0    0  501    0  0.00000000000E+00 -0.00000000000E+00 -0.10645801089E+03  0.10645801089E+03  0.00000000000E+00 0. -1.
         25    2    1    2    0    0  0.87217830876E+02 -0.21958863115E+02  0.77924812579E+02  0.17265316000E+03  0.12509074926E+03 0.  0.
          5    1    3    3  502    0  0.11490797942E+03 -0.73922174183E+01  0.81139504730E+02  0.14092402294E+03  0.41800000000E+01 0. -1.
         -5    1    3    3    0  502 -0.27690148544E+02 -0.14566645697E+02 -0.32146921510E+01  0.31729137065E+02  0.41800000000E+01 0. -1.
        -11    1    1    2    0    0 -0.29507402213E+02 -0.12580036076E+02  0.43089987081E+02  0.53718628795E+02  0.00000000000E+00 0.  1.
         11    1    1    2    0    0 -0.57710428663E+02  0.34538899192E+02 -0.32751858188E+02  0.74807174446E+02  0.00000000000E+00 0. -1.
</event>
<event>
 7    1  0.2480409E-009  0.1042280E+03  0.7561462E-02  0.1271648E+00
         -2   -1    0    0    0  501 -0.00000000000E+00  0.00000000000E+00  0.25729075769E+03  0.25729075769E+03  0.00000000000E+00 0.  1.
          2   -1    0    0  501    0  0.00000000000E+00 -0.00000000000E+00 -0.65150137830E+02  0.65150137830E+02  0.00000000000E+00 0. -1.
         25    2    1    2    0    0 -0.23762243934E+02 -0.40610319941E+02  0.16263242497E+03  0.21050215475E+03  0.12509200287E+03 0.  0.
          5    1    3    3  502    0  0.20611205833E+02  0.33968871443E+02  0.85283022680E+02  0.94177345420E+02  0.41800000000E+01 0.  1.
         -5    1    3    3    0  502 -0.44373449767E+02 -0.74579191384E+02  0.77349402289E+02  0.11632480933E+03  0.41800000000E+01 0.  1.
        -11    1    1    2    0    0 -0.23237737653E+02  0.18386816345E+02  0.48293458039E+02  0.56659734873E+02  0.00000000000E+00 0.  1.
         11    1    1    2    0    0  0.46999981587E+02  0.22223503596E+02 -0.18785263147E+02  0.55279005895E+02  0.00000000000E+00 0. -1.
</event>
<event>
 7    1  0.3290151E-009  0.1435204E+03  0.7561462E-02  0.1208669E+00
         -1   -1    0    0    0  501 -0.00000000000E+00  0.00000000000E+00  0.93126902665E+02  0.93126902665E+02  0.00000000000E+00 0.  1.
          1   -1    0    0  501    0  0.00000000000E+00 -0.00000000000E+00 -0.29179923237E+03  0.29179923237E+03  0.00000000000E+00 0. -1.
         25    2    1    2    0    0  0.10144693382E+03  0.66973140158E+02 -0.79780158285E+02  0.19180456132E+03  0.12508890519E+03 0.  0.
          5    1    3    3  502    0  0.24754624422E+02 -0.27483774432E+02  0.12253693656E+02  0.39188961399E+02  0.41800000000E+01 0.  1.
         -5    1    3    3    0  502  0.76692309402E+02  0.94456914590E+02 -0.92033851941E+02  0.15261559992E+03  0.41800000000E+01 0.  1.
        -11    1    1    2    0    0 -0.50660669784E+02 -0.57105198924E+02 -0.16061334278E+02  0.78009446004E+02  0.00000000000E+00 0.  1.
         11    1    1    2    0    0 -0.50786264040E+02 -0.98679412339E+01 -0.10283083714E+03  0.11511212771E+03  0.00000000000E+00 0. -1.
</event>
<event>
 7    1  0.2480409E-009  0.1136496E+03  0.7561462E-02  0.1253957E+00
         -2   -1    0    0    0  501 -0.00000000000E+00  0.00000000000E+00  0.56509471626E+02  0.56509471626E+02  0.00000000000E+00 0.  1.
          2   -1    0    0  501    0  0.00000000000E+00 -0.00000000000E+00 -0.33709278873E+03  0.33709278873E+03  0.00000000000E+00 0. -1.
         25    2    1    2    0    0 -0.77468842091E+02  0.19228541614E+02 -0.93544136491E+02  0.17541073681E+03  0.12508901954E+03 0.  0.
          5    1    3    3  502    0 -0.77588492709E+02  0.64363719340E+02 -0.77860595262E+02  0.12744570319E+03  0.41800000000E+01 0.  1.
         -5    1    3    3    0  502  0.11965061839E+00 -0.45135177725E+02 -0.15683541228E+02  0.47965033618E+02  0.41800000000E+01 0.  1.
        -11    1    1    2    0    0  0.15190084434E+02  0.19009028542E+01  0.42708633150E+01  0.15893154823E+02  0.00000000000E+00 0.  1.
         11    1    1    2    0    0  0.62278757657E+02 -0.21129444469E+02 -0.19131004392E+03  0.20229836872E+03  0.00000000000E+00 0. -1.
</event>
<event>
 7    1  0.2480409E-009  0.1367395E+03  0.7561462E-02  0.1217785E+00
          2   -1    0    0  501    0  0.00000000000E+00  0.00000000000E+00  0.32903385462E+03  0.32903385462E+03  0.00000000000E+00 0. -1.
         -2   -1    0    0    0  501 -0.00000000000E+00 -0.00000000000E+00 -0.82538288387E+02  0.82538288387E+02  0.00000000000E+00 0.  1.
         25    2    1    2    0    0  0.53491404563E+02 -0.10775899578E+03  0.13102869152E+03  0.21746167087E+03  0.12509088203E+03 0.  0.
          5    1    3    3  502    0  0.91873673417E+01 -0.19516368349E+01 -0.23101435905E+02  0.25285674717E+02  0.41800000000E+01 0.  1.
         -5    1    3    3    0  502  0.44304037221E+02 -0.10580735894E+03  0.15413012742E+03  0.19217599616E+03  0.41800000000E+01 0.  1.
        -11    1    1    2    0    0 -0.76369124586E+02  0.66628793269E+02  0.10492479231E+03  0.14587957816E+03  0.00000000000E+00 0.  1.
         11    1    1    2    0    0  0.22877720023E+02  0.41130202509E+02  0.10542082404E+02  0.48230893971E+02  0.00000000000E+00 0. -1.
</event>
<event>
 7    1  0.2480409E-009  0.1116503E+03  0.7561462E-02  0.1257544E+00
          2   -1    0    0  501    0  0.00000000000E+00  0.00000000000E+00  0.25165446119E+03  0.25165446119E+03  0.00000000000E+00 0. -1.
         -2   -1    0    0    0  501 -0.00000000000E+00 -0.00000000000E+00 -0.74561290034E+02  0.74561290034E+02  0.00000000000E+00 0.  1.
         25    2    1    2    0    0 -0.63343519207E+02  0.18801385483E+02  0.15931186842E+03  0.21305577793E+03  0.12508636844E+03 0.  0.
          5    1    3    3  502    0 -0.23530974633E+02  0.63457270732E+02  0.12928091262E+03  0.14598478943E+03  0.41800000000E+01 0.  1.
         -5    1    3    3    0  502 -0.39812544574E+02 -0.44655885249E+02  0.30030955798E+02  0.67070988505E+02  0.41800000000E+01 0.  1.
        -11    1    1    2    0    0  0.49258360761E+02  0.20813836705E+02 -0.19546966373E+02  0.56935804180E+02  0.00000000000E+00 0.  1.
         11    1    1    2    0    0  0.14085158446E+02 -0.39615222188E+02  0.37328269107E+02  0.56224169109E+02  0.00000000000E+00 0. -1.
</event>
<event>
 7    1  0.2480409E-009  0.2789172E+03  0.7561462E-02  0.1096282E+00
         -2   -1    0    0    0  501 -0.00000000000E+00  0.00000000000E+00  0.15538678355E+04  0.15538678355E+04  0.00000000000E+00 0.  1.
          2   -1    0    0  501    0  0.00000000000E+00 -0.00000000000E+00 -0.65307010989E+02  0.65307010989E+02  0.00000000000E+00 0. -1.
         25    2    1    2    0    0  0.16866605240E+03  0.20739141682E+03  0.10978275538E+04  0.11368077565E+04  0.12508837016E+03 0.  0.
          5    1    3    3  502    0  0.83315506774E+01  0.80399427531E+02  0.45718610630E+03  0.46429526260E+03  0.41800000000E+01 0. -1.
         -5    1    3    3    0  502  0.16033450172E+03  0.12699198929E+03  0.64064144747E+03  0.67251249386E+03  0.41800000000E+01 0. -1.
        -11    1    1    2    0    0 -0.32874742075E+02 -0.78463517087E+02  0.18822245092E+03  0.20655498835E+03  0.00000000000E+00 0.  1.
         11    1    1    2    0    0 -0.13579131032E+03 -0.12892789974E+03  0.20251081986E+03  0.27581210171E+03  0.00000000000E+00 0. -1.
</event>
<event>
 7    1  0.2480409E-009  0.9577353E+02  0.7561462E-02  0.1289443E+00
          1   -1    0    0  501    0  0.00000000000E+00  0.00000000000E+00  0.84894476230E+03  0.84894476230E+03  0.00000000000E+00 0. -1.
         -1   -1    0    0    0  501 -0.00000000000E+00 -0.00000000000E+00 -0.17867510986E+02  0.17867510986E+02  0.00000000000E+00 0.  1.
         25    2    1    2    0    0 -0.55520540347E+02  0.37586698966E+02  0.57538732835E+03  0.59263291523E+03  0.12509158341E+03 0.  0.
          5    1    3    3  502    0 -0.31783057806E+02 -0.18338089614E+02  0.46580062812E+03  0.46726239508E+03  0.41800000000E+01 0. -1.
         -5    1    3    3    0  502 -0.23737482540E+02  0.55924788579E+02  0.10958670023E+03  0.12537052015E+03  0.41800000000E+01 0. -1.
        -11    1    1    2    0    0 -0.72741919181E+01 -0.29525163687E+02  0.12920066502E+03  0.13273078392E+03  0.00000000000E+00 0. -1.
         11    1    1    2    0    0  0.62794732265E+02 -0.80615352783E+01  0.12648925794E+03  0.14144857414E+03  0.00000000000E+00 0.  1.
</event>
<event>
 7    1  0.2480409E-009  0.1444949E+03  0.7561462E-02  0.1207406E+00
         -2   -1    0    0    0  501 -0.00000000000E+00  0.00000000000E+00  0.45129266027E+02  0.45129266027E+02  0.00000000000E+00 0.  1.
          2   -1    0    0  501    0  0.00000000000E+00 -0.00000000000E+00 -0.72146801084E+03  0.72146801084E+03  0.00000000000E+00 0. -1.
         25    2    1    2    0    0 -0.12555394918E+03  0.19892638867E+02 -0.21357055546E+03  0.27824948381E+03  0.12510348455E+03 0.  0.
          5    1    3    3  502    0 -0.27080479258E+02 -0.12194396821E+02  0.10166335124E+02  0.31668319193E+02  0.41800000000E+01 0. -1.
         -5    1    3    3    0  502 -0.98473469918E+02  0.32087035688E+02 -0.22373689058E+03  0.24658116462E+03  0.41800000000E+01 0. -1.
        -11    1    1    2    0    0  0.10141863654E+03  0.24928765752E+02 -0.33113086128E+03  0.34721006681E+03  0.00000000000E+00 0. -1.
         11    1    1    2    0    0  0.24135312639E+02 -0.44821404619E+02 -0.13163732807E+03  0.14113772624E+03  0.00000000000E+00 0.  1.
</event>
<event>
 7    1  0.2480409E-009  0.9336655E+02  0.7561462E-02  0.1294898E+00
         -1   -1    0    0    0  501 -0.00000000000E+00  0.00000000000E+00  0.43258160969E+02  0.43258160969E+02  0.00000000000E+00 0.  1.
          1   -1    0    0  501    0  0.00000000000E+00 -0.00000000000E+00 -0.41253762771E+03  0.41253762771E+03  0.00000000000E+00 0. -1.
         25    2    1    2    0    0 -0.69698848208E+02  0.27404587291E+02 -0.22433113327E+03  0.26754618440E+03  0.12509021780E+03 0.  0.
          5    1    3    3  502    0 -0.37312836679E+02 -0.24631797080E+02 -0.11963394789E+02  0.46471156896E+02  0.41800000000E+01 0. -1.
         -5    1    3    3    0  502 -0.32386011529E+02  0.52036384371E+02 -0.21236773848E+03  0.22107502751E+03  0.41800000000E+01 0. -1.
        -11    1    1    2    0    0  0.52546472344E+01 -0.13473200852E+02  0.11499273724E+02  0.18476248400E+02  0.00000000000E+00 0.  1.
         11    1    1    2    0    0  0.64444200973E+02 -0.13931386439E+02 -0.15644760720E+03  0.16977335587E+03  0.00000000000E+00 0. -1.
</event>
<event>
 7    1  0.2480409E-009  0.1078080E+03  0.7561462E-02  0.1264684E+00
          2   -1    0    0  501    0  0.00000000000E+00  0.00000000000E+00  0.24786069405E+04  0.24786069405E+04  0.00000000000E+00 0. -1.
         -2   -1    0    0    0  501 -0.00000000000E+00 -0.00000000000E+00 -0.66139505902E+01  0.66139505902E+01  0.00000000000E+00 0.  1.
         25    2    1    2    0    0 -0.12485101152E+02 -0.11800041747E+02  0.20135761450E+04  0.20175310849E+04  0.12509063852E+03 0.  0.
          5    1    3    3  502    0 -0.64565342138E+02 -0.26264939467E+02  0.94208307291E+03  0.94466741190E+03  0.41800000000E+01 0.  1.
         -5    1    3    3    0  502  0.52080240985E+02  0.14464897720E+02  0.10714930721E+04  0.10728636730E+04  0.41800000000E+01 0.  1.
        -11    1    1    2    0    0 -0.38902582362E+02  0.24284095465E+00  0.16010517237E+03  0.16476387986E+03  0.00000000000E+00 0.  1.
         11    1    1    2    0    0  0.51387683514E+02  0.11557200793E+02  0.29831167249E+03  0.30292592634E+03  0.00000000000E+00 0. -1.
</event>
<event>
 7    1  0.2480409E-009  0.1261339E+03  0.7561462E-02  0.1233308E+00
          4   -1    0    0  501    0  0.00000000000E+00  0.00000000000E+00  0.36039149256E+02  0.36039149256E+02  0.00000000000E+00 0. -1.
         -4   -1    0    0    0  501 -0.00000000000E+00 -0.00000000000E+00 -0.72600357150E+03  0.72600357150E+03  0.00000000000E+00 0.  1.
         25    2    1    2    0    0 -0.87274677775E+02  0.30706232303E+02 -0.52990512559E+03  0.55227341045E+03  0.12508691248E+03 0.  0.
          5    1    3    3  502    0 -0.37712924299E+02  0.63625720591E+02 -0.42661321079E+03  0.43299746074E+03  0.41800000000E+01 0. -1.
         -5    1    3    3    0  502 -0.49561753476E+02 -0.32919488287E+02 -0.10329191480E+03  0.11927594971E+03  0.41800000000E+01 0. -1.
        -11    1    1    2    0    0  0.99551506093E+02 -0.18550275166E+02 -0.16334008840E+03  0.19218376506E+03  0.00000000000E+00 0.  1.
         11    1    1    2    0    0 -0.12276828318E+02 -0.12155957138E+02  0.32807917421E+01  0.17585545255E+02  0.00000000000E+00 0. -1.
</event>
<event>
 7    1  0.2480409E-009  0.1665195E+03  0.7561462E-02  0.1181527E+00
         -2   -1    0    0    0  501 -0.00000000000E+00  0.00000000000E+00  0.32601757558E+03  0.32601757558E+03  0.00000000000E+00 0.  1.
          2   -1    0    0  501    0  0.00000000000E+00 -0.00000000000E+00 -0.14472269694E+03  0.14472269694E+03  0.00000000000E+00 0. -1.
         25    2    1    2    0    0  0.28564618701E+02  0.14541424019E+03  0.21948380362E+03  0.29288247145E+03  0.12508302577E+03 0.  0.
          5    1    3    3  502    0 -0.37709077286E+02  0.90793410042E+02  0.71150335851E+02  0.12143006427E+03  0.41800000000E+01 0.  1.
         -5    1    3    3    0  502  0.66273695987E+02  0.54620830151E+02  0.14833346777E+03  0.17145240718E+03  0.41800000000E+01 0.  1.
        -11    1    1    2    0    0 -0.35940910579E+01 -0.46424635165E+02  0.29723985157E+02  0.55242008783E+02  0.00000000000E+00 0.  1.
         11    1    1    2    0    0 -0.24970527643E+02 -0.98989605028E+02 -0.67912910146E+02  0.12261579229E+03  0.00000000000E+00 0. -1.
</event>
<event>
 7    1  0.2604559E-009  0.1412631E+03  0.7561462E-02  0.1211639E+00
          2   -1    0    0  501    0  0.00000000000E+00  0.00000000000E+00  0.47104180308E+03  0.47104180308E+03  0.00000000000E+00 0. -1.
         -2   -1    0    0    0  501 -0.00000000000E+00 -0.00000000000E+00 -0.65847696711E+02  0.65847696711E+02  0.00000000000E+00 0.  1.
         25    2    1    2    0    0  0.66352727832E+02  0.12123675437E+03  0.21137040913E+03  0.28182619703E+03  0.12509004906E+03 0.  0.
          5    1    3    3  502    0  0.37493559675E+02  0.85881162933E+02  0.35846813054E+02  0.10041816355E+03  0.41800000000E+01 0. -1.
         -5    1    3    3    0  502  0.28859168157E+02  0.35355591440E+02  0.17552359608E+03  0.18140803348E+03  0.41800000000E+01 0. -1.
        -11    1    1    2    0    0 -0.29927568512E+02 -0.90215670393E+02  0.58689515760E+02  0.11170938099E+03  0.00000000000E+00 0.  1.
         11    1    1    2    0    0 -0.36425159320E+02 -0.31021083980E+02  0.13513418148E+03  0.14335392177E+03  0.00000000000E+00 0. -1.
</event>
<event>
 7    1  0.2480409E-009  0.1594651E+03  0.7561462E-02  0.1189302E+00
         -1   -1    0    0    0  501 -0.00000000000E+00  0.00000000000E+00  0.49509827875E+02  0.49509827875E+02  0.00000000000E+00 0.  1.
          1   -1    0    0  501    0  0.00000000000E+00 -0.00000000000E+00 -0.78524467387E+03  0.78524467387E+03  0.00000000000E+00 0. -1.
         25    2    1    2    0    0  0.84732958784E+02 -0.12727925550E+03 -0.51797237750E+03  0.55436802940E+03  0.12509534355E+03 0.  0.
          5    1    3    3  502    0 -0.42658877598E+01 -0.97452492114E+01  0.38830942238E+01  0.12071391855E+02  0.41800000000E+01 0. -1.
         -5    1    3    3    0  502  0.88998846544E+02 -0.11753400629E+03 -0.52185547172E+03  0.54229663754E+03  0.41800000000E+01 0. -1.
        -11    1    1    2    0    0 -0.90790226478E+02  0.11717484338E+03 -0.14739945267E+03  0.20904403314E+03  0.00000000000E+00 0.  1.
         11    1    1    2    0    0  0.60572676944E+01  0.10104412120E+02 -0.70363015830E+02  0.71342439213E+02  0.00000000000E+00 0. -1.
</event>
<event>
 7    1  0.2480409E-009  0.1773392E+03  0.7561462E-02  0.1170403E+00
          2   -1    0    0  501    0  0.00000000000E+00  0.00000000000E+00  0.61008588614E+03  0.61008588614E+03  0.00000000000E+00 0. -1.
         -2   -1    0    0    0  501 -0.00000000000E+00 -0.00000000000E+00 -0.90618516776E+02  0.90618516776E+02  0.00000000000E+00 0.  1.
         25    2    1    2    0    0  0.96431896064E+02  0.11449792710E+03  0.52510865392E+02  0.20202427905E+03  0.12509009734E+03 0.  0.
          5    1    3    3  502    0  0.54903779520E+02 -0.29507198113E+01 -0.18999720244E+02  0.58323181689E+02  0.41800000000E+01 0. -1.
         -5    1    3    3    0  502  0.41528116544E+02  0.11744864691E+03  0.71510585636E+02  0.14370109736E+03  0.41800000000E+01 0. -1.
        -11    1    1    2    0    0 -0.11206465815E+03 -0.11306761496E+03  0.41920952036E+03  0.44841877204E+03  0.00000000000E+00 0. -1.
         11    1    1    2    0    0  0.15632762088E+02 -0.14303121415E+01  0.47746983615E+02  0.50261351829E+02  0.00000000000E+00 0.  1.
</event>
<event>
 7    1  0.2480409E-009  0.7432863E+02  0.7561462E-02  0.1345963E+00
         -2   -1    0    0    0  501 -0.00000000000E+00  0.00000000000E+00  0.93354304141E+02  0.93354304141E+02  0.00000000000E+00 0.  1.
          2   -1    0    0  501    0  0.00000000000E+00 -0.00000000000E+00 -0.14072545719E+03  0.14072545719E+03  0.00000000000E+00 0. -1.
         25    2    1    2    0    0  0.64578581501E+01  0.10924049490E+02  0.69054455468E+01  0.12592405495E+03  0.12509254033E+03 0.  0.
          5    1    3    3  502    0  0.41876780964E+02  0.49139815364E+01  0.52667295644E+02  0.67595328454E+02  0.41800000000E+01 0.  1.
         -5    1    3    3    0  502 -0.35418922814E+02  0.60100679540E+01 -0.45761850097E+02  0.58328726494E+02  0.41800000000E+01 0.  1.
        -11    1    1    2    0    0  0.31402112831E+02 -0.51020917319E+01  0.99847776279E+01  0.33343962191E+02  0.00000000000E+00 0.  1.
         11    1    1    2    0    0 -0.37859970981E+02 -0.58219577585E+01 -0.64261376226E+02  0.74811744193E+02  0.00000000000E+00 0. -1.
</event>
<event>
 7    1  0.2480409E-009  0.9180242E+02  0.7561462E-02  0.1298545E+00
         -1   -1    0    0    0  501 -0.00000000000E+00  0.00000000000E+00  0.18159701768E+03  0.18159701768E+03  0.00000000000E+00 0.  1.
          1   -1    0    0  501    0  0.00000000000E+00 -0.00000000000E+00 -0.11359981886E+03  0.11359981886E+03  0.00000000000E+00 0. -1.
         25    2    1    2    0    0 -0.17927225718E+02  0.18450671288E+02  0.12862020381E+03  0.18125203253E+03  0.12508928722E+03 0.  0.
          5    1    3    3  502    0  0.93561803382E+01 -0.43020104171E+02  0.97436552201E+02  0.10700290453E+03  0.41800000000E+01 0.  1.
         -5    1    3    3    0  502 -0.27283406056E+02  0.61470775459E+02  0.31183651607E+02  0.74249128002E+02  0.41800000000E+01 0.  1.
        -11    1    1    2    0    0 -0.25334634294E+02 -0.12749580849E+02  0.10715841450E+02  0.30318719706E+02  0.00000000000E+00 0.  1.
         11    1    1    2    0    0  0.43261860012E+02 -0.57010904390E+01 -0.71338846436E+02  0.83626084296E+02  0.00000000000E+00 0. -1.
</event>
<event>
 7    1  0.2480409E-009  0.1037725E+03  0.7561462E-02  0.1272557E+00
          2   -1    0    0  501    0  0.00000000000E+00  0.00000000000E+00  0.10445091672E+03  0.10445091672E+03  0.00000000000E+00 0. -1.
         -2   -1    0    0    0  501 -0.00000000000E+00 -0.00000000000E+00 -0.14134995418E+03  0.14134995418E+03  0.00000000000E+00 0.  1.
         25    2    1    2    0    0 -0.23458738017E+02 -0.16381407767E+02 -0.73720075867E+02  0.14798900239E+03  0.12508969715E+03 0.  0.
          5    1    3    3  502    0 -0.60530682897E+02  0.26048092340E+02 -0.61393656656E+02  0.90161633549E+02  0.41800000000E+01 0. -1.
         -5    1    3    3    0  502  0.37071944880E+02 -0.42429500106E+02 -0.12326419210E+02  0.57827368841E+02  0.41800000000E+01 0. -1.
        -11    1    1    2    0    0 -0.77039513182E+01 -0.28977821403E+02 -0.26300335332E+01  0.30099536135E+02  0.00000000000E+00 0.  1.
         11    1    1    2    0    0  0.31162689335E+02  0.45359229170E+02  0.39451071938E+02  0.67712332367E+02  0.00000000000E+00 0. -1.
</event>
<event>
 7    1  0.2480409E-009  0.1329373E+03  0.7561462E-02  0.1223161E+00
          1   -1    0    0  501    0  0.00000000000E+00  0.00000000000E+00  0.33548791530E+03  0.33548791530E+03  0.00000000000E+00 0. -1.
         -1   -1    0    0    0  501 -0.00000000000E+00 -0.00000000000E+00 -0.67405174854E+02  0.67405174854E+02  0.00000000000E+00 0.  1.
         25    2    1    2    0    0  0.21503510063E+02  0.10199782833E+03  0.13222219076E+03  0.20975314798E+03  0.12509083670E+03 0.  0.
          5    1    3    3  502    0  0.70466223365E+02  0.74105526646E+02  0.10638170989E+03  0.14761997938E+03  0.41800000000E+01 0.  1.
         -5    1    3    3    0  502 -0.48962713301E+02  0.27892301688E+02  0.25840480877E+02  0.62133168592E+02  0.41800000000E+01 0.  1.
        -11    1    1    2    0    0 -0.26482546457E+02 -0.74205614378E+02  0.14366029008E+03  0.16384772632E+03  0.00000000000E+00 0. -1.
         11    1    1    2    0    0  0.49790363934E+01 -0.27792213956E+02 -0.77997403989E+01  0.29292215865E+02  0.00000000000E+00 0.  1.
</event>
<event>
 7    1  0.2480409E-009  0.2336898E+03  0.7561462E-02  0.1124069E+00
          2   -1    0    0  501    0  0.00000000000E+00  0.00000000000E+00  0.13707829683E+04  0.13707829683E+04  0.00000000000E+00 0.  1.
         -2   -1    0    0    0  501 -0.00000000000E+00 -0.00000000000E+00 -0.45875731602E+02  0.45875731602E+02  0.00000000000E+00 0. -1.
         25    2    1    2    0    0  0.14825274728E+03 -0.15521205545E+03  0.58735514660E+03  0.63773397409E+03  0.12509554045E+03 0.  0.
          5    1    3    3  502    0  0.90931981792E+01 -0.81129067510E+02  0.12622975693E+03  0.15038628854E+03  0.41800000000E+01 0. -1.
         -5    1    3    3    0  502  0.13915954910E+03 -0.74082987938E+02  0.46112538967E+03  0.48734768554E+03  0.41800000000E+01 0. -1.
        -11    1    1    2    0    0 -0.10209825191E+03  0.51371358998E+02  0.20815693753E+03  0.23747079865E+03  0.00000000000E+00 0. -1.
         11    1    1    2    0    0 -0.46154495370E+02  0.10384069645E+03  0.52939515261E+03  0.54145392721E+03  0.00000000000E+00 0.  1.
</event>
<event>
 7    1  0.2480409E-009  0.6536684E+02  0.7561462E-02  0.1376597E+00
          2   -1    0    0  501    0  0.00000000000E+00  0.00000000000E+00  0.12905193350E+04  0.12905193350E+04  0.00000000000E+00 0. -1.
         -2   -1    0    0    0  501 -0.00000000000E+00 -0.00000000000E+00 -0.11575219653E+02  0.11575219653E+02  0.00000000000E+00 0.  1.
         25    2    1    2    0    0 -0.10256221984E+02 -0.21228700950E+02  0.99912556056E+03  0.10072016168E+04  0.12508942084E+03 0.  0.
          5    1    3    3  502    0 -0.20571980631E+02 -0.30643928208E+02  0.82685179258E+02  0.90645286651E+02  0.41800000000E+01 0. -1.
         -5    1    3    3    0  502  0.10315758647E+02  0.94152272583E+01  0.91644038130E+03  0.91655633010E+03  0.41800000000E+01 0. -1.
        -11    1    1    2    0    0  0.38666148984E+02 -0.66186589556E+01  0.21714295208E+03  0.22065796918E+03  0.00000000000E+00 0. -1.
         11    1    1    2    0    0 -0.28409927000E+02  0.27847359906E+02  0.62675602718E+02  0.74234968727E+02  0.00000000000E+00 0.  1.
</event>
<event>
 7    1  0.2480409E-009  0.3828159E+03  0.7561462E-02  0.1049898E+00
         -2   -1    0    0    0  501 -0.00000000000E+00  0.00000000000E+00  0.11468153752E+04  0.11468153752E+04  0.00000000000E+00 0.  1.
          2   -1    0    0  501    0  0.00000000000E+00 -0.00000000000E+00 -0.14053915359E+03  0.14053915359E+03  0.00000000000E+00 0. -1.
         25    2    1    2    0    0  0.28141074341E+03 -0.23742276350E+03  0.32264495852E+03  0.50528118130E+03  0.12509087812E+03 0.  0.
          5    1    3    3  502    0  0.40661981575E+02 -0.10685298781E+03  0.10741640245E+03  0.15692900836E+03  0.41800000000E+01 0.  1.
         -5    1    3    3    0  502  0.24074876183E+03 -0.13056977569E+03  0.21522855607E+03  0.34835217294E+03  0.41800000000E+01 0.  1.
        -11    1    1    2    0    0 -0.24733454076E+03  0.23798677413E+03  0.64435400071E+03  0.73007133757E+03  0.00000000000E+00 0.  1.
         11    1    1    2    0    0 -0.34076202644E+02 -0.56401063001E+00  0.39277262380E+02  0.52002009911E+02  0.00000000000E+00 0. -1.
</event>
<event>
 7    1  0.2480409E-009  0.8567134E+02  0.7561462E-02  0.1313686E+00
          1   -1    0    0  501    0  0.00000000000E+00  0.00000000000E+00  0.24974671741E+02  0.24974671741E+02  0.00000000000E+00 0. -1.
         -1   -1    0    0    0  501 -0.00000000000E+00 -0.00000000000E+00 -0.62969194502E+03  0.62969194502E+03  0.00000000000E+00 0.  1.
         25    2    1    2    0    0 -0.33642555055E+02 -0.50584732751E+02 -0.29766160820E+03  0.32854077211E+03  0.12508384884E+03 0.  0.
          5    1    3    3  502    0 -0.84668834813E+01 -0.60114558408E+01  0.10965060085E+02  0.15669417981E+02  0.41800000000E+01 0. -1.
         -5    1    3    3    0  502 -0.25175671574E+02 -0.44573276910E+02 -0.30862666829E+03  0.31287135413E+03  0.41800000000E+01 0. -1.
        -11    1    1    2    0    0 -0.54634812887E+01  0.66385092689E+02 -0.16489512170E+03  0.17784046592E+03  0.00000000000E+00 0.  1.
         11    1    1    2    0    0  0.39106036344E+02 -0.15800359938E+02 -0.14216054338E+03  0.14828537873E+03  0.00000000000E+00 0. -1.
</event>
<event>
 7    1  0.2480409E-009  0.2048087E+03  0.7561462E-02  0.1145744E+00
          1   -1    0    0  501    0  0.00000000000E+00  0.00000000000E+00  0.74808496377E+02  0.74808496377E+02  0.00000000000E+00 0. -1.
         -1   -1    0    0    0  501 -0.00000000000E+00 -0.00000000000E+00 -0.58944151469E+03  0.58944151469E+03  0.00000000000E+00 0.  1.
         25    2    1    2    0    0 -0.23912211996E+02 -0.17311931022E+03 -0.32473218245E+03  0.38940957774E+03  0.12508692764E+03 0.  0.
          5    1    3    3  502    0  0.44799475728E+02 -0.11875035809E+03 -0.18359474429E+03  0.22323338259E+03  0.41800000000E+01 0.  1.
         -5    1    3    3    0  502 -0.68711687724E+02 -0.54368952133E+02 -0.14113743816E+03  0.16617619515E+03  0.41800000000E+01 0.  1.
        -11    1    1    2    0    0 -0.31031653021E+02  0.38098919706E+02 -0.72938116573E+02  0.87945778871E+02  0.00000000000E+00 0.  1.
         11    1    1    2    0    0  0.54943865017E+02  0.13502039052E+03 -0.11696271929E+03  0.18689465445E+03  0.00000000000E+00 0. -1.
</event>
<event>
 7    1  0.2480409E-009  0.2726490E+03  0.7561462E-02  0.1099773E+00
          1   -1    0    0  501    0  0.00000000000E+00  0.00000000000E+00  0.27670147300E+03  0.27670147300E+03  0.00000000000E+00 0. -1.
         -1   -1    0    0    0  501 -0.00000000000E+00 -0.00000000000E+00 -0.28779634590E+03  0.28779634590E+03  0.00000000000E+00 0.  1.
         25    2    1    2    0    0  0.23729047127E+03  0.80099871781E+02 -0.75935771962E+02  0.29006491719E+03  0.12509459423E+03 0.  0.
          5    1    3    3  502    0  0.23481368766E+03  0.10223583023E+03 -0.62265866631E+02  0.26359845114E+03  0.41800000000E+01 0.  1.
         -5    1    3    3    0  502  0.24767836172E+01 -0.22135958452E+02 -0.13669905331E+02  0.26466466055E+02  0.41800000000E+01 0.  1.
        -11    1    1    2    0    0 -0.14725368162E+03 -0.94994281120E+02  0.47227755235E+02  0.18148834965E+03  0.00000000000E+00 0.  1.
         11    1    1    2    0    0 -0.90036789658E+02  0.14894409339E+02  0.17613143827E+02  0.92944552057E+02  0.00000000000E+00 0. -1.
</event>
<event>
 7    1  0.2480409E-009  0.1175654E+03  0.7561462E-02  0.1247168E+00
          1   -1    0    0  501    0  0.00000000000E+00  0.00000000000E+00  0.14242043150E+03  0.14242043150E+03  0.00000000000E+00 0. -1.
         -1   -1    0    0    0  501 -0.00000000000E+00 -0.00000000000E+00 -0.10340684212E+03  0.10340684212E+03  0.00000000000E+00 0.  1.
         25    2    1    2    0    0 -0.47655623447E+02  0.26276868085E+02  0.28560302268E+02  0.13938099028E+03  0.12509930992E+03 0.  0.
          5    1    3    3  502    0 -0.21778217991E+02  0.73281850025E+02 -0.36644395011E+01  0.76651293784E+02  0.41800000000E+01 0. -1.
         -5    1    3    3    0  502 -0.25877405456E+02 -0.47004981940E+02  0.32224741769E+02  0.62729696496E+02  0.41800000000E+01 0. -1.
        -11    1    1    2    0    0  0.73680787637E+02 -0.10800767787E+02  0.14596051497E+02  0.75885174909E+02  0.00000000000E+00 0. -1.
         11    1    1    2    0    0 -0.26025164190E+02 -0.15476100297E+02 -0.41427643840E+01  0.30561108427E+02  0.00000000000E+00 0.  1.
</event>
<event>
 7    1  0.3221318E-009  0.1897461E+03  0.7561462E-02  0.1158691E+00
          2   -1    0    0  501    0  0.00000000000E+00  0.00000000000E+00  0.15736918079E+03  0.15736918079E+03  0.00000000000E+00 0. -1.
         -2   -1    0    0    0  501 -0.00000000000E+00 -0.00000000000E+00 -0.27207226391E+03  0.27207226391E+03  0.00000000000E+00 0.  1.
         25    2    1    2    0    0  0.30755776885E+02  0.15441369692E+03  0.21330615732E+02  0.20221126668E+03  0.12507954907E+03 0.  0.
          5    1    3    3  502    0  0.60514567999E+02  0.22659925182E+02  0.17254126590E+02  0.67012405074E+02  0.41800000000E+01 0. -1.
         -5    1    3    3    0  502 -0.29758791114E+02  0.13175377174E+03  0.40764891424E+01  0.13519886160E+03  0.41800000000E+01 0. -1.
        -11    1    1    2    0    0  0.24897557062E+02 -0.94937613484E+02 -0.55821658407E+02  0.11291189640E+03  0.00000000000E+00 0. -1.
         11    1    1    2    0    0 -0.55653333947E+02 -0.59476083433E+02 -0.80212040452E+02  0.11431828162E+03  0.00000000000E+00 0.  1.
</event>
<event>
 7    1  0.2480409E-009  0.3500541E+03  0.7561462E-02  0.1062593E+00
          1   -1    0    0  501    0  0.00000000000E+00  0.00000000000E+00  0.19145007985E+04  0.19145007985E+04  0.00000000000E+00 0. -1.
         -1   -1    0    0    0  501 -0.00000000000E+00 -0.00000000000E+00 -0.81604324584E+02  0.81604324584E+02  0.00000000000E+00 0.  1.
         25    2    1    2    0    0  0.31068420852E+03 -0.14302955739E+03  0.51045877153E+03  0.62705312881E+03  0.12508132240E+03 0.  0.
          5    1    3    3  502    0  0.24553237795E+03 -0.61855167249E+02  0.30285144192E+03  0.39477674528E+03  0.41800000000E+01 0. -1.
         -5    1    3    3    0  502  0.65151830563E+02 -0.81174390141E+02  0.20760732961E+03  0.23227638353E+03  0.41800000000E+01 0. -1.
        -11    1    1    2    0    0 -0.15315420427E+03  0.82320284697E+02  0.84338690163E+03  0.86112386182E+03  0.00000000000E+00 0.  1.
         11    1    1    2    0    0 -0.15753000425E+03  0.60709272693E+02  0.47905080075E+03  0.50792813245E+03  0.00000000000E+00 0. -1.
</event>
<event>
 7    1  0.2480409E-009  0.7850487E+02  0.7561462E-02  0.1333349E+00
          1   -1    0    0  501    0  0.00000000000E+00  0.00000000000E+00  0.21725574083E+02  0.21725574083E+02  0.00000000000E+00 0. -1.
         -1   -1    0    0    0  501 -0.00000000000E+00 -0.00000000000E+00 -0.71793289781E+03  0.71793289781E+03  0.00000000000E+00 0.  1.
         25    2    1    2    0    0  0.12703962122E+02 -0.10485613250E+02 -0.52354708793E+03  0.53853522337E+03  0.12508914735E+03 0.  0.
          5    1    3    3  502    0  0.33408930652E+02  0.21962455908E+00 -0.32105877763E+02  0.46523807552E+02  0.41800000000E+01 0. -1.
         -5    1    3    3    0  502 -0.20704968530E+02 -0.10705237809E+02 -0.49144121017E+03  0.49201141582E+03  0.41800000000E+01 0. -1.
        -11    1    1    2    0    0  0.40840200655E+02  0.19674389369E+02 -0.10488231013E+03  0.11425980292E+03  0.00000000000E+00 0. -1.
         11    1    1    2    0    0 -0.53544162777E+02 -0.91887761186E+01 -0.67777925661E+02  0.86863445597E+02  0.00000000000E+00 0.  1.
</event>
<event>
 7    1  0.2480409E-009  0.1596301E+03  0.7561462E-02  0.1189115E+00
         -1   -1    0    0    0  501 -0.00000000000E+00  0.00000000000E+00  0.18526824963E+03  0.18526824963E+03  0.00000000000E+00 0.  1.
          1   -1    0    0  501    0  0.00000000000E+00 -0.00000000000E+00 -0.18761753127E+03  0.18761753127E+03  0.00000000000E+00 0. -1.
         25    2    1    2    0    0  0.13367061235E+03  0.12742761383E+02  0.69067624919E+02  0.19608410925E+03  0.12509368695E+03 0.  0.
          5    1    3    3  502    0  0.22931961118E+02 -0.39398735743E+02  0.56871807452E+02  0.73006918177E+02  0.41800000000E+01 0.  1.
         -5    1    3    3    0  502  0.11073865123E+03  0.52141497126E+02  0.12195817467E+02  0.12307719108E+03  0.41800000000E+01 0.  1.
        -11    1    1    2    0    0 -0.10280396127E+03  0.21374906776E+02 -0.18395592539E+02  0.10660177728E+03  0.00000000000E+00 0.  1.
         11    1    1    2    0    0 -0.30866651077E+02 -0.34117668159E+02 -0.53021314018E+02  0.70199894369E+02  0.00000000000E+00 0. -1.
</event>
<event>
 7    1  0.2480409E-009  0.1653024E+03  0.7561462E-02  0.1182837E+00
          2   -1    0    0  501    0  0.00000000000E+00  0.00000000000E+00  0.24659866578E+03  0.24659866578E+03  0.00000000000E+00 0. -1.
         -2   -1    0    0    0  501 -0.00000000000E+00 -0.00000000000E+00 -0.14878791436E+03  0.14878791436E+03  0.00000000000E+00 0.  1.
         25    2    1    2    0    0 -0.14663509124E+01 -0.15276555431E+03  0.12601081067E+02  0.19785106527E+03  0.12508713768E+03 0.  0.
          5    1    3    3  502    0 -0.86341696934E+01 -0.40913658719E+02 -0.53215041684E+02  0.67807001243E+02  0.41800000000E+01 0.  1.
         -5    1    3    3    0  502  0.71678187809E+01 -0.11185189559E+03  0.65816122751E+02  0.13004406403E+03  0.41800000000E+01 0.  1.
        -11    1    1    2    0    0  0.41837790696E+02  0.10962866558E+03  0.43197212792E+02  0.12503937076E+03  0.00000000000E+00 0.  1.
         11    1    1    2    0    0 -0.40371439784E+02  0.43136888735E+02  0.42012457560E+02  0.72496144106E+02  0.00000000000E+00 0. -1.
</event>
<event>
 7    1  0.2480409E-009  0.1190267E+03  0.7561462E-02  0.1244711E+00
         -2   -1    0    0    0  501 -0.00000000000E+00  0.00000000000E+00  0.31204336275E+02  0.31204336275E+02  0.00000000000E+00 0.  1.
          2   -1    0    0  501    0  0.00000000000E+00 -0.00000000000E+00 -0.75114841244E+03  0.75114841244E+03  0.00000000000E+00 0. -1.
         25    2    1    2    0    0  0.97155997785E+02 -0.11506651036E+00 -0.27453878410E+03  0.31695132580E+03  0.12508915942E+03 0.  0.
          5    1    3    3  502    0  0.51024918142E+02 -0.31039779257E+02 -0.31576330596E+02  0.67687127444E+02  0.41800000000E+01 0. -1.
         -5    1    3    3    0  502  0.46131079642E+02  0.30924712746E+02 -0.24296245351E+03  0.24926419835E+03  0.41800000000E+01 0. -1.
        -11    1    1    2    0    0 -0.63581923388E+01  0.27044010843E+02 -0.37639249985E+02  0.46781601851E+02  0.00000000000E+00 0.  1.
         11    1    1    2    0    0 -0.90797805446E+02 -0.26928944333E+02 -0.40776604208E+03  0.41861982107E+03  0.00000000000E+00 0. -1.
</event>
<event>
 7    1  0.2480409E-009  0.1162924E+03  0.7561462E-02  0.1249342E+00
          1   -1    0    0  501    0  0.00000000000E+00  0.00000000000E+00  0.18705513773E+03  0.18705513773E+03  0.00000000000E+00 0. -1.
         -1   -1    0    0    0  501 -0.00000000000E+00 -0.00000000000E+00 -0.11204529402E+03  0.11204529402E+03  0.00000000000E+00 0.  1.
         25    2    1    2    0    0  0.77543374448E+02  0.35339019799E+02 -0.48869986964E+01  0.15144009372E+03  0.12509355694E+03 0.  0.
          5    1    3    3  502    0  0.84715564794E+02 -0.21869005161E+02  0.17724702270E+02  0.89367878881E+02  0.41800000000E+01 0.  1.
         -5    1    3    3    0  502 -0.71721903459E+01  0.57208024960E+02 -0.22611700966E+02  0.62072214837E+02  0.41800000000E+01 0.  1.
        -11    1    1    2    0    0 -0.10482625575E+02 -0.12563362463E+02 -0.19599566219E+02  0.25531676625E+02  0.00000000000E+00 0.  1.
         11    1    1    2    0    0 -0.67060748873E+02 -0.22775657336E+02  0.99496408627E+02  0.12212866140E+03  0.00000000000E+00 0. -1.
</event>
<event>
 7    1  0.2480409E-009  0.9679288E+02  0.7561462E-02  0.1287188E+00
          2   -1    0    0  501    0  0.00000000000E+00  0.00000000000E+00  0.31094414365E+03  0.31094414365E+03  0.00000000000E+00 0. -1.
         -2   -1    0    0    0  501 -0.00000000000E+00 -0.00000000000E+00 -0.53328986211E+02  0.53328986211E+02  0.00000000000E+00 0.  1.
         25    2    1    2    0    0 -0.65034527485E+02 -0.20053925032E+02  0.15141423164E+03  0.20786071615E+03  0.12509259810E+03 0.  0.
          5    1    3    3  502    0  0.17306258004E+02 -0.20761199965E+02  0.11415032182E+03  0.11738101363E+03  0.41800000000E+01 0. -1.
         -5    1    3    3    0  502 -0.82340785488E+02  0.70727493338E+00  0.37263909829E+02  0.90479702522E+02  0.41800000000E+01 0. -1.
        -11    1    1    2    0    0  0.37705413997E+02  0.36011364182E+02  0.73939208224E+01  0.52661054491E+02  0.00000000000E+00 0.  1.
         11    1    1    2    0    0  0.27329113488E+02 -0.15957439150E+02  0.98807004974E+02  0.10375135922E+03  0.00000000000E+00 0. -1.
</event>
<event>
 7    1  0.2480409E-009  0.6822582E+02  0.7561462E-02  0.1366232E+00
          2   -1    0    0  501    0  0.00000000000E+00  0.00000000000E+00  0.10315867238E+03  0.10315867238E+03  0.00000000000E+00 0. -1.
         -2   -1    0    0    0  501 -0.00000000000E+00 -0.00000000000E+00 -0.13196618475E+03  0.13196618475E+03  0.00000000000E+00 0.  1.
         25    2    1    2    0    0  0.33930749301E+02 -0.15513189839E+02  0.68251169356E+01  0.13071443642E+03  0.12509087441E+03 0.  0.
          5    1    3    3  502    0  0.30921490698E+01  0.51934888111E+01  0.62897162006E+02  0.63325027440E+02  0.41800000000E+01 0. -1.
         -5    1    3    3    0  502  0.30838600231E+02 -0.20706678650E+02 -0.56072045070E+02  0.67389408984E+02  0.41800000000E+01 0. -1.
        -11    1    1    2    0    0 -0.53819858053E+02 -0.14480621687E+02 -0.39356925494E+02  0.68229268717E+02  0.00000000000E+00 0.  1.
         11    1    1    2    0    0  0.19889108752E+02  0.29993811525E+02  0.37242961880E+01  0.36181151984E+02  0.00000000000E+00 0. -1.
</event>
<event>
 7    1  0.2480409E-009  0.1147923E+03  0.7561462E-02  0.1251944E+00
          2   -1    0    0  501    0  0.00000000000E+00  0.00000000000E+00  0.33376781456E+02  0.33376781456E+02  0.00000000000E+00 0. -1.
         -2   -1    0    0    0  501 -0.00000000000E+00 -0.00000000000E+00 -0.40522972004E+03  0.40522972004E+03  0.00000000000E+00 0.  1.
         25    2    1    2    0    0  0.18341592980E+02  0.37464685576E+02 -0.21405720452E+03  0.25141149700E+03  0.12508891764E+03 0.  0.
          5    1    3    3  502    0  0.86857890005E-01 -0.45339750242E+02 -0.93064061684E+02  0.10360546546E+03  0.41800000000E+01 0. -1.
         -5    1    3    3    0  502  0.18254735090E+02  0.82804435818E+02 -0.12099314284E+03  0.14780603153E+03  0.41800000000E+01 0. -1.
        -11    1    1    2    0    0 -0.45388882942E+02  0.81607973807E+01 -0.89893627089E+02  0.10103273479E+03  0.00000000000E+00 0. -1.
         11    1    1    2    0    0  0.27047289962E+02 -0.45625482956E+02 -0.67902106970E+02  0.86162269702E+02  0.00000000000E+00 0.  1.
</event>
<event>
 7    1  0.2480409E-009  0.1446865E+03  0.7561462E-02  0.1207159E+00
         -3   -1    0    0    0  501 -0.00000000000E+00  0.00000000000E+00  0.17028750678E+03  0.17028750678E+03  0.00000000000E+00 0.  1.
          3   -1    0    0  501    0  0.00000000000E+00 -0.00000000000E+00 -0.17558782081E+03  0.17558782081E+03  0.00000000000E+00 0. -1.
         25    2    1    2    0    0  0.10925599271E+03 -0.13699606016E+02 -0.79563865522E+02  0.18466468625E+03  0.12508431757E+03 0.  0.
          5    1    3    3  502    0  0.26511348018E+02 -0.58214928783E+02 -0.43760720912E+01  0.64253030387E+02  0.41800000000E+01 0.  1.
         -5    1    3    3    0  502  0.82744644692E+02  0.44515322767E+02 -0.75187793431E+02  0.12041165586E+03  0.41800000000E+01 0.  1.
        -11    1    1    2    0    0 -0.26520575314E+02  0.36759986541E+02  0.58304387931E+02  0.73851466996E+02  0.00000000000E+00 0.  1.
         11    1    1    2    0    0 -0.82735417396E+02 -0.23060380525E+02  0.15959163556E+02  0.87359174349E+02  0.00000000000E+00 0. -1.
</event>
<event>
 7    1  0.2480409E-009  0.1798907E+03  0.7561462E-02  0.1167909E+00
          1   -1    0    0  501    0  0.00000000000E+00  0.00000000000E+00  0.40105527180E+03  0.40105527180E+03  0.00000000000E+00 0. -1.
         -1   -1    0    0    0  501 -0.00000000000E+00 -0.00000000000E+00 -0.10153811358E+03  0.10153811358E+03  0.00000000000E+00 0.  1.
         25    2    1    2    0    0  0.12634808884E+03  0.88797445589E+02  0.69605315378E+02  0.21057411075E+03  0.12509088812E+03 0.  0.
          5    1    3    3  502    0  0.48847964650E+02 -0.14707803465E+02  0.62808824607E+02  0.81023848228E+02  0.41800000000E+01 0. -1.
         -5    1    3    3    0  502  0.77500124194E+02  0.10350524905E+03  0.67964907711E+01  0.12955026252E+03  0.41800000000E+01 0. -1.
        -11    1    1    2    0    0 -0.13838978976E+03 -0.92697386589E+02  0.21999825612E+03  0.27594160992E+03  0.00000000000E+00 0.  1.
         11    1    1    2    0    0  0.12041700915E+02  0.38999409999E+01  0.99135867246E+01  0.16077664708E+02  0.00000000000E+00 0. -1.
</event>
<event>
 7    1  0.2480409E-009  0.2252030E+03  0.7561462E-02  0.1130062E+00
          2   -1    0    0  501    0  0.00000000000E+00  0.00000000000E+00  0.15864860632E+03  0.15864860632E+03  0.00000000000E+00 0. -1.
         -2   -1    0    0    0  501 -0.00000000000E+00 -0.00000000000E+00 -0.42267280647E+03  0.42267280647E+03  0.00000000000E+00 0.  1.
         25    2    1    2    0    0  0.17164388562E+03 -0.14418071909E+03 -0.57701629182E+02  0.26311018086E+03  0.12509111094E+03 0.  0.
          5    1    3    3  502    0  0.41835082962E+02 -0.28900252588E+02  0.39114317113E+02  0.64286864672E+02  0.41800000000E+01 0.  1.
         -5    1    3    3    0  502  0.12980880266E+03 -0.11528046650E+03 -0.96815946295E+02  0.19882331619E+03  0.41800000000E+01 0.  1.
        -11    1    1    2    0    0 -0.15454002746E+03  0.11792567035E+03 -0.12513842605E+03  0.23118976943E+03  0.00000000000E+00 0. -1.
         11    1    1    2    0    0 -0.17103858157E+02  0.26255048735E+02 -0.81184144925E+02  0.87021462497E+02  0.00000000000E+00 0.  1.
</event>
<event>
 7    1  0.2480409E-009  0.1197263E+03  0.7561462E-02  0.1243549E+00
          2   -1    0    0  501    0  0.00000000000E+00  0.00000000000E+00  0.46510592011E+03  0.46510592011E+03  0.00000000000E+00 0. -1.
         -2   -1    0    0    0  501 -0.00000000000E+00 -0.00000000000E+00 -0.46340353116E+02  0.46340353116E+02  0.00000000000E+00 0.  1.
         25    2    1    2    0    0  0.85015201803E+02  0.17411309393E+02  0.14446795866E+03  0.20988157736E+03  0.12509415335E+03 0.  0.
          5    1    3    3  502    0  0.11316276818E+03  0.23223789147E+02  0.84299593404E+02  0.14307008889E+03  0.41800000000E+01 0. -1.
         -5    1    3    3    0  502 -0.28147566382E+02 -0.58124797544E+01  0.60168365260E+02  0.66811488474E+02  0.41800000000E+01 0. -1.
        -11    1    1    2    0    0 -0.32462490679E+02 -0.25963172501E+02  0.22563839684E+03  0.22943536291E+03  0.00000000000E+00 0. -1.
         11    1    1    2    0    0 -0.52552711124E+02  0.85518631077E+01  0.48659211491E+02  0.72129332952E+02  0.00000000000E+00 0.  1.
</event>
<event>
 7    1  0.2480409E-009  0.1027434E+03  0.7561462E-02  0.1274631E+00
          1   -1    0    0  501    0  0.00000000000E+00  0.00000000000E+00  0.20619478856E+02  0.20619478856E+02  0.00000000000E+00 0. -1.
         -1   -1    0    0    0  501 -0.00000000000E+00 -0.00000000000E+00 -0.89916460039E+03  0.89916460039E+03  0.00000000000E+00 0.  1.
         25    2    1    2    0    0  0.70807839420E+02 -0.43031186818E+02 -0.47566657253E+03  0.49877013277E+03  0.12509006339E+03 0.  0.
          5    1    3    3  502    0  0.37570780167E+02 -0.24168892959E+02 -0.45070537715E+03  0.45293322720E+03  0.41800000000E+01 0.  1.
         -5    1    3    3    0  502  0.33237059253E+02 -0.18862293860E+02 -0.24961195380E+02  0.45836905570E+02  0.41800000000E+01 0.  1.
        -11    1    1    2    0    0  0.12108141680E+02  0.37123265122E+02 -0.13507730509E+03  0.14060804479E+03  0.00000000000E+00 0.  1.
         11    1    1    2    0    0 -0.82915981100E+02  0.59079216965E+01 -0.26780124391E+03  0.28040590169E+03  0.00000000000E+00 0. -1.
</event>
<event>
 7    1  0.3082720E-009  0.2297594E+03  0.7561462E-02  0.1126809E+00
          2   -1    0    0  501    0  0.00000000000E+00  0.00000000000E+00  0.11462311119E+04  0.11462311119E+04  0.00000000000E+00 0. -1.
         -2   -1    0    0    0  501 -0.00000000000E+00 -0.00000000000E+00 -0.53085477587E+02  0.53085477587E+02  0.00000000000E+00 0.  1.
         25    2    1    2    0    0  0.19177808389E+03 -0.96980348532E+02  0.68956961345E+03  0.73303139371E+03  0.12507897865E+03 0.  0.
          5    1    3    3  502    0  0.13035033372E+03 -0.11578494853E+03  0.39955766390E+03  0.43596004747E+03  0.41800000000E+01 0. -1.
         -5    1    3    3    0  502  0.61427750174E+02  0.18804600002E+02  0.29001194956E+03  0.29707134624E+03  0.41800000000E+01 0. -1.
        -11    1    1    2    0    0 -0.11802627045E+03  0.86322283499E+02  0.33282402738E+03  0.36352932530E+03  0.00000000000E+00 0. -1.
         11    1    1    2    0    0 -0.73751813443E+02  0.10658065033E+02  0.70751993450E+02  0.10275587046E+03  0.00000000000E+00 0.  1.
</event>
<event>
 7    1  0.2480409E-009  0.2285712E+03  0.7561462E-02  0.1127649E+00
          2   -1    0    0  501    0  0.00000000000E+00  0.00000000000E+00  0.26036046680E+03  0.26036046680E+03  0.00000000000E+00 0. -1.
         -2   -1    0    0    0  501 -0.00000000000E+00 -0.00000000000E+00 -0.54211312527E+03  0.54211312527E+03  0.00000000000E+00 0.  1.
         25    2    1    2    0    0  0.21423217440E+03 -0.86621082062E+01  0.16530397561E+03  0.29823183653E+03  0.12508543999E+03 0.  0.
          5    1    3    3  502    0  0.20257993700E+03 -0.24345969775E+02  0.94934838406E+02  0.22508099223E+03  0.41800000000E+01 0.  1.
         -5    1    3    3    0  502  0.11652237397E+02  0.15683861569E+02  0.70369137206E+02  0.73150844296E+02  0.41800000000E+01 0.  1.
        -11    1    1    2    0    0 -0.18513158588E+03 -0.26959218035E+02 -0.36601855558E+03  0.41105971167E+03  0.00000000000E+00 0. -1.
         11    1    1    2    0    0 -0.29100588517E+02  0.35621326241E+02 -0.81038078495E+02  0.93182043878E+02  0.00000000000E+00 0.  1.
</event>
<event>
 7    1  0.2480409E-009  0.1011521E+03  0.7561462E-02  0.1277892E+00
         -2   -1    0    0    0  501 -0.00000000000E+00  0.00000000000E+00  0.17676507746E+02  0.17676507746E+02  0.00000000000E+00 0.  1.
          2   -1    0    0  501    0  0.00000000000E+00 -0.00000000000E+00 -0.94735689989E+03  0.94735689989E+03  0.00000000000E+00 0. -1.
         25    2    1    2    0    0 -0.24321505526E+02  0.70279937671E+02 -0.51072020747E+03  0.53104886034E+03  0.12508779508E+03 0.  0.
          5    1    3    3  502    0 -0.84891381523E+00  0.68566269390E+02 -0.50026324280E+03  0.50495825416E+03  0.41800000000E+01 0.  1.
         -5    1    3    3    0  502 -0.23472591710E+02  0.17136682818E+01 -0.10456964676E+02  0.26090606179E+02  0.41800000000E+01 0.  1.
        -11    1    1    2    0    0 -0.21979268812E+02 -0.57667713354E+02 -0.18094204552E+03  0.19117708351E+03  0.00000000000E+00 0.  1.
         11    1    1    2    0    0  0.46300774337E+02 -0.12612224317E+02 -0.23801813915E+03  0.24280746379E+03  0.00000000000E+00 0. -1.
</event>
<event>
 7    1  0.2480409E-009  0.7986523E+02  0.7561462E-02  0.1329434E+00
          2   -1    0    0  501    0  0.00000000000E+00  0.00000000000E+00  0.23358986993E+03  0.23358986993E+03  0.00000000000E+00 0.  1.
         -2   -1    0    0    0  501 -0.00000000000E+00 -0.00000000000E+00 -0.52791947003E+02  0.52791947003E+02  0.00000000000E+00 0. -1.
         25    2    1    2    0    0 -0.19709650450E+02  0.98556234800E+01  0.85422686258E+02  0.15306861113E+03  0.12508941103E+03 0.  0.
          5    1    3    3  502    0  0.34493378578E+02  0.20361078275E+02 -0.11116270306E+02  0.41778110773E+02  0.41800000000E+01 0. -1.
         -5    1    3    3    0  502 -0.54203029028E+02 -0.10505454795E+02  0.96538956564E+02  0.11129050036E+03  0.41800000000E+01 0. -1.
        -11    1    1    2    0    0  0.38188805017E+02  0.72924577265E+01  0.10034907984E+03  0.10761738983E+03  0.00000000000E+00 0.  1.
         11    1    1    2    0    0 -0.18479154567E+02 -0.17148081206E+02 -0.49738431710E+01  0.25695815972E+02  0.00000000000E+00 0. -1.
</event>
<event>
 7    1  0.2480409E-009  0.7328377E+02  0.7561462E-02  0.1349270E+00
          1   -1    0    0  501    0  0.00000000000E+00  0.00000000000E+00  0.21325201499E+03  0.21325201499E+03  0.00000000000E+00 0. -1.
         -1   -1    0    0    0  501 -0.00000000000E+00 -0.00000000000E+00 -0.77209201064E+02  0.77209201064E+02  0.00000000000E+00 0.  1.
         25    2    1    2    0    0  0.69012781393E+01  0.47874854851E+02  0.20149182141E+02  0.13561862732E+03  0.12508714230E+03 0.  0.
          5    1    3    3  502    0  0.34237599148E+02  0.23205269417E+02 -0.44627808037E+02  0.60990256389E+02  0.41800000000E+01 0. -1.
         -5    1    3    3    0  502 -0.27336321009E+02  0.24669585434E+02  0.64776990178E+02  0.74628370935E+02  0.41800000000E+01 0. -1.
        -11    1    1    2    0    0 -0.26912290578E+02 -0.19578364446E+02 -0.61750831178E+00  0.33286109040E+02  0.00000000000E+00 0.  1.
         11    1    1    2    0    0  0.20011012439E+02 -0.28296490406E+02  0.11651114009E+03  0.12155647969E+03  0.00000000000E+00 0. -1.
</event>
<event>
 7    1  0.2480409E-009  0.1087190E+03  0.7561462E-02  0.1262961E+00
         -1   -1    0    0    0  501 -0.00000000000E+00  0.00000000000E+00  0.78999011225E+02  0.78999011225E+02  0.00000000000E+00 0.  1.
          1   -1    0    0  501    0  0.00000000000E+00 -0.00000000000E+00 -0.16767813137E+03  0.16767813137E+03  0.00000000000E+00 0. -1.
         25    2    1    2    0    0 -0.29164347453E+02  0.23903767632E+02 -0.29122848487E+02  0.13385647028E+03  0.12508982798E+03 0.  0.
          5    1    3    3  502    0  0.14964241707E+02 -0.42121702278E+02  0.88037261718E+01  0.45750894277E+02  0.41800000000E+01 0.  1.
         -5    1    3    3    0  502 -0.44128589160E+02  0.66025469910E+02 -0.37926574659E+02  0.88105576006E+02  0.41800000000E+01 0.  1.
        -11    1    1    2    0    0  0.49822034595E+02  0.12315250684E+02 -0.46157465250E+02  0.69024721143E+02  0.00000000000E+00 0. -1.
         11    1    1    2    0    0 -0.20657687142E+02 -0.36219018316E+02 -0.13398806413E+02  0.43795951173E+02  0.00000000000E+00 0.  1.
</event>
<event>
 7    1  0.2480409E-009  0.6943804E+02  0.7561462E-02  0.1362015E+00
         -1   -1    0    0    0  501 -0.00000000000E+00  0.00000000000E+00  0.14722302752E+03  0.14722302752E+03  0.00000000000E+00 0.  1.
          1   -1    0    0  501    0  0.00000000000E+00 -0.00000000000E+00 -0.11319187836E+03  0.11319187836E+03  0.00000000000E+00 0. -1.
         25    2    1    2    0    0  0.23831617553E+02  0.58212434318E+02 -0.12793037065E+02  0.14059517265E+03  0.12508679895E+03 0.  0.
          5    1    3    3  502    0 -0.42395461984E+00  0.48799503114E+02 -0.65429040159E+02  0.81731284939E+02  0.41800000000E+01 0.  1.
         -5    1    3    3    0  502  0.24255572173E+02  0.94129312049E+01  0.52636003094E+02  0.58863887716E+02  0.41800000000E+01 0.  1.
        -11    1    1    2    0    0 -0.88738807723E+01 -0.33521431934E+02  0.73021486619E+02  0.80836685155E+02  0.00000000000E+00 0.  1.
         11    1    1    2    0    0 -0.14957736781E+02 -0.24691002385E+02 -0.26197300403E+02  0.38983048069E+02  0.00000000000E+00 0. -1.
</event>
<event>
 7    1  0.2480409E-009  0.1004814E+03  0.7561462E-02  0.1279287E+00
         -2   -1    0    0    0  501 -0.00000000000E+00  0.00000000000E+00  0.28177379148E+03  0.28177379148E+03  0.00000000000E+00 0. -1.
          2   -1    0    0  501    0  0.00000000000E+00 -0.00000000000E+00 -0.47356798938E+02  0.47356798938E+02  0.00000000000E+00 0.  1.
         25    2    1    2    0    0  0.11885626909E+02  0.39297391235E+02  0.17470689439E+03  0.21876623997E+03  0.12510242091E+03 0.  0.
          5    1    3    3  502    0  0.56889990135E+02  0.49879056908E+02  0.14513895059E+03  0.16372897933E+03  0.41800000000E+01 0. -1.
         -5    1    3    3    0  502 -0.45004363225E+02 -0.10581665672E+02  0.29567943805E+02  0.55037260638E+02  0.41800000000E+01 0. -1.
        -11    1    1    2    0    0  0.28112201109E+02 -0.18841824927E+02 -0.21517907672E+01  0.33910771465E+02  0.00000000000E+00 0.  1.
         11    1    1    2    0    0 -0.39997828019E+02 -0.20455566308E+02  0.61861888919E+02  0.76453578986E+02  0.00000000000E+00 0. -1.
</event>
<event>
 7    1  0.3585857E-009  0.1436242E+03  0.7561462E-02  0.1208534E+00
         -1   -1    0    0    0  501 -0.00000000000E+00  0.00000000000E+00  0.19269791492E+02  0.19269791492E+02  0.00000000000E+00 0.  1.
          1   -1    0    0  501    0  0.00000000000E+00 -0.00000000000E+00 -0.14638323623E+04  0.14638323623E+04  0.00000000000E+00 0. -1.
         25    2    1    2    0    0 -0.19982527128E+01  0.12719299499E+03 -0.71767104420E+03  0.73951346949E+03  0.12508554224E+03 0.  0.
          5    1    3    3  502    0 -0.27067637428E+02  0.34782756033E+02 -0.58252534477E+02  0.73166435517E+02  0.41800000000E+01 0. -1.
         -5    1    3    3    0  502  0.25069384715E+02  0.92410238960E+02 -0.65941850973E+03  0.66634703397E+03  0.41800000000E+01 0. -1.
        -11    1    1    2    0    0 -0.29870896271E+02 -0.21665636480E+02 -0.90728590375E+02  0.97945634714E+02  0.00000000000E+00 0. -1.
         11    1    1    2    0    0  0.31869148983E+02 -0.10552735851E+03 -0.63616293625E+03  0.64564304961E+03  0.00000000000E+00 0.  1.
</event>
<event>
 7    1  0.2480409E-009  0.6069953E+02  0.7561462E-02  0.1394919E+00
         -2   -1    0    0    0  501 -0.00000000000E+00  0.00000000000E+00  0.38333490873E+02  0.38333490873E+02  0.00000000000E+00 0.  1.
          2   -1    0    0  501    0  0.00000000000E+00 -0.00000000000E+00 -0.35473401496E+03  0.35473401496E+03  0.00000000000E+00 0. -1.
         25    2    1    2    0    0  0.51747708309E+01 -0.51519145833E+02 -0.17738620037E+03  0.22314767211E+03  0.12509204150E+03 0.  0.
          5    1    3    3  502    0 -0.22307882575E+01 -0.50121588792E+02 -0.50517188558E+01  0.50597849190E+02  0.41800000000E+01 0.  1.
         -5    1    3    3    0  502  0.74055590884E+01 -0.13975570407E+01 -0.17233448152E+03  0.17254982292E+03  0.41800000000E+01 0.  1.
        -11    1    1    2    0    0  0.15016656432E+02  0.23832169001E+02 -0.13196097188E+03  0.13493394810E+03  0.00000000000E+00 0. -1.
         11    1    1    2    0    0 -0.20191427263E+02  0.27686976832E+02 -0.70533518408E+01  0.34985885628E+02  0.00000000000E+00 0.  1.
</event>
<event>
 7    1  0.2480409E-009  0.1031281E+03  0.7561462E-02  0.1273852E+00
         -2   -1    0    0    0  501 -0.00000000000E+00  0.00000000000E+00  0.69233762940E+02  0.69233762940E+02  0.00000000000E+00 0. -1.
          2   -1    0    0  501    0  0.00000000000E+00 -0.00000000000E+00 -0.18599633628E+03  0.18599633628E+03  0.00000000000E+00 0.  1.
         25    2    1    2    0    0 -0.15470484895E+02  0.19864919012E+01 -0.33932635296E+02  0.13054509160E+03  0.12508922875E+03 0.  0.
          5    1    3    3  502    0  0.25112703703E+02 -0.51356373588E+02 -0.25935490284E+02  0.62914601259E+02  0.41800000000E+01 0. -1.
         -5    1    3    3    0  502 -0.40583188598E+02  0.53342865489E+02 -0.79971450122E+01  0.67630490341E+02  0.41800000000E+01 0. -1.
        -11    1    1    2    0    0  0.32433633026E+02  0.30887130542E+02 -0.14662072177E+02  0.47126762513E+02  0.00000000000E+00 0.  1.
         11    1    1    2    0    0 -0.16963148131E+02 -0.32873622444E+02 -0.68167865865E+02  0.77558245105E+02  0.00000000000E+00 0. -1.
</event>
<event>
 7    1  0.2480409E-009  0.9411861E+02  0.7561462E-02  0.1293174E+00
          1   -1    0    0  501    0  0.00000000000E+00  0.00000000000E+00  0.72333374208E+02  0.72333374208E+02  0.00000000000E+00 0. -1.
         -1   -1    0    0    0  501 -0.00000000000E+00 -0.00000000000E+00 -0.17242524459E+03  0.17242524459E+03  0.00000000000E+00 0.  1.
         25    2    1    2    0    0 -0.31461948204E+02  0.20310361670E+02 -0.10941239856E+03  0.17035621497E+03  0.12509117492E+03 0.  0.
          5    1    3    3  502    0  0.31524271332E+02 -0.34385212208E+02 -0.44060130775E+02  0.64303110543E+02  0.41800000000E+01 0. -1.
         -5    1    3    3    0  502 -0.62986219536E+02  0.54695573878E+02 -0.65352267790E+02  0.10605310443E+03  0.41800000000E+01 0. -1.
        -11    1    1    2    0    0  0.23031254509E+02  0.10948460864E+02 -0.18669596827E+02  0.31604767444E+02  0.00000000000E+00 0.  1.
         11    1    1    2    0    0  0.84306936948E+01 -0.31258822534E+02  0.27990125007E+02  0.42797636387E+02  0.00000000000E+00 0. -1.
</event>
<event>
 7    1  0.2480409E-009  0.3194880E+03  0.7561462E-02  0.1075885E+00
          1   -1    0    0  501    0  0.00000000000E+00  0.00000000000E+00  0.26590587112E+04  0.26590587112E+04  0.00000000000E+00 0. -1.
         -1   -1    0    0    0  501 -0.00000000000E+00 -0.00000000000E+00 -0.40582539375E+02  0.40582539375E+02  0.00000000000E+00 0.  1.
         25    2    1    2    0    0 -0.26305006699E+03 -0.15296394931E+03  0.10959307384E+04  0.11442486933E+04  0.12509029201E+03 0.  0.
          5    1    3    3  502    0 -0.43918594827E+02  0.19261080477E+02  0.12012084629E+03  0.12940758210E+03  0.41800000000E+01 0.  1.
         -5    1    3    3    0  502 -0.21913147216E+03 -0.17222502979E+03  0.97580989211E+03  0.10148411112E+04  0.41800000000E+01 0.  1.
        -11    1    1    2    0    0  0.14254615097E+03  0.12212590656E+03  0.10558374159E+04  0.10723930207E+04  0.00000000000E+00 0. -1.
         11    1    1    2    0    0  0.12050391602E+03  0.30838042749E+02  0.46670801759E+03  0.48299953659E+03  0.00000000000E+00 0.  1.
</event>
<event>
 7    1  0.2480409E-009  0.1019486E+03  0.7561462E-02  0.1276251E+00
          2   -1    0    0  501    0  0.00000000000E+00  0.00000000000E+00  0.12402521748E+04  0.12402521748E+04  0.00000000000E+00 0. -1.
         -2   -1    0    0    0  501 -0.00000000000E+00 -0.00000000000E+00 -0.92903240120E+01  0.92903240120E+01  0.00000000000E+00 0.  1.
         25    2    1    2    0    0 -0.16352614756E+02 -0.47945484100E+01  0.78714283981E+03  0.79720222414E+03  0.12508852951E+03 0.  0.
          5    1    3    3  502    0 -0.19519772233E+02  0.53963573638E+02  0.54271273767E+03  0.54575422749E+03  0.41800000000E+01 0. -1.
         -5    1    3    3    0  502  0.31671574777E+01 -0.58758122048E+02  0.24443010213E+03  0.25144799666E+03  0.41800000000E+01 0. -1.
        -11    1    1    2    0    0  0.22675602677E+02  0.43016180013E+02  0.25163861580E+03  0.25629390875E+03  0.00000000000E+00 0. -1.
         11    1    1    2    0    0 -0.63229879212E+01 -0.38221631603E+02  0.19218039518E+03  0.19604636592E+03  0.00000000000E+00 0.  1.
</event>
<event>
 7    1  0.2480409E-009  0.1189105E+03  0.7561462E-02  0.1244905E+00
          2   -1    0    0  501    0  0.00000000000E+00  0.00000000000E+00  0.17579070020E+04  0.17579070020E+04  0.00000000000E+00 0. -1.
         -2   -1    0    0    0  501 -0.00000000000E+00 -0.00000000000E+00 -0.97141989081E+01  0.97141989081E+01  0.00000000000E+00 0.  1.
         25    2    1    2    0    0  0.49515880473E+02 -0.13527334423E+02  0.13145421205E+04  0.13214776484E+04  0.12508947806E+03 0.  0.
          5    1    3    3  502    0 -0.60487041377E+01  0.50092963457E+02  0.50001923996E+03  0.50257596892E+03  0.41800000000E+01 0. -1.
         -5    1    3    3    0  502  0.55564584611E+02 -0.63620297880E+02  0.81452288053E+03  0.81890167949E+03  0.41800000000E+01 0. -1.
        -11    1    1    2    0    0  0.63378563187E+01 -0.30717408573E+02  0.93847562262E+02  0.98949949746E+02  0.00000000000E+00 0.  1.
         11    1    1    2    0    0 -0.55853736792E+02  0.44244742996E+02  0.33980312035E+03  0.34719360276E+03  0.00000000000E+00 0. -1.
</event>
<event>
 7    1  0.2480409E-009  0.7191493E+02  0.7561462E-02  0.1353700E+00
          1   -1    0    0  501    0  0.00000000000E+00  0.00000000000E+00  0.23065968934E+03  0.23065968934E+03  0.00000000000E+00 0. -1.
         -1   -1    0    0    0  501 -0.00000000000E+00 -0.00000000000E+00 -0.71866359704E+02  0.71866359704E+02  0.00000000000E+00 0.  1.
         25    2    1    2    0    0  0.31858137263E+02  0.35460179583E+02  0.15029515975E+03  0.20126515076E+03  0.12508661248E+03 0.  0.
          5    1    3    3  502    0 -0.17997557079E+02 -0.15932800201E+02 -0.94448162765E+01  0.26161864183E+02  0.41800000000E+01 0. -1.
         -5    1    3    3    0  502  0.49855694341E+02  0.51392979784E+02  0.15973997603E+03  0.17510328658E+03  0.41800000000E+01 0. -1.
        -11    1    1    2    0    0 -0.93140547459E+01 -0.90783706994E+01 -0.39753085239E+02  0.41826740446E+02  0.00000000000E+00 0.  1.
         11    1    1    2    0    0 -0.22544082517E+02 -0.26381808884E+02  0.48251255122E+02  0.59434157833E+02  0.00000000000E+00 0. -1.
</event>
<event>
 7    1  0.2480409E-009  0.8817327E+02  0.7561462E-02  0.1307337E+00
          2   -1    0    0  501    0  0.00000000000E+00  0.00000000000E+00  0.76773008731E+02  0.76773008731E+02  0.00000000000E+00 0. -1.
         -2   -1    0    0    0  501 -0.00000000000E+00 -0.00000000000E+00 -0.16887004959E+03  0.16887004959E+03  0.00000000000E+00 0.  1.
         25    2    1    2    0    0 -0.21593254824E+02  0.39737445838E+02 -0.52062145159E+02  0.14283894282E+03  0.12508862207E+03 0.  0.
          5    1    3    3  502    0  0.44882225291E+02  0.21601998487E+01  0.77022324562E+01  0.45780753546E+02  0.41800000000E+01 0.  1.
         -5    1    3    3    0  502 -0.66475480114E+02  0.37577245990E+02 -0.59764377616E+02  0.97058189270E+02  0.41800000000E+01 0.  1.
        -11    1    1    2    0    0 -0.43155705187E+01 -0.24094248619E+02  0.22552486465E+02  0.33283203139E+02  0.00000000000E+00 0. -1.
         11    1    1    2    0    0  0.25908825343E+02 -0.15643197219E+02 -0.62587382162E+02  0.69520912363E+02  0.00000000000E+00 0.  1.
</event>
<event>
 7    1  0.2480409E-009  0.9009601E+02  0.7561462E-02  0.1302619E+00
          3   -1    0    0  501    0  0.00000000000E+00  0.00000000000E+00  0.40495802481E+03  0.40495802481E+03  0.00000000000E+00 0. -1.
         -3   -1    0    0    0  501 -0.00000000000E+00 -0.00000000000E+00 -0.37755701269E+02  0.37755701269E+02  0.00000000000E+00 0.  1.
         25    2    1    2    0    0 -0.11790270353E+02 -0.18840691735E+02  0.30437103367E+03  0.32982310220E+03  0.12509024928E+03 0.  0.
          5    1    3    3  502    0 -0.25463987476E+02 -0.49613426575E+02  0.55988138426E+02  0.79133120747E+02  0.41800000000E+01 0. -1.
         -5    1    3    3    0  502  0.13673717124E+02  0.30772734840E+02  0.24838289524E+03  0.25068998145E+03  0.41800000000E+01 0. -1.
        -11    1    1    2    0    0  0.37269210369E+02  0.41826330863E+02  0.53181968299E+02  0.77244791068E+02  0.00000000000E+00 0. -1.
         11    1    1    2    0    0 -0.25478940017E+02 -0.22985639128E+02  0.96493215778E+01  0.35645832820E+02  0.00000000000E+00 0.  1.
</event>
<event>
 7    1  0.2480409E-009  0.1053216E+03  0.7561462E-02  0.1269487E+00
          2   -1    0    0  501    0  0.00000000000E+00  0.00000000000E+00  0.93439930051E+03  0.93439930051E+03  0.00000000000E+00 0. -1.
         -2   -1    0    0    0  501 -0.00000000000E+00 -0.00000000000E+00 -0.18641033545E+02  0.18641033545E+02  0.00000000000E+00 0.  1.
         25    2    1    2    0    0 -0.13771929254E+02  0.33130486028E+02  0.74783993204E+03  0.75907843543E+03  0.12509281370E+03 0.  0.
          5    1    3    3  502    0 -0.32023336806E+02  0.75525004321E+02  0.41752069903E+03  0.42552382647E+03  0.41800000000E+01 0.  1.
         -5    1    3    3    0  502  0.18251407553E+02 -0.42394518293E+02  0.33031923301E+03  0.33355460896E+03  0.41800000000E+01 0.  1.
        -11    1    1    2    0    0  0.16366366306E+02  0.21747893521E+02  0.14156161653E+02  0.30679402397E+02  0.00000000000E+00 0.  1.
         11    1    1    2    0    0 -0.25944370528E+01 -0.54878379550E+02  0.15376217327E+03  0.16328249623E+03  0.00000000000E+00 0. -1.
</event>
<event>
 7    1  0.2480409E-009  0.8005413E+02  0.7561462E-02  0.1328898E+00
          2   -1    0    0  501    0  0.00000000000E+00  0.00000000000E+00  0.98098633407E+02  0.98098633407E+02  0.00000000000E+00 0.  1.
         -2   -1    0    0    0  501 -0.00000000000E+00 -0.00000000000E+00 -0.14027789313E+03  0.14027789313E+03  0.00000000000E+00 0. -1.
         25    2    1    2    0    0  0.11458960427E+02  0.39359542699E+02 -0.71762965250E+01  0.13183058137E+03  0.12508925444E+03 0.  0.
          5    1    3    3  502    0 -0.35419210357E+02  0.46148777723E+02 -0.42860462849E+02  0.72379015076E+02  0.41800000000E+01 0.  1.
         -5    1    3    3    0  502  0.46878170783E+02 -0.67892350248E+01  0.35684166324E+02  0.59451566291E+02  0.41800000000E+01 0.  1.
        -11    1    1    2    0    0  0.12387319406E+02 -0.19963397399E+02  0.27935880737E+02  0.36502004744E+02  0.00000000000E+00 0.  1.
         11    1    1    2    0    0 -0.23846279833E+02 -0.19396145300E+02 -0.62938843933E+02  0.70043940422E+02  0.00000000000E+00 0. -1.
</event>
<event>
 7    1  0.2480409E-009  0.1496051E+03  0.7561462E-02  0.1200959E+00
          1   -1    0    0  501    0  0.00000000000E+00  0.00000000000E+00  0.16680750712E+03  0.16680750712E+03  0.00000000000E+00 0. -1.
         -1   -1    0    0    0  501 -0.00000000000E+00 -0.00000000000E+00 -0.14960908132E+03  0.14960908132E+03  0.00000000000E+00 0.  1.
         25    2    1    2    0    0  0.10871664357E+03 -0.28130276527E+02 -0.90682362590E+01  0.16834914417E+03  0.12509428599E+03 0.  0.
          5    1    3    3  502    0  0.12264632823E+03 -0.56949946072E+02 -0.12607793384E+02  0.13587437963E+03  0.41800000000E+01 0. -1.
         -5    1    3    3    0  502 -0.13929684657E+02  0.28819669545E+02  0.35395571248E+01  0.32474764540E+02  0.41800000000E+01 0. -1.
        -11    1    1    2    0    0 -0.10916823264E+03  0.58172373603E+01  0.45684702885E+02  0.11848474732E+03  0.00000000000E+00 0. -1.
         11    1    1    2    0    0  0.45158907278E+00  0.22313039167E+02 -0.19418040828E+02  0.29582696956E+02  0.00000000000E+00 0.  1.
</event>
<event>
 7    1  0.2480409E-009  0.2084004E+03  0.7561462E-02  0.1142839E+00
         -2   -1    0    0    0  501 -0.00000000000E+00  0.00000000000E+00  0.12996191096E+03  0.12996191096E+03  0.00000000000E+00 0. -1.
          2   -1    0    0  501    0  0.00000000000E+00 -0.00000000000E+00 -0.42904102956E+03  0.42904102956E+03  0.00000000000E+00 0.  1.
         25    2    1    2    0    0  0.11812738111E+03 -0.14021811515E+03 -0.35793185992E+02  0.22481484181E+03  0.12508142527E+03 0.  0.
          5    1    3    3  502    0  0.13445744412E+03 -0.14782441883E+03 -0.43879889132E+02  0.20463083871E+03  0.41800000000E+01 0. -1.
         -5    1    3    3    0  502 -0.16330063008E+02  0.76063036714E+01  0.80867031405E+01  0.20184003098E+02  0.41800000000E+01 0. -1.
        -11    1    1    2    0    0 -0.12851159318E+03  0.12058722495E+03 -0.19719760112E+03  0.26446814986E+03  0.00000000000E+00 0. -1.
         11    1    1    2    0    0  0.10384212071E+02  0.19630890203E+02 -0.66088331482E+02  0.69719948856E+02  0.00000000000E+00 0.  1.
</event>
<event>
 7    1  0.2480409E-009  0.1425246E+03  0.7561462E-02  0.1209972E+00
         -1   -1    0    0    0  501 -0.00000000000E+00  0.00000000000E+00  0.29815431148E+03  0.29815431148E+03  0.00000000000E+00 0.  1.
          1   -1    0    0  501    0  0.00000000000E+00 -0.00000000000E+00 -0.98882160529E+02  0.98882160529E+02  0.00000000000E+00 0. -1.
         25    2    1    2    0    0 -0.10067275413E+03 -0.83108302022E+02  0.81154035892E+02  0.19818067949E+03  0.12509041087E+03 0.  0.
          5    1    3    3  502    0 -0.10898475044E+03 -0.51624093674E+02  0.10308169394E+03  0.15870107405E+03  0.41800000000E+01 0.  1.
         -5    1    3    3    0  502  0.83119963134E+01 -0.31484208348E+02 -0.21927658053E+02  0.39479605440E+02  0.41800000000E+01 0.  1.
        -11    1    1    2    0    0  0.65401230015E+02  0.43656310378E+02  0.11027033693E+02  0.79402706474E+02  0.00000000000E+00 0. -1.
         11    1    1    2    0    0  0.35271524115E+02  0.39451991644E+02  0.10709108136E+03  0.11945308604E+03  0.00000000000E+00 0.  1.
</event>
<event>
 7    1  0.2480409E-009  0.1075599E+03  0.7561462E-02  0.1265156E+00
          1   -1    0    0  501    0  0.00000000000E+00  0.00000000000E+00  0.30399694613E+02  0.30399694613E+02  0.00000000000E+00 0. -1.
         -1   -1    0    0    0  501 -0.00000000000E+00 -0.00000000000E+00 -0.54997728706E+03  0.54997728706E+03  0.00000000000E+00 0.  1.
         25    2    1    2    0    0 -0.28030631258E+02  0.36205883838E+02 -0.42585568840E+03  0.44620261021E+03  0.12508844752E+03 0.  0.
          5    1    3    3  502    0  0.29080692250E+01  0.79411924575E+02 -0.23954028792E+03  0.25241183128E+03  0.41800000000E+01 0. -1.
         -5    1    3    3    0  502 -0.30938700483E+02 -0.43206040738E+02 -0.18631540048E+03  0.19379077893E+03  0.41800000000E+01 0. -1.
        -11    1    1    2    0    0  0.43226977679E+02 -0.46804770340E+02 -0.96300054471E+02  0.11546843126E+03  0.00000000000E+00 0. -1.
         11    1    1    2    0    0 -0.15196346422E+02  0.10598886503E+02  0.25781504166E+01  0.18705940213E+02  0.00000000000E+00 0.  1.
</event>
<event>
 7    1  0.2480409E-009  0.1320006E+03  0.7561462E-02  0.1224517E+00
          1   -1    0    0  501    0  0.00000000000E+00  0.00000000000E+00  0.61809019215E+03  0.61809019215E+03  0.00000000000E+00 0. -1.
         -1   -1    0    0    0  501 -0.00000000000E+00 -0.00000000000E+00 -0.38500984427E+02  0.38500984427E+02  0.00000000000E+00 0.  1.
         25    2    1    2    0    0  0.91218738178E+02  0.36389898616E+02  0.21087227628E+03  0.26412113365E+03  0.12509106053E+03 0.  0.
          5    1    3    3  502    0  0.11829336677E+03  0.38529483842E+02  0.19775632645E+03  0.23367258889E+03  0.41800000000E+01 0. -1.
         -5    1    3    3    0  502 -0.27074628592E+02 -0.21395852261E+01  0.13115949824E+02  0.30448544762E+02  0.41800000000E+01 0. -1.
        -11    1    1    2    0    0 -0.65976772155E+02  0.21040265829E+01  0.99889471045E+02  0.11972997878E+03  0.00000000000E+00 0.  1.
         11    1    1    2    0    0 -0.25241966023E+02 -0.38493925199E+02  0.26882746040E+03  0.27274006415E+03  0.00000000000E+00 0. -1.
</event>
<event>
 7    1  0.2480409E-009  0.1232518E+03  0.7561462E-02  0.1237827E+00
          1   -1    0    0  501    0  0.00000000000E+00  0.00000000000E+00  0.25641206321E+03  0.25641206321E+03  0.00000000000E+00 0. -1.
         -1   -1    0    0    0  501 -0.00000000000E+00 -0.00000000000E+00 -0.74862580556E+02  0.74862580556E+02  0.00000000000E+00 0.  1.
         25    2    1    2    0    0  0.82222358582E+02  0.25042826206E+02  0.10617801155E+03  0.18522565584E+03  0.12508842492E+03 0.  0.
          5    1    3    3  502    0  0.56861787189E+02 -0.40178324214E+02  0.88951436912E+02  0.11303712270E+03  0.41800000000E+01 0. -1.
         -5    1    3    3    0  502  0.25360571393E+02  0.65221150420E+02  0.17226574641E+02  0.72188533143E+02  0.41800000000E+01 0. -1.
        -11    1    1    2    0    0  0.53313396981E+01  0.10800261905E+02 -0.12192792869E+02  0.17138641666E+02  0.00000000000E+00 0.  1.
         11    1    1    2    0    0 -0.87553698280E+02 -0.35843088111E+02  0.87564263967E+02  0.12891034626E+03  0.00000000000E+00 0. -1.
</event>
<event>
 7    1  0.2480409E-009  0.8396977E+02  0.7561462E-02  0.1318149E+00
          3   -1    0    0  501    0  0.00000000000E+00  0.00000000000E+00  0.17206807317E+03  0.17206807317E+03  0.00000000000E+00 0.  1.
         -3   -1    0    0    0  501 -0.00000000000E+00 -0.00000000000E+00 -0.77771425302E+02  0.77771425302E+02  0.00000000000E+00 0. -1.
         25    2    1    2    0    0 -0.26141947200E+01  0.11910045340E+02  0.10972401070E+02  0.12616420579E+03  0.12509328537E+03 0.  0.
          5    1    3    3  502    0 -0.98566244171E+01  0.53848059800E+02 -0.33622048573E+02  0.64379198033E+02  0.41800000000E+01 0. -1.
         -5    1    3    3    0  502  0.72424296971E+01 -0.41938014460E+02  0.44594449643E+02  0.61785007759E+02  0.41800000000E+01 0. -1.
        -11    1    1    2    0    0  0.30295331980E+01 -0.41034651950E+02  0.85067054399E+02  0.94495632048E+02  0.00000000000E+00 0.  1.
         11    1    1    2    0    0 -0.41533847801E+00  0.29124606610E+02 -0.17428076032E+01  0.29179660631E+02  0.00000000000E+00 0. -1.
</event>
<event>
 7    1  0.2480409E-009  0.8245824E+02  0.7561462E-02  0.1322217E+00
          2   -1    0    0  501    0  0.00000000000E+00  0.00000000000E+00  0.17921173051E+03  0.17921173051E+03  0.00000000000E+00 0. -1.
         -2   -1    0    0    0  501 -0.00000000000E+00 -0.00000000000E+00 -0.17701960264E+03  0.17701960264E+03  0.00000000000E+00 0.  1.
         25    2    1    2    0    0 -0.53654990603E+02  0.28254107510E+01  0.10102031291E+03  0.16952742239E+03  0.12509037676E+03 0.  0.
          5    1    3    3  502    0 -0.68686793231E+02 -0.17866923491E+02  0.11855427582E+03  0.13823780682E+03  0.41800000000E+01 0. -1.
         -5    1    3    3    0  502  0.15031802628E+02  0.20692334242E+02 -0.17533962913E+02  0.31289615563E+02  0.41800000000E+01 0. -1.
        -11    1    1    2    0    0  0.24437718045E+02 -0.22062970861E+02 -0.13347068087E+03  0.13747144940E+03  0.00000000000E+00 0.  1.
         11    1    1    2    0    0  0.29217272557E+02  0.19237560110E+02  0.34642495829E+02  0.49232461364E+02  0.00000000000E+00 0. -1.
</event>
<event>
 7    1  0.2480409E-009  0.1023534E+03  0.7561462E-02  0.1275423E+00
          1   -1    0    0  501    0  0.00000000000E+00  0.00000000000E+00  0.21968101279E+02  0.21968101279E+02  0.00000000000E+00 0. -1.
         -1   -1    0    0    0  501 -0.00000000000E+00 -0.00000000000E+00 -0.56738137844E+03  0.56738137844E+03  0.00000000000E+00 0.  1.
         25    2    1    2    0    0  0.18985822285E+02 -0.56403655226E+02 -0.34824043440E+03  0.37478064263E+03  0.12508915290E+03 0.  0.
          5    1    3    3  502    0  0.19945766271E+02  0.28519313378E+02 -0.20678923516E+03  0.20973899258E+03  0.41800000000E+01 0. -1.
         -5    1    3    3    0  502 -0.95994398596E+00 -0.84922968604E+02 -0.14145119923E+03  0.16504165006E+03  0.41800000000E+01 0. -1.
        -11    1    1    2    0    0 -0.26590402938E+02 -0.11057716810E+01 -0.63474735146E+02  0.68828150209E+02  0.00000000000E+00 0.  1.
         11    1    1    2    0    0  0.76045806527E+01  0.57509426907E+02 -0.13369810762E+03  0.14574068688E+03  0.00000000000E+00 0. -1.
</event>
<event>
 7    1  0.2480409E-009  0.1433369E+03  0.7561462E-02  0.1208908E+00
          1   -1    0    0  501    0  0.00000000000E+00  0.00000000000E+00  0.66868975879E+03  0.66868975879E+03  0.00000000000E+00 0. -1.
         -1   -1    0    0    0  501 -0.00000000000E+00 -0.00000000000E+00 -0.33573464060E+02  0.33573464060E+02  0.00000000000E+00 0.  1.
         25    2    1    2    0    0  0.90853660189E+02  0.30870893996E+02  0.43261063166E+03  0.46044233042E+03  0.12509109222E+03 0.  0.
          5    1    3    3  502    0  0.54061911673E+02 -0.44816878793E+02  0.15270923782E+03  0.16813335967E+03  0.41800000000E+01 0.  1.
         -5    1    3    3    0  502  0.36791748516E+02  0.75687772789E+02  0.27990139385E+03  0.29230897076E+03  0.41800000000E+01 0.  1.
        -11    1    1    2    0    0 -0.20783281637E+01  0.26360555607E+02  0.36820655172E+02  0.45331655464E+02  0.00000000000E+00 0. -1.
         11    1    1    2    0    0 -0.88775332025E+02 -0.57231449603E+02  0.16568500790E+03  0.19648923696E+03  0.00000000000E+00 0.  1.
</event>
<event>
 7    1  0.2480409E-009  0.2070246E+03  0.7561462E-02  0.1143944E+00
         -2   -1    0    0    0  501 -0.00000000000E+00  0.00000000000E+00  0.36628851539E+03  0.36628851539E+03  0.00000000000E+00 0.  1.
          2   -1    0    0  501    0  0.00000000000E+00 -0.00000000000E+00 -0.15914856034E+03  0.15914856034E+03  0.00000000000E+00 0. -1.
         25    2    1    2    0    0 -0.13387259199E+03 -0.14612834555E+03  0.14520609248E+02  0.23480778579E+03  0.12509390038E+03 0.  0.
          5    1    3    3  502    0 -0.44041938453E+02 -0.28139113253E+01 -0.37217995470E+02  0.57881448033E+02  0.41800000000E+01 0. -1.
         -5    1    3    3    0  502 -0.89830653535E+02 -0.14331443423E+03  0.51738604718E+02  0.17692633775E+03  0.41800000000E+01 0. -1.
        -11    1    1    2    0    0  0.31886735095E+02  0.17496801765E+02  0.89913090591E+02  0.96991060447E+02  0.00000000000E+00 0.  1.
         11    1    1    2    0    0  0.10198585689E+03  0.12863154379E+03  0.10270625521E+03  0.19363822950E+03  0.00000000000E+00 0. -1.
</event>
<event>
 7    1  0.2480409E-009  0.1099453E+03  0.7561462E-02  0.1260671E+00
          1   -1    0    0  501    0  0.00000000000E+00  0.00000000000E+00  0.75593521365E+02  0.75593521365E+02  0.00000000000E+00 0.  1.
         -1   -1    0    0    0  501 -0.00000000000E+00 -0.00000000000E+00 -0.26728265158E+03  0.26728265158E+03  0.00000000000E+00 0. -1.
         25    2    1    2    0    0  0.79582441564E+02 -0.15306261832E+02 -0.53242412800E+02  0.15827234830E+03  0.12509090718E+03 0.  0.
          5    1    3    3  502    0  0.90084477815E+02  0.14323214273E+02 -0.76356760638E+02  0.11903022686E+03  0.41800000000E+01 0. -1.
         -5    1    3    3    0  502 -0.10502036251E+02 -0.29629476105E+02  0.23114347838E+02  0.39242121447E+02  0.41800000000E+01 0. -1.
        -11    1    1    2    0    0 -0.14249076412E+02  0.26967632080E+02  0.62653901501E+00  0.30507079666E+02  0.00000000000E+00 0.  1.
         11    1    1    2    0    0 -0.65333365152E+02 -0.11661370248E+02 -0.13907325643E+03  0.15409674497E+03  0.00000000000E+00 0. -1.
</event>
<event>
 7    1  0.2480409E-009  0.1366065E+03  0.7561462E-02  0.1217970E+00
          3   -1    0    0  501    0  0.00000000000E+00  0.00000000000E+00  0.32158533780E+03  0.32158533780E+03  0.00000000000E+00 0. -1.
         -3   -1    0    0    0  501 -0.00000000000E+00 -0.00000000000E+00 -0.69361784957E+02  0.69361784957E+02  0.00000000000E+00 0.  1.
         25    2    1    2    0    0 -0.82914488354E+02 -0.62973041205E+02  0.12042616587E+03  0.20246986031E+03  0.12510462265E+03 0.  0.
          5    1    3    3  502    0 -0.10296098725E+03 -0.54884990137E+02  0.13311312173E+03  0.17705903709E+03  0.41800000000E+01 0. -1.
         -5    1    3    3    0  502  0.20046498891E+02 -0.80880510689E+01 -0.12686955860E+02  0.25410823223E+02  0.41800000000E+01 0. -1.
        -11    1    1    2    0    0  0.19883767916E+02  0.68351678354E+02  0.75921527348E+02  0.10407398558E+03  0.00000000000E+00 0.  1.
         11    1    1    2    0    0  0.63030720438E+02 -0.53786371486E+01  0.55875859620E+02  0.84403276860E+02  0.00000000000E+00 0. -1.
</event>
<event>
 7    1  0.2480409E-009  0.1253097E+03  0.7561462E-02  0.1234586E+00
          1   -1    0    0  501    0  0.00000000000E+00  0.00000000000E+00  0.47864613204E+02  0.47864613204E+02  0.00000000000E+00 0. -1.
         -1   -1    0    0    0  501 -0.00000000000E+00 -0.00000000000E+00 -0.40228074853E+03  0.40228074853E+03  0.00000000000E+00 0.  1.
         25    2    1    2    0    0 -0.64552982769E+02  0.33521267468E+02 -0.26854755025E+03  0.30505106189E+03  0.12509036996E+03 0.  0.
          5    1    3    3  502    0 -0.44022141468E+02 -0.41742792302E+02 -0.16116261040E+03  0.17225350226E+03  0.41800000000E+01 0. -1.
         -5    1    3    3    0  502 -0.20530841301E+02  0.75264059770E+02 -0.10738493985E+03  0.13279755963E+03  0.41800000000E+01 0. -1.
        -11    1    1    2    0    0  0.84981671345E+02 -0.33244189071E+02 -0.50619252985E+02  0.10435214106E+03  0.00000000000E+00 0.  1.
         11    1    1    2    0    0 -0.20428688577E+02 -0.27707839755E+00 -0.35249332089E+02  0.40742158781E+02  0.00000000000E+00 0. -1.
</event>
<event>
 7    1  0.2480409E-009  0.2711824E+03  0.7561462E-02  0.1100605E+00
         -1   -1    0    0    0  501 -0.00000000000E+00  0.00000000000E+00  0.10609753791E+03  0.10609753791E+03  0.00000000000E+00 0.  1.
          1   -1    0    0  501    0  0.00000000000E+00 -0.00000000000E+00 -0.12065597604E+04  0.12065597604E+04  0.00000000000E+00 0. -1.
         25    2    1    2    0    0  0.99648547259E+02  0.24095534049E+03 -0.15653231003E+03  0.32884550502E+03  0.12509073909E+03 0.  0.
          5    1    3    3  502    0  0.63678912366E+02  0.93021134260E+02 -0.33822508169E+01  0.11285764183E+03  0.41800000000E+01 0. -1.
         -5    1    3    3    0  502  0.35969634893E+02  0.14793420623E+03 -0.15315005921E+03  0.21598786319E+03  0.41800000000E+01 0. -1.
        -11    1    1    2    0    0 -0.66599959798E+02 -0.49529258064E+02 -0.28798364054E+03  0.29970532072E+03  0.00000000000E+00 0. -1.
         11    1    1    2    0    0 -0.33048587461E+02 -0.19142608243E+03 -0.65594627189E+03  0.68410647255E+03  0.00000000000E+00 0.  1.
</event>
<event>
 7    1  0.2480409E-009  0.1776783E+03  0.7561462E-02  0.1170069E+00
         -1   -1    0    0    0  501 -0.00000000000E+00  0.00000000000E+00  0.89869822029E+02  0.89869822029E+02  0.00000000000E+00 0.  1.
          1   -1    0    0  501    0  0.00000000000E+00 -0.00000000000E+00 -0.54463782854E+03  0.54463782854E+03  0.00000000000E+00 0. -1.
         25    2    1    2    0    0  0.95694812321E+02  0.13475458190E+03 -0.94900869830E+02  0.22796893415E+03  0.12508942958E+03 0.  0.
          5    1    3    3  502    0  0.46248375138E+02  0.88667304696E+02 -0.11953292794E+03  0.15590508775E+03  0.41800000000E+01 0. -1.
         -5    1    3    3    0  502  0.49446437183E+02  0.46087277199E+02  0.24632058113E+02  0.72063846391E+02  0.41800000000E+01 0. -1.
        -11    1    1    2    0    0 -0.11240157133E+03 -0.12536962142E+03 -0.33684729185E+03  0.37658697965E+03  0.00000000000E+00 0. -1.
         11    1    1    2    0    0  0.16706759014E+02 -0.93849604708E+01 -0.23019844831E+02  0.29951736775E+02  0.00000000000E+00 0.  1.
</event>
<event>
 7    1  0.2480409E-009  0.1020720E+03  0.7561462E-02  0.1275998E+00
         -1   -1    0    0    0  501 -0.00000000000E+00  0.00000000000E+00  0.25623839580E+02  0.25623839580E+02  0.00000000000E+00 0.  1.
          1   -1    0    0  501    0  0.00000000000E+00 -0.00000000000E+00 -0.49016415111E+03  0.49016415111E+03  0.00000000000E+00 0. -1.
         25    2    1    2    0    0  0.24273597607E+02 -0.11534398224E+02 -0.24467459439E+03  0.27611248653E+03  0.12510075216E+03 0.  0.
          5    1    3    3  502    0  0.34554634686E+02  0.51809468907E+02 -0.10144722690E+03  0.11911026862E+03  0.41800000000E+01 0.  1.
         -5    1    3    3    0  502 -0.10281037080E+02 -0.63343867131E+02 -0.14322736750E+03  0.15700221791E+03  0.41800000000E+01 0.  1.
        -11    1    1    2    0    0 -0.48872599612E+02  0.17837217335E+02 -0.67575844333E+02  0.85283011511E+02  0.00000000000E+00 0.  1.
         11    1    1    2    0    0  0.24599002005E+02 -0.63028191112E+01 -0.15228987280E+03  0.15439249265E+03  0.00000000000E+00 0. -1.
</event>
<event>
 7    1  0.2480409E-009  0.1342639E+03  0.7561462E-02  0.1221263E+00
          1   -1    0    0  501    0  0.00000000000E+00  0.00000000000E+00  0.52078992127E+02  0.52078992127E+02  0.00000000000E+00 0. -1.
         -1   -1    0    0    0  501 -0.00000000000E+00 -0.00000000000E+00 -0.39235566176E+03  0.39235566176E+03  0.00000000000E+00 0.  1.
         25    2    1    2    0    0 -0.82973934532E+02 -0.41423898784E+02 -0.18641573563E+03  0.24290300763E+03  0.12510168432E+03 0.  0.
          5    1    3    3  502    0 -0.94325379951E+02  0.82418218726E+00 -0.67333770772E+02  0.11597096906E+03  0.41800000000E+01 0.  1.
         -5    1    3    3    0  502  0.11351445420E+02 -0.42248080971E+02 -0.11908196486E+03  0.12693203856E+03  0.41800000000E+01 0.  1.
        -11    1    1    2    0    0  0.81902685448E+02 -0.65596572610E+01 -0.97325681658E+02  0.12737098295E+03  0.00000000000E+00 0. -1.
         11    1    1    2    0    0  0.10712490833E+01  0.47983556045E+02 -0.56535252342E+02  0.74160663311E+02  0.00000000000E+00 0.  1.
</event>
<event>
 7    1  0.2480409E-009  0.1895374E+03  0.7561462E-02  0.1158879E+00
          2   -1    0    0  501    0  0.00000000000E+00  0.00000000000E+00  0.18328197453E+03  0.18328197453E+03  0.00000000000E+00 0. -1.
         -2   -1    0    0    0  501 -0.00000000000E+00 -0.00000000000E+00 -0.28242368322E+03  0.28242368322E+03  0.00000000000E+00 0.  1.
         25    2    1    2    0    0  0.16284203889E+03  0.21649121314E+02  0.65213558724E+02  0.21653295675E+03  0.12508996377E+03 0.  0.
          5    1    3    3  502    0 -0.79134675036E+01  0.19272917388E+02 -0.16756016122E+02  0.27061130591E+02  0.41800000000E+01 0. -1.
         -5    1    3    3    0  502  0.17075550639E+03  0.23762039259E+01  0.81969574846E+02  0.18947182616E+03  0.41800000000E+01 0. -1.
        -11    1    1    2    0    0 -0.14136759111E+03  0.17403347642E+02 -0.13085730548E+03  0.19342002669E+03  0.00000000000E+00 0. -1.
         11    1    1    2    0    0 -0.21474447777E+02 -0.39052468956E+02 -0.33497961942E+02  0.55752674313E+02  0.00000000000E+00 0.  1.
</event>
<event>
 7    1  0.2480409E-009  0.1470503E+03  0.7561462E-02  0.1204145E+00
         -2   -1    0    0    0  501 -0.00000000000E+00  0.00000000000E+00  0.12403146543E+03  0.12403146543E+03  0.00000000000E+00 0.  1.
          2   -1    0    0  501    0  0.00000000000E+00 -0.00000000000E+00 -0.18353600710E+03  0.18353600710E+03  0.00000000000E+00 0. -1.
         25    2    1    2    0    0 -0.14440895315E+01  0.10041511313E+03 -0.40870289636E+01  0.16046104914E+03  0.12508302901E+03 0.  0.
          5    1    3    3  502    0  0.42222186005E+02  0.10704177402E+03 -0.10562342267E+02  0.11562737501E+03  0.41800000000E+01 0. -1.
         -5    1    3    3    0  502 -0.43666275537E+02 -0.66266608937E+01  0.64753133039E+01  0.44833674133E+02  0.41800000000E+01 0. -1.
        -11    1    1    2    0    0 -0.68468073997E+01 -0.11639190434E+03 -0.39571636933E+02  0.12312541824E+03  0.00000000000E+00 0.  1.
         11    1    1    2    0    0  0.82908969312E+01  0.15976791207E+02 -0.15845875776E+02  0.23981005156E+02  0.00000000000E+00 0. -1.
</event>
<event>
 7    1  0.4757065E-009  0.1706131E+03  0.7561462E-02  0.1177210E+00
         -1   -1    0    0    0  501 -0.00000000000E+00  0.00000000000E+00  0.21491272839E+02  0.21491272839E+02  0.00000000000E+00 0.  1.
          1   -1    0    0  501    0  0.00000000000E+00 -0.00000000000E+00 -0.17151702477E+04  0.17151702477E+04  0.00000000000E+00 0. -1.
         25    2    1    2    0    0  0.83604006821E+02  0.13320538804E+03 -0.82172685327E+03  0.84594061485E+03  0.12508875695E+03 0.  0.
          5    1    3    3  502    0  0.34545710218E+02  0.80055333146E+02 -0.69089570463E+03  0.69638826063E+03  0.41800000000E+01 0.  1.
         -5    1    3    3    0  502  0.49058296603E+02  0.53150054898E+02 -0.13083114863E+03  0.14955235422E+03  0.41800000000E+01 0.  1.
        -11    1    1    2    0    0 -0.77984135916E+02 -0.39147125253E+02 -0.44894215320E+03  0.45734350306E+03  0.00000000000E+00 0. -1.
         11    1    1    2    0    0 -0.56198709050E+01 -0.94058262791E+02 -0.42300996840E+03  0.43337740264E+03  0.00000000000E+00 0.  1.
</event>
<event>
 7    1  0.2480409E-009  0.1964278E+03  0.7561462E-02  0.1152788E+00
         -1   -1    0    0    0  501 -0.00000000000E+00  0.00000000000E+00  0.18412509188E+03  0.18412509188E+03  0.00000000000E+00 0.  1.
          1   -1    0    0  501    0  0.00000000000E+00 -0.00000000000E+00 -0.38261071144E+03  0.38261071144E+03  0.00000000000E+00 0. -1.
         25    2    1    2    0    0  0.35238882876E+02  0.17706123066E+03  0.68863599344E+02  0.23018086627E+03  0.12509427491E+03 0.  0.
          5    1    3    3  502    0  0.20700446850E+02  0.11682154944E+02 -0.28758605562E+02  0.37543455326E+02  0.41800000000E+01 0.  1.
         -5    1    3    3    0  502  0.14538436026E+02  0.16537907572E+03  0.97622204906E+02  0.19263741095E+03  0.41800000000E+01 0.  1.
        -11    1    1    2    0    0  0.24976351957E+02 -0.10878887062E+03 -0.12495551786E+03  0.16754915091E+03  0.00000000000E+00 0.  1.
         11    1    1    2    0    0 -0.60215234832E+02 -0.68272360043E+02 -0.14239370104E+03  0.16900578614E+03  0.00000000000E+00 0. -1.
</event>
<event>
 7    1  0.2480409E-009  0.1088601E+03  0.7561462E-02  0.1262696E+00
          3   -1    0    0  501    0  0.00000000000E+00  0.00000000000E+00  0.31207775046E+02  0.31207775046E+02  0.00000000000E+00 0. -1.
         -3   -1    0    0    0  501 -0.00000000000E+00 -0.00000000000E+00 -0.40399273169E+03  0.40399273169E+03  0.00000000000E+00 0.  1.
         25    2    1    2    0    0 -0.47344767618E+01  0.23972303554E+02 -0.20503310014E+03  0.24141852882E+03  0.12508895753E+03 0.  0.
          5    1    3    3  502    0  0.59283478611E+01 -0.50833538610E+02 -0.73318852342E+02  0.89511566095E+02  0.41800000000E+01 0. -1.
         -5    1    3    3    0  502 -0.10662824623E+02  0.74805842165E+02 -0.13171424780E+03  0.15190696273E+03  0.41800000000E+01 0. -1.
        -11    1    1    2    0    0 -0.59764182801E+01 -0.56311301423E+02 -0.68668794040E+02  0.89006086973E+02  0.00000000000E+00 0. -1.
         11    1    1    2    0    0  0.10710895042E+02  0.32338997869E+02 -0.99083062462E+02  0.10477589094E+03  0.00000000000E+00 0.  1.
</event>
<event>
 7    1  0.2480409E-009  0.1243832E+03  0.7561462E-02  0.1236036E+00
         -2   -1    0    0    0  501 -0.00000000000E+00  0.00000000000E+00  0.10672983473E+03  0.10672983473E+03  0.00000000000E+00 0. -1.
          2   -1    0    0  501    0  0.00000000000E+00 -0.00000000000E+00 -0.44926673945E+03  0.44926673945E+03  0.00000000000E+00 0.  1.
         25    2    1    2    0    0 -0.52218864540E+01 -0.90535206808E+02 -0.39027506970E+03  0.41974617117E+03  0.12509327083E+03 0.  0.
          5    1    3    3  502    0  0.43837954983E+02 -0.18633454080E+02 -0.52945007489E+02  0.71341559599E+02  0.41800000000E+01 0.  1.
         -5    1    3    3    0  502 -0.49059841437E+02 -0.71901752728E+02 -0.33733006222E+03  0.34840461157E+03  0.41800000000E+01 0.  1.
        -11    1    1    2    0    0 -0.10698328217E+02 -0.83968310696E+01 -0.13215118293E+02  0.18963131338E+02  0.00000000000E+00 0.  1.
         11    1    1    2    0    0  0.15920214671E+02  0.98932037877E+02  0.60953283282E+02  0.11728727167E+03  0.00000000000E+00 0. -1.
</event>
<event>
 7    1  0.2480409E-009  0.1896801E+03  0.7561462E-02  0.1158750E+00
          1   -1    0    0  501    0  0.00000000000E+00  0.00000000000E+00  0.11863682736E+04  0.11863682736E+04  0.00000000000E+00 0. -1.
         -1   -1    0    0    0  501 -0.00000000000E+00 -0.00000000000E+00 -0.33188832986E+02  0.33188832986E+02  0.00000000000E+00 0.  1.
         25    2    1    2    0    0 -0.43339127976E+02  0.16368452743E+03  0.56409143902E+03  0.60209493974E+03  0.12509300680E+03 0.  0.
          5    1    3    3  502    0  0.30732482113E+02  0.38081987436E+02  0.26275592017E+03  0.26730669503E+03  0.41800000000E+01 0. -1.
         -5    1    3    3    0  502 -0.74071610089E+02  0.12560253999E+03  0.30133551885E+03  0.33478824471E+03  0.41800000000E+01 0. -1.
        -11    1    1    2    0    0 -0.20185089837E+02 -0.53547568806E+02  0.15956292349E+03  0.16951432544E+03  0.00000000000E+00 0.  1.
         11    1    1    2    0    0  0.63524217814E+02 -0.11013695862E+03  0.42952507811E+03  0.44794784142E+03  0.00000000000E+00 0. -1.
</event>
<event>
 7    1  0.2480409E-009  0.1216867E+03  0.7561462E-02  0.1240340E+00
          2   -1    0    0  501    0  0.00000000000E+00  0.00000000000E+00  0.39634993183E+03  0.39634993183E+03  0.00000000000E+00 0. -1.
         -2   -1    0    0    0  501 -0.00000000000E+00 -0.00000000000E+00 -0.70283398373E+02  0.70283398373E+02  0.00000000000E+00 0.  1.
         25    2    1    2    0    0 -0.60850669204E+02 -0.50837601042E+02  0.31213613643E+03  0.34548852201E+03  0.12508431377E+03 0.  0.
          5    1    3    3  502    0  0.12823620841E+02  0.33260314089E+02  0.66345749084E+02  0.75431588650E+02  0.41800000000E+01 0. -1.
         -5    1    3    3    0  502 -0.73674290045E+02 -0.84097915131E+02  0.24579038735E+03  0.27005693336E+03  0.41800000000E+01 0. -1.
        -11    1    1    2    0    0 -0.73717508919E+01  0.18869455339E+02  0.37143497145E+02  0.42308845838E+02  0.00000000000E+00 0. -1.
         11    1    1    2    0    0  0.68222420096E+02  0.31968145703E+02 -0.23213100120E+02  0.78835962356E+02  0.00000000000E+00 0.  1.
</event>
<event>
 7    1  0.3085400E-009  0.1217015E+03  0.7561462E-02  0.1240316E+00
         -2   -1    0    0    0  501 -0.00000000000E+00  0.00000000000E+00  0.95822983484E+02  0.95822983484E+02  0.00000000000E+00 0.  1.
          2   -1    0    0  501    0  0.00000000000E+00 -0.00000000000E+00 -0.22612223396E+03  0.22612223396E+03  0.00000000000E+00 0. -1.
         25    2    1    2    0    0 -0.63993371888E+02 -0.66778144213E+02 -0.10925603057E+03  0.19010160618E+03  0.12508904135E+03 0.  0.
          5    1    3    3  502    0 -0.74677724498E+02 -0.16683628209E+01 -0.17200208280E+02  0.76765002023E+02  0.41800000000E+01 0. -1.
         -5    1    3    3    0  502  0.10684352610E+02 -0.65109781392E+02 -0.92055822293E+02  0.11333660416E+03  0.41800000000E+01 0. -1.
        -11    1    1    2    0    0  0.53656632755E+02  0.24557555555E+02  0.28839180580E+02  0.65679571482E+02  0.00000000000E+00 0.  1.
         11    1    1    2    0    0  0.10336739133E+02  0.42220588658E+02 -0.49882400485E+02  0.66164039785E+02  0.00000000000E+00 0. -1.
</event>
<event>
 7    1  0.2480409E-009  0.7304555E+02  0.7561462E-02  0.1350032E+00
          2   -1    0    0  501    0  0.00000000000E+00  0.00000000000E+00  0.72559107433E+03  0.72559107433E+03  0.00000000000E+00 0. -1.
         -2   -1    0    0    0  501 -0.00000000000E+00 -0.00000000000E+00 -0.32058884813E+02  0.32058884813E+02  0.00000000000E+00 0.  1.
         25    2    1    2    0    0 -0.57420148370E+02 -0.30768933240E+02  0.59924244840E+03  0.61561502922E+03  0.12508617643E+03 0.  0.
          5    1    3    3  502    0 -0.10111520071E+02  0.67483332237E+01  0.49432386025E+03  0.49449098480E+03  0.41800000000E+01 0.  1.
         -5    1    3    3    0  502 -0.47308628299E+02 -0.37517266464E+02  0.10491858816E+03  0.12112404441E+03  0.41800000000E+01 0.  1.
        -11    1    1    2    0    0  0.50438507442E+02  0.10832487263E+02  0.10599669028E+03  0.11788419811E+03  0.00000000000E+00 0. -1.
         11    1    1    2    0    0  0.69816409278E+01  0.19936445978E+02 -0.11706949172E+02  0.24150731814E+02  0.00000000000E+00 0.  1.
</event>
<event>
 7    1  0.2480409E-009  0.1305511E+03  0.7561462E-02  0.1226640E+00
         -2   -1    0    0    0  501 -0.00000000000E+00  0.00000000000E+00  0.28042410999E+03  0.28042410999E+03  0.00000000000E+00 0. -1.
          2   -1    0    0  501    0  0.00000000000E+00 -0.00000000000E+00 -0.17088833052E+03  0.17088833052E+03  0.00000000000E+00 0.  1.
         25    2    1    2    0    0  0.42073779631E+02 -0.81518773386E+02  0.22955460778E+03  0.27705288289E+03  0.12508984218E+03 0.  0.
          5    1    3    3  502    0 -0.40745748794E+02 -0.22463774822E+02  0.11313219525E+03  0.12239772557E+03  0.41800000000E+01 0. -1.
         -5    1    3    3    0  502  0.82819528426E+02 -0.59054998564E+02  0.11642241253E+03  0.15465515731E+03  0.41800000000E+01 0. -1.
        -11    1    1    2    0    0  0.17711569651E+02  0.21694887529E+02 -0.71206220307E+00  0.28015618447E+02  0.00000000000E+00 0. -1.
         11    1    1    2    0    0 -0.59785349283E+02  0.59823885857E+02 -0.11930676610E+03  0.14624393918E+03  0.00000000000E+00 0.  1.
</event>
<event>
 7    1  0.2480409E-009  0.1005151E+03  0.7561462E-02  0.1279216E+00
         -2   -1    0    0    0  501 -0.00000000000E+00  0.00000000000E+00  0.19844987952E+02  0.19844987952E+02  0.00000000000E+00 0.  1.
          2   -1    0    0  501    0  0.00000000000E+00 -0.00000000000E+00 -0.68949210440E+03  0.68949210440E+03  0.00000000000E+00 0. -1.
         25    2    1    2    0    0  0.42336141822E+02 -0.14831073022E+02 -0.36886882757E+03  0.39207900549E+03  0.12509766171E+03 0.  0.
          5    1    3    3  502    0 -0.29784663165E+02  0.24185967397E+02 -0.52072548291E+02  0.64815969207E+02  0.41800000000E+01 0.  1.
         -5    1    3    3    0  502  0.72120804987E+02 -0.39017040419E+02 -0.31679627928E+03  0.32726303628E+03  0.41800000000E+01 0.  1.
        -11    1    1    2    0    0  0.18213358322E+02  0.11183508453E+01 -0.11902407408E+02  0.21786335903E+02  0.00000000000E+00 0.  1.
         11    1    1    2    0    0 -0.60549500144E+02  0.13712722177E+02 -0.28887588147E+03  0.29547175096E+03  0.00000000000E+00 0. -1.
</event>
<event>
 7    1  0.2480409E-009  0.1165338E+03  0.7561462E-02  0.1248927E+00
         -1   -1    0    0    0  501 -0.00000000000E+00  0.00000000000E+00  0.59447888773E+03  0.59447888773E+03  0.00000000000E+00 0.  1.
          1   -1    0    0  501    0  0.00000000000E+00 -0.00000000000E+00 -0.36354835890E+02  0.36354835890E+02  0.00000000000E+00 0. -1.
         25    2    1    2    0    0  0.22034230491E+02  0.71312994116E+02  0.44183906209E+03  0.46523266948E+03  0.12509448235E+03 0.  0.
          5    1    3    3  502    0 -0.28303597624E+02 -0.38958366922E+01  0.26470166534E+03  0.26627188214E+03  0.41800000000E+01 0.  1.
         -5    1    3    3    0  502  0.50337828115E+02  0.75208830808E+02  0.17713739675E+03  0.19896078734E+03  0.41800000000E+01 0.  1.
        -11    1    1    2    0    0 -0.59534577231E+01 -0.89283309218E+02  0.10765700901E+03  0.13998923013E+03  0.00000000000E+00 0.  1.
         11    1    1    2    0    0 -0.16080772768E+02  0.17970315102E+02  0.86279807368E+01  0.25611824013E+02  0.00000000000E+00 0. -1.
</event>
<event>
 7    1  0.2480409E-009  0.1355949E+03  0.7561462E-02  0.1219382E+00
         -1   -1    0    0    0  501 -0.00000000000E+00  0.00000000000E+00  0.29669093334E+03  0.29669093334E+03  0.00000000000E+00 0.  1.
          1   -1    0    0  501    0  0.00000000000E+00 -0.00000000000E+00 -0.98192949983E+02  0.98192949983E+02  0.00000000000E+00 0. -1.
         25    2    1    2    0    0 -0.10270471875E+03 -0.80575949561E+02  0.11878164255E+03  0.21632221101E+03  0.12508188305E+03 0.  0.
          5    1    3    3  502    0 -0.10721531890E+03 -0.79071558399E+02  0.42671413200E+02  0.13994912597E+03  0.41800000000E+01 0.  1.
         -5    1    3    3    0  502  0.45106001554E+01 -0.15043911621E+01  0.76110229351E+02  0.76373085039E+02  0.41800000000E+01 0.  1.
        -11    1    1    2    0    0  0.26126395532E+02  0.11889287503E+02  0.69490200926E+02  0.75185315891E+02  0.00000000000E+00 0.  1.
         11    1    1    2    0    0  0.76578323215E+02  0.68686662058E+02  0.10226139881E+02  0.10337635643E+03  0.00000000000E+00 0. -1.
</event>
<event>
 7    1  0.2480409E-009  0.9166701E+02  0.7561462E-02  0.1298864E+00
         -1   -1    0    0    0  501 -0.00000000000E+00  0.00000000000E+00  0.10669791221E+03  0.10669791221E+03  0.00000000000E+00 0.  1.
          1   -1    0    0  501    0  0.00000000000E+00 -0.00000000000E+00 -0.13041510334E+03  0.13041510334E+03  0.00000000000E+00 0. -1.
         25    2    1    2    0    0  0.27602964383E+02 -0.28411961754E+02 -0.38680494128E+02  0.13679293275E+03  0.12508781959E+03 0.  0.
          5    1    3    3  502    0  0.94614027133E+01  0.42519735086E+02  0.14617455062E+02  0.46136627592E+02  0.41800000000E+01 0. -1.
         -5    1    3    3    0  502  0.18141561670E+02 -0.70931696841E+02 -0.53297949190E+02  0.90656305155E+02  0.41800000000E+01 0. -1.
        -11    1    1    2    0    0  0.15265063676E+02  0.14802805949E+02 -0.29968197228E+02  0.36745585831E+02  0.00000000000E+00 0. -1.
         11    1    1    2    0    0 -0.42868028059E+02  0.13609155805E+02  0.44931500229E+02  0.63574496964E+02  0.00000000000E+00 0.  1.
</event>
<event>
 7    1  0.2480409E-009  0.8104682E+02  0.7561462E-02  0.1326107E+00
         -1   -1    0    0    0  501 -0.00000000000E+00  0.00000000000E+00  0.30666602579E+02  0.30666602579E+02  0.00000000000E+00 0.  1.
          1   -1    0    0  501    0  0.00000000000E+00 -0.00000000000E+00 -0.40024065500E+03  0.40024065500E+03  0.00000000000E+00 0. -1.
         25    2    1    2    0    0  0.28952509696E+02 -0.10471018164E+02 -0.22141912492E+03  0.25616922604E+03  0.12509337893E+03 0.  0.
          5    1    3    3  502    0 -0.30465862470E+02 -0.10380732863E+02 -0.64376966742E+01  0.33088438000E+02  0.41800000000E+01 0. -1.
         -5    1    3    3    0  502  0.59418372166E+02 -0.90285300906E-01 -0.21498142825E+03  0.22308078804E+03  0.41800000000E+01 0. -1.
        -11    1    1    2    0    0 -0.41189957838E+02  0.27188701222E+02 -0.37038071111E+02  0.61706213726E+02  0.00000000000E+00 0.  1.
         11    1    1    2    0    0  0.12237448142E+02 -0.16717683058E+02 -0.11111685639E+03  0.11303181781E+03  0.00000000000E+00 0. -1.
</event>
<event>
 7    1  0.2480409E-009  0.1125143E+03  0.7561462E-02  0.1255983E+00
          4   -1    0    0  501    0  0.00000000000E+00  0.00000000000E+00  0.11386759506E+03  0.11386759506E+03  0.00000000000E+00 0. -1.
         -4   -1    0    0    0  501 -0.00000000000E+00 -0.00000000000E+00 -0.14332599955E+03  0.14332599955E+03  0.00000000000E+00 0.  1.
         25    2    1    2    0    0  0.53972640707E+02 -0.36351589061E+02 -0.36082309955E+02  0.14554633836E+03  0.12508924632E+03 0.  0.
          5    1    3    3  502    0  0.45028187172E+02 -0.73316899325E+02 -0.55668020085E+02  0.10256366914E+03  0.41800000000E+01 0. -1.
         -5    1    3    3    0  502  0.89444535354E+01  0.36965310265E+02  0.19585710131E+02  0.42982669221E+02  0.41800000000E+01 0. -1.
        -11    1    1    2    0    0 -0.10269809178E+02  0.52905480461E+02  0.27453204430E+02  0.60482536958E+02  0.00000000000E+00 0. -1.
         11    1    1    2    0    0 -0.43702831530E+02 -0.16553891401E+02 -0.20829298967E+02  0.51164719287E+02  0.00000000000E+00 0.  1.
</event>
<event>
 7    1  0.3082036E-009  0.1654410E+03  0.7561462E-02  0.1182687E+00
          1   -1    0    0  501    0  0.00000000000E+00  0.00000000000E+00  0.13537078835E+04  0.13537078835E+04  0.00000000000E+00 0. -1.
         -1   -1    0    0    0  501 -0.00000000000E+00 -0.00000000000E+00 -0.25672171556E+02  0.25672171556E+02  0.00000000000E+00 0.  1.
         25    2    1    2    0    0 -0.14896053654E+03  0.22504928070E+02  0.64283147009E+03  0.67199357337E+03  0.12508936997E+03 0.  0.
          5    1    3    3  502    0 -0.37368490349E-01 -0.21572924792E+02  0.22741838999E+03  0.22847754592E+03  0.41800000000E+01 0.  1.
         -5    1    3    3    0  502 -0.14892316805E+03  0.44077852862E+02  0.41541308010E+03  0.44351602746E+03  0.41800000000E+01 0.  1.
        -11    1    1    2    0    0  0.64899681244E+01 -0.80501454346E+01  0.36735058505E+01  0.10973567014E+02  0.00000000000E+00 0.  1.
         11    1    1    2    0    0  0.14247056841E+03 -0.14454782635E+02  0.68153073601E+03  0.69641291468E+03  0.00000000000E+00 0. -1.
</event>
<event>
 7    1  0.2480409E-009  0.1460370E+03  0.7561462E-02  0.1205429E+00
          3   -1    0    0  501    0  0.00000000000E+00  0.00000000000E+00  0.91137920556E+02  0.91137920556E+02  0.00000000000E+00 0. -1.
         -3   -1    0    0    0  501 -0.00000000000E+00 -0.00000000000E+00 -0.31756836708E+03  0.31756836708E+03  0.00000000000E+00 0.  1.
         25    2    1    2    0    0 -0.44040487682E+02  0.10800421361E+03 -0.18806367303E+03  0.25420586566E+03  0.12509277482E+03 0.  0.
          5    1    3    3  502    0 -0.49480691269E+02  0.14942939382E+02 -0.13988698436E+03  0.14918937978E+03  0.41800000000E+01 0. -1.
         -5    1    3    3    0  502  0.54402035878E+01  0.93061274224E+02 -0.48176688668E+02  0.10501648588E+03  0.41800000000E+01 0. -1.
        -11    1    1    2    0    0  0.89889400962E+01  0.15830105016E+02  0.46739610907E+01  0.18794658314E+02  0.00000000000E+00 0. -1.
         11    1    1    2    0    0  0.35051547585E+02 -0.12383431862E+03 -0.43040734580E+02  0.13570576366E+03  0.00000000000E+00 0.  1.
</event>
<event>
 7    1  0.2480409E-009  0.2524557E+03  0.7561462E-02  0.1111763E+00
          4   -1    0    0  501    0  0.00000000000E+00  0.00000000000E+00  0.16472884552E+03  0.16472884552E+03  0.00000000000E+00 0. -1.
         -4   -1    0    0    0  501 -0.00000000000E+00 -0.00000000000E+00 -0.46410429794E+03  0.46410429794E+03  0.00000000000E+00 0.  1.
         25    2    1    2    0    0 -0.14028307165E+03  0.19777676842E+03 -0.24039974292E+03  0.36363959901E+03  0.12508689483E+03 0.  0.
          5    1    3    3  502    0 -0.30631255584E+02  0.77862143810E+01  0.73383721633E+01  0.32714263847E+02  0.41800000000E+01 0.  1.
         -5    1    3    3    0  502 -0.10965181606E+03  0.18999055404E+03 -0.24773811508E+03  0.33092533516E+03  0.41800000000E+01 0.  1.
        -11    1    1    2    0    0 -0.40061176201E+01 -0.38521659510E+02 -0.28629860386E+02  0.48162601004E+02  0.00000000000E+00 0.  1.
         11    1    1    2    0    0  0.14428918927E+03 -0.15925510891E+03 -0.30345849112E+02  0.21703094344E+03  0.00000000000E+00 0. -1.
</event>
<event>
 7    1  0.2480409E-009  0.7353560E+02  0.7561462E-02  0.1348467E+00
          1   -1    0    0  501    0  0.00000000000E+00  0.00000000000E+00  0.97528616931E+03  0.97528616931E+03  0.00000000000E+00 0. -1.
         -1   -1    0    0    0  501 -0.00000000000E+00 -0.00000000000E+00 -0.14160145617E+02  0.14160145617E+02  0.00000000000E+00 0.  1.
         25    2    1    2    0    0 -0.15869484170E+02 -0.19479606592E+02  0.70468855312E+03  0.71614484792E+03  0.12508473410E+03 0.  0.
          5    1    3    3  502    0 -0.28016150043E+02  0.13693840909E+02  0.65088118511E+03  0.65164117079E+03  0.41800000000E+01 0.  1.
         -5    1    3    3    0  502  0.12146665872E+02 -0.33173447501E+02  0.53807368015E+02  0.64503677133E+02  0.41800000000E+01 0.  1.
        -11    1    1    2    0    0  0.44664850551E+02  0.24286837870E+02  0.22384429855E+03  0.22954535360E+03  0.00000000000E+00 0. -1.
         11    1    1    2    0    0 -0.28795366380E+02 -0.48072312775E+01  0.32593172022E+02  0.43756113401E+02  0.00000000000E+00 0.  1.
</event>
<event>
 7    1  0.2480409E-009  0.1394531E+03  0.7561462E-02  0.1214067E+00
          2   -1    0    0  501    0  0.00000000000E+00  0.00000000000E+00  0.99232544041E+02  0.99232544041E+02  0.00000000000E+00 0.  1.
         -2   -1    0    0    0  501 -0.00000000000E+00 -0.00000000000E+00 -0.27917304891E+03  0.27917304891E+03  0.00000000000E+00 0. -1.
         25    2    1    2    0    0 -0.12489030188E+03  0.15422596561E+02 -0.91946314307E+02  0.19984578871E+03  0.12509504611E+03 0.  0.
          5    1    3    3  502    0 -0.10993309735E+03  0.42221114865E+02 -0.11230434328E+03  0.16278097663E+03  0.41800000000E+01 0.  1.
         -5    1    3    3    0  502 -0.14957204534E+02 -0.26798518305E+02  0.20358028971E+02  0.37064812078E+02  0.41800000000E+01 0.  1.
        -11    1    1    2    0    0  0.46539436358E+02 -0.21985725319E+02  0.10500551660E+02  0.52531446196E+02  0.00000000000E+00 0.  1.
         11    1    1    2    0    0  0.78350865524E+02  0.65631287584E+01 -0.98494742225E+02  0.12602835805E+03  0.00000000000E+00 0. -1.
</event>
<event>
 7    1  0.2480409E-009  0.1165827E+03  0.7561462E-02  0.1248843E+00
         -1   -1    0    0    0  501 -0.00000000000E+00  0.00000000000E+00  0.34942492885E+02  0.34942492885E+02  0.00000000000E+00 0.  1.
          1   -1    0    0  501    0  0.00000000000E+00 -0.00000000000E+00 -0.56073644274E+03  0.56073644274E+03  0.00000000000E+00 0. -1.
         25    2    1    2    0    0 -0.76279080511E+02  0.27469744546E+02 -0.35755478788E+03  0.38738099449E+03  0.12508206733E+03 0.  0.
          5    1    3    3  502    0  0.96858525158E+01  0.22902291645E+02 -0.24155313246E+03  0.24286563961E+03  0.41800000000E+01 0. -1.
         -5    1    3    3    0  502 -0.85964933027E+02  0.45674529006E+01 -0.11600165542E+03  0.14451535488E+03  0.41800000000E+01 0. -1.
        -11    1    1    2    0    0 -0.76965455166E+01 -0.36500201941E+02 -0.39533019063E+02  0.54354035276E+02  0.00000000000E+00 0.  1.
         11    1    1    2    0    0  0.83975626028E+02  0.90304573948E+01 -0.12870614291E+03  0.15394390586E+03  0.00000000000E+00 0. -1.
</event>
<event>
 7    1  0.2480409E-009  0.1215974E+03  0.7561462E-02  0.1240485E+00
          3   -1    0    0  501    0  0.00000000000E+00  0.00000000000E+00  0.31167406475E+03  0.31167406475E+03  0.00000000000E+00 0. -1.
         -3   -1    0    0    0  501 -0.00000000000E+00 -0.00000000000E+00 -0.66943804233E+02  0.66943804233E+02  0.00000000000E+00 0.  1.
         25    2    1    2    0    0  0.93375778411E+02 -0.19753049440E+02  0.13477256363E+03  0.20717329190E+03  0.12509160648E+03 0.  0.
          5    1    3    3  502    0  0.42042165619E+02  0.20610248893E+02  0.13370614318E+03  0.14172907667E+03  0.41800000000E+01 0.  1.
         -5    1    3    3    0  502  0.51333612791E+02 -0.40363298333E+02  0.10664204516E+01  0.65444215230E+02  0.41800000000E+01 0.  1.
        -11    1    1    2    0    0  0.12812084075E+02  0.20949009900E+02  0.13713819302E+02  0.28126132937E+02  0.00000000000E+00 0. -1.
         11    1    1    2    0    0 -0.10618786249E+03 -0.11959604605E+01  0.96243877587E+02  0.14331844415E+03  0.00000000000E+00 0.  1.
</event>
<event>
 7    1  0.2480409E-009  0.7775156E+02  0.7561462E-02  0.1335556E+00
          1   -1    0    0  501    0  0.00000000000E+00  0.00000000000E+00  0.17451169320E+03  0.17451169320E+03  0.00000000000E+00 0. -1.
         -1   -1    0    0    0  501 -0.00000000000E+00 -0.00000000000E+00 -0.70532288780E+02  0.70532288780E+02  0.00000000000E+00 0.  1.
         25    2    1    2    0    0  0.10890172665E+02  0.19902969896E+01  0.32376945392E+02  0.12968419372E+03  0.12508863404E+03 0.  0.
          5    1    3    3  502    0  0.41707669433E+02 -0.13707738874E+02 -0.33352956633E+02  0.55293072900E+02  0.41800000000E+01 0.  1.
         -5    1    3    3    0  502 -0.30817496767E+02  0.15698035864E+02  0.65729902025E+02  0.74391120822E+02  0.41800000000E+01 0.  1.
        -11    1    1    2    0    0  0.34269531868E+01 -0.37823006907E+02  0.66304359827E+02  0.76410679827E+02  0.00000000000E+00 0.  1.
         11    1    1    2    0    0 -0.14317125852E+02  0.35832709917E+02  0.52980992039E+01  0.38949108434E+02  0.00000000000E+00 0. -1.
</event>
<event>
 7    1  0.4337772E-009  0.1008647E+03  0.7561462E-02  0.1278488E+00
          1   -1    0    0  501    0  0.00000000000E+00  0.00000000000E+00  0.16786682015E+03  0.16786682015E+03  0.00000000000E+00 0. -1.
         -1   -1    0    0    0  501 -0.00000000000E+00 -0.00000000000E+00 -0.99072565341E+02  0.99072565341E+02  0.00000000000E+00 0.  1.
         25    2    1    2    0    0  0.38495906733E+02  0.52713813591E+02  0.62103338193E+02  0.15415744687E+03  0.12508802034E+03 0.  0.
          5    1    3    3  502    0  0.77809893223E+02  0.51049295526E+02  0.17953089916E+02  0.94869362255E+02  0.41800000000E+01 0.  1.
         -5    1    3    3    0  502 -0.39313986490E+02  0.16645180644E+01  0.44150248277E+02  0.59288084613E+02  0.41800000000E+01 0.  1.
        -11    1    1    2    0    0 -0.17916903437E+02 -0.76857807975E+01 -0.40146210754E+02  0.44629641418E+02  0.00000000000E+00 0.  1.
         11    1    1    2    0    0 -0.20579003296E+02 -0.45028032793E+02  0.46837127367E+02  0.68152297202E+02  0.00000000000E+00 0. -1.
</event>
<event>
 7    1  0.2480409E-009  0.1253740E+03  0.7561462E-02  0.1234486E+00
          1   -1    0    0  501    0  0.00000000000E+00  0.00000000000E+00  0.17446519364E+03  0.17446519364E+03  0.00000000000E+00 0. -1.
         -1   -1    0    0    0  501 -0.00000000000E+00 -0.00000000000E+00 -0.12028656020E+03  0.12028656020E+03  0.00000000000E+00 0.  1.
         25    2    1    2    0    0 -0.57894718641E+02  0.75507776994E+02  0.18461635181E+02  0.15825178396E+03  0.12509825067E+03 0.  0.
          5    1    3    3  502    0 -0.66024413298E+02  0.34628324508E+01  0.45926010753E+02  0.80609461130E+02  0.41800000000E+01 0.  1.
         -5    1    3    3    0  502  0.81296946570E+01  0.72044944543E+02 -0.27464375573E+02  0.77642322834E+02  0.41800000000E+01 0.  1.
        -11    1    1    2    0    0  0.60762810723E+01  0.10112966197E+02  0.34447264604E+02  0.36411637091E+02  0.00000000000E+00 0. -1.
         11    1    1    2    0    0  0.51818437568E+02 -0.85620743191E+02  0.12697336478E+01  0.10008833279E+03  0.00000000000E+00 0.  1.
</event>
<event>
 7    1  0.2480409E-009  0.9061067E+02  0.7561462E-02  0.1301380E+00
          3   -1    0    0  501    0  0.00000000000E+00  0.00000000000E+00  0.35083564102E+02  0.35083564102E+02  0.00000000000E+00 0. -1.
         -3   -1    0    0    0  501 -0.00000000000E+00 -0.00000000000E+00 -0.37687280903E+03  0.37687280903E+03  0.00000000000E+00 0.  1.
         25    2    1    2    0    0  0.19398925795E+02  0.30101980732E+02 -0.22305192704E+03  0.25822967119E+03  0.12509177975E+03 0.  0.
          5    1    3    3  502    0 -0.35564913458E+02  0.20135358401E+02 -0.18735434007E+03  0.19180567476E+03  0.41800000000E+01 0.  1.
         -5    1    3    3    0  502  0.54963839253E+02  0.99666223310E+01 -0.35697586972E+02  0.66423996430E+02  0.41800000000E+01 0.  1.
        -11    1    1    2    0    0  0.27239567615E+02 -0.25405374675E+02 -0.15496840251E+02  0.40343266650E+02  0.00000000000E+00 0. -1.
         11    1    1    2    0    0 -0.46638493410E+02 -0.46966060570E+01 -0.10324047763E+03  0.11338343529E+03  0.00000000000E+00 0.  1.
</event>
<event>
 7    1  0.2480409E-009  0.1068123E+03  0.7561462E-02  0.1266590E+00
          2   -1    0    0  501    0  0.00000000000E+00  0.00000000000E+00  0.21123561509E+03  0.21123561509E+03  0.00000000000E+00 0. -1.
         -2   -1    0    0    0  501 -0.00000000000E+00 -0.00000000000E+00 -0.75001366608E+02  0.75001366608E+02  0.00000000000E+00 0.  1.
         25    2    1    2    0    0 -0.56351040214E+02 -0.25097945484E+02  0.52499620200E+02  0.14903052219E+03  0.12509412385E+03 0.  0.
          5    1    3    3  502    0  0.20379363555E+02  0.35681608947E+02  0.19229626997E+02  0.45560362492E+02  0.41800000000E+01 0.  1.
         -5    1    3    3    0  502 -0.76730403769E+02 -0.60779554430E+02  0.33269993202E+02  0.10347015969E+03  0.41800000000E+01 0.  1.
        -11    1    1    2    0    0  0.27657002422E+02  0.34438954016E+02  0.95182557847E+02  0.10493174284E+03  0.00000000000E+00 0. -1.
         11    1    1    2    0    0  0.28694037792E+02 -0.93410085324E+01 -0.11447929563E+02  0.32274716676E+02  0.00000000000E+00 0.  1.
</event>
<event>
 7    1  0.2480409E-009  0.1524736E+03  0.7561462E-02  0.1197466E+00
          3   -1    0    0  501    0  0.00000000000E+00  0.00000000000E+00  0.13707521153E+03  0.13707521153E+03  0.00000000000E+00 0. -1.
         -3   -1    0    0    0  501 -0.00000000000E+00 -0.00000000000E+00 -0.19411642082E+03  0.19411642082E+03  0.00000000000E+00 0.  1.
         25    2    1    2    0    0 -0.22500314671E+02 -0.10794500840E+03 -0.86101875528E+02  0.18767160408E+03  0.12509480009E+03 0.  0.
          5    1    3    3  502    0 -0.60151609951E+02 -0.92823439735E+01 -0.33989357457E+02  0.69836429675E+02  0.41800000000E+01 0.  1.
         -5    1    3    3    0  502  0.37651295280E+02 -0.98662664428E+02 -0.52112518070E+02  0.11783517441E+03  0.41800000000E+01 0.  1.
        -11    1    1    2    0    0 -0.61610888533E+01  0.10938400084E+03  0.12196454672E+02  0.11023416967E+03  0.00000000000E+00 0.  1.
         11    1    1    2    0    0  0.28661403524E+02 -0.14389924374E+01  0.16864211561E+02  0.33285858601E+02  0.00000000000E+00 0. -1.
</event>
<event>
 7    1  0.2480409E-009  0.1961227E+03  0.7561462E-02  0.1153052E+00
          2   -1    0    0  501    0  0.00000000000E+00  0.00000000000E+00  0.77672148796E+03  0.77672148796E+03  0.00000000000E+00 0. -1.
         -2   -1    0    0    0  501 -0.00000000000E+00 -0.00000000000E+00 -0.66822394598E+02  0.66822394598E+02  0.00000000000E+00 0.  1.
         25    2    1    2    0    0 -0.15638791407E+03  0.11800615427E+03  0.30219035443E+03  0.38125058184E+03  0.12510141376E+03 0.  0.
          5    1    3    3  502    0 -0.12030034734E+03  0.93502752154E+02  0.12035745109E+03  0.19421206621E+03  0.41800000000E+01 0.  1.
         -5    1    3    3    0  502 -0.36087566733E+02  0.24503402119E+02  0.18183290335E+03  0.18703851563E+03  0.41800000000E+01 0.  1.
        -11    1    1    2    0    0  0.78292116247E+02 -0.62768603382E+02  0.10679991162E+03  0.14654615027E+03  0.00000000000E+00 0.  1.
         11    1    1    2    0    0  0.78095797822E+02 -0.55237550892E+02  0.30090882731E+03  0.31574715045E+03  0.00000000000E+00 0. -1.
</event>
<event>
 7    1  0.2480409E-009  0.1094848E+03  0.7561462E-02  0.1261527E+00
          1   -1    0    0  501    0  0.00000000000E+00  0.00000000000E+00  0.13150168778E+03  0.13150168778E+03  0.00000000000E+00 0. -1.
         -1   -1    0    0    0  501 -0.00000000000E+00 -0.00000000000E+00 -0.18114466042E+03  0.18114466042E+03  0.00000000000E+00 0.  1.
         25    2    1    2    0    0 -0.29894900766E+02  0.63117692726E+02 -0.11147944858E+03  0.18152979227E+03  0.12509136581E+03 0.  0.
          5    1    3    3  502    0  0.29075923607E+02  0.76940817919E+02 -0.68840318309E+02  0.10733946441E+03  0.41800000000E+01 0. -1.
         -5    1    3    3    0  502 -0.58970824373E+02 -0.13823125193E+02 -0.42639130274E+02  0.74190327859E+02  0.41800000000E+01 0. -1.
        -11    1    1    2    0    0  0.28927797150E+02 -0.26385261685E+02 -0.18103189517E+02  0.43136121207E+02  0.00000000000E+00 0.  1.
         11    1    1    2    0    0  0.96710361594E+00 -0.36732431041E+02  0.79939665458E+02  0.87980434717E+02  0.00000000000E+00 0. -1.
</event>
<event>
 7    1  0.2480409E-009  0.1117954E+03  0.7561462E-02  0.1257281E+00
         -2   -1    0    0    0  501 -0.00000000000E+00  0.00000000000E+00  0.10214149006E+03  0.10214149006E+03  0.00000000000E+00 0. -1.
          2   -1    0    0  501    0  0.00000000000E+00 -0.00000000000E+00 -0.13807553090E+03  0.13807553090E+03  0.00000000000E+00 0.  1.
         25    2    1    2    0    0 -0.19271594520E+02 -0.37006974346E+02  0.51195781332E+01  0.13197144655E+03  0.12509733059E+03 0.  0.
          5    1    3    3  502    0  0.73246748596E+01 -0.77657961841E+02  0.20653468902E+02  0.80798812347E+02  0.41800000000E+01 0. -1.
         -5    1    3    3    0  502 -0.26596269380E+02  0.40650987494E+02 -0.15533890768E+02  0.51172634206E+02  0.41800000000E+01 0. -1.
        -11    1    1    2    0    0  0.25520877150E+01  0.64494697126E+02 -0.13625426191E+02  0.65967653801E+02  0.00000000000E+00 0. -1.
         11    1    1    2    0    0  0.16719506805E+02 -0.27487722780E+02 -0.27428192788E+02  0.42277920610E+02  0.00000000000E+00 0.  1.
</event>
<event>
 7    1  0.2480409E-009  0.1189344E+03  0.7561462E-02  0.1244865E+00
         -3   -1    0    0    0  501 -0.00000000000E+00  0.00000000000E+00  0.48763749159E+02  0.48763749159E+02  0.00000000000E+00 0.  1.
          3   -1    0    0  501    0  0.00000000000E+00 -0.00000000000E+00 -0.31406711647E+03  0.31406711647E+03  0.00000000000E+00 0. -1.
         25    2    1    2    0    0  0.36542386332E+01  0.58388766137E+02 -0.11844252240E+03  0.18193140534E+03  0.12509118140E+03 0.  0.
          5    1    3    3  502    0 -0.69029498314E+01 -0.38949725136E+02 -0.28697435474E+02  0.49048414932E+02  0.41800000000E+01 0.  1.
         -5    1    3    3    0  502  0.10557188465E+02  0.97338491273E+02 -0.89745086929E+02  0.13288299041E+03  0.41800000000E+01 0.  1.
        -11    1    1    2    0    0 -0.42443001212E+02 -0.28481694729E+02 -0.10371611875E+03  0.11562719652E+03  0.00000000000E+00 0. -1.
         11    1    1    2    0    0  0.38788762579E+02 -0.29907071407E+02 -0.43144726162E+02  0.65272263774E+02  0.00000000000E+00 0.  1.
</event>
<event>
 7    1  0.2480409E-009  0.7866196E+02  0.7561462E-02  0.1332892E+00
          3   -1    0    0  501    0  0.00000000000E+00  0.00000000000E+00  0.22425094861E+02  0.22425094861E+02  0.00000000000E+00 0. -1.
         -3   -1    0    0    0  501 -0.00000000000E+00 -0.00000000000E+00 -0.13154478290E+04  0.13154478290E+04  0.00000000000E+00 0.  1.
         25    2    1    2    0    0  0.26182191210E+02  0.38490224079E+02 -0.11656241860E+04  0.11732411383E+04  0.12509205139E+03 0.  0.
          5    1    3    3  502    0  0.27450146883E+02  0.35609784981E+01 -0.10838592829E+04  0.10842207380E+04  0.41800000000E+01 0.  1.
         -5    1    3    3    0  502 -0.12679556733E+01  0.34929245581E+02 -0.81764903023E+02  0.89020400330E+02  0.41800000000E+01 0.  1.
        -11    1    1    2    0    0  0.25423840239E+02 -0.33821910402E+02 -0.93728985626E+02  0.10283684176E+03  0.00000000000E+00 0.  1.
         11    1    1    2    0    0 -0.51606031449E+02 -0.46683136774E+01 -0.33669562600E+02  0.61794943807E+02  0.00000000000E+00 0. -1.
</event>
<event>
 7    1  0.2480409E-009  0.1184755E+03  0.7561462E-02  0.1245633E+00
          2   -1    0    0  501    0  0.00000000000E+00  0.00000000000E+00  0.10115528995E+03  0.10115528995E+03  0.00000000000E+00 0.  1.
         -2   -1    0    0    0  501 -0.00000000000E+00 -0.00000000000E+00 -0.19912601859E+03  0.19912601859E+03  0.00000000000E+00 0. -1.
         25    2    1    2    0    0 -0.62274573403E+02  0.39633723855E+02  0.47680966466E+01  0.14532419267E+03  0.12508969451E+03 0.  0.
          5    1    3    3  502    0 -0.70101594643E+02 -0.28289029742E+02 -0.61519484323E+01  0.75959342050E+02  0.41800000000E+01 0.  1.
         -5    1    3    3    0  502  0.78270212394E+01  0.67922753597E+02  0.10920045079E+02  0.69364850624E+02  0.41800000000E+01 0.  1.
        -11    1    1    2    0    0  0.49645154474E+02  0.15451440752E+01 -0.10017048228E+03  0.11180856118E+03  0.00000000000E+00 0. -1.
         11    1    1    2    0    0  0.12629418930E+02 -0.41178867930E+02 -0.25683430074E+01  0.43148554696E+02  0.00000000000E+00 0.  1.
</event>
<event>
 7    1  0.2480409E-009  0.1108788E+03  0.7561462E-02  0.1258951E+00
         -1   -1    0    0    0  501 -0.00000000000E+00  0.00000000000E+00  0.14690791356E+02  0.14690791356E+02  0.00000000000E+00 0.  1.
          1   -1    0    0  501    0  0.00000000000E+00 -0.00000000000E+00 -0.16725975390E+04  0.16725975390E+04  0.00000000000E+00 0. -1.
         25    2    1    2    0    0  0.56208116882E+02 -0.43700972409E+02 -0.13620778890E+04  0.13696608489E+04  0.12508212467E+03 0.  0.
          5    1    3    3  502    0  0.72936907382E+02 -0.52586230379E+02 -0.13227509238E+04  0.13258101610E+04  0.41800000000E+01 0.  1.
         -5    1    3    3    0  502 -0.16728790500E+02  0.88852579708E+01 -0.39326965164E+02  0.43850687906E+02  0.41800000000E+01 0.  1.
        -11    1    1    2    0    0 -0.72465048664E+02  0.77357753184E+01 -0.22545998238E+03  0.23694562489E+03  0.00000000000E+00 0.  1.
         11    1    1    2    0    0  0.16256931782E+02  0.35965197090E+02 -0.70368876235E+02  0.80681856543E+02  0.00000000000E+00 0. -1.
</event>
<event>
 7    1  0.2480409E-009  0.1596741E+03  0.7561462E-02  0.1189065E+00
         -2   -1    0    0    0  501 -0.00000000000E+00  0.00000000000E+00  0.40313997278E+03  0.40313997278E+03  0.00000000000E+00 0.  1.
          2   -1    0    0  501    0  0.00000000000E+00 -0.00000000000E+00 -0.76233672511E+02  0.76233672511E+02  0.00000000000E+00 0. -1.
         25    2    1    2    0    0  0.86605105789E+02  0.35023563956E+02  0.71588329934E+02  0.17175381547E+03  0.12508952700E+03 0.  0.
          5    1    3    3  502    0  0.26492998554E+02 -0.46686657688E+02  0.16881699943E+02  0.56426830244E+02  0.41800000000E+01 0.  1.
         -5    1    3    3    0  502  0.60112107235E+02  0.81710221643E+02  0.54706629992E+02  0.11532698523E+03  0.41800000000E+01 0.  1.
        -11    1    1    2    0    0 -0.85854159328E+02 -0.80978573012E+02  0.13778495600E+03  0.18141984473E+03  0.00000000000E+00 0. -1.
         11    1    1    2    0    0 -0.75094646089E+00  0.45955009057E+02  0.11753301433E+03  0.12619998509E+03  0.00000000000E+00 0.  1.
</event>
<event>
 7    1  0.2480409E-009  0.1632175E+03  0.7561462E-02  0.1185111E+00
          2   -1    0    0  501    0  0.00000000000E+00  0.00000000000E+00  0.50127687224E+02  0.50127687224E+02  0.00000000000E+00 0. -1.
         -2   -1    0    0    0  501 -0.00000000000E+00 -0.00000000000E+00 -0.59326557161E+03  0.59326557161E+03  0.00000000000E+00 0.  1.
         25    2    1    2    0    0 -0.88888849003E+02  0.89582748071E+02 -0.37053608201E+03  0.41094169569E+03  0.12509913252E+03 0.  0.
          5    1    3    3  502    0 -0.12100285379E+03  0.70356273859E+02 -0.29273659471E+03  0.32450559653E+03  0.41800000000E+01 0.  1.
         -5    1    3    3    0  502  0.32114004789E+02  0.19226474212E+02 -0.77799487299E+02  0.86436099161E+02  0.41800000000E+01 0.  1.
        -11    1    1    2    0    0  0.96864821639E+02 -0.97545556880E+02 -0.17324829479E+03  0.22116261209E+03  0.00000000000E+00 0.  1.
         11    1    1    2    0    0 -0.79759726363E+01  0.79628088095E+01  0.64649240585E+00  0.11288951061E+02  0.00000000000E+00 0. -1.
</event>
<event>
 7    1  0.2480409E-009  0.1357720E+03  0.7561462E-02  0.1219134E+00
         -2   -1    0    0    0  501 -0.00000000000E+00  0.00000000000E+00  0.16210340839E+03  0.16210340839E+03  0.00000000000E+00 0.  1.
          2   -1    0    0  501    0  0.00000000000E+00 -0.00000000000E+00 -0.14918916567E+03  0.14918916567E+03  0.00000000000E+00 0. -1.
         25    2    1    2    0    0 -0.10653602745E+03 -0.31625629842E+02  0.30369145950E+01  0.16735539270E+03  0.12509396071E+03 0.  0.
          5    1    3    3  502    0 -0.12163256221E+03 -0.49008283016E+02 -0.22059333997E+02  0.13304276985E+03  0.41800000000E+01 0. -1.
         -5    1    3    3    0  502  0.15096534759E+02  0.17382653174E+02  0.25096248592E+02  0.34312622845E+02  0.41800000000E+01 0. -1.
        -11    1    1    2    0    0  0.60374879111E+02  0.36459923052E+02 -0.35558240913E+02  0.78986331181E+02  0.00000000000E+00 0. -1.
         11    1    1    2    0    0  0.46161148337E+02 -0.48342932098E+01  0.45435569037E+02  0.64950850190E+02  0.00000000000E+00 0.  1.
</event>
<event>
 7    1  0.2480409E-009  0.2246767E+03  0.7561462E-02  0.1130444E+00
          2   -1    0    0  501    0  0.00000000000E+00  0.00000000000E+00  0.69079117064E+02  0.69079117064E+02  0.00000000000E+00 0. -1.
         -2   -1    0    0    0  501 -0.00000000000E+00 -0.00000000000E+00 -0.86629188020E+03  0.86629188020E+03  0.00000000000E+00 0.  1.
         25    2    1    2    0    0 -0.65266608317E+02 -0.20253909935E+03 -0.31146299309E+03  0.39741630067E+03  0.12509477625E+03 0.  0.
          5    1    3    3  502    0 -0.34565525291E+02 -0.18284122111E+03 -0.30886152282E+03  0.36060865263E+03  0.41800000000E+01 0. -1.
         -5    1    3    3    0  502 -0.30701083025E+02 -0.19697878248E+02 -0.26014702690E+01  0.36807648036E+02  0.41800000000E+01 0. -1.
        -11    1    1    2    0    0  0.62182225846E+02  0.68800627592E+02 -0.25354086312E+03  0.26996874790E+03  0.00000000000E+00 0.  1.
         11    1    1    2    0    0  0.30843824707E+01  0.13373847176E+03 -0.23220890692E+03  0.26798594870E+03  0.00000000000E+00 0. -1.
</event>
<event>
 7    1  0.2480409E-009  0.9387469E+02  0.7561462E-02  0.1293731E+00
         -2   -1    0    0    0  501 -0.00000000000E+00  0.00000000000E+00  0.14668957185E+03  0.14668957185E+03  0.00000000000E+00 0.  1.
          2   -1    0    0  501    0  0.00000000000E+00 -0.00000000000E+00 -0.82404668360E+02  0.82404668360E+02  0.00000000000E+00 0. -1.
         25    2    1    2    0    0 -0.16778011446E+02  0.12404682884E+02  0.35959932989E+02  0.13181584711E+03  0.12508766104E+03 0.  0.
          5    1    3    3  502    0 -0.20184027366E+01 -0.55066072745E+02  0.28626133879E+02  0.62235634954E+02  0.41800000000E+01 0. -1.
         -5    1    3    3    0  502 -0.14759608710E+02  0.67470755629E+02  0.73337991096E+01  0.69580212157E+02  0.41800000000E+01 0. -1.
        -11    1    1    2    0    0 -0.47057304583E+01  0.22129336249E+02  0.47274545819E+02  0.52409294064E+02  0.00000000000E+00 0.  1.
         11    1    1    2    0    0  0.21483741905E+02 -0.34534019133E+02 -0.18949575316E+02  0.44869099036E+02  0.00000000000E+00 0. -1.
</event>
<event>
 7    1  0.3196516E-009  0.9720026E+02  0.7561462E-02  0.1286296E+00
         -2   -1    0    0    0  501 -0.00000000000E+00  0.00000000000E+00  0.56545705506E+02  0.56545705506E+02  0.00000000000E+00 0.  1.
          2   -1    0    0  501    0  0.00000000000E+00 -0.00000000000E+00 -0.32473839554E+03  0.32473839554E+03  0.00000000000E+00 0. -1.
         25    2    1    2    0    0 -0.31135402238E+02  0.54099354051E+02 -0.22048353461E+03  0.26106896257E+03  0.12509140978E+03 0.  0.
          5    1    3    3  502    0 -0.59445809659E+02  0.43821334832E+02 -0.53375313768E+02  0.91216830642E+02  0.41800000000E+01 0. -1.
         -5    1    3    3    0  502  0.28310407421E+02  0.10278019219E+02 -0.16710822084E+03  0.16985213193E+03  0.41800000000E+01 0. -1.
        -11    1    1    2    0    0 -0.20288820806E+02 -0.18705950161E+02 -0.50692022650E+02  0.57716808483E+02  0.00000000000E+00 0. -1.
         11    1    1    2    0    0  0.51424223044E+02 -0.35393403891E+02  0.29828672296E+01  0.62498329990E+02  0.00000000000E+00 0.  1.
</event>
<event>
 7    1  0.2480409E-009  0.7850614E+02  0.7561462E-02  0.1333345E+00
         -2   -1    0    0    0  501 -0.00000000000E+00  0.00000000000E+00  0.24480791840E+02  0.24480791840E+02  0.00000000000E+00 0. -1.
          2   -1    0    0  501    0  0.00000000000E+00 -0.00000000000E+00 -0.50736884436E+03  0.50736884436E+03  0.00000000000E+00 0.  1.
         25    2    1    2    0    0  0.20726377544E+02  0.13435553658E+02 -0.26430576927E+03  0.29345331593E+03  0.12508881699E+03 0.  0.
          5    1    3    3  502    0 -0.77915907446E+01  0.35162802237E+02 -0.25306458563E+03  0.25564875991E+03  0.41800000000E+01 0.  1.
         -5    1    3    3    0  502  0.28517968289E+02 -0.21727248579E+02 -0.11241183640E+02  0.37804556019E+02  0.41800000000E+01 0.  1.
        -11    1    1    2    0    0 -0.27955721242E+02  0.29779102472E+02 -0.16064827299E+03  0.16575941876E+03  0.00000000000E+00 0.  1.
         11    1    1    2    0    0  0.72293436972E+01 -0.43214656130E+02 -0.57934010262E+02  0.72636901502E+02  0.00000000000E+00 0. -1.
</event>
<event>
 7    1  0.2480409E-009  0.9519886E+02  0.7561462E-02  0.1290729E+00
         -1   -1    0    0    0  501 -0.00000000000E+00  0.00000000000E+00  0.19140078736E+02  0.19140078736E+02  0.00000000000E+00 0.  1.
          1   -1    0    0  501    0  0.00000000000E+00 -0.00000000000E+00 -0.90554207536E+03  0.90554207536E+03  0.00000000000E+00 0. -1.
         25    2    1    2    0    0 -0.82355163380E+01  0.29764710591E+02 -0.72720468031E+03  0.73853153200E+03  0.12509362480E+03 0.  0.
          5    1    3    3  502    0  0.41302726134E+02 -0.18428613009E+02 -0.13823080164E+03  0.14550173842E+03  0.41800000000E+01 0. -1.
         -5    1    3    3    0  502 -0.49538242472E+02  0.48193323600E+02 -0.58897387867E+03  0.59302979357E+03  0.41800000000E+01 0. -1.
        -11    1    1    2    0    0 -0.64723643437E+01 -0.50169282799E+02 -0.40451711093E+02  0.64770281512E+02  0.00000000000E+00 0.  1.
         11    1    1    2    0    0  0.14707880682E+02  0.20404572209E+02 -0.11874560522E+03  0.12138034058E+03  0.00000000000E+00 0. -1.
</event>
<event>
 7    1  0.2480409E-009  0.1040926E+03  0.7561462E-02  0.1271918E+00
         -1   -1    0    0    0  501 -0.00000000000E+00  0.00000000000E+00  0.84313153793E+02  0.84313153793E+02  0.00000000000E+00 0.  1.
          1   -1    0    0  501    0  0.00000000000E+00 -0.00000000000E+00 -0.13934539733E+03  0.13934539733E+03  0.00000000000E+00 0. -1.
         25    2    1    2    0    0 -0.57353449045E+01 -0.70736149582E+01 -0.32106514577E+02  0.12946397057E+03  0.12508861334E+03 0.  0.
          5    1    3    3  502    0 -0.17287356880E+02 -0.60014979801E+02  0.63056342639E+01  0.62911715379E+02  0.41800000000E+01 0. -1.
         -5    1    3    3    0  502  0.11552011976E+02  0.52941364843E+02 -0.38412148840E+02  0.66552255189E+02  0.41800000000E+01 0. -1.
        -11    1    1    2    0    0 -0.38062209839E+02 -0.16521516748E+02 -0.12830357274E+02  0.43431675092E+02  0.00000000000E+00 0. -1.
         11    1    1    2    0    0  0.43797554743E+02  0.23595131707E+02 -0.10095371687E+02  0.50762905465E+02  0.00000000000E+00 0.  1.
</event>
<event>
 7    1  0.2480409E-009  0.1251174E+03  0.7561462E-02  0.1234886E+00
         -2   -1    0    0    0  501 -0.00000000000E+00  0.00000000000E+00  0.17804393545E+02  0.17804393545E+02  0.00000000000E+00 0.  1.
          2   -1    0    0  501    0  0.00000000000E+00 -0.00000000000E+00 -0.10168739950E+04  0.10168739950E+04  0.00000000000E+00 0. -1.
         25    2    1    2    0    0  0.54300056726E+02 -0.55916775021E+02 -0.65300251155E+03  0.66942881280E+03  0.12508986141E+03 0.  0.
          5    1    3    3  502    0 -0.34990878500E+02 -0.33004242244E+02 -0.32964176659E+03  0.33315883339E+03  0.41800000000E+01 0. -1.
         -5    1    3    3    0  502  0.89290935226E+02 -0.22912532777E+02 -0.32336074496E+03  0.33626997941E+03  0.41800000000E+01 0. -1.
        -11    1    1    2    0    0 -0.41606309400E+02 -0.97986481871E+01 -0.77903867142E+02  0.88860064168E+02  0.00000000000E+00 0.  1.
         11    1    1    2    0    0 -0.12693747326E+02  0.65715423208E+02 -0.26816322281E+03  0.27638951163E+03  0.00000000000E+00 0. -1.
</event>
<event>
 7    1  0.2480409E-009  0.8912520E+02  0.7561462E-02  0.1304984E+00
          2   -1    0    0  501    0  0.00000000000E+00  0.00000000000E+00  0.15791047757E+03  0.15791047757E+03  0.00000000000E+00 0. -1.
         -2   -1    0    0    0  501 -0.00000000000E+00 -0.00000000000E+00 -0.83247822013E+02  0.83247822013E+02  0.00000000000E+00 0.  1.
         25    2    1    2    0    0  0.23491631616E+02  0.28224832254E+02  0.44892531478E+02  0.13787850773E+03  0.12508655243E+03 0.  0.
          5    1    3    3  502    0 -0.13060660854E+02  0.51544101028E+02  0.69688266258E+02  0.87757062775E+02  0.41800000000E+01 0.  1.
         -5    1    3    3    0  502  0.36552292470E+02 -0.23319268775E+02 -0.24795734780E+02  0.50121444954E+02  0.41800000000E+01 0.  1.
        -11    1    1    2    0    0 -0.56332275777E+01 -0.51617889392E+02 -0.10921589634E+02  0.53060539748E+02  0.00000000000E+00 0.  1.
         11    1    1    2    0    0 -0.17858404039E+02  0.23393057138E+02  0.40691713710E+02  0.50219252103E+02  0.00000000000E+00 0. -1.
</event>
<event>
 7    1  0.2480409E-009  0.1198211E+03  0.7561462E-02  0.1243392E+00
         -1   -1    0    0    0  501 -0.00000000000E+00  0.00000000000E+00  0.18964133443E+02  0.18964133443E+02  0.00000000000E+00 0.  1.
          1   -1    0    0  501    0  0.00000000000E+00 -0.00000000000E+00 -0.14813028859E+04  0.14813028859E+04  0.00000000000E+00 0. -1.
         25    2    1    2    0    0  0.12687955681E+02 -0.81969183713E+02 -0.12065096591E+04  0.12158100909E+04  0.12509471746E+03 0.  0.
          5    1    3    3  502    0 -0.24909060136E+02  0.22608570313E+00 -0.52514852502E+02  0.58273446139E+02  0.41800000000E+01 0. -1.
         -5    1    3    3    0  502  0.37597015817E+02 -0.82195269416E+02 -0.11539948066E+04  0.11575366447E+04  0.41800000000E+01 0. -1.
        -11    1    1    2    0    0 -0.32231910685E+02  0.95061697288E+02 -0.21633333934E+03  0.23848634356E+03  0.00000000000E+00 0.  1.
         11    1    1    2    0    0  0.19543955003E+02 -0.13092513574E+02 -0.39495754054E+02  0.45970584912E+02  0.00000000000E+00 0. -1.
</event>
<event>
 7    1  0.2480409E-009  0.7636688E+02  0.7561462E-02  0.1339690E+00
          3   -1    0    0  501    0  0.00000000000E+00  0.00000000000E+00  0.58308592932E+02  0.58308592932E+02  0.00000000000E+00 0. -1.
         -3   -1    0    0    0  501 -0.00000000000E+00 -0.00000000000E+00 -0.22220004777E+03  0.22220004777E+03  0.00000000000E+00 0.  1.
         25    2    1    2    0    0 -0.13077147565E+02  0.11160992426E+02 -0.56904923215E+02  0.13849311519E+03  0.12508634269E+03 0.  0.
          5    1    3    3  502    0  0.28537737690E+02  0.27251993617E+02  0.23735508525E+02  0.46237651254E+02  0.41800000000E+01 0. -1.
         -5    1    3    3    0  502 -0.41614885255E+02 -0.16091001191E+02 -0.80640431740E+02  0.92255463932E+02  0.41800000000E+01 0. -1.
        -11    1    1    2    0    0  0.68953612929E+01 -0.39060375380E+02 -0.10626955211E+03  0.11343049254E+03  0.00000000000E+00 0.  1.
         11    1    1    2    0    0  0.61817862721E+01  0.27899382954E+02 -0.71697951385E+00  0.28585032978E+02  0.00000000000E+00 0. -1.
</event>
<event>
 7    1  0.2480409E-009  0.3650813E+03  0.7561462E-02  0.1056590E+00
          1   -1    0    0  501    0  0.00000000000E+00  0.00000000000E+00  0.23194906866E+03  0.23194906866E+03  0.00000000000E+00 0. -1.
         -1   -1    0    0    0  501 -0.00000000000E+00 -0.00000000000E+00 -0.62027401590E+03  0.62027401590E+03  0.00000000000E+00 0.  1.
         25    2    1    2    0    0 -0.34255742516E+03 -0.12155062748E+03 -0.21263767408E+03  0.43929281808E+03  0.12507299872E+03 0.  0.
          5    1    3    3  502    0 -0.17040490192E+03 -0.67522738510E+02 -0.17796700847E+03  0.25551297290E+03  0.41800000000E+01 0. -1.
         -5    1    3    3    0  502 -0.17215252324E+03 -0.54027888974E+02 -0.34670665611E+02  0.18377984519E+03  0.41800000000E+01 0. -1.
        -11    1    1    2    0    0  0.10332763315E+03  0.59335588668E+02 -0.20052849009E+02  0.12082809528E+03  0.00000000000E+00 0. -1.
         11    1    1    2    0    0  0.23922979201E+03  0.62215038817E+02 -0.15563442415E+03  0.29210217120E+03  0.00000000000E+00 0.  1.
</event>
<event>
 7    1  0.2480409E-009  0.2197458E+03  0.7561462E-02  0.1134073E+00
         -1   -1    0    0    0  501 -0.00000000000E+00  0.00000000000E+00  0.43823886518E+03  0.43823886518E+03  0.00000000000E+00 0.  1.
          1   -1    0    0  501    0  0.00000000000E+00 -0.00000000000E+00 -0.11651308949E+03  0.11651308949E+03  0.00000000000E+00 0. -1.
         25    2    1    2    0    0  0.70181584849E+02  0.18478288519E+03  0.17107357540E+03  0.28980708619E+03  0.12510719200E+03 0.  0.
          5    1    3    3  502    0  0.37998149431E+02  0.18956744676E+03  0.16919043325E+03  0.25694853830E+03  0.41800000000E+01 0. -1.
         -5    1    3    3    0  502  0.32183435418E+02 -0.47845615715E+01  0.18831421554E+01  0.32858547885E+02  0.41800000000E+01 0. -1.
        -11    1    1    2    0    0 -0.71529893756E+02 -0.75468580792E+02  0.10070270773E+03  0.14475174518E+03  0.00000000000E+00 0.  1.
         11    1    1    2    0    0  0.13483089072E+01 -0.10931430440E+03  0.49949492561E+02  0.12019312331E+03  0.00000000000E+00 0. -1.
</event>
<event>
 7    1  0.2948422E-009  0.1193003E+03  0.7561462E-02  0.1244256E+00
         -1   -1    0    0    0  501 -0.00000000000E+00  0.00000000000E+00  0.32891075922E+02  0.32891075922E+02  0.00000000000E+00 0.  1.
          1   -1    0    0  501    0  0.00000000000E+00 -0.00000000000E+00 -0.50267407096E+03  0.50267407096E+03  0.00000000000E+00 0. -1.
         25    2    1    2    0    0  0.73536776883E+01  0.63586235292E+02 -0.21046915676E+03  0.25306875176E+03  0.12509692751E+03 0.  0.
          5    1    3    3  502    0 -0.41151697895E+02  0.79136612587E+02 -0.13882553520E+03  0.16506382800E+03  0.41800000000E+01 0. -1.
         -5    1    3    3    0  502  0.48505375583E+02 -0.15550377295E+02 -0.71643621560E+02  0.88004923753E+02  0.41800000000E+01 0. -1.
        -11    1    1    2    0    0 -0.40846933795E+02 -0.29314154325E+02 -0.20010827587E+03  0.20632768528E+03  0.00000000000E+00 0. -1.
         11    1    1    2    0    0  0.33493256107E+02 -0.34272080967E+02 -0.59205562407E+02  0.76168709838E+02  0.00000000000E+00 0.  1.
</event>
<event>
 7    1  0.2480409E-009  0.1279818E+03  0.7561462E-02  0.1230481E+00
         -4   -1    0    0    0  501 -0.00000000000E+00  0.00000000000E+00  0.22660683859E+03  0.22660683859E+03  0.00000000000E+00 0.  1.
          4   -1    0    0  501    0  0.00000000000E+00 -0.00000000000E+00 -0.15904773751E+03  0.15904773751E+03  0.00000000000E+00 0. -1.
         25    2    1    2    0    0 -0.10975818204E+02 -0.91460302392E+02  0.16278439228E+03  0.22501651383E+03  0.12509283602E+03 0.  0.
          5    1    3    3  502    0  0.44185276698E+02 -0.52939889655E+02  0.13588635170E+03  0.15243865511E+03  0.41800000000E+01 0.  1.
         -5    1    3    3    0  502 -0.55161094901E+02 -0.38520412738E+02  0.26898040577E+02  0.72577858711E+02  0.41800000000E+01 0.  1.
        -11    1    1    2    0    0 -0.20336804324E+02  0.85129709126E+02 -0.94327670124E+02  0.12867930034E+03  0.00000000000E+00 0. -1.
         11    1    1    2    0    0  0.31312622527E+02  0.63305932661E+01 -0.89762106934E+00  0.31958761932E+02  0.00000000000E+00 0.  1.
</event>
<event>
 7    1  0.2480409E-009  0.1642113E+03  0.7561462E-02  0.1184023E+00
          2   -1    0    0  501    0  0.00000000000E+00  0.00000000000E+00  0.11130712872E+04  0.11130712872E+04  0.00000000000E+00 0. -1.
         -2   -1    0    0    0  501 -0.00000000000E+00 -0.00000000000E+00 -0.30378386922E+02  0.30378386922E+02  0.00000000000E+00 0.  1.
         25    2    1    2    0    0 -0.51146949917E+02  0.13190039298E+03  0.71238961349E+03  0.73699430466E+03  0.12509164456E+03 0.  0.
          5    1    3    3  502    0 -0.23418826150E+02  0.15086483409E+03  0.53355199651E+03  0.55498094108E+03  0.41800000000E+01 0. -1.
         -5    1    3    3    0  502 -0.27728123766E+02 -0.18964441110E+02  0.17883761698E+03  0.18201336358E+03  0.41800000000E+01 0. -1.
        -11    1    1    2    0    0  0.26534826736E+02 -0.54393795614E+02  0.58319157395E+02  0.84047047245E+02  0.00000000000E+00 0.  1.
         11    1    1    2    0    0  0.24612123181E+02 -0.77506597363E+02  0.31198412937E+03  0.32240832219E+03  0.00000000000E+00 0. -1.
</event>
<event>
 7    1  0.2480409E-009  0.3028918E+03  0.7561462E-02  0.1083804E+00
          1   -1    0    0  501    0  0.00000000000E+00  0.00000000000E+00  0.71729651891E+03  0.71729651891E+03  0.00000000000E+00 0. -1.
         -1   -1    0    0    0  501 -0.00000000000E+00 -0.00000000000E+00 -0.13953892654E+03  0.13953892654E+03  0.00000000000E+00 0.  1.
         25    2    1    2    0    0  0.87687597078E+02 -0.27252328728E+03  0.18959927415E+03  0.36545026319E+03  0.12509177954E+03 0.  0.
          5    1    3    3  502    0 -0.19521846459E+02 -0.10091283759E+03  0.10216645529E+03  0.14498262057E+03  0.41800000000E+01 0. -1.
         -5    1    3    3    0  502  0.10720944354E+03 -0.17161044969E+03  0.87432818862E+02  0.22046764262E+03  0.41800000000E+01 0. -1.
        -11    1    1    2    0    0 -0.10114504494E+03  0.17539281512E+03  0.27785639692E+03  0.34379810503E+03  0.00000000000E+00 0. -1.
         11    1    1    2    0    0  0.13457447859E+02  0.97130472165E+02  0.11030192130E+03  0.14758707724E+03  0.00000000000E+00 0.  1.
</event>
<event>
 7    1  0.2480409E-009  0.1048100E+03  0.7561462E-02  0.1270494E+00
         -2   -1    0    0    0  501 -0.00000000000E+00  0.00000000000E+00  0.16406481870E+02  0.16406481870E+02  0.00000000000E+00 0.  1.
          2   -1    0    0  501    0  0.00000000000E+00 -0.00000000000E+00 -0.88333392020E+03  0.88333392020E+03  0.00000000000E+00 0. -1.
         25    2    1    2    0    0  0.42335610926E+01 -0.23627246543E+02 -0.67658779838E+03  0.68847268395E+03  0.12508963907E+03 0.  0.
          5    1    3    3  502    0  0.51075220858E+02 -0.51526807209E+02 -0.39201035170E+03  0.39868945094E+03  0.41800000000E+01 0.  1.
         -5    1    3    3    0  502 -0.46841659766E+02  0.27899560666E+02 -0.28457744668E+03  0.28978323301E+03  0.41800000000E+01 0.  1.
        -11    1    1    2    0    0 -0.41394183713E+02  0.15695172531E+02 -0.54503961293E+02  0.70217509802E+02  0.00000000000E+00 0.  1.
         11    1    1    2    0    0  0.37160622621E+02  0.79320740117E+01 -0.13583567866E+03  0.14105020832E+03  0.00000000000E+00 0. -1.
</event>
<event>
 7    1  0.2480409E-009  0.8129133E+02  0.7561462E-02  0.1325426E+00
          1   -1    0    0  501    0  0.00000000000E+00  0.00000000000E+00  0.16993504639E+03  0.16993504639E+03  0.00000000000E+00 0. -1.
         -1   -1    0    0    0  501 -0.00000000000E+00 -0.00000000000E+00 -0.95006490777E+02  0.95006490777E+02  0.00000000000E+00 0.  1.
         25    2    1    2    0    0 -0.23825117009E+02 -0.23849837090E+01  0.10501602231E+03  0.16507899133E+03  0.12509749834E+03 0.  0.
          5    1    3    3  502    0 -0.16709632751E+02  0.32898735160E+02 -0.14745579269E+02  0.39955514135E+02  0.41800000000E+01 0.  1.
         -5    1    3    3    0  502 -0.71154842576E+01 -0.35283718869E+02  0.11976160158E+03  0.12512347720E+03  0.41800000000E+01 0.  1.
        -11    1    1    2    0    0  0.56051423331E+02 -0.45904658202E+01 -0.15579576520E+01  0.56260658243E+02  0.00000000000E+00 0. -1.
         11    1    1    2    0    0 -0.32226306322E+02  0.69754495292E+01 -0.28529509043E+02  0.43601887592E+02  0.00000000000E+00 0.  1.
</event>
<event>
 7    1  0.2480409E-009  0.1257094E+03  0.7561462E-02  0.1233965E+00
          1   -1    0    0  501    0  0.00000000000E+00  0.00000000000E+00  0.11362682739E+03  0.11362682739E+03  0.00000000000E+00 0. -1.
         -1   -1    0    0    0  501 -0.00000000000E+00 -0.00000000000E+00 -0.15815134092E+03  0.15815134092E+03  0.00000000000E+00 0.  1.
         25    2    1    2    0    0  0.44714067960E+02  0.62381275610E+02 -0.25693721727E+02  0.14899339826E+03  0.12509234177E+03 0.  0.
          5    1    3    3  502    0 -0.13098256877E+02 -0.32191464705E+02  0.54948386433E+00  0.35008985498E+02  0.41800000000E+01 0. -1.
         -5    1    3    3    0  502  0.57812324837E+02  0.94572740315E+02 -0.26243205592E+02  0.11398441277E+03  0.41800000000E+01 0. -1.
        -11    1    1    2    0    0  0.16319211747E+02 -0.34960762931E+02 -0.36995288019E+02  0.53452997600E+02  0.00000000000E+00 0.  1.
         11    1    1    2    0    0 -0.61033279707E+02 -0.27420512679E+02  0.18164496212E+02  0.69331772442E+02  0.00000000000E+00 0. -1.
</event>
<event>
 7    1  0.2480409E-009  0.1024765E+03  0.7561462E-02  0.1275173E+00
          2   -1    0    0  501    0  0.00000000000E+00  0.00000000000E+00  0.78409202905E+02  0.78409202905E+02  0.00000000000E+00 0. -1.
         -2   -1    0    0    0  501 -0.00000000000E+00 -0.00000000000E+00 -0.22632021529E+03  0.22632021529E+03  0.00000000000E+00 0.  1.
         25    2    1    2    0    0 -0.41566641852E+02  0.80814548544E+00 -0.83243154207E+01  0.13207995697E+03  0.12508949593E+03 0.  0.
          5    1    3    3  502    0 -0.79597646083E+02 -0.21654740203E+02  0.11668365533E+02  0.83416642161E+02  0.41800000000E+01 0.  1.
         -5    1    3    3    0  502  0.38031004231E+02  0.22462885688E+02 -0.19992680953E+02  0.48663314807E+02  0.41800000000E+01 0.  1.
        -11    1    1    2    0    0  0.51623022787E+02 -0.20764644496E+02 -0.35074541199E+02  0.65774846127E+02  0.00000000000E+00 0. -1.
         11    1    1    2    0    0 -0.10056380934E+02  0.19956499011E+02 -0.10451215577E+03  0.10687461510E+03  0.00000000000E+00 0.  1.
</event>
<event>
 7    1  0.2480409E-009  0.1285297E+03  0.7561462E-02  0.1229654E+00
          2   -1    0    0  501    0  0.00000000000E+00  0.00000000000E+00  0.22186716374E+03  0.22186716374E+03  0.00000000000E+00 0. -1.
         -2   -1    0    0    0  501 -0.00000000000E+00 -0.00000000000E+00 -0.74809302395E+02  0.74809302395E+02  0.00000000000E+00 0.  1.
         25    2    1    2    0    0  0.36018503625E+02 -0.52342788059E+02  0.74028978943E+02  0.15863161019E+03  0.12508636202E+03 0.  0.
          5    1    3    3  502    0  0.50529316296E+02 -0.87793671159E+02  0.58786557109E+02  0.11719331123E+03  0.41800000000E+01 0.  1.
         -5    1    3    3    0  502 -0.14510812671E+02  0.35450883100E+02  0.15242421833E+02  0.41438298955E+02  0.41800000000E+01 0.  1.
        -11    1    1    2    0    0  0.22988210745E+02  0.53389035098E+02  0.36648197440E+02  0.68716353785E+02  0.00000000000E+00 0. -1.
         11    1    1    2    0    0 -0.59006714370E+02 -0.10462470392E+01  0.36380684964E+02  0.69328502163E+02  0.00000000000E+00 0.  1.
</event>
<event>
 7    1  0.2480409E-009  0.1062651E+03  0.7561462E-02  0.1267647E+00
         -3   -1    0    0    0  501 -0.00000000000E+00  0.00000000000E+00  0.69794019208E+03  0.69794019208E+03  0.00000000000E+00 0.  1.
          3   -1    0    0  501    0  0.00000000000E+00 -0.00000000000E+00 -0.21423321556E+02  0.21423321556E+02  0.00000000000E+00 0. -1.
         25    2    1    2    0    0 -0.59887333386E+01  0.49802512246E+02  0.42119384000E+03  0.44223052498E+03  0.12508969269E+03 0.  0.
          5    1    3    3  502    0  0.54672504411E+01  0.88519300879E+02  0.34072696015E+03  0.35210494349E+03  0.41800000000E+01 0. -1.
         -5    1    3    3    0  502 -0.11455983780E+02 -0.38716788633E+02  0.80466879853E+02  0.90125581494E+02  0.41800000000E+01 0. -1.
        -11    1    1    2    0    0  0.36277608698E+02 -0.28187156891E+02  0.47791375379E+02  0.66291751124E+02  0.00000000000E+00 0. -1.
         11    1    1    2    0    0 -0.30288875359E+02 -0.21615355356E+02  0.20753165514E+03  0.21084123753E+03  0.00000000000E+00 0.  1.
</event>
<event>
 7    1  0.2480409E-009  0.3923590E+03  0.7561462E-02  0.1046458E+00
          1   -1    0    0  501    0  0.00000000000E+00  0.00000000000E+00  0.11808454977E+04  0.11808454977E+04  0.00000000000E+00 0. -1.
         -1   -1    0    0    0  501 -0.00000000000E+00 -0.00000000000E+00 -0.14274527964E+03  0.14274527964E+03  0.00000000000E+00 0.  1.
         25    2    1    2    0    0 -0.23839460727E+03 -0.29120019271E+03  0.33742045351E+03  0.52070130372E+03  0.12509094386E+03 0.  0.
          5    1    3    3  502    0 -0.10319853111E+03 -0.21357975499E+03  0.23624510074E+03  0.33480661371E+03  0.41800000000E+01 0.  1.
         -5    1    3    3    0  502 -0.13519607617E+03 -0.77620437720E+02  0.10117535277E+03  0.18589469001E+03  0.41800000000E+01 0.  1.
        -11    1    1    2    0    0  0.20140704962E+03  0.16607109306E+03  0.44788831371E+03  0.51840944161E+03  0.00000000000E+00 0.  1.
         11    1    1    2    0    0  0.36987557650E+02  0.12512909965E+03  0.25279145087E+03  0.28448003204E+03  0.00000000000E+00 0. -1.
</event>
<event>
 7    1  0.2480409E-009  0.9935939E+02  0.7561462E-02  0.1281649E+00
         -2   -1    0    0    0  501 -0.00000000000E+00  0.00000000000E+00  0.17952217718E+03  0.17952217718E+03  0.00000000000E+00 0.  1.
          2   -1    0    0  501    0  0.00000000000E+00 -0.00000000000E+00 -0.96944329242E+02  0.96944329242E+02  0.00000000000E+00 0. -1.
         25    2    1    2    0    0 -0.66816912614E+02  0.24645625688E+02  0.27617309064E+02  0.14656275366E+03  0.12508404504E+03 0.  0.
          5    1    3    3  502    0 -0.34478226285E+02 -0.25214716417E+02  0.63775810497E+02  0.76872338434E+02  0.41800000000E+01 0. -1.
         -5    1    3    3    0  502 -0.32338686329E+02  0.49860342105E+02 -0.36158501433E+02  0.69690415224E+02  0.41800000000E+01 0. -1.
        -11    1    1    2    0    0  0.49184601455E+02  0.16160457300E+02  0.66211836975E+02  0.84049347148E+02  0.00000000000E+00 0.  1.
         11    1    1    2    0    0  0.17632311159E+02 -0.40806082988E+02 -0.11251298099E+02  0.45854405617E+02  0.00000000000E+00 0. -1.
</event>
<event>
 7    1  0.2480409E-009  0.8559767E+02  0.7561462E-02  0.1313877E+00
         -1   -1    0    0    0  501 -0.00000000000E+00  0.00000000000E+00  0.84151249546E+02  0.84151249546E+02  0.00000000000E+00 0.  1.
          1   -1    0    0  501    0  0.00000000000E+00 -0.00000000000E+00 -0.14738009442E+03  0.14738009442E+03  0.00000000000E+00 0. -1.
         25    2    1    2    0    0 -0.16276864254E+02  0.94822931177E+01 -0.28471107599E+02  0.12966368046E+03  0.12508883191E+03 0.  0.
          5    1    3    3  502    0  0.47204629446E+01 -0.37498039530E+02  0.32322160981E+02  0.49905713395E+02  0.41800000000E+01 0. -1.
         -5    1    3    3    0  502 -0.20997327198E+02  0.46980332647E+02 -0.60793268580E+02  0.79757967061E+02  0.41800000000E+01 0. -1.
        -11    1    1    2    0    0  0.37186035443E+02  0.22402728857E+02  0.84648724742E+01  0.44230504838E+02  0.00000000000E+00 0.  1.
         11    1    1    2    0    0 -0.20909171189E+02 -0.31885021974E+02 -0.43222609745E+02  0.57637158668E+02  0.00000000000E+00 0. -1.
</event>
<event>
 7    1  0.2480409E-009  0.8955940E+02  0.7561462E-02  0.1303922E+00
         -4   -1    0    0    0  501 -0.00000000000E+00  0.00000000000E+00  0.26359161755E+03  0.26359161755E+03  0.00000000000E+00 0.  1.
          4   -1    0    0  501    0  0.00000000000E+00 -0.00000000000E+00 -0.65347689834E+02  0.65347689834E+02  0.00000000000E+00 0. -1.
         25    2    1    2    0    0 -0.35575058191E+02  0.51066206780E+02  0.15811015223E+03  0.21099385488E+03  0.12508494841E+03 0.  0.
          5    1    3    3  502    0 -0.96360759504E+01 -0.15560592868E+01  0.15142681539E+03  0.15179864327E+03  0.41800000000E+01 0. -1.
         -5    1    3    3    0  502 -0.25938982241E+02  0.52622266067E+02  0.66833368351E+01  0.59195211605E+02  0.41800000000E+01 0. -1.
        -11    1    1    2    0    0  0.50535352065E+02  0.58143847287E+01  0.99322876342E+01  0.51829327757E+02  0.00000000000E+00 0.  1.
         11    1    1    2    0    0 -0.14960293874E+02 -0.56880591509E+02  0.30201487859E+02  0.66116124751E+02  0.00000000000E+00 0. -1.
</event>
<event>
 7    1  0.2480409E-009  0.2439512E+03  0.7561462E-02  0.1117188E+00
         -1   -1    0    0    0  501 -0.00000000000E+00  0.00000000000E+00  0.22508798058E+03  0.22508798058E+03  0.00000000000E+00 0.  1.
          1   -1    0    0  501    0  0.00000000000E+00 -0.00000000000E+00 -0.11331930281E+04  0.11331930281E+04  0.00000000000E+00 0. -1.
         25    2    1    2    0    0 -0.74489565013E+02  0.22278179754E+03 -0.10409856898E+04  0.10744673059E+04  0.12509340709E+03 0.  0.
          5    1    3    3  502    0 -0.77368686247E+02  0.94855556237E+02 -0.69164604162E+03  0.70240672651E+03  0.41800000000E+01 0. -1.
         -5    1    3    3    0  502  0.28791212338E+01  0.12792624131E+03 -0.34933964816E+03  0.37206057939E+03  0.41800000000E+01 0. -1.
        -11    1    1    2    0    0  0.43055662351E+02 -0.76574518660E+02  0.66280807754E+01  0.88098685706E+02  0.00000000000E+00 0.  1.
         11    1    1    2    0    0  0.31433902662E+02 -0.14620727889E+03  0.12625256147E+03  0.19571501709E+03  0.00000000000E+00 0. -1.
</event>
<event>
 7    1  0.2480409E-009  0.5316299E+02  0.7561462E-02  0.1428991E+00
         -1   -1    0    0    0  501 -0.00000000000E+00  0.00000000000E+00  0.47858023508E+02  0.47858023508E+02  0.00000000000E+00 0.  1.
          1   -1    0    0  501    0  0.00000000000E+00 -0.00000000000E+00 -0.28157119134E+03  0.28157119134E+03  0.00000000000E+00 0. -1.
         25    2    1    2    0    0 -0.15081993947E+02 -0.24594546886E+02 -0.17271204529E+03  0.21519685094E+03  0.12509146968E+03 0.  0.
          5    1    3    3  502    0  0.16944059106E+01  0.60817233031E+01  0.18908271769E+02  0.20367953040E+02  0.41800000000E+01 0.  1.
         -5    1    3    3    0  502 -0.16776399858E+02 -0.30676270189E+02 -0.19162031706E+03  0.19482889790E+03  0.41800000000E+01 0.  1.
        -11    1    1    2    0    0  0.36606785360E+02  0.19264558284E+02 -0.76644367345E+02  0.87094999776E+02  0.00000000000E+00 0. -1.
         11    1    1    2    0    0 -0.21524791413E+02  0.53299886017E+01  0.15643244809E+02  0.27137364132E+02  0.00000000000E+00 0.  1.
</event>
<event>
 7    1  0.2480409E-009  0.8574356E+02  0.7561462E-02  0.1313499E+00
         -1   -1    0    0    0  501 -0.00000000000E+00  0.00000000000E+00  0.19171845280E+02  0.19171845280E+02  0.00000000000E+00 0.  1.
          1   -1    0    0  501    0  0.00000000000E+00 -0.00000000000E+00 -0.10888251686E+04  0.10888251686E+04  0.00000000000E+00 0. -1.
         25    2    1    2    0    0  0.26855588307E+02 -0.38622367721E+02 -0.89953587115E+03  0.90940949335E+03  0.12509169912E+03 0.  0.
          5    1    3    3  502    0  0.39646267344E+02 -0.86342405626E+01 -0.84320030573E+03  0.84418635656E+03  0.41800000000E+01 0.  1.
         -5    1    3    3    0  502 -0.12790679036E+02 -0.29988127158E+02 -0.56335565427E+02  0.65223136790E+02  0.41800000000E+01 0.  1.
        -11    1    1    2    0    0 -0.39738372762E+02  0.60532652787E+02 -0.14852780257E+03  0.16523876198E+03  0.00000000000E+00 0. -1.
         11    1    1    2    0    0  0.12882784455E+02 -0.21910285066E+02 -0.21589649576E+02  0.33348758535E+02  0.00000000000E+00 0.  1.
</event>
<event>
 7    1  0.2480409E-009  0.1037746E+03  0.7561462E-02  0.1272553E+00
         -2   -1    0    0    0  501 -0.00000000000E+00  0.00000000000E+00  0.21153895248E+02  0.21153895248E+02  0.00000000000E+00 0.  1.
          2   -1    0    0  501    0  0.00000000000E+00 -0.00000000000E+00 -0.10326004300E+04  0.10326004300E+04  0.00000000000E+00 0. -1.
         25    2    1    2    0    0 -0.47669313003E+02 -0.33735089311E+02 -0.83263672038E+03  0.84400327869E+03  0.12508879512E+03 0.  0.
          5    1    3    3  502    0  0.49300122743E+01  0.43032795634E+02 -0.32368099661E+03  0.32659299822E+03  0.41800000000E+01 0. -1.
         -5    1    3    3    0  502 -0.52599325278E+02 -0.76767884945E+02 -0.50895572377E+03  0.51741028047E+03  0.41800000000E+01 0. -1.
        -11    1    1    2    0    0  0.14518953774E+02  0.34806197928E+02 -0.17174814539E+03  0.17583997519E+03  0.00000000000E+00 0. -1.
         11    1    1    2    0    0  0.33150359229E+02 -0.10711086171E+01 -0.70616689633E+01  0.33911071337E+02  0.00000000000E+00 0.  1.
</event>
<event>
 7    1  0.2480409E-009  0.8130443E+02  0.7561462E-02  0.1325390E+00
          1   -1    0    0  501    0  0.00000000000E+00  0.00000000000E+00  0.33355613508E+03  0.33355613508E+03  0.00000000000E+00 0. -1.
         -1   -1    0    0    0  501 -0.00000000000E+00 -0.00000000000E+00 -0.37576130937E+02  0.37576130937E+02  0.00000000000E+00 0.  1.
         25    2    1    2    0    0  0.12651307939E+02 -0.76210204915E+01  0.21210842431E+03  0.24668973936E+03  0.12509080020E+03 0.  0.
          5    1    3    3  502    0 -0.21938919470E+02  0.23669960887E+02  0.19362981934E+03  0.19634551835E+03  0.41800000000E+01 0.  1.
         -5    1    3    3    0  502  0.34590227408E+02 -0.31290981378E+02  0.18478604967E+02  0.50344221012E+02  0.41800000000E+01 0.  1.
        -11    1    1    2    0    0  0.35251369103E+00 -0.36875733357E+02  0.64295881808E+02  0.74120876910E+02  0.00000000000E+00 0.  1.
         11    1    1    2    0    0 -0.13003821630E+02  0.44496753849E+02  0.19575698023E+02  0.50321649746E+02  0.00000000000E+00 0. -1.
</event>
<event>
 7    1  0.2480409E-009  0.1105695E+03  0.7561462E-02  0.1259519E+00
         -4   -1    0    0    0  501 -0.00000000000E+00  0.00000000000E+00  0.42297101847E+03  0.42297101847E+03  0.00000000000E+00 0.  1.
          4   -1    0    0  501    0  0.00000000000E+00 -0.00000000000E+00 -0.34902677211E+02  0.34902677211E+02  0.00000000000E+00 0. -1.
         25    2    1    2    0    0  0.82379001507E+01  0.40904700513E+02  0.28955114009E+03  0.31816430722E+03  0.12509039187E+03 0.  0.
          5    1    3    3  502    0  0.47010547010E+02 -0.25947324472E+02  0.10398337151E+03  0.11710366830E+03  0.41800000000E+01 0.  1.
         -5    1    3    3    0  502 -0.38772646859E+02  0.66852024984E+02  0.18556776858E+03  0.20106063893E+03  0.41800000000E+01 0.  1.
        -11    1    1    2    0    0 -0.43354090857E+02 -0.31323014545E+02  0.85888919116E+02  0.10118109933E+03  0.00000000000E+00 0.  1.
         11    1    1    2    0    0  0.35116190707E+02 -0.95816859673E+01  0.12628282046E+02  0.38528289128E+02  0.00000000000E+00 0. -1.
</event>
<event>
 7    1  0.2480409E-009  0.1100631E+03  0.7561462E-02  0.1260453E+00
          1   -1    0    0  501    0  0.00000000000E+00  0.00000000000E+00  0.27931850866E+02  0.27931850866E+02  0.00000000000E+00 0. -1.
         -1   -1    0    0    0  501 -0.00000000000E+00 -0.00000000000E+00 -0.53725688619E+03  0.53725688619E+03  0.00000000000E+00 0.  1.
         25    2    1    2    0    0 -0.55443233578E+02 -0.12511211671E+02 -0.28650715062E+03  0.31774880729E+03  0.12508986613E+03 0.  0.
          5    1    3    3  502    0 -0.77070928484E+02  0.21279589130E+02 -0.25282222983E+03  0.26519672175E+03  0.41800000000E+01 0.  1.
         -5    1    3    3    0  502  0.21627694906E+02 -0.33790800801E+02 -0.33684920791E+02  0.52552085538E+02  0.41800000000E+01 0.  1.
        -11    1    1    2    0    0 -0.14415354668E+02  0.24905166145E+02 -0.28189847909E+02  0.40283213328E+02  0.00000000000E+00 0.  1.
         11    1    1    2    0    0  0.69858588246E+02 -0.12393954474E+02 -0.19462803680E+03  0.20715671644E+03  0.00000000000E+00 0. -1.
</event>
<event>
 7    1  0.2480409E-009  0.1473589E+03  0.7561462E-02  0.1203756E+00
         -1   -1    0    0    0  501 -0.00000000000E+00  0.00000000000E+00  0.63250600208E+02  0.63250600208E+02  0.00000000000E+00 0.  1.
          1   -1    0    0  501    0  0.00000000000E+00 -0.00000000000E+00 -0.46520258950E+03  0.46520258950E+03  0.00000000000E+00 0. -1.
         25    2    1    2    0    0  0.79420050231E+02 -0.81372845319E+02 -0.31878759612E+03  0.36083602369E+03  0.12509204699E+03 0.  0.
          5    1    3    3  502    0  0.31861317008E+00  0.30930825261E+02 -0.69199409693E+02  0.75913425476E+02  0.41800000000E+01 0.  1.
         -5    1    3    3    0  502  0.79101437061E+02 -0.11230367058E+03 -0.24958818642E+03  0.28492259821E+03  0.41800000000E+01 0.  1.
        -11    1    1    2    0    0 -0.51448727396E+02  0.83441523615E+02 -0.22199849204E+02  0.10051016227E+03  0.00000000000E+00 0.  1.
         11    1    1    2    0    0 -0.27971322835E+02 -0.20686782962E+01 -0.60964543970E+02  0.67107003752E+02  0.00000000000E+00 0. -1.
</event>
<event>
 7    1  0.2480409E-009  0.1190152E+03  0.7561462E-02  0.1244731E+00
          3   -1    0    0  501    0  0.00000000000E+00  0.00000000000E+00  0.60613083293E+02  0.60613083293E+02  0.00000000000E+00 0. -1.
         -3   -1    0    0    0  501 -0.00000000000E+00 -0.00000000000E+00 -0.24726613370E+03  0.24726613370E+03  0.00000000000E+00 0.  1.
         25    2    1    2    0    0  0.17975046685E+02  0.49458801317E+02 -0.12170810919E+03  0.18229119286E+03  0.12509172563E+03 0.  0.
          5    1    3    3  502    0  0.63030392995E+02  0.62083601408E+02 -0.75233880399E+02  0.11621021110E+03  0.41800000000E+01 0. -1.
         -5    1    3    3    0  502 -0.45055346310E+02 -0.12624800092E+02 -0.46474228786E+02  0.66080981755E+02  0.41800000000E+01 0. -1.
        -11    1    1    2    0    0 -0.33828313949E+02  0.14341459928E+02 -0.58782841293E+01  0.37210032542E+02  0.00000000000E+00 0. -1.
         11    1    1    2    0    0  0.15853267264E+02 -0.63800261244E+02 -0.59066657094E+02  0.88377991593E+02  0.00000000000E+00 0.  1.
</event>
<event>
 7    1  0.2480409E-009  0.1258823E+03  0.7561462E-02  0.1233697E+00
          2   -1    0    0  501    0  0.00000000000E+00  0.00000000000E+00  0.41794556227E+03  0.41794556227E+03  0.00000000000E+00 0. -1.
         -2   -1    0    0    0  501 -0.00000000000E+00 -0.00000000000E+00 -0.54506322599E+02  0.54506322599E+02  0.00000000000E+00 0.  1.
         25    2    1    2    0    0  0.65977957825E+02  0.52297752176E+02  0.99066390554E+02  0.18041843032E+03  0.12509402247E+03 0.  0.
          5    1    3    3  502    0  0.77913531826E+02  0.42979737307E+01  0.10439978961E+02  0.78838167029E+02  0.41800000000E+01 0. -1.
         -5    1    3    3    0  502 -0.11935574001E+02  0.47999778446E+02  0.88626411593E+02  0.10158026329E+03  0.41800000000E+01 0. -1.
        -11    1    1    2    0    0 -0.86109112635E+02 -0.57056742035E+02  0.22396013419E+03  0.24663412739E+03  0.00000000000E+00 0.  1.
         11    1    1    2    0    0  0.20131154811E+02  0.47589898590E+01  0.40412714929E+02  0.45399327159E+02  0.00000000000E+00 0. -1.
</event>
<event>
 7    1  0.2480409E-009  0.1528651E+03  0.7561462E-02  0.1196996E+00
          1   -1    0    0  501    0  0.00000000000E+00  0.00000000000E+00  0.58319296112E+03  0.58319296112E+03  0.00000000000E+00 0. -1.
         -1   -1    0    0    0  501 -0.00000000000E+00 -0.00000000000E+00 -0.42346568796E+02  0.42346568796E+02  0.00000000000E+00 0.  1.
         25    2    1    2    0    0  0.27687407265E+02 -0.98617037166E+02  0.21728461037E+03  0.27083345670E+03  0.12508495843E+03 0.  0.
          5    1    3    3  502    0  0.73037168168E+02 -0.29469656671E+02  0.10718739174E+03  0.13307703763E+03  0.41800000000E+01 0. -1.
         -5    1    3    3    0  502 -0.45349760903E+02 -0.69147380494E+02  0.11009721863E+03  0.13775641906E+03  0.41800000000E+01 0. -1.
        -11    1    1    2    0    0 -0.42284097230E+02  0.11475855503E+03  0.25575809810E+03  0.28349545953E+03  0.00000000000E+00 0.  1.
         11    1    1    2    0    0  0.14596689965E+02 -0.16141517867E+02  0.67803683861E+02  0.71210613690E+02  0.00000000000E+00 0. -1.
</event>
<event>
 7    1  0.2480409E-009  0.1209395E+03  0.7561462E-02  0.1241555E+00
         -2   -1    0    0    0  501 -0.00000000000E+00  0.00000000000E+00  0.24524960045E+03  0.24524960045E+03  0.00000000000E+00 0.  1.
          2   -1    0    0  501    0  0.00000000000E+00 -0.00000000000E+00 -0.10614734295E+03  0.10614734295E+03  0.00000000000E+00 0. -1.
         25    2    1    2    0    0 -0.83152287972E+02 -0.54816442083E+02  0.73674825079E+01  0.16006531611E+03  0.12508988890E+03 0.  0.
          5    1    3    3  502    0 -0.69800248793E+02 -0.77762099364E+02  0.44977910916E+02  0.11383981597E+03  0.41800000000E+01 0. -1.
         -5    1    3    3    0  502 -0.13352039179E+02  0.22945657282E+02 -0.37610428408E+02  0.46225500142E+02  0.41800000000E+01 0. -1.
        -11    1    1    2    0    0  0.49503448995E+02  0.42471154517E+01  0.39463761970E+01  0.49841783045E+02  0.00000000000E+00 0. -1.
         11    1    1    2    0    0  0.33648838977E+02  0.50569326631E+02  0.12778839879E+03  0.14148984425E+03  0.00000000000E+00 0.  1.
</event>
<event>
 7    1  0.2480409E-009  0.2081069E+03  0.7561462E-02  0.1143074E+00
         -1   -1    0    0    0  501 -0.00000000000E+00  0.00000000000E+00  0.12264837283E+03  0.12264837283E+03  0.00000000000E+00 0.  1.
          1   -1    0    0  501    0  0.00000000000E+00 -0.00000000000E+00 -0.38558755936E+03  0.38558755936E+03  0.00000000000E+00 0. -1.
         25    2    1    2    0    0 -0.13628410579E+03 -0.12238698971E+03 -0.87390771796E+02  0.23840419590E+03  0.12508989122E+03 0.  0.
          5    1    3    3  502    0 -0.15533916947E+03 -0.79527151541E+02 -0.72441964663E+02  0.18899771440E+03  0.41800000000E+01 0.  1.
         -5    1    3    3    0  502  0.19055063676E+02 -0.42859838168E+02 -0.14948807133E+02  0.49406481500E+02  0.41800000000E+01 0.  1.
        -11    1    1    2    0    0  0.56748761490E+02  0.94589560803E+02 -0.56359500798E+02  0.12387090164E+03  0.00000000000E+00 0.  1.
         11    1    1    2    0    0  0.79535344305E+02  0.27797428906E+02 -0.11918891393E+03  0.14596083465E+03  0.00000000000E+00 0. -1.
</event>
<event>
 7    1  0.2480409E-009  0.7909405E+02  0.7561462E-02  0.1331642E+00
         -1   -1    0    0    0  501 -0.00000000000E+00  0.00000000000E+00  0.49249014868E+02  0.49249014868E+02  0.00000000000E+00 0.  1.
          1   -1    0    0  501    0  0.00000000000E+00 -0.00000000000E+00 -0.25572562134E+03  0.25572562134E+03  0.00000000000E+00 0. -1.
         25    2    1    2    0    0 -0.35989795541E+02  0.18787289351E+02 -0.12712818009E+03  0.18291176088E+03  0.12508761118E+03 0.  0.
          5    1    3    3  502    0  0.33917778733E+01 -0.15414973482E+02  0.20544181290E+02  0.26242357925E+02  0.41800000000E+01 0.  1.
         -5    1    3    3    0  502 -0.39381573415E+02  0.34202262833E+02 -0.14767236138E+03  0.15666940296E+03  0.41800000000E+01 0.  1.
        -11    1    1    2    0    0  0.21332266677E+02  0.31001106255E+02 -0.49535662252E+02  0.62208649120E+02  0.00000000000E+00 0.  1.
         11    1    1    2    0    0  0.14657528864E+02 -0.49788395605E+02 -0.29812764125E+02  0.59854226201E+02  0.00000000000E+00 0. -1.
</event>
<event>
 7    1  0.2480409E-009  0.1057037E+03  0.7561462E-02  0.1268739E+00
         -2   -1    0    0    0  501 -0.00000000000E+00  0.00000000000E+00  0.58900727003E+02  0.58900727003E+02  0.00000000000E+00 0. -1.
          2   -1    0    0  501    0  0.00000000000E+00 -0.00000000000E+00 -0.59107821494E+03  0.59107821494E+03  0.00000000000E+00 0.  1.
         25    2    1    2    0    0  0.56071878570E+02  0.18010416860E+02 -0.52346494342E+03  0.54141630438E+03  0.12509051514E+03 0.  0.
          5    1    3    3  502    0  0.19519968722E+02  0.55736684673E+02 -0.11287949163E+03  0.12746316812E+03  0.41800000000E+01 0.  1.
         -5    1    3    3    0  502  0.36551909848E+02 -0.37726267813E+02 -0.41058545179E+03  0.41395313626E+03  0.41800000000E+01 0.  1.
        -11    1    1    2    0    0  0.31952602268E+01 -0.37104271052E+02 -0.24180724432E+02  0.44403198672E+02  0.00000000000E+00 0.  1.
         11    1    1    2    0    0 -0.59267138797E+02  0.19093854193E+02  0.15468179913E+02  0.64159438892E+02  0.00000000000E+00 0. -1.
</event>
<event>
 7    1  0.2480409E-009  0.1157919E+03  0.7561462E-02  0.1250205E+00
          2   -1    0    0  501    0  0.00000000000E+00  0.00000000000E+00  0.15472151293E+03  0.15472151293E+03  0.00000000000E+00 0. -1.
         -2   -1    0    0    0  501 -0.00000000000E+00 -0.00000000000E+00 -0.10759428701E+03  0.10759428701E+03  0.00000000000E+00 0.  1.
         25    2    1    2    0    0  0.57496977263E+02 -0.15749668085E+02 -0.10730012318E+02  0.13898502776E+03  0.12509096825E+03 0.  0.
          5    1    3    3  502    0 -0.22724705124E+02 -0.38099494113E+02  0.21646515626E+02  0.49538144024E+02  0.41800000000E+01 0. -1.
         -5    1    3    3    0  502  0.80221682387E+02  0.22349826028E+02 -0.32376527944E+02  0.89446883736E+02  0.41800000000E+01 0. -1.
        -11    1    1    2    0    0 -0.79199051603E+02  0.19634634130E+02  0.59851164664E+02  0.10119372779E+03  0.00000000000E+00 0.  1.
         11    1    1    2    0    0  0.21702074340E+02 -0.38849660457E+01 -0.19939264196E+01  0.22137044392E+02  0.00000000000E+00 0. -1.
</event>
<event>
 7    1  0.2480409E-009  0.2338543E+03  0.7561462E-02  0.1123956E+00
          1   -1    0    0  501    0  0.00000000000E+00  0.00000000000E+00  0.75893333745E+03  0.75893333745E+03  0.00000000000E+00 0. -1.
         -1   -1    0    0    0  501 -0.00000000000E+00 -0.00000000000E+00 -0.10377737684E+03  0.10377737684E+03  0.00000000000E+00 0.  1.
         25    2    1    2    0    0 -0.16905192362E+03  0.13661691926E+03  0.54796666630E+03  0.60262570405E+03  0.12509011271E+03 0.  0.
          5    1    3    3  502    0 -0.17160404668E+03  0.15500573920E+03  0.51522113634E+03  0.56475217552E+03  0.41800000000E+01 0. -1.
         -5    1    3    3    0  502  0.25521230581E+01 -0.18388819944E+02  0.32745529953E+02  0.37873528525E+02  0.41800000000E+01 0. -1.
        -11    1    1    2    0    0  0.37132834516E+02 -0.32277595466E+02 -0.15850647577E+02  0.51690749626E+02  0.00000000000E+00 0. -1.
         11    1    1    2    0    0  0.13191908910E+03 -0.10433932379E+03  0.12303994189E+03  0.20839426062E+03  0.00000000000E+00 0.  1.
</event>
<event>
 7    1  0.2480409E-009  0.8755068E+02  0.7561462E-02  0.1308894E+00
         -2   -1    0    0    0  501 -0.00000000000E+00  0.00000000000E+00  0.32783032945E+02  0.32783032945E+02  0.00000000000E+00 0.  1.
          2   -1    0    0  501    0  0.00000000000E+00 -0.00000000000E+00 -0.38266276669E+03  0.38266276669E+03  0.00000000000E+00 0. -1.
         25    2    1    2    0    0  0.12963859037E+02 -0.24650553084E+02 -0.18120502907E+03  0.22194426765E+03  0.12509310123E+03 0.  0.
          5    1    3    3  502    0  0.43322045593E+02 -0.41352434768E+02 -0.17686291778E+03  0.18677469738E+03  0.41800000000E+01 0.  1.
         -5    1    3    3    0  502 -0.30358186556E+02  0.16701881684E+02 -0.43421112908E+01  0.35169570274E+02  0.41800000000E+01 0.  1.
        -11    1    1    2    0    0 -0.23222610431E+02  0.48735932630E+02 -0.15465074593E+03  0.16380272886E+03  0.00000000000E+00 0. -1.
         11    1    1    2    0    0  0.10258751395E+02 -0.24085379546E+02 -0.14023958742E+02  0.29698803121E+02  0.00000000000E+00 0.  1.
</event>
<event>
 7    1  0.2480409E-009  0.2116586E+03  0.7561462E-02  0.1140259E+00
          2   -1    0    0  501    0  0.00000000000E+00  0.00000000000E+00  0.11282670122E+04  0.11282670122E+04  0.00000000000E+00 0. -1.
         -2   -1    0    0    0  501 -0.00000000000E+00 -0.00000000000E+00 -0.57315832204E+02  0.57315832204E+02  0.00000000000E+00 0.  1.
         25    2    1    2    0    0 -0.15506856736E+03  0.10940948796E+03  0.24991000660E+03  0.33781536237E+03  0.12509001166E+03 0.  0.
          5    1    3    3  502    0 -0.16205816187E+03  0.68911238382E+02  0.23544571697E+03  0.29404721499E+03  0.41800000000E+01 0. -1.
         -5    1    3    3    0  502  0.69895945154E+01  0.40498249580E+02  0.14464289633E+02  0.43768147380E+02  0.41800000000E+01 0. -1.
        -11    1    1    2    0    0  0.93416229212E+02 -0.17278024865E+02  0.47486077900E+03  0.48427046312E+03  0.00000000000E+00 0. -1.
         11    1    1    2    0    0  0.61652338147E+02 -0.92131463096E+02  0.34618039442E+03  0.36349701893E+03  0.00000000000E+00 0.  1.
</event>
<event>
 7    1  0.2480409E-009  0.1202294E+03  0.7561462E-02  0.1242719E+00
          2   -1    0    0  501    0  0.00000000000E+00  0.00000000000E+00  0.48981591651E+03  0.48981591651E+03  0.00000000000E+00 0.  1.
         -2   -1    0    0    0  501 -0.00000000000E+00 -0.00000000000E+00 -0.36144667784E+02  0.36144667784E+02  0.00000000000E+00 0. -1.
         25    2    1    2    0    0 -0.53472616739E+02 -0.30802234663E+02  0.34769098107E+03  0.37462602504E+03  0.12509013517E+03 0.  0.
          5    1    3    3  502    0  0.10444133633E+02 -0.61019384817E+02  0.10654914546E+03  0.12329897830E+03  0.41800000000E+01 0. -1.
         -5    1    3    3    0  502 -0.63916750372E+02  0.30217150154E+02  0.24114183561E+03  0.25132704674E+03  0.41800000000E+01 0. -1.
        -11    1    1    2    0    0  0.72705585693E+02  0.17255691550E+01  0.65088620379E+02  0.97599222757E+02  0.00000000000E+00 0.  1.
         11    1    1    2    0    0 -0.19232968954E+02  0.29076665508E+02  0.40891647278E+02  0.53735336502E+02  0.00000000000E+00 0. -1.
</event>
<event>
 7    1  0.2480409E-009  0.1184855E+03  0.7561462E-02  0.1245617E+00
         -1   -1    0    0    0  501 -0.00000000000E+00  0.00000000000E+00  0.76991252171E+03  0.76991252171E+03  0.00000000000E+00 0.  1.
          1   -1    0    0  501    0  0.00000000000E+00 -0.00000000000E+00 -0.32715470596E+02  0.32715470596E+02  0.00000000000E+00 0. -1.
         25    2    1    2    0    0 -0.94634590647E+02 -0.35400016582E+02  0.26920129740E+03  0.31356912146E+03  0.12508952189E+03 0.  0.
          5    1    3    3  502    0 -0.38006162024E+02 -0.39064131648E+02  0.24620039574E+03  0.25219552335E+03  0.41800000000E+01 0. -1.
         -5    1    3    3    0  502 -0.56628428623E+02  0.36641150662E+01  0.23000901658E+02  0.61373598107E+02  0.41800000000E+01 0. -1.
        -11    1    1    2    0    0  0.10303253646E+03  0.15998585156E+02  0.44795110014E+03  0.45992591405E+03  0.00000000000E+00 0.  1.
         11    1    1    2    0    0 -0.83979458101E+01  0.19401431426E+02  0.20044653571E+02  0.29132956802E+02  0.00000000000E+00 0. -1.
</event>
<event>
 7    1  0.2480409E-009  0.7304630E+02  0.7561462E-02  0.1350030E+00
         -2   -1    0    0    0  501 -0.00000000000E+00  0.00000000000E+00  0.89331262033E+02  0.89331262033E+02  0.00000000000E+00 0.  1.
          2   -1    0    0  501    0  0.00000000000E+00 -0.00000000000E+00 -0.19152990859E+03  0.19152990859E+03  0.00000000000E+00 0. -1.
         25    2    1    2    0    0  0.38060066680E+02 -0.25601133003E+02 -0.11719815827E+03  0.17744404136E+03  0.12508794037E+03 0.  0.
          5    1    3    3  502    0  0.12504619649E+02 -0.33393401891E+02  0.17583247381E+02  0.39976590536E+02  0.41800000000E+01 0. -1.
         -5    1    3    3    0  502  0.25555447031E+02  0.77922688886E+01 -0.13478140565E+03  0.13746745082E+03  0.41800000000E+01 0. -1.
        -11    1    1    2    0    0  0.15656832550E+02  0.24916372829E+02  0.35327733090E+02  0.45978372805E+02  0.00000000000E+00 0.  1.
         11    1    1    2    0    0 -0.53716899230E+02  0.68476017360E+00 -0.20328221384E+02  0.57438756463E+02  0.00000000000E+00 0. -1.
</event>
<event>
 7    1  0.2480409E-009  0.1131488E+03  0.7561462E-02  0.1254848E+00
          4   -1    0    0  501    0  0.00000000000E+00  0.00000000000E+00  0.10937954903E+03  0.10937954903E+03  0.00000000000E+00 0. -1.
         -4   -1    0    0    0  501 -0.00000000000E+00 -0.00000000000E+00 -0.15335390096E+03  0.15335390096E+03  0.00000000000E+00 0.  1.
         25    2    1    2    0    0  0.27839734291E+02  0.57728851601E+02 -0.42983793077E+02  0.14697802768E+03  0.12508902047E+03 0.  0.
          5    1    3    3  502    0 -0.42245413658E+02 -0.79997014029E+01 -0.22254756969E+02  0.48594411257E+02  0.41800000000E+01 0.  1.
         -5    1    3    3    0  502  0.70085147949E+02  0.65728553004E+02 -0.20729036109E+02  0.98383616426E+02  0.41800000000E+01 0.  1.
        -11    1    1    2    0    0 -0.13570380638E+02  0.10537891351E+02  0.33726026215E+02  0.37850326670E+02  0.00000000000E+00 0. -1.
         11    1    1    2    0    0 -0.14269353654E+02 -0.68266742952E+02 -0.34716585068E+02  0.77905095634E+02  0.00000000000E+00 0.  1.
</event>
<event>
 7    1  0.2480409E-009  0.1156982E+03  0.7561462E-02  0.1250367E+00
          2   -1    0    0  501    0  0.00000000000E+00  0.00000000000E+00  0.56340803124E+03  0.56340803124E+03  0.00000000000E+00 0. -1.
         -2   -1    0    0    0  501 -0.00000000000E+00 -0.00000000000E+00 -0.28860700742E+02  0.28860700742E+02  0.00000000000E+00 0.  1.
         25    2    1    2    0    0 -0.12584636441E+02  0.51105638022E+02  0.20837661810E+03  0.24867361312E+03  0.12509033367E+03 0.  0.
          5    1    3    3  502    0  0.16615997166E+02 -0.37746495203E+02  0.75444518418E+02  0.86082733584E+02  0.41800000000E+01 0.  1.
         -5    1    3    3    0  502 -0.29200633607E+02  0.88852133225E+02  0.13293209968E+03  0.16259087953E+03  0.41800000000E+01 0.  1.
        -11    1    1    2    0    0  0.14618102862E+02 -0.72941589776E+02  0.30169608269E+03  0.31073250677E+03  0.00000000000E+00 0. -1.
         11    1    1    2    0    0 -0.20334664212E+01  0.21835951754E+02  0.24474629709E+02  0.32862612100E+02  0.00000000000E+00 0.  1.
</event>
<event>
 7    1  0.2480409E-009  0.1308691E+03  0.7561462E-02  0.1226172E+00
          4   -1    0    0  501    0  0.00000000000E+00  0.00000000000E+00  0.88994131055E+03  0.88994131055E+03  0.00000000000E+00 0. -1.
         -4   -1    0    0    0  501 -0.00000000000E+00 -0.00000000000E+00 -0.23053185625E+02  0.23053185625E+02  0.00000000000E+00 0.  1.
         25    2    1    2    0    0 -0.58058309884E+02  0.60770042540E+02  0.60929820933E+03  0.62765850659E+03  0.12508847905E+03 0.  0.
          5    1    3    3  502    0  0.33230819898E+02  0.29295917802E+02  0.10274394574E+03  0.11196574912E+03  0.41800000000E+01 0. -1.
         -5    1    3    3    0  502 -0.91289129781E+02  0.31474124738E+02  0.50655426359E+03  0.51569275747E+03  0.41800000000E+01 0. -1.
        -11    1    1    2    0    0  0.71642503637E+02 -0.73019673524E+02  0.23477822871E+03  0.25609634462E+03  0.00000000000E+00 0.  1.
         11    1    1    2    0    0 -0.13584193753E+02  0.12249630984E+02  0.22811686882E+02  0.29239644963E+02  0.00000000000E+00 0. -1.
</event>
<event>
 7    1  0.2480409E-009  0.1753850E+03  0.7561462E-02  0.1172346E+00
         -2   -1    0    0    0  501 -0.00000000000E+00  0.00000000000E+00  0.14357394369E+03  0.14357394369E+03  0.00000000000E+00 0. -1.
          2   -1    0    0  501    0  0.00000000000E+00 -0.00000000000E+00 -0.26347680316E+03  0.26347680316E+03  0.00000000000E+00 0.  1.
         25    2    1    2    0    0  0.36878107655E+02  0.14464043527E+03 -0.12536805396E+03  0.23161366979E+03  0.12508754031E+03 0.  0.
          5    1    3    3  502    0  0.45498586910E+02 -0.20934620441E+01 -0.44423294118E+02  0.63760532106E+02  0.41800000000E+01 0.  1.
         -5    1    3    3    0  502 -0.86204792556E+01  0.14673389732E+03 -0.80944759841E+02  0.16785313768E+03  0.41800000000E+01 0.  1.
        -11    1    1    2    0    0  0.21485220026E+01 -0.94130471748E+02 -0.34329011226E+02  0.10021797678E+03  0.00000000000E+00 0.  1.
         11    1    1    2    0    0 -0.39026629657E+02 -0.50509963524E+02  0.39794205722E+02  0.75219100279E+02  0.00000000000E+00 0. -1.
</event>
<event>
 7    1  0.2480409E-009  0.3604907E+03  0.7561462E-02  0.1058390E+00
          1   -1    0    0  501    0  0.00000000000E+00  0.00000000000E+00  0.64318826667E+03  0.64318826667E+03  0.00000000000E+00 0. -1.
         -1   -1    0    0    0  501 -0.00000000000E+00 -0.00000000000E+00 -0.22141279241E+03  0.22141279241E+03  0.00000000000E+00 0.  1.
         25    2    1    2    0    0 -0.45495626650E+02 -0.34435529340E+03  0.32763240784E+03  0.49359992344E+03  0.12508984618E+03 0.  0.
          5    1    3    3  502    0  0.12966810120E+02  0.32018578042E+01  0.26692543456E+02  0.30138917270E+02  0.41800000000E+01 0. -1.
         -5    1    3    3    0  502 -0.58462436770E+02 -0.34755715120E+03  0.30093986438E+03  0.46346100617E+03  0.41800000000E+01 0. -1.
        -11    1    1    2    0    0 -0.35443363377E+01  0.23083045636E+03  0.33525323513E+02  0.23327925158E+03  0.00000000000E+00 0.  1.
         11    1    1    2    0    0  0.49039962988E+02  0.11352483704E+03  0.60617742906E+02  0.13772188406E+03  0.00000000000E+00 0. -1.
</event>
<event>
 7    1  0.2480409E-009  0.8808175E+02  0.7561462E-02  0.1307565E+00
          1   -1    0    0  501    0  0.00000000000E+00  0.00000000000E+00  0.13614341241E+03  0.13614341241E+03  0.00000000000E+00 0. -1.
         -1   -1    0    0    0  501 -0.00000000000E+00 -0.00000000000E+00 -0.12071096065E+03  0.12071096065E+03  0.00000000000E+00 0.  1.
         25    2    1    2    0    0  0.15791545179E+02 -0.15756732991E+02 -0.53901979086E+02  0.13802390575E+03  0.12509007824E+03 0.  0.
          5    1    3    3  502    0 -0.42937687851E+02 -0.41983285781E+02 -0.39439049003E+02  0.71966327607E+02  0.41800000000E+01 0.  1.
         -5    1    3    3    0  502  0.58729233030E+02  0.26226552790E+02 -0.14462930082E+02  0.66057578143E+02  0.41800000000E+01 0.  1.
        -11    1    1    2    0    0 -0.17355770417E+01  0.30843008150E+02 -0.13321297103E+02  0.33641645856E+02  0.00000000000E+00 0.  1.
         11    1    1    2    0    0 -0.14055968137E+02 -0.15086275159E+02  0.82655727946E+02  0.85188821454E+02  0.00000000000E+00 0. -1.
</event>
<event>
 7    1  0.2480409E-009  0.1094553E+03  0.7561462E-02  0.1261582E+00
         -2   -1    0    0    0  501 -0.00000000000E+00  0.00000000000E+00  0.33765497612E+03  0.33765497612E+03  0.00000000000E+00 0.  1.
          2   -1    0    0  501    0  0.00000000000E+00 -0.00000000000E+00 -0.50072857991E+02  0.50072857991E+02  0.00000000000E+00 0. -1.
         25    2    1    2    0    0  0.33102268680E+02 -0.44758694224E+01  0.64882876206E+02  0.14482350277E+03  0.12509302831E+03 0.  0.
          5    1    3    3  502    0 -0.76662284892E+01  0.55835021176E+02  0.30227357479E+02  0.64089673031E+02  0.41800000000E+01 0. -1.
         -5    1    3    3    0  502  0.40768497169E+02 -0.60310890599E+02  0.34655518728E+02  0.80733829741E+02  0.41800000000E+01 0. -1.
        -11    1    1    2    0    0 -0.13910078441E+02  0.43673708876E+02  0.16052700965E+03  0.16694251693E+03  0.00000000000E+00 0.  1.
         11    1    1    2    0    0 -0.19192190239E+02 -0.39197839454E+02  0.62172232274E+02  0.75961814420E+02  0.00000000000E+00 0. -1.
</event>
<event>
 7    1  0.2480409E-009  0.1100139E+03  0.7561462E-02  0.1260544E+00
         -3   -1    0    0    0  501 -0.00000000000E+00  0.00000000000E+00  0.11095185669E+03  0.11095185669E+03  0.00000000000E+00 0.  1.
          3   -1    0    0  501    0  0.00000000000E+00 -0.00000000000E+00 -0.11679527288E+03  0.11679527288E+03  0.00000000000E+00 0. -1.
         25    2    1    2    0    0  0.21255753533E+02 -0.12629832043E+02  0.20401498683E+02  0.12913530508E+03  0.12509350964E+03 0.  0.
          5    1    3    3  502    0 -0.14476209745E+01  0.54168346434E+02  0.21513767219E+02  0.58451860038E+02  0.41800000000E+01 0.  1.
         -5    1    3    3    0  502  0.22703374508E+02 -0.66798178477E+02 -0.11122685361E+01  0.70683445043E+02  0.41800000000E+01 0.  1.
        -11    1    1    2    0    0 -0.53600760156E+02 -0.11288394361E+02 -0.13536690699E+02  0.56424385966E+02  0.00000000000E+00 0. -1.
         11    1    1    2    0    0  0.32345006623E+02  0.23918226404E+02 -0.12708224165E+02  0.42187438523E+02  0.00000000000E+00 0.  1.
</event>
<event>
 7    1  0.2480409E-009  0.2611298E+03  0.7561462E-02  0.1106466E+00
          1   -1    0    0  501    0  0.00000000000E+00  0.00000000000E+00  0.44337129196E+03  0.44337129196E+03  0.00000000000E+00 0. -1.
         -1   -1    0    0    0  501 -0.00000000000E+00 -0.00000000000E+00 -0.26234787448E+03  0.26234787448E+03  0.00000000000E+00 0.  1.
         25    2    1    2    0    0  0.23814774266E+03  0.96196202338E+02  0.29467136197E+03  0.41042136472E+03  0.12508568412E+03 0.  0.
          5    1    3    3  502    0  0.12058222176E+03  0.14782721754E+02  0.21417499730E+03  0.24626612219E+03  0.41800000000E+01 0.  1.
         -5    1    3    3    0  502  0.11756552090E+03  0.81413480584E+02  0.80496364663E+02  0.16415524253E+03  0.41800000000E+01 0.  1.
        -11    1    1    2    0    0 -0.19688431773E+03 -0.71023164273E+02 -0.12742043105E+03  0.24503814128E+03  0.00000000000E+00 0.  1.
         11    1    1    2    0    0 -0.41263424933E+02 -0.25173038065E+02  0.13772486566E+02  0.50259660453E+02  0.00000000000E+00 0. -1.
</event>
<event>
 7    1  0.2480409E-009  0.1585031E+03  0.7561462E-02  0.1190397E+00
          1   -1    0    0  501    0  0.00000000000E+00  0.00000000000E+00  0.52445150253E+03  0.52445150253E+03  0.00000000000E+00 0. -1.
         -1   -1    0    0    0  501 -0.00000000000E+00 -0.00000000000E+00 -0.65711984464E+02  0.65711984464E+02  0.00000000000E+00 0.  1.
         25    2    1    2    0    0  0.40487476533E+02 -0.14432667727E+03  0.27052514507E+03  0.33361788283E+03  0.12509041570E+03 0.  0.
          5    1    3    3  502    0 -0.24289460711E+01 -0.10964577968E+03  0.25266258866E+03  0.27547042108E+03  0.41800000000E+01 0.  1.
         -5    1    3    3    0  502  0.42916422605E+02 -0.34680897586E+02  0.17862556412E+02  0.58147461751E+02  0.41800000000E+01 0.  1.
        -11    1    1    2    0    0 -0.36852558074E+02  0.87092348385E+02  0.50148037589E+02  0.10704211254E+03  0.00000000000E+00 0.  1.
         11    1    1    2    0    0 -0.36349184593E+01  0.57234328881E+02  0.13806633540E+03  0.14950349162E+03  0.00000000000E+00 0. -1.
</event>
<event>
 7    1  0.2480409E-009  0.1661101E+03  0.7561462E-02  0.1181966E+00
          1   -1    0    0  501    0  0.00000000000E+00  0.00000000000E+00  0.77058367021E+02  0.77058367021E+02  0.00000000000E+00 0. -1.
         -1   -1    0    0    0  501 -0.00000000000E+00 -0.00000000000E+00 -0.38998459257E+03  0.38998459257E+03  0.00000000000E+00 0.  1.
         25    2    1    2    0    0 -0.84520541309E+02  0.10336395977E+03 -0.17439239425E+03  0.25276312939E+03  0.12509461349E+03 0.  0.
          5    1    3    3  502    0 -0.29472330861E+02 -0.18925293635E+02 -0.34347134083E+01  0.35440861752E+02  0.41800000000E+01 0. -1.
         -5    1    3    3    0  502 -0.55048210448E+02  0.12228925340E+03 -0.17095768084E+03  0.21732226763E+03  0.41800000000E+01 0. -1.
        -11    1    1    2    0    0 -0.18922069470E+02 -0.31746714661E+02 -0.23450918723E+02  0.43770357478E+02  0.00000000000E+00 0. -1.
         11    1    1    2    0    0  0.10344261078E+03 -0.71617245109E+02 -0.11508291258E+03  0.17050947273E+03  0.00000000000E+00 0.  1.
</event>
<event>
 7    1  0.2480409E-009  0.9492859E+02  0.7561462E-02  0.1291337E+00
         -2   -1    0    0    0  501 -0.00000000000E+00  0.00000000000E+00  0.16654325118E+03  0.16654325118E+03  0.00000000000E+00 0.  1.
          2   -1    0    0  501    0  0.00000000000E+00 -0.00000000000E+00 -0.77744330317E+02  0.77744330317E+02  0.00000000000E+00 0. -1.
         25    2    1    2    0    0 -0.23920146988E+02  0.68465107884E+01  0.75888776981E+02  0.14841147920E+03  0.12509121689E+03 0.  0.
          5    1    3    3  502    0 -0.26060123605E+02  0.61797010003E+02  0.62248676999E+02  0.91598966565E+02  0.41800000000E+01 0. -1.
         -5    1    3    3    0  502  0.21399766173E+01 -0.54950499215E+02  0.13640099982E+02  0.56812512631E+02  0.41800000000E+01 0. -1.
        -11    1    1    2    0    0 -0.16839459297E+02  0.13843158115E+02 -0.27342634476E+02  0.34968844363E+02  0.00000000000E+00 0. -1.
         11    1    1    2    0    0  0.40759606285E+02 -0.20689668904E+02  0.40252778357E+02  0.60907257936E+02  0.00000000000E+00 0.  1.
</event>
<event>
 7    1  0.2480409E-009  0.1041591E+03  0.7561462E-02  0.1271785E+00
         -1   -1    0    0    0  501 -0.00000000000E+00  0.00000000000E+00  0.74674678674E+02  0.74674678674E+02  0.00000000000E+00 0.  1.
          1   -1    0    0  501    0  0.00000000000E+00 -0.00000000000E+00 -0.21234000234E+03  0.21234000234E+03  0.00000000000E+00 0. -1.
         25    2    1    2    0    0 -0.37367110742E+02 -0.51572295619E+02 -0.67904067740E+02  0.15592858308E+03  0.12508700159E+03 0.  0.
          5    1    3    3  502    0 -0.56825107232E+02 -0.82627250793E+02 -0.34403479113E+02  0.10610102337E+03  0.41800000000E+01 0. -1.
         -5    1    3    3    0  502  0.19457996490E+02  0.31054955174E+02 -0.33500588627E+02  0.49827559710E+02  0.41800000000E+01 0. -1.
        -11    1    1    2    0    0  0.33799467644E+02  0.19962384407E+02 -0.86608914282E+02  0.95089457025E+02  0.00000000000E+00 0. -1.
         11    1    1    2    0    0  0.35676430977E+01  0.31609911212E+02  0.16847658359E+02  0.35996640903E+02  0.00000000000E+00 0.  1.
</event>
<event>
 7    1  0.2480409E-009  0.7292504E+02  0.7561462E-02  0.1350420E+00
         -2   -1    0    0    0  501 -0.00000000000E+00  0.00000000000E+00  0.78050837015E+02  0.78050837015E+02  0.00000000000E+00 0.  1.
          2   -1    0    0  501    0  0.00000000000E+00 -0.00000000000E+00 -0.16814602684E+03  0.16814602684E+03  0.00000000000E+00 0. -1.
         25    2    1    2    0    0 -0.25817510111E+02 -0.12473151359E+02 -0.26950341873E+02  0.13113178312E+03  0.12508836990E+03 0.  0.
          5    1    3    3  502    0  0.16481719004E+02 -0.93658820250E+01  0.44154140017E+02  0.48233051822E+02  0.41800000000E+01 0.  1.
         -5    1    3    3    0  502 -0.42299229115E+02 -0.31072693344E+01 -0.71104481890E+02  0.82898731301E+02  0.41800000000E+01 0.  1.
        -11    1    1    2    0    0 -0.16126084732E+02 -0.23541458456E+02  0.31905319214E+01  0.28712895517E+02  0.00000000000E+00 0.  1.
         11    1    1    2    0    0  0.41943594842E+02  0.36014609816E+02 -0.66335379872E+02  0.86352185214E+02  0.00000000000E+00 0. -1.
</event>
<event>
 7    1  0.2583350E-009  0.5236982E+02  0.7561462E-02  0.1432963E+00
          1   -1    0    0  501    0  0.00000000000E+00  0.00000000000E+00  0.89014441392E+03  0.89014441392E+03  0.00000000000E+00 0. -1.
         -1   -1    0    0    0  501 -0.00000000000E+00 -0.00000000000E+00 -0.14815337505E+02  0.14815337505E+02  0.00000000000E+00 0.  1.
         25    2    1    2    0    0  0.22207930875E+02  0.13046181232E+02  0.60727199306E+03  0.62055626312E+03  0.12508959631E+03 0.  0.
          5    1    3    3  502    0 -0.55678526165E-01  0.54113116285E+01 -0.45847562724E+01  0.82327263841E+01  0.41800000000E+01 0.  1.
         -5    1    3    3    0  502  0.22263609401E+02  0.76348696032E+01  0.61185674933E+03  0.61232353673E+03  0.41800000000E+01 0.  1.
        -11    1    1    2    0    0 -0.42494187325E+02 -0.26103973496E+02  0.24818890144E+03  0.25314996383E+03  0.00000000000E+00 0. -1.
         11    1    1    2    0    0  0.20286256450E+02  0.13057792264E+02  0.19868181918E+02  0.31253524478E+02  0.00000000000E+00 0.  1.
</event>
<event>
 7    1  0.2480409E-009  0.1131498E+03  0.7561462E-02  0.1254846E+00
         -1   -1    0    0    0  501 -0.00000000000E+00  0.00000000000E+00  0.30093367258E+02  0.30093367258E+02  0.00000000000E+00 0.  1.
          1   -1    0    0  501    0  0.00000000000E+00 -0.00000000000E+00 -0.43763970908E+03  0.43763970908E+03  0.00000000000E+00 0. -1.
         25    2    1    2    0    0 -0.13474281192E+01  0.29682477581E+02 -0.19715156792E+03  0.23536822840E+03  0.12508635884E+03 0.  0.
          5    1    3    3  502    0 -0.62275261629E+02  0.51073820457E+01 -0.91192554222E+02  0.11062480693E+03  0.41800000000E+01 0. -1.
         -5    1    3    3    0  502  0.60927833509E+02  0.24575095536E+02 -0.10595901370E+03  0.12474342148E+03  0.41800000000E+01 0. -1.
        -11    1    1    2    0    0  0.46778859455E+02 -0.22284451618E+02 -0.12589999612E+03  0.13614575829E+03  0.00000000000E+00 0.  1.
         11    1    1    2    0    0 -0.45431431336E+02 -0.73980259631E+01 -0.84494777776E+02  0.96219089648E+02  0.00000000000E+00 0. -1.
</event>
<event>
 7    1  0.2480409E-009  0.2877027E+03  0.7561462E-02  0.1091555E+00
          2   -1    0    0  501    0  0.00000000000E+00  0.00000000000E+00  0.56501907666E+03  0.56501907666E+03  0.00000000000E+00 0. -1.
         -2   -1    0    0    0  501 -0.00000000000E+00 -0.00000000000E+00 -0.15682029823E+03  0.15682029823E+03  0.00000000000E+00 0.  1.
         25    2    1    2    0    0 -0.18452833940E+03  0.19190378699E+03  0.25207279503E+03  0.38738272029E+03  0.12508759522E+03 0.  0.
          5    1    3    3  502    0 -0.61558622802E+02  0.37130587554E+01  0.94122593815E+02  0.11260455547E+03  0.41800000000E+01 0.  1.
         -5    1    3    3    0  502 -0.12296971660E+03  0.18819072823E+03  0.15795020121E+03  0.27477816481E+03  0.41800000000E+01 0.  1.
        -11    1    1    2    0    0  0.64884183804E+02 -0.14748398933E+03  0.50683356920E+02  0.16890910895E+03  0.00000000000E+00 0.  1.
         11    1    1    2    0    0  0.11964415560E+03 -0.44419797656E+02  0.10544262648E+03  0.16554754566E+03  0.00000000000E+00 0. -1.
</event>
<event>
 7    1  0.2480409E-009  0.1056118E+03  0.7561462E-02  0.1268919E+00
          2   -1    0    0  501    0  0.00000000000E+00  0.00000000000E+00  0.98482358054E+03  0.98482358054E+03  0.00000000000E+00 0. -1.
         -2   -1    0    0    0  501 -0.00000000000E+00 -0.00000000000E+00 -0.16017439233E+02  0.16017439233E+02  0.00000000000E+00 0.  1.
         25    2    1    2    0    0  0.46320127777E+02  0.35683026531E+02  0.63246053916E+03  0.64735808113E+03  0.12508924411E+03 0.  0.
          5    1    3    3  502    0 -0.18568267494E+02  0.37044145900E+02  0.47736403588E+03  0.47917736221E+03  0.41800000000E+01 0. -1.
         -5    1    3    3    0  502  0.64888395271E+02 -0.13611193695E+01  0.15509650327E+03  0.16818071891E+03  0.41800000000E+01 0. -1.
        -11    1    1    2    0    0 -0.71764459446E+02 -0.19436087234E+02  0.18944561783E+03  0.20351300018E+03  0.00000000000E+00 0.  1.
         11    1    1    2    0    0  0.25444331669E+02 -0.16246939297E+02  0.14689998432E+03  0.14996993847E+03  0.00000000000E+00 0. -1.
</event>
<event>
 7    1  0.2480409E-009  0.1106696E+03  0.7561462E-02  0.1259335E+00
         -2   -1    0    0    0  501 -0.00000000000E+00  0.00000000000E+00  0.95852263143E+02  0.95852263143E+02  0.00000000000E+00 0.  1.
          2   -1    0    0  501    0  0.00000000000E+00 -0.00000000000E+00 -0.19022194697E+03  0.19022194697E+03  0.00000000000E+00 0. -1.
         25    2    1    2    0    0 -0.27522712289E+02 -0.39485802524E+02  0.13987931858E+02  0.13475805235E+03  0.12508973636E+03 0.  0.
          5    1    3    3  502    0 -0.71859833647E+02 -0.39636972500E+02  0.29933858830E+02  0.87455323367E+02  0.41800000000E+01 0.  1.
         -5    1    3    3    0  502  0.44337121358E+02  0.15116997594E+00 -0.15945926971E+02  0.47302728987E+02  0.41800000000E+01 0.  1.
        -11    1    1    2    0    0  0.20069824260E+02  0.65012419776E+02 -0.42324862081E+02  0.80129935237E+02  0.00000000000E+00 0.  1.
         11    1    1    2    0    0  0.74528880291E+01 -0.25526617252E+02 -0.66032753601E+02  0.71186222518E+02  0.00000000000E+00 0. -1.
</event>
<event>
 7    1  0.2480409E-009  0.1865771E+03  0.7561462E-02  0.1161585E+00
         -2   -1    0    0    0  501 -0.00000000000E+00  0.00000000000E+00  0.14969618186E+03  0.14969618186E+03  0.00000000000E+00 0.  1.
          2   -1    0    0  501    0  0.00000000000E+00 -0.00000000000E+00 -0.24303430141E+03  0.24303430141E+03  0.00000000000E+00 0. -1.
         25    2    1    2    0    0 -0.97070274707E+02 -0.86231295675E+02 -0.65947159930E+02  0.19196999311E+03  0.12507987754E+03 0.  0.
          5    1    3    3  502    0  0.16075797143E+02 -0.61119442999E+02 -0.13858014542E+02  0.64834670767E+02  0.41800000000E+01 0.  1.
         -5    1    3    3    0  502 -0.11314607185E+03 -0.25111852676E+02 -0.52089145388E+02  0.12713532234E+03  0.41800000000E+01 0.  1.
        -11    1    1    2    0    0 -0.36198090104E+02  0.21380632955E+01 -0.23345594559E+02  0.43126440001E+02  0.00000000000E+00 0. -1.
         11    1    1    2    0    0  0.13326836481E+03  0.84093232380E+02 -0.40453650520E+01  0.15763405016E+03  0.00000000000E+00 0.  1.
</event>
<event>
 7    1  0.2480409E-009  0.2103271E+03  0.7561462E-02  0.1141307E+00
         -1   -1    0    0    0  501 -0.00000000000E+00  0.00000000000E+00  0.13083000833E+03  0.13083000833E+03  0.00000000000E+00 0.  1.
          1   -1    0    0  501    0  0.00000000000E+00 -0.00000000000E+00 -0.41152198047E+03  0.41152198047E+03  0.00000000000E+00 0. -1.
         25    2    1    2    0    0  0.15441732398E+03  0.12616600097E+03 -0.20063472039E+03  0.30929523866E+03  0.12508670547E+03 0.  0.
          5    1    3    3  502    0  0.25348146627E+02  0.38552928830E+02 -0.12998637777E+03  0.13799560741E+03  0.41800000000E+01 0. -1.
         -5    1    3    3    0  502  0.12906917735E+03  0.87613072140E+02 -0.70648342624E+02  0.17129963125E+03  0.41800000000E+01 0. -1.
        -11    1    1    2    0    0 -0.79729626685E+02 -0.11900288552E+03 -0.60674681125E+02  0.15556322529E+03  0.00000000000E+00 0. -1.
         11    1    1    2    0    0 -0.74687697291E+02 -0.71631154464E+01 -0.19382570613E+02  0.77493524847E+02  0.00000000000E+00 0.  1.
</event>
<event>
 7    1  0.2480409E-009  0.9227078E+02  0.7561462E-02  0.1297444E+00
          1   -1    0    0  501    0  0.00000000000E+00  0.00000000000E+00  0.30174686092E+03  0.30174686092E+03  0.00000000000E+00 0. -1.
         -1   -1    0    0    0  501 -0.00000000000E+00 -0.00000000000E+00 -0.51689216338E+02  0.51689216338E+02  0.00000000000E+00 0.  1.
         25    2    1    2    0    0  0.85099239268E+01 -0.62187086898E+02  0.15752888093E+03  0.21072057498E+03  0.12509260494E+03 0.  0.
          5    1    3    3  502    0 -0.12096151622E+02 -0.12068049477E+01 -0.18907213623E+02  0.22863254126E+02  0.41800000000E+01 0. -1.
         -5    1    3    3    0  502  0.20606075549E+02 -0.60980281950E+02  0.17643609455E+03  0.18785732085E+03  0.41800000000E+01 0. -1.
        -11    1    1    2    0    0 -0.66346770753E+00  0.83999788283E+02  0.81512599699E+02  0.11705002576E+03  0.00000000000E+00 0.  1.
         11    1    1    2    0    0 -0.78464562193E+01 -0.21812701385E+02  0.11016163959E+02  0.25665476525E+02  0.00000000000E+00 0. -1.
</event>
<event>
 7    1  0.2480409E-009  0.1699509E+03  0.7561462E-02  0.1177899E+00
         -3   -1    0    0    0  501 -0.00000000000E+00  0.00000000000E+00  0.48853536987E+02  0.48853536987E+02  0.00000000000E+00 0.  1.
          3   -1    0    0  501    0  0.00000000000E+00 -0.00000000000E+00 -0.77181267893E+03  0.77181267893E+03  0.00000000000E+00 0. -1.
         25    2    1    2    0    0 -0.13843825332E+03  0.21443356434E+02 -0.21431203261E+03  0.28496275764E+03  0.12509659630E+03 0.  0.
          5    1    3    3  502    0 -0.13597510043E+03 -0.26400966785E+02 -0.17224497912E+03  0.22107022462E+03  0.41800000000E+01 0. -1.
         -5    1    3    3    0  502 -0.24631528947E+01  0.47844323220E+02 -0.42067053487E+02  0.63892533019E+02  0.41800000000E+01 0. -1.
        -11    1    1    2    0    0  0.18174638787E+02  0.19057391750E+02 -0.27388250718E+02  0.37994972730E+02  0.00000000000E+00 0.  1.
         11    1    1    2    0    0  0.12026361454E+03 -0.40500748184E+02 -0.48125885862E+03  0.49770848554E+03  0.00000000000E+00 0. -1.
</event>
<event>
 7    1  0.2480409E-009  0.1063196E+03  0.7561462E-02  0.1267541E+00
          3   -1    0    0  501    0  0.00000000000E+00  0.00000000000E+00  0.23717558090E+02  0.23717558090E+02  0.00000000000E+00 0. -1.
         -3   -1    0    0    0  501 -0.00000000000E+00 -0.00000000000E+00 -0.61848373450E+03  0.61848373450E+03  0.00000000000E+00 0.  1.
         25    2    1    2    0    0 -0.79631548052E+01  0.52032379174E+02 -0.37176999600E+03  0.39576652523E+03  0.12508969681E+03 0.  0.
          5    1    3    3  502    0  0.40631243937E+02  0.11859359730E+01 -0.26309955632E+03  0.26625392647E+03  0.41800000000E+01 0.  1.
         -5    1    3    3    0  502 -0.48594398743E+02  0.50846443201E+02 -0.10867043968E+03  0.12951259875E+03  0.41800000000E+01 0.  1.
        -11    1    1    2    0    0  0.47170720750E+02 -0.34096669465E+02 -0.15855429615E+03  0.16889974716E+03  0.00000000000E+00 0.  1.
         11    1    1    2    0    0 -0.39207565945E+02 -0.17935709709E+02 -0.64441884263E+02  0.77535020200E+02  0.00000000000E+00 0. -1.
</event>
<event>
 7    1  0.2480409E-009  0.1011332E+03  0.7561462E-02  0.1277931E+00
          2   -1    0    0  501    0  0.00000000000E+00  0.00000000000E+00  0.30227785548E+03  0.30227785548E+03  0.00000000000E+00 0.  1.
         -2   -1    0    0    0  501 -0.00000000000E+00 -0.00000000000E+00 -0.69058986597E+02  0.69058986597E+02  0.00000000000E+00 0. -1.
         25    2    1    2    0    0  0.67930382008E+02  0.44439817532E+02  0.58129903623E+02  0.16004850653E+03  0.12508798729E+03 0.  0.
          5    1    3    3  502    0  0.63361928176E+02  0.28451094766E+02 -0.25930916676E+02  0.74256875609E+02  0.41800000000E+01 0.  1.
         -5    1    3    3    0  502  0.45684538325E+01  0.15988722766E+02  0.84060820299E+02  0.85791630918E+02  0.41800000000E+01 0.  1.
        -11    1    1    2    0    0  0.63940055385E+01 -0.40615507703E+02  0.41816631105E+02  0.58644125109E+02  0.00000000000E+00 0.  1.
         11    1    1    2    0    0 -0.74324387547E+02 -0.38243098284E+01  0.13327233415E+03  0.15264421044E+03  0.00000000000E+00 0. -1.
</event>
<event>
 7    1  0.2480409E-009  0.1353881E+03  0.7561462E-02  0.1219673E+00
         -1   -1    0    0    0  501 -0.00000000000E+00  0.00000000000E+00  0.48790565658E+02  0.48790565658E+02  0.00000000000E+00 0.  1.
          1   -1    0    0  501    0  0.00000000000E+00 -0.00000000000E+00 -0.63257523758E+03  0.63257523758E+03  0.00000000000E+00 0. -1.
         25    2    1    2    0    0  0.80157107880E+02  0.87708272775E+02 -0.17291957421E+03  0.24426710991E+03  0.12508932321E+03 0.  0.
          5    1    3    3  502    0  0.31613932305E+02 -0.10780489372E+01 -0.13070766535E+03  0.13454578806E+03  0.41800000000E+01 0.  1.
         -5    1    3    3    0  502  0.48543175575E+02  0.88786321712E+02 -0.42211908868E+02  0.10972132185E+03  0.41800000000E+01 0.  1.
        -11    1    1    2    0    0 -0.35320591950E+02 -0.85720079556E+02 -0.18631684658E+03  0.20810921069E+03  0.00000000000E+00 0.  1.
         11    1    1    2    0    0 -0.44836515929E+02 -0.19881932192E+01 -0.22454825112E+03  0.22898948263E+03  0.00000000000E+00 0. -1.
</event>
<event>
 7    1  0.2480409E-009  0.1003139E+03  0.7561462E-02  0.1279637E+00
         -1   -1    0    0    0  501 -0.00000000000E+00  0.00000000000E+00  0.91370812256E+02  0.91370812256E+02  0.00000000000E+00 0.  1.
          1   -1    0    0  501    0  0.00000000000E+00 -0.00000000000E+00 -0.20834750694E+03  0.20834750694E+03  0.00000000000E+00 0. -1.
         25    2    1    2    0    0  0.52347530193E+02  0.40397900628E+02 -0.12563213671E+03  0.18921724911E+03  0.12508988485E+03 0.  0.
          5    1    3    3  502    0  0.15094887762E+02  0.49476147327E+02 -0.13901934175E+03  0.14839000832E+03  0.41800000000E+01 0.  1.
         -5    1    3    3    0  502  0.37252642431E+02 -0.90782466981E+01  0.13387205037E+02  0.40827240782E+02  0.41800000000E+01 0.  1.
        -11    1    1    2    0    0 -0.55694041511E+02 -0.64849097259E+02  0.66640593056E+01  0.85741713078E+02  0.00000000000E+00 0.  1.
         11    1    1    2    0    0  0.33465113181E+01  0.24451196631E+02  0.19913827169E+01  0.24759357015E+02  0.00000000000E+00 0. -1.
</event>
<event>
 7    1  0.2480409E-009  0.1691573E+03  0.7561462E-02  0.1178729E+00
         -3   -1    0    0    0  501 -0.00000000000E+00  0.00000000000E+00  0.36376026326E+03  0.36376026326E+03  0.00000000000E+00 0.  1.
          3   -1    0    0  501    0  0.00000000000E+00 -0.00000000000E+00 -0.96494784705E+02  0.96494784705E+02  0.00000000000E+00 0. -1.
         25    2    1    2    0    0 -0.14808536678E+03 -0.23399550873E+02  0.10276494771E+03  0.22064577633E+03  0.12508840595E+03 0.  0.
          5    1    3    3  502    0  0.18965731789E+01 -0.22538930790E+02  0.60558817568E+02  0.64779959681E+02  0.41800000000E+01 0.  1.
         -5    1    3    3    0  502 -0.14998193996E+03 -0.86062008244E+00  0.42206130143E+02  0.15586581665E+03  0.41800000000E+01 0.  1.
        -11    1    1    2    0    0  0.60093076233E+02 -0.24721487145E+02  0.29320258400E+02  0.71288198817E+02  0.00000000000E+00 0.  1.
         11    1    1    2    0    0  0.87992290543E+02  0.48121038018E+02  0.13518027244E+03  0.16832107281E+03  0.00000000000E+00 0. -1.
</event>
<event>
 7    1  0.2480409E-009  0.1284602E+03  0.7561462E-02  0.1229759E+00
          1   -1    0    0  501    0  0.00000000000E+00  0.00000000000E+00  0.94917990494E+02  0.94917990494E+02  0.00000000000E+00 0. -1.
         -1   -1    0    0    0  501 -0.00000000000E+00 -0.00000000000E+00 -0.23481683828E+03  0.23481683828E+03  0.00000000000E+00 0.  1.
         25    2    1    2    0    0 -0.25817706968E+02 -0.93027181713E+02 -0.11015393029E+03  0.19261859071E+03  0.12508965824E+03 0.  0.
          5    1    3    3  502    0 -0.35827526028E+02  0.21896939422E+02 -0.35534493382E+02  0.55165752032E+02  0.41800000000E+01 0.  1.
         -5    1    3    3    0  502  0.10009819060E+02 -0.11492412114E+03 -0.74619436906E+02  0.13745283868E+03  0.41800000000E+01 0.  1.
        -11    1    1    2    0    0  0.22317651929E+02  0.37407727179E+02  0.31917779553E+02  0.54001484164E+02  0.00000000000E+00 0. -1.
         11    1    1    2    0    0  0.35000550388E+01  0.55619454535E+02 -0.61662697048E+02  0.83114753896E+02  0.00000000000E+00 0.  1.
</event>
<event>
 7    1  0.2480409E-009  0.9472696E+02  0.7561462E-02  0.1291792E+00
         -2   -1    0    0    0  501 -0.00000000000E+00  0.00000000000E+00  0.40798713787E+02  0.40798713787E+02  0.00000000000E+00 0. -1.
          2   -1    0    0  501    0  0.00000000000E+00 -0.00000000000E+00 -0.29378914039E+03  0.29378914039E+03  0.00000000000E+00 0.  1.
         25    2    1    2    0    0  0.10377177643E+02 -0.35040251561E+01 -0.14681413602E+03  0.19318629769E+03  0.12508633446E+03 0.  0.
          5    1    3    3  502    0  0.52135992552E+02 -0.11441358795E+02 -0.14005948722E+03  0.14994398544E+03  0.41800000000E+01 0. -1.
         -5    1    3    3    0  502 -0.41758814908E+02  0.79373336385E+01 -0.67546488066E+01  0.43242312246E+02  0.41800000000E+01 0. -1.
        -11    1    1    2    0    0  0.33745883222E+02 -0.23818215708E+02 -0.42671960337E+02  0.59388452017E+02  0.00000000000E+00 0. -1.
         11    1    1    2    0    0 -0.44123060865E+02  0.27322240864E+02 -0.63504330248E+02  0.82013104478E+02  0.00000000000E+00 0.  1.
</event>
<event>
 7    1  0.2480409E-009  0.9412506E+02  0.7561462E-02  0.1293159E+00
         -2   -1    0    0    0  501 -0.00000000000E+00  0.00000000000E+00  0.21826917622E+02  0.21826917622E+02  0.00000000000E+00 0.  1.
          2   -1    0    0  501    0  0.00000000000E+00 -0.00000000000E+00 -0.71359060725E+03  0.71359060725E+03  0.00000000000E+00 0. -1.
         25    2    1    2    0    0  0.46103455321E+02  0.74551084772E+01 -0.50218307454E+03  0.51963115795E+03  0.12509033826E+03 0.  0.
          5    1    3    3  502    0  0.64728700910E+02  0.10968059014E+02 -0.49433898590E+03  0.49869691038E+03  0.41800000000E+01 0. -1.
         -5    1    3    3    0  502 -0.18625245589E+02 -0.35129505363E+01 -0.78440886332E+01  0.20934247568E+02  0.41800000000E+01 0. -1.
        -11    1    1    2    0    0 -0.36262150795E+02 -0.48664120813E+02 -0.11009001968E+03  0.12570979543E+03  0.00000000000E+00 0. -1.
         11    1    1    2    0    0 -0.98413045262E+01  0.41209012335E+02 -0.79490595420E+02  0.90076571497E+02  0.00000000000E+00 0.  1.
</event>
<event>
 7    1  0.2480409E-009  0.1686526E+03  0.7561462E-02  0.1179260E+00
         -1   -1    0    0    0  501 -0.00000000000E+00  0.00000000000E+00  0.89922824698E+03  0.89922824698E+03  0.00000000000E+00 0.  1.
          1   -1    0    0  501    0  0.00000000000E+00 -0.00000000000E+00 -0.38972362014E+02  0.38972362014E+02  0.00000000000E+00 0. -1.
         25    2    1    2    0    0  0.43180033252E+02 -0.13951576362E+03  0.56225339816E+03  0.59422635312E+03  0.12508761500E+03 0.  0.
          5    1    3    3  502    0 -0.38204171954E+02 -0.52326119377E+02  0.12342253977E+03  0.13945672177E+03  0.41800000000E+01 0. -1.
         -5    1    3    3    0  502  0.81384205206E+02 -0.87189644238E+02  0.43883085839E+03  0.45476963135E+03  0.41800000000E+01 0. -1.
        -11    1    1    2    0    0  0.96381039216E+01  0.15628586688E+02  0.16259082405E+01  0.18433375889E+02  0.00000000000E+00 0. -1.
         11    1    1    2    0    0 -0.52818137174E+02  0.12388717693E+03  0.29637657856E+03  0.32554087999E+03  0.00000000000E+00 0.  1.
</event>
<event>
 7    1  0.2480409E-009  0.1032828E+03  0.7561462E-02  0.1273540E+00
         -2   -1    0    0    0  501 -0.00000000000E+00  0.00000000000E+00  0.16584723907E+03  0.16584723907E+03  0.00000000000E+00 0.  1.
          2   -1    0    0  501    0  0.00000000000E+00 -0.00000000000E+00 -0.86260057954E+02  0.86260057954E+02  0.00000000000E+00 0. -1.
         25    2    1    2    0    0  0.19939336726E+02  0.10911746385E+02 -0.28857416747E+01  0.12717139797E+03  0.12509034174E+03 0.  0.
          5    1    3    3  502    0  0.50090652812E+02 -0.34003627195E+02 -0.28647394365E+02  0.67107866644E+02  0.41800000000E+01 0. -1.
         -5    1    3    3    0  502 -0.30151316086E+02  0.44915373580E+02  0.25761652690E+02  0.60063531322E+02  0.41800000000E+01 0. -1.
        -11    1    1    2    0    0 -0.54428449762E+02  0.28140424351E+01  0.61982087292E+02  0.82535774810E+02  0.00000000000E+00 0.  1.
         11    1    1    2    0    0  0.34489113036E+02 -0.13725788820E+02  0.20490835494E+02  0.42400124245E+02  0.00000000000E+00 0. -1.
</event>
<event>
 7    1  0.3538858E-009  0.1550764E+03  0.7561462E-02  0.1194370E+00
          1   -1    0    0  501    0  0.00000000000E+00  0.00000000000E+00  0.97454220289E+03  0.97454220289E+03  0.00000000000E+00 0. -1.
         -1   -1    0    0    0  501 -0.00000000000E+00 -0.00000000000E+00 -0.34261290775E+02  0.34261290775E+02  0.00000000000E+00 0.  1.
         25    2    1    2    0    0  0.35142229709E+02  0.13901723204E+03  0.41374397329E+03  0.45540339515E+03  0.12508960693E+03 0.  0.
          5    1    3    3  502    0 -0.10118745258E+02  0.15353774433E+02 -0.22991341282E+01  0.18996994833E+02  0.41800000000E+01 0.  1.
         -5    1    3    3    0  502  0.45260974967E+02  0.12366345761E+03  0.41604310742E+03  0.43640640031E+03  0.41800000000E+01 0.  1.
        -11    1    1    2    0    0 -0.56645996353E+02 -0.96505489944E+02  0.26658590883E+03  0.28911956917E+03  0.00000000000E+00 0.  1.
         11    1    1    2    0    0  0.21503766644E+02 -0.42511742100E+02  0.25995102999E+03  0.26428052934E+03  0.00000000000E+00 0. -1.
</event>
<event>
 7    1  0.2480409E-009  0.1203068E+03  0.7561462E-02  0.1242592E+00
          2   -1    0    0  501    0  0.00000000000E+00  0.00000000000E+00  0.48960923050E+03  0.48960923050E+03  0.00000000000E+00 0. -1.
         -2   -1    0    0    0  501 -0.00000000000E+00 -0.00000000000E+00 -0.42899165802E+02  0.42899165802E+02  0.00000000000E+00 0.  1.
         25    2    1    2    0    0  0.45657078657E+02  0.60308773510E+02  0.35075518215E+03  0.37999701674E+03  0.12508724129E+03 0.  0.
          5    1    3    3  502    0  0.61084363428E+02  0.81245579532E+02  0.33309485553E+03  0.34828407777E+03  0.41800000000E+01 0. -1.
         -5    1    3    3    0  502 -0.15427284771E+02 -0.20936806022E+02  0.17660326625E+02  0.31712938973E+02  0.41800000000E+01 0. -1.
        -11    1    1    2    0    0 -0.15146805241E+02 -0.76510134433E+02  0.86963078801E+02  0.11681525352E+03  0.00000000000E+00 0. -1.
         11    1    1    2    0    0 -0.30510273416E+02  0.16201360923E+02  0.89918037426E+01  0.35696126040E+02  0.00000000000E+00 0.  1.
</event>
<event>
 7    1  0.2480409E-009  0.9253407E+02  0.7561462E-02  0.1296829E+00
          2   -1    0    0  501    0  0.00000000000E+00  0.00000000000E+00  0.29683168444E+03  0.29683168444E+03  0.00000000000E+00 0.  1.
         -2   -1    0    0    0  501 -0.00000000000E+00 -0.00000000000E+00 -0.46889508234E+02  0.46889508234E+02  0.00000000000E+00 0. -1.
         25    2    1    2    0    0 -0.26557120013E+02 -0.46002006486E+02  0.14419561900E+03  0.19814558975E+03  0.12509129855E+03 0.  0.
          5    1    3    3  502    0 -0.56792111980E+02 -0.71451698810E+02  0.12264516793E+03  0.15293789217E+03  0.41800000000E+01 0.  1.
         -5    1    3    3    0  502  0.30234991967E+02  0.25449692324E+02  0.21550451076E+02  0.45207697577E+02  0.41800000000E+01 0.  1.
        -11    1    1    2    0    0  0.66419103180E+01  0.20821373722E+02  0.11092406102E+03  0.11305658711E+03  0.00000000000E+00 0.  1.
         11    1    1    2    0    0  0.19915209695E+02  0.25180632763E+02 -0.51775038177E+01  0.32519015811E+02  0.00000000000E+00 0. -1.
</event>
<event>
 7    1  0.2480409E-009  0.1376461E+03  0.7561462E-02  0.1216532E+00
         -1   -1    0    0    0  501 -0.00000000000E+00  0.00000000000E+00  0.28160532148E+03  0.28160532148E+03  0.00000000000E+00 0.  1.
          1   -1    0    0  501    0  0.00000000000E+00 -0.00000000000E+00 -0.75838934977E+02  0.75838934977E+02  0.00000000000E+00 0. -1.
         25    2    1    2    0    0  0.95181642715E+02  0.19827003725E+02  0.99389934806E+02  0.18702836694E+03  0.12509434724E+03 0.  0.
          5    1    3    3  502    0  0.52532977627E+02  0.69281112913E+02  0.31069041139E+02  0.92424802202E+02  0.41800000000E+01 0.  1.
         -5    1    3    3    0  502  0.42648665088E+02 -0.49454109187E+02  0.68320893667E+02  0.94603564736E+02  0.41800000000E+01 0.  1.
        -11    1    1    2    0    0 -0.83196201505E+02 -0.45247096313E+02  0.10622459310E+03  0.14231153098E+03  0.00000000000E+00 0.  1.
         11    1    1    2    0    0 -0.11985441210E+02  0.25420092587E+02  0.15185859809E+00  0.28104358544E+02  0.00000000000E+00 0. -1.
</event>
<event>
 7    1  0.2480409E-009  0.1608244E+03  0.7561462E-02  0.1187769E+00
         -2   -1    0    0    0  501 -0.00000000000E+00  0.00000000000E+00  0.28164077118E+02  0.28164077118E+02  0.00000000000E+00 0.  1.
          2   -1    0    0  501    0  0.00000000000E+00 -0.00000000000E+00 -0.12485809613E+04  0.12485809613E+04  0.00000000000E+00 0. -1.
         25    2    1    2    0    0  0.38758212779E+02  0.14538098801E+03 -0.74075720897E+03  0.76616361246E+03  0.12509039803E+03 0.  0.
          5    1    3    3  502    0  0.56217244206E+02  0.80138163235E+02 -0.62039216360E+03  0.62808153356E+03  0.41800000000E+01 0.  1.
         -5    1    3    3    0  502 -0.17459031427E+02  0.65242824779E+02 -0.12036504537E+03  0.13808207889E+03  0.41800000000E+01 0.  1.
        -11    1    1    2    0    0 -0.22170828503E+02 -0.21059662082E+02 -0.26755888135E+02  0.40631669341E+02  0.00000000000E+00 0.  1.
         11    1    1    2    0    0 -0.16587384276E+02 -0.12432132593E+03 -0.45290378708E+03  0.46994975662E+03  0.00000000000E+00 0. -1.
</event>
<event>
 7    1  0.2480409E-009  0.8820034E+02  0.7561462E-02  0.1307269E+00
         -2   -1    0    0    0  501 -0.00000000000E+00  0.00000000000E+00  0.33428301978E+02  0.33428301978E+02  0.00000000000E+00 0.  1.
          2   -1    0    0  501    0  0.00000000000E+00 -0.00000000000E+00 -0.47170884070E+03  0.47170884070E+03  0.00000000000E+00 0. -1.
         25    2    1    2    0    0  0.58341710009E+02  0.22462977635E+02 -0.23982684963E+03  0.27762048403E+03  0.12509146596E+03 0.  0.
          5    1    3    3  502    0  0.55654213690E+02  0.29848940282E+02 -0.34467436002E+02  0.72068212702E+02  0.41800000000E+01 0. -1.
         -5    1    3    3    0  502  0.26874963185E+01 -0.73859626478E+01 -0.20535941363E+03  0.20555227132E+03  0.41800000000E+01 0. -1.
        -11    1    1    2    0    0 -0.82319685471E+00 -0.43092897013E+02 -0.44841571729E+02  0.62196800409E+02  0.00000000000E+00 0.  1.
         11    1    1    2    0    0 -0.57518513154E+02  0.20629919378E+02 -0.15361211736E+03  0.16531985824E+03  0.00000000000E+00 0. -1.
</event>
<event>
 7    1  0.2480409E-009  0.8878776E+02  0.7561462E-02  0.1305814E+00
          2   -1    0    0  501    0  0.00000000000E+00  0.00000000000E+00  0.78721220827E+02  0.78721220827E+02  0.00000000000E+00 0. -1.
         -2   -1    0    0    0  501 -0.00000000000E+00 -0.00000000000E+00 -0.18639839840E+03  0.18639839840E+03  0.00000000000E+00 0.  1.
         25    2    1    2    0    0  0.97209529383E+01  0.10164098194E+02 -0.13371940288E+03  0.18363897741E+03  0.12507833345E+03 0.  0.
          5    1    3    3  502    0  0.58153837273E+02 -0.19553536087E+02 -0.10010685301E+03  0.11748644170E+03  0.41800000000E+01 0.  1.
         -5    1    3    3    0  502 -0.48432884335E+02  0.29717634281E+02 -0.33612549869E+02  0.66152535711E+02  0.41800000000E+01 0.  1.
        -11    1    1    2    0    0 -0.24664185364E+02  0.15696860107E+02 -0.13272492667E+02  0.32107203530E+02  0.00000000000E+00 0.  1.
         11    1    1    2    0    0  0.14943232426E+02 -0.25860958300E+02  0.39314717971E+02  0.49373438291E+02  0.00000000000E+00 0. -1.
</event>
<event>
 7    1  0.2480409E-009  0.1400268E+03  0.7561462E-02  0.1213293E+00
         -1   -1    0    0    0  501 -0.00000000000E+00  0.00000000000E+00  0.34801171929E+03  0.34801171929E+03  0.00000000000E+00 0.  1.
          1   -1    0    0  501    0  0.00000000000E+00 -0.00000000000E+00 -0.10880369510E+03  0.10880369510E+03  0.00000000000E+00 0. -1.
         25    2    1    2    0    0  0.10773861017E+03  0.85172181091E+02  0.26334805630E+02  0.18762709497E+03  0.12509394959E+03 0.  0.
          5    1    3    3  502    0  0.74058154678E+02  0.34915166737E+02 -0.45383690119E+02  0.93706087697E+02  0.41800000000E+01 0. -1.
         -5    1    3    3    0  502  0.33680455495E+02  0.50257014354E+02  0.71718495749E+02  0.93921007270E+02  0.41800000000E+01 0. -1.
        -11    1    1    2    0    0 -0.54884260621E+02 -0.46534846666E+02  0.35741823948E+02  0.80344582874E+02  0.00000000000E+00 0. -1.
         11    1    1    2    0    0 -0.52854349552E+02 -0.38637334425E+02  0.17713139461E+03  0.18884373655E+03  0.00000000000E+00 0.  1.
</event>
<event>
 7    1  0.2480409E-009  0.1621475E+03  0.7561462E-02  0.1186293E+00
          3   -1    0    0  501    0  0.00000000000E+00  0.00000000000E+00  0.38676485177E+03  0.38676485177E+03  0.00000000000E+00 0. -1.
         -3   -1    0    0    0  501 -0.00000000000E+00 -0.00000000000E+00 -0.12341703751E+03  0.12341703751E+03  0.00000000000E+00 0.  1.
         25    2    1    2    0    0  0.12188465714E+03  0.37048899890E+02 -0.26570018641E+02  0.18050361786E+03  0.12508836693E+03 0.  0.
          5    1    3    3  502    0  0.63498923474E+02  0.74405466083E+02  0.15777192475E+02  0.99169949419E+02  0.41800000000E+01 0. -1.
         -5    1    3    3    0  502  0.58385733661E+02 -0.37356566192E+02 -0.42347211117E+02  0.81333668442E+02  0.41800000000E+01 0. -1.
        -11    1    1    2    0    0 -0.11667218882E+03  0.28534569107E+01  0.21409765982E+03  0.24384082883E+03  0.00000000000E+00 0.  1.
         11    1    1    2    0    0 -0.52124683145E+01 -0.39902356801E+02  0.75820173083E+02  0.85837442591E+02  0.00000000000E+00 0. -1.
</event>
<event>
 7    1  0.2480409E-009  0.1182959E+03  0.7561462E-02  0.1245935E+00
          2   -1    0    0  501    0  0.00000000000E+00  0.00000000000E+00  0.26490353005E+03  0.26490353005E+03  0.00000000000E+00 0. -1.
         -2   -1    0    0    0  501 -0.00000000000E+00 -0.00000000000E+00 -0.85225002382E+02  0.85225002382E+02  0.00000000000E+00 0.  1.
         25    2    1    2    0    0 -0.94397454024E+02  0.31433570586E+02  0.68801283777E+02  0.17401001292E+03  0.12508764631E+03 0.  0.
          5    1    3    3  502    0 -0.76051778566E+02 -0.14730462789E+02  0.90879758597E+02  0.11948833617E+03  0.41800000000E+01 0.  1.
         -5    1    3    3    0  502 -0.18345675457E+02  0.46164033375E+02 -0.22078474820E+02  0.54521676751E+02  0.41800000000E+01 0.  1.
        -11    1    1    2    0    0  0.59262706009E+02  0.38262458388E+01  0.11151038847E+03  0.12633794053E+03  0.00000000000E+00 0. -1.
         11    1    1    2    0    0  0.35134748014E+02 -0.35259816424E+02 -0.63314457648E+00  0.49780578988E+02  0.00000000000E+00 0.  1.
</event>
<event>
 7    1  0.2480409E-009  0.2803375E+03  0.7561462E-02  0.1095505E+00
         -1   -1    0    0    0  501 -0.00000000000E+00  0.00000000000E+00  0.10029190194E+03  0.10029190194E+03  0.00000000000E+00 0.  1.
          1   -1    0    0  501    0  0.00000000000E+00 -0.00000000000E+00 -0.10367590306E+04  0.10367590306E+04  0.00000000000E+00 0. -1.
         25    2    1    2    0    0  0.19042884741E+03 -0.18362389619E+03 -0.73613218805E+03  0.79215834430E+03  0.12507343032E+03 0.  0.
          5    1    3    3  502    0  0.12334564356E+03 -0.55641903628E+02 -0.47229050494E+03  0.49131045448E+03  0.41800000000E+01 0. -1.
         -5    1    3    3    0  502  0.67083203848E+02 -0.12798199257E+03 -0.26384168312E+03  0.30084788982E+03  0.41800000000E+01 0. -1.
        -11    1    1    2    0    0 -0.12476867844E+03  0.17439547932E+03 -0.15397276991E+03  0.26398602274E+03  0.00000000000E+00 0.  1.
         11    1    1    2    0    0 -0.65660168976E+02  0.92284168710E+01 -0.46362170647E+02  0.80906565463E+02  0.00000000000E+00 0. -1.
</event>
<event>
 7    1  0.2480409E-009  0.1541371E+03  0.7561462E-02  0.1195480E+00
          1   -1    0    0  501    0  0.00000000000E+00  0.00000000000E+00  0.79496700133E+03  0.79496700133E+03  0.00000000000E+00 0. -1.
         -1   -1    0    0    0  501 -0.00000000000E+00 -0.00000000000E+00 -0.58797560056E+02  0.58797560056E+02  0.00000000000E+00 0.  1.
         25    2    1    2    0    0  0.12244609364E+03 -0.53534178912E+02  0.63839495838E+03  0.66411877761E+03  0.12508666490E+03 0.  0.
          5    1    3    3  502    0 -0.18508915086E+02 -0.23674463481E+02  0.51416830941E+02  0.59701114419E+02  0.41800000000E+01 0.  1.
         -5    1    3    3    0  502  0.14095500872E+03 -0.29859715431E+02  0.58697812744E+03  0.60441766320E+03  0.41800000000E+01 0.  1.
        -11    1    1    2    0    0 -0.53219003296E+02  0.19817853785E+02 -0.95186965368E+01  0.57581379145E+02  0.00000000000E+00 0.  1.
         11    1    1    2    0    0 -0.69227090341E+02  0.33716325126E+02  0.10729317943E+03  0.13206440463E+03  0.00000000000E+00 0. -1.
</event>
<event>
 7    1  0.2480409E-009  0.1113917E+03  0.7561462E-02  0.1258014E+00
         -2   -1    0    0    0  501 -0.00000000000E+00  0.00000000000E+00  0.13225042107E+03  0.13225042107E+03  0.00000000000E+00 0.  1.
          2   -1    0    0  501    0  0.00000000000E+00 -0.00000000000E+00 -0.50350799506E+03  0.50350799506E+03  0.00000000000E+00 0. -1.
         25    2    1    2    0    0 -0.84601581680E+02 -0.51469280023E+02 -0.45183174681E+03  0.47917216003E+03  0.12509003604E+03 0.  0.
          5    1    3    3  502    0 -0.85158745801E+02 -0.62820910728E+02 -0.45458085112E+03  0.46675443374E+03  0.41800000000E+01 0. -1.
         -5    1    3    3    0  502  0.55716412080E+00  0.11351630704E+02  0.27491043195E+01  0.12417726284E+02  0.41800000000E+01 0. -1.
        -11    1    1    2    0    0  0.53034642188E+02  0.12263818107E+02  0.90188018029E+02  0.10534207660E+03  0.00000000000E+00 0.  1.
         11    1    1    2    0    0  0.31566939492E+02  0.39205461917E+02 -0.96138452111E+01  0.51244179501E+02  0.00000000000E+00 0. -1.
</event>
<event>
 7    1  0.2480409E-009  0.1067494E+03  0.7561462E-02  0.1266711E+00
         -1   -1    0    0    0  501 -0.00000000000E+00  0.00000000000E+00  0.65145510377E+02  0.65145510377E+02  0.00000000000E+00 0.  1.
          1   -1    0    0  501    0  0.00000000000E+00 -0.00000000000E+00 -0.24853553546E+03  0.24853553546E+03  0.00000000000E+00 0. -1.
         25    2    1    2    0    0  0.14679286297E+02 -0.64757662360E+02 -0.12419917511E+03  0.18836938418E+03  0.12509417860E+03 0.  0.
          5    1    3    3  502    0  0.36010513978E+02 -0.95858263437E+02 -0.10103511702E+03  0.14391362360E+03  0.41800000000E+01 0. -1.
         -5    1    3    3    0  502 -0.21331227681E+02  0.31100601077E+02 -0.23164058086E+02  0.44455760580E+02  0.41800000000E+01 0. -1.
        -11    1    1    2    0    0 -0.24209504842E+02  0.49018830863E+02  0.83538293266E+01  0.55305807727E+02  0.00000000000E+00 0.  1.
         11    1    1    2    0    0  0.95302185459E+01  0.15738831497E+02 -0.67544679300E+02  0.70005853928E+02  0.00000000000E+00 0. -1.
</event>
<event>
 7    1  0.2480409E-009  0.1043237E+03  0.7561462E-02  0.1271458E+00
          1   -1    0    0  501    0  0.00000000000E+00  0.00000000000E+00  0.60331744562E+03  0.60331744562E+03  0.00000000000E+00 0. -1.
         -1   -1    0    0    0  501 -0.00000000000E+00 -0.00000000000E+00 -0.32340617644E+02  0.32340617644E+02  0.00000000000E+00 0.  1.
         25    2    1    2    0    0 -0.21439280500E+02  0.24010916814E+02  0.49773739473E+03  0.51422722337E+03  0.12510378201E+03 0.  0.
          5    1    3    3  502    0  0.52123190867E+02  0.13392546535E+02  0.18221383236E+03  0.19004089148E+03  0.41800000000E+01 0. -1.
         -5    1    3    3    0  502 -0.73562471367E+02  0.10618370279E+02  0.31552356236E+03  0.32418633190E+03  0.41800000000E+01 0. -1.
        -11    1    1    2    0    0  0.41697471221E+02  0.78895968472E+01  0.40959266064E+01  0.42634510193E+02  0.00000000000E+00 0.  1.
         11    1    1    2    0    0 -0.20258190721E+02 -0.31900513661E+02  0.69143506640E+02  0.78796329696E+02  0.00000000000E+00 0. -1.
</event>
<event>
 7    1  0.2480409E-009  0.8192250E+02  0.7561462E-02  0.1323683E+00
          1   -1    0    0  501    0  0.00000000000E+00  0.00000000000E+00  0.13779742875E+03  0.13779742875E+03  0.00000000000E+00 0. -1.
         -1   -1    0    0    0  501 -0.00000000000E+00 -0.00000000000E+00 -0.95317128559E+02  0.95317128559E+02  0.00000000000E+00 0.  1.
         25    2    1    2    0    0 -0.37001371129E+02 -0.37804822507E+01  0.35270183857E+02  0.13518415661E+03  0.12508947524E+03 0.  0.
          5    1    3    3  502    0 -0.58241128911E+02 -0.15400814879E+02  0.70123364646E+02  0.92541735801E+02  0.41800000000E+01 0.  1.
         -5    1    3    3    0  502  0.21239757782E+02  0.11620332628E+02 -0.34853180789E+02  0.42642420806E+02  0.41800000000E+01 0.  1.
        -11    1    1    2    0    0  0.39164078007E+02 -0.27295255993E+02  0.32546707782E+02  0.57776675167E+02  0.00000000000E+00 0. -1.
         11    1    1    2    0    0 -0.21627068777E+01  0.31075738244E+02 -0.25336591446E+02  0.40153725538E+02  0.00000000000E+00 0.  1.
</event>
<event>
 7    1  0.3408839E-009  0.1397552E+03  0.7561462E-02  0.1213659E+00
         -2   -1    0    0    0  501 -0.00000000000E+00  0.00000000000E+00  0.15780026792E+03  0.15780026792E+03  0.00000000000E+00 0.  1.
          2   -1    0    0  501    0  0.00000000000E+00 -0.00000000000E+00 -0.14103323950E+03  0.14103323950E+03  0.00000000000E+00 0. -1.
         25    2    1    2    0    0 -0.78918521352E+02 -0.47531130389E+02 -0.34013758694E+02  0.15903595955E+03  0.12509260282E+03 0.  0.
          5    1    3    3  502    0 -0.92697656348E+02  0.12197381711E+02 -0.25558535740E+02  0.97017229203E+02  0.41800000000E+01 0. -1.
         -5    1    3    3    0  502  0.13779134995E+02 -0.59728512100E+02 -0.84552229536E+01  0.62018730349E+02  0.41800000000E+01 0. -1.
        -11    1    1    2    0    0  0.21771653750E+02  0.61847660305E+02  0.60868056944E+01  0.65849731934E+02  0.00000000000E+00 0. -1.
         11    1    1    2    0    0  0.57146867602E+02 -0.14316529916E+02  0.44693981428E+02  0.73947815934E+02  0.00000000000E+00 0.  1.
</event>
<event>
 7    1  0.2480409E-009  0.2256764E+03  0.7561462E-02  0.1129720E+00
          1   -1    0    0  501    0  0.00000000000E+00  0.00000000000E+00  0.10378145632E+04  0.10378145632E+04  0.00000000000E+00 0. -1.
         -1   -1    0    0    0  501 -0.00000000000E+00 -0.00000000000E+00 -0.12221916916E+03  0.12221916916E+03  0.00000000000E+00 0.  1.
         25    2    1    2    0    0 -0.18429118935E+03 -0.12990767812E+03  0.52625496698E+02  0.26316428982E+03  0.12508698265E+03 0.  0.
          5    1    3    3  502    0 -0.90036434719E+02 -0.67912518293E+02  0.89891348329E+02  0.14427957798E+03  0.41800000000E+01 0. -1.
         -5    1    3    3    0  502 -0.94254754633E+02 -0.61995159823E+02 -0.37265851631E+02  0.11888471184E+03  0.41800000000E+01 0. -1.
        -11    1    1    2    0    0  0.48856040424E+02  0.38619772416E+02  0.11015442731E+03  0.12654010180E+03  0.00000000000E+00 0.  1.
         11    1    1    2    0    0  0.13543514893E+03  0.91287905700E+02  0.75281546998E+03  0.77032934069E+03  0.00000000000E+00 0. -1.
</event>
<event>
 7    1  0.2480409E-009  0.9729040E+02  0.7561462E-02  0.1286099E+00
         -2   -1    0    0    0  501 -0.00000000000E+00  0.00000000000E+00  0.44854820714E+02  0.44854820714E+02  0.00000000000E+00 0.  1.
          2   -1    0    0  501    0  0.00000000000E+00 -0.00000000000E+00 -0.34573426310E+03  0.34573426310E+03  0.00000000000E+00 0. -1.
         25    2    1    2    0    0 -0.36561629494E+02  0.28216462596E+02 -0.23235459294E+03  0.26789622029E+03  0.12508719548E+03 0.  0.
          5    1    3    3  502    0  0.46188260891E+02  0.15334009681E+02 -0.98507906252E+02  0.10995347785E+03  0.41800000000E+01 0. -1.
         -5    1    3    3    0  502 -0.82749890386E+02  0.12882452915E+02 -0.13384668669E+03  0.15794274244E+03  0.41800000000E+01 0. -1.
        -11    1    1    2    0    0  0.27084000687E+02  0.48243790832E+01  0.15734382842E+02  0.31692089394E+02  0.00000000000E+00 0.  1.
         11    1    1    2    0    0  0.94776288075E+01 -0.33040841679E+02 -0.84259232286E+02  0.91000774130E+02  0.00000000000E+00 0. -1.
</event>
<event>
 7    1  0.2480409E-009  0.7185626E+02  0.7561462E-02  0.1353892E+00
          2   -1    0    0  501    0  0.00000000000E+00  0.00000000000E+00  0.25693729241E+03  0.25693729241E+03  0.00000000000E+00 0. -1.
         -2   -1    0    0    0  501 -0.00000000000E+00 -0.00000000000E+00 -0.91634318785E+02  0.91634318785E+02  0.00000000000E+00 0.  1.
         25    2    1    2    0    0 -0.28124078595E+02  0.19614894172E+02  0.20496501686E+03  0.24255746352E+03  0.12509099529E+03 0.  0.
          5    1    3    3  502    0 -0.16568981603E+02 -0.13388368355E+02 -0.10583641165E+02  0.24150888573E+02  0.41800000000E+01 0. -1.
         -5    1    3    3    0  502 -0.11555096992E+02  0.33003262527E+02  0.21554865802E+03  0.21840657495E+03  0.41800000000E+01 0. -1.
        -11    1    1    2    0    0  0.26283092113E+02  0.28424039589E+02 -0.42956471446E+02  0.57827202912E+02  0.00000000000E+00 0.  1.
         11    1    1    2    0    0  0.18409864818E+01 -0.48038933761E+02  0.32944282097E+01  0.48186944760E+02  0.00000000000E+00 0. -1.
</event>
<event>
 7    1  0.2480409E-009  0.1321526E+03  0.7561462E-02  0.1224296E+00
          1   -1    0    0  501    0  0.00000000000E+00  0.00000000000E+00  0.32487405643E+02  0.32487405643E+02  0.00000000000E+00 0. -1.
         -1   -1    0    0    0  501 -0.00000000000E+00 -0.00000000000E+00 -0.88486019818E+03  0.88486019818E+03  0.00000000000E+00 0.  1.
         25    2    1    2    0    0  0.10282424157E+03  0.69296654498E+02 -0.56044447728E+03  0.58746993435E+03  0.12509220865E+03 0.  0.
          5    1    3    3  502    0  0.26061786466E+02  0.48766400980E+02 -0.43764812402E+03  0.44114706327E+03  0.41800000000E+01 0.  1.
         -5    1    3    3    0  502  0.76762455109E+02  0.20530253518E+02 -0.12279635327E+03  0.14632287107E+03  0.41800000000E+01 0.  1.
        -11    1    1    2    0    0 -0.82890642051E+02 -0.71183315500E+02 -0.28983547771E+03  0.30974590729E+03  0.00000000000E+00 0.  1.
         11    1    1    2    0    0 -0.19933599523E+02  0.18866610021E+01 -0.20928375456E+01  0.20131762185E+02  0.00000000000E+00 0. -1.
</event>
<event>
 7    1  0.2480409E-009  0.1851100E+03  0.7561462E-02  0.1162947E+00
          1   -1    0    0  501    0  0.00000000000E+00  0.00000000000E+00  0.10571698235E+04  0.10571698235E+04  0.00000000000E+00 0. -1.
         -1   -1    0    0    0  501 -0.00000000000E+00 -0.00000000000E+00 -0.32948480502E+02  0.32948480502E+02  0.00000000000E+00 0.  1.
         25    2    1    2    0    0  0.47450592217E+02  0.14373627288E+03  0.55938992811E+03  0.59285401741E+03  0.12508844650E+03 0.  0.
          5    1    3    3  502    0  0.38667697672E+01  0.14943214899E+03  0.38665448884E+03  0.41456493484E+03  0.41800000000E+01 0.  1.
         -5    1    3    3    0  502  0.43583822450E+02 -0.56958761099E+01  0.17273543927E+03  0.17828908257E+03  0.41800000000E+01 0.  1.
        -11    1    1    2    0    0 -0.51296122640E+02 -0.23834129278E+02  0.15755399327E+03  0.16739957799E+03  0.00000000000E+00 0.  1.
         11    1    1    2    0    0  0.38455304223E+01 -0.11990214360E+03  0.30727742164E+03  0.32986470862E+03  0.00000000000E+00 0. -1.
</event>
<event>
 7    1  0.2480409E-009  0.2790286E+03  0.7561462E-02  0.1096221E+00
         -2   -1    0    0    0  501 -0.00000000000E+00  0.00000000000E+00  0.70571028550E+02  0.70571028550E+02  0.00000000000E+00 0. -1.
          2   -1    0    0  501    0  0.00000000000E+00 -0.00000000000E+00 -0.17118220294E+04  0.17118220294E+04  0.00000000000E+00 0.  1.
         25    2    1    2    0    0  0.45837584243E+02 -0.24996637747E+03 -0.30724997017E+03  0.41789198096E+03  0.12508752771E+03 0.  0.
          5    1    3    3  502    0  0.19032560075E+02 -0.25132151581E+03 -0.29518405291E+03  0.38816985991E+03  0.41800000000E+01 0. -1.
         -5    1    3    3    0  502  0.26805024168E+02  0.13551383367E+01 -0.12065917258E+02  0.29722121052E+02  0.41800000000E+01 0. -1.
        -11    1    1    2    0    0  0.28834610115E+02  0.15474825248E+02 -0.77475888386E+02  0.84103616083E+02  0.00000000000E+00 0. -1.
         11    1    1    2    0    0 -0.74672194359E+02  0.23449155222E+03 -0.12565251423E+04  0.12803974609E+04  0.00000000000E+00 0.  1.
</event>
<event>
 7    1  0.2480409E-009  0.1793781E+03  0.7561462E-02  0.1168406E+00
         -1   -1    0    0    0  501 -0.00000000000E+00  0.00000000000E+00  0.69353554190E+02  0.69353554190E+02  0.00000000000E+00 0.  1.
          1   -1    0    0  501    0  0.00000000000E+00 -0.00000000000E+00 -0.75404758113E+03  0.75404758113E+03  0.00000000000E+00 0. -1.
         25    2    1    2    0    0  0.15045238467E+03 -0.66331274088E+02 -0.56071616713E+03  0.59756581878E+03  0.12508608921E+03 0.  0.
          5    1    3    3  502    0  0.13559015121E+03 -0.20462653512E+02 -0.27006168336E+03  0.30290954840E+03  0.41800000000E+01 0.  1.
         -5    1    3    3    0  502  0.14862233466E+02 -0.45868620576E+02 -0.29065448377E+03  0.29465627038E+03  0.41800000000E+01 0.  1.
        -11    1    1    2    0    0 -0.55602234484E+02  0.54022093435E+02 -0.10126011297E+03  0.12752884198E+03  0.00000000000E+00 0.  1.
         11    1    1    2    0    0 -0.94850150189E+02  0.12309180654E+02 -0.22717746842E+02  0.98306474562E+02  0.00000000000E+00 0. -1.
</event>
<event>
 7    1  0.2480409E-009  0.1057386E+03  0.7561462E-02  0.1268671E+00
         -1   -1    0    0    0  501 -0.00000000000E+00  0.00000000000E+00  0.33583165525E+02  0.33583165525E+02  0.00000000000E+00 0.  1.
          1   -1    0    0  501    0  0.00000000000E+00 -0.00000000000E+00 -0.41280408402E+03  0.41280408402E+03  0.00000000000E+00 0. -1.
         25    2    1    2    0    0  0.22930806937E+02  0.32174863855E+02 -0.17489251149E+03  0.21862179759E+03  0.12508819303E+03 0.  0.
          5    1    3    3  502    0 -0.43467941842E+02  0.20801909976E+02 -0.12689265767E+03  0.13579911781E+03  0.41800000000E+01 0.  1.
         -5    1    3    3    0  502  0.66398748779E+02  0.11372953879E+02 -0.47999853812E+02  0.82822679776E+02  0.41800000000E+01 0.  1.
        -11    1    1    2    0    0  0.61396620118E+01 -0.57032980636E+02 -0.85723042735E+02  0.10314502599E+03  0.00000000000E+00 0.  1.
         11    1    1    2    0    0 -0.29070468948E+02  0.24858116781E+02 -0.11860536427E+03  0.12462042597E+03  0.00000000000E+00 0. -1.
</event>
<event>
 7    1  0.2480409E-009  0.6888918E+02  0.7561462E-02  0.1363912E+00
         -2   -1    0    0    0  501 -0.00000000000E+00  0.00000000000E+00  0.44854703131E+02  0.44854703131E+02  0.00000000000E+00 0.  1.
          2   -1    0    0  501    0  0.00000000000E+00 -0.00000000000E+00 -0.24054147085E+03  0.24054147085E+03  0.00000000000E+00 0. -1.
         25    2    1    2    0    0  0.22918732199E+01 -0.25970559435E+02 -0.12672354747E+03  0.17996832997E+03  0.12510003864E+03 0.  0.
          5    1    3    3  502    0 -0.23644691309E+02 -0.27244569245E+02 -0.14399410458E+03  0.14850290412E+03  0.41800000000E+01 0.  1.
         -5    1    3    3    0  502  0.25936564529E+02  0.12740098106E+01  0.17270557110E+02  0.31465425842E+02  0.41800000000E+01 0.  1.
        -11    1    1    2    0    0  0.20241598118E+02  0.42594076015E+02 -0.59386773019E+02  0.75833807866E+02  0.00000000000E+00 0. -1.
         11    1    1    2    0    0 -0.22533471338E+02 -0.16623516580E+02 -0.95764472372E+01  0.29594036151E+02  0.00000000000E+00 0.  1.
</event>
<event>
 7    1  0.2480409E-009  0.1980313E+03  0.7561462E-02  0.1151411E+00
          1   -1    0    0  501    0  0.00000000000E+00  0.00000000000E+00  0.10264279080E+04  0.10264279080E+04  0.00000000000E+00 0. -1.
         -1   -1    0    0    0  501 -0.00000000000E+00 -0.00000000000E+00 -0.41013214089E+02  0.41013214089E+02  0.00000000000E+00 0.  1.
         25    2    1    2    0    0 -0.87650286667E+02  0.14915183707E+03  0.54491801963E+03  0.58524740767E+03  0.12510010719E+03 0.  0.
          5    1    3    3  502    0  0.17930163925E+02  0.81945052010E+02  0.27807912338E+03  0.29048572011E+03  0.41800000000E+01 0. -1.
         -5    1    3    3    0  502 -0.10558045059E+03  0.67206785061E+02  0.26683889625E+03  0.29476168756E+03  0.41800000000E+01 0. -1.
        -11    1    1    2    0    0  0.63549534795E+02 -0.14981824188E+03  0.31664347579E+03  0.35601564535E+03  0.00000000000E+00 0.  1.
         11    1    1    2    0    0  0.24100751872E+02  0.66640480784E+00  0.12385319849E+03  0.12617806907E+03  0.00000000000E+00 0. -1.
</event>
<event>
 7    1  0.2480409E-009  0.9111890E+02  0.7561462E-02  0.1300165E+00
         -1   -1    0    0    0  501 -0.00000000000E+00  0.00000000000E+00  0.30932020551E+02  0.30932020551E+02  0.00000000000E+00 0.  1.
          1   -1    0    0  501    0  0.00000000000E+00 -0.00000000000E+00 -0.44464730284E+03  0.44464730284E+03  0.00000000000E+00 0. -1.
         25    2    1    2    0    0  0.23513425761E+02  0.26543001151E+02 -0.28051192502E+03  0.30917853597E+03  0.12508802872E+03 0.  0.
          5    1    3    3  502    0  0.18712314947E+02 -0.28506706348E+02 -0.14219982574E+02  0.37181491927E+02  0.41800000000E+01 0.  1.
         -5    1    3    3    0  502  0.48011108148E+01  0.55049707499E+02 -0.26629194244E+03  0.27199704405E+03  0.41800000000E+01 0.  1.
        -11    1    1    2    0    0 -0.43474543214E+02 -0.46903790208E+02 -0.11768172595E+03  0.13393651506E+03  0.00000000000E+00 0.  1.
         11    1    1    2    0    0  0.19961117452E+02  0.20360789057E+02 -0.15521631325E+02  0.32464272362E+02  0.00000000000E+00 0. -1.
</event>
<event>
 7    1  0.2480409E-009  0.1218700E+03  0.7561462E-02  0.1240044E+00
          3   -1    0    0  501    0  0.00000000000E+00  0.00000000000E+00  0.54129016366E+03  0.54129016366E+03  0.00000000000E+00 0. -1.
         -3   -1    0    0    0  501 -0.00000000000E+00 -0.00000000000E+00 -0.48679810555E+02  0.48679810555E+02  0.00000000000E+00 0.  1.
         25    2    1    2    0    0 -0.29644095758E+02 -0.74553481322E+02  0.42625397445E+03  0.45141809201E+03  0.12509535991E+03 0.  0.
          5    1    3    3  502    0 -0.59790956980E+02  0.21843535532E+01  0.24525067359E+03  0.25247791039E+03  0.41800000000E+01 0.  1.
         -5    1    3    3    0  502  0.30146861222E+02 -0.76737834875E+02  0.18100330086E+03  0.19894018163E+03  0.41800000000E+01 0.  1.
        -11    1    1    2    0    0  0.48920861692E+02  0.49454438037E+02  0.52796765130E+01  0.69762935247E+02  0.00000000000E+00 0.  1.
         11    1    1    2    0    0 -0.19276765934E+02  0.25099043285E+02  0.61076702144E+02  0.68788946957E+02  0.00000000000E+00 0. -1.
</event>
<event>
 7    1  0.2480409E-009  0.1381186E+03  0.7561462E-02  0.1215883E+00
         -1   -1    0    0    0  501 -0.00000000000E+00  0.00000000000E+00  0.50923585074E+03  0.50923585074E+03  0.00000000000E+00 0.  1.
          1   -1    0    0  501    0  0.00000000000E+00 -0.00000000000E+00 -0.64352690878E+02  0.64352690878E+02  0.00000000000E+00 0. -1.
         25    2    1    2    0    0  0.50816204993E+02  0.86095185598E+02  0.69937182591E+02  0.17473915155E+03  0.12509154209E+03 0.  0.
          5    1    3    3  502    0 -0.10887265321E+02  0.77989103090E+02  0.79104459218E+02  0.11169521304E+03  0.41800000000E+01 0. -1.
         -5    1    3    3    0  502  0.61703470313E+02  0.81060825083E+01 -0.91672766269E+01  0.63043938512E+02  0.41800000000E+01 0. -1.
        -11    1    1    2    0    0 -0.69000514479E+02 -0.28578984874E+02  0.18319300973E+03  0.19783202013E+03  0.00000000000E+00 0. -1.
         11    1    1    2    0    0  0.18184309486E+02 -0.57516200724E+02  0.19175296754E+03  0.20101736994E+03  0.00000000000E+00 0.  1.
</event>
<event>
 7    1  0.2480409E-009  0.6870702E+02  0.7561462E-02  0.1364546E+00
          1   -1    0    0  501    0  0.00000000000E+00  0.00000000000E+00  0.28745906346E+03  0.28745906346E+03  0.00000000000E+00 0. -1.
         -1   -1    0    0    0  501 -0.00000000000E+00 -0.00000000000E+00 -0.47270214633E+02  0.47270214633E+02  0.00000000000E+00 0.  1.
         25    2    1    2    0    0 -0.32790137407E+02 -0.68985067242E+01  0.19603734732E+03  0.23494770160E+03  0.12508796279E+03 0.  0.
          5    1    3    3  502    0  0.91549358374E+01 -0.15211358103E+02 -0.12447419233E+02  0.22081868379E+02  0.41800000000E+01 0. -1.
         -5    1    3    3    0  502 -0.41945073244E+02  0.83128513792E+01  0.20848476655E+03  0.21286583322E+03  0.41800000000E+01 0. -1.
        -11    1    1    2    0    0  0.27127744145E+02 -0.29091565805E+02 -0.33489805760E+01  0.39918033197E+02  0.00000000000E+00 0.  1.
         11    1    1    2    0    0  0.56623932610E+01  0.35990072529E+02  0.47500482088E+02  0.59863543302E+02  0.00000000000E+00 0. -1.
</event>
<event>
 7    1  0.2480409E-009  0.9501247E+02  0.7561462E-02  0.1291148E+00
          3   -1    0    0  501    0  0.00000000000E+00  0.00000000000E+00  0.10701534958E+03  0.10701534958E+03  0.00000000000E+00 0. -1.
         -3   -1    0    0    0  501 -0.00000000000E+00 -0.00000000000E+00 -0.14021810855E+03  0.14021810855E+03  0.00000000000E+00 0.  1.
         25    2    1    2    0    0 -0.20103705596E+02 -0.54018097205E+02 -0.25746279411E+02  0.14011564357E+03  0.12508960335E+03 0.  0.
          5    1    3    3  502    0 -0.21331131418E+01  0.18317638522E+02 -0.56347265223E+02  0.59435450287E+02  0.41800000000E+01 0. -1.
         -5    1    3    3    0  502 -0.17970592454E+02 -0.72335735726E+02  0.30600985812E+02  0.80680193287E+02  0.41800000000E+01 0. -1.
        -11    1    1    2    0    0  0.21193495135E+02  0.73733307246E+02 -0.25015802724E+02  0.80694208091E+02  0.00000000000E+00 0.  1.
         11    1    1    2    0    0 -0.10897895387E+01 -0.19715210041E+02  0.17559323169E+02  0.26423606460E+02  0.00000000000E+00 0. -1.
</event>
<event>
 7    1  0.2480409E-009  0.1127634E+03  0.7561462E-02  0.1255536E+00
         -1   -1    0    0    0  501 -0.00000000000E+00  0.00000000000E+00  0.99139407322E+02  0.99139407322E+02  0.00000000000E+00 0.  1.
          1   -1    0    0  501    0  0.00000000000E+00 -0.00000000000E+00 -0.19785327253E+03  0.19785327253E+03  0.00000000000E+00 0. -1.
         25    2    1    2    0    0 -0.31744730663E+02 -0.50219905978E+02  0.12621760928E+02  0.13905675144E+03  0.12509078459E+03 0.  0.
          5    1    3    3  502    0 -0.37862437349E+02 -0.86288950865E+02 -0.11523358123E+02  0.95024246305E+02  0.41800000000E+01 0.  1.
         -5    1    3    3    0  502  0.61177066858E+01  0.36069044888E+02  0.24145119051E+02  0.44032505132E+02  0.41800000000E+01 0.  1.
        -11    1    1    2    0    0  0.30625442014E+02 -0.11454219702E+02 -0.24463816108E+01  0.32788742436E+02  0.00000000000E+00 0.  1.
         11    1    1    2    0    0  0.11192886491E+01  0.61674125679E+02 -0.10888924453E+03  0.12514718598E+03  0.00000000000E+00 0. -1.
</event>
<event>
 7    1  0.2480409E-009  0.1036714E+03  0.7561462E-02  0.1272760E+00
          1   -1    0    0  501    0  0.00000000000E+00  0.00000000000E+00  0.10286001969E+03  0.10286001969E+03  0.00000000000E+00 0. -1.
         -1   -1    0    0    0  501 -0.00000000000E+00 -0.00000000000E+00 -0.13715567947E+03  0.13715567947E+03  0.00000000000E+00 0.  1.
         25    2    1    2    0    0  0.31074653955E+02  0.37246924049E+00 -0.57086354998E+02  0.14096721574E+03  0.12508849321E+03 0.  0.
          5    1    3    3  502    0 -0.33419440215E+02  0.33361716607E+02 -0.48631343428E+02  0.67914233286E+02  0.41800000000E+01 0.  1.
         -5    1    3    3    0  502  0.64494094170E+02 -0.32989247366E+02 -0.84550115699E+01  0.73052982453E+02  0.41800000000E+01 0.  1.
        -11    1    1    2    0    0  0.10972489713E+01  0.37594226320E+02 -0.10653561424E+02  0.39090001010E+02  0.00000000000E+00 0.  1.
         11    1    1    2    0    0 -0.32171902926E+02 -0.37966695561E+02  0.33444256643E+02  0.59958482403E+02  0.00000000000E+00 0. -1.
</event>
<event>
 7    1  0.2480409E-009  0.1132438E+03  0.7561462E-02  0.1254678E+00
          1   -1    0    0  501    0  0.00000000000E+00  0.00000000000E+00  0.94010665223E+03  0.94010665223E+03  0.00000000000E+00 0. -1.
         -1   -1    0    0    0  501 -0.00000000000E+00 -0.00000000000E+00 -0.31750144613E+02  0.31750144613E+02  0.00000000000E+00 0.  1.
         25    2    1    2    0    0 -0.90992132256E+01 -0.56895308149E+02  0.82321270453E+03  0.83465410926E+03  0.12509377857E+03 0.  0.
          5    1    3    3  502    0 -0.55561617638E+02 -0.56470919713E+02  0.66474439517E+03  0.66946145627E+03  0.41800000000E+01 0.  1.
         -5    1    3    3    0  502  0.46462404412E+02 -0.42438843554E+00  0.15846830936E+03  0.16519265299E+03  0.41800000000E+01 0.  1.
        -11    1    1    2    0    0  0.27461552329E+02 -0.11436578997E+02  0.47805814691E+01  0.30129489784E+02  0.00000000000E+00 0.  1.
         11    1    1    2    0    0 -0.18362339103E+02  0.68331887145E+02  0.80363221622E+02  0.10707319780E+03  0.00000000000E+00 0. -1.
</event>
<event>
 7    1  0.2480409E-009  0.1039827E+03  0.7561462E-02  0.1272137E+00
         -1   -1    0    0    0  501 -0.00000000000E+00  0.00000000000E+00  0.90722135769E+02  0.90722135769E+02  0.00000000000E+00 0.  1.
          1   -1    0    0  501    0  0.00000000000E+00 -0.00000000000E+00 -0.22311614265E+03  0.22311614265E+03  0.00000000000E+00 0. -1.
         25    2    1    2    0    0 -0.73378773774E+02  0.50337075029E+02 -0.43008378843E+02  0.15942386904E+03  0.12509190144E+03 0.  0.
          5    1    3    3  502    0 -0.25393523435E+02  0.48122391574E+02  0.37054224583E+02  0.65962743748E+02  0.41800000000E+01 0. -1.
         -5    1    3    3    0  502 -0.47985250339E+02  0.22146834548E+01 -0.80062603426E+02  0.93461125289E+02  0.41800000000E+01 0. -1.
        -11    1    1    2    0    0  0.34867987216E+02 -0.56283449678E+02 -0.94211542246E+02  0.11514954595E+03  0.00000000000E+00 0. -1.
         11    1    1    2    0    0  0.38510786558E+02  0.59463746493E+01  0.48259142046E+01  0.39264863437E+02  0.00000000000E+00 0.  1.
</event>
<event>
 7    1  0.2480409E-009  0.1188032E+03  0.7561462E-02  0.1245085E+00
         -2   -1    0    0    0  501 -0.00000000000E+00  0.00000000000E+00  0.73628225404E+02  0.73628225404E+02  0.00000000000E+00 0.  1.
          2   -1    0    0  501    0  0.00000000000E+00 -0.00000000000E+00 -0.26508210773E+03  0.26508210773E+03  0.00000000000E+00 0. -1.
         25    2    1    2    0    0  0.53302485078E+02  0.70153601042E+02 -0.10884124376E+03  0.18776855520E+03  0.12509169167E+03 0.  0.
          5    1    3    3  502    0  0.72012354631E+02  0.58842094936E+02 -0.12808805220E+03  0.15834201235E+03  0.41800000000E+01 0. -1.
         -5    1    3    3    0  502 -0.18709869553E+02  0.11311506106E+02  0.19246808444E+02  0.29426542854E+02  0.41800000000E+01 0. -1.
        -11    1    1    2    0    0  0.46648928826E+01 -0.63769284589E+02 -0.62068483528E+02  0.89111051672E+02  0.00000000000E+00 0. -1.
         11    1    1    2    0    0 -0.57967377961E+02 -0.63843164527E+01 -0.20544155042E+02  0.61830726266E+02  0.00000000000E+00 0.  1.
</event>
<event>
 7    1  0.2480409E-009  0.1773808E+03  0.7561462E-02  0.1170362E+00
          1   -1    0    0  501    0  0.00000000000E+00  0.00000000000E+00  0.74185122844E+02  0.74185122844E+02  0.00000000000E+00 0. -1.
         -1   -1    0    0    0  501 -0.00000000000E+00 -0.00000000000E+00 -0.47423674728E+03  0.47423674728E+03  0.00000000000E+00 0.  1.
         25    2    1    2    0    0  0.13512886078E+03 -0.70522708781E+02 -0.23620902204E+03  0.30769390063E+03  0.12509025910E+03 0.  0.
          5    1    3    3  502    0  0.10925837784E+03 -0.96780429282E+02 -0.22625928460E+03  0.26928531502E+03  0.41800000000E+01 0.  1.
         -5    1    3    3    0  502  0.25870482934E+02  0.26257720501E+02 -0.99497374441E+01  0.38408585607E+02  0.41800000000E+01 0.  1.
        -11    1    1    2    0    0 -0.31008003366E+02  0.59305463232E+02 -0.37811410566E+02  0.76865707639E+02  0.00000000000E+00 0.  1.
         11    1    1    2    0    0 -0.10412085741E+03  0.11217245549E+02 -0.12603119183E+03  0.16386226186E+03  0.00000000000E+00 0. -1.
</event>
<event>
 7    1  0.2480409E-009  0.2223240E+03  0.7561462E-02  0.1132162E+00
         -2   -1    0    0    0  501 -0.00000000000E+00  0.00000000000E+00  0.12539744881E+03  0.12539744881E+03  0.00000000000E+00 0.  1.
          2   -1    0    0  501    0  0.00000000000E+00 -0.00000000000E+00 -0.61472216318E+03  0.61472216318E+03  0.00000000000E+00 0. -1.
         25    2    1    2    0    0  0.19283607684E+03 -0.92119983457E+02 -0.43762853233E+03  0.50283076712E+03  0.12509278222E+03 0.  0.
          5    1    3    3  502    0  0.41577036906E+02 -0.80400651539E+00 -0.21273666918E+03  0.21680327312E+03  0.41800000000E+01 0. -1.
         -5    1    3    3    0  502  0.15125903994E+03 -0.91315976941E+02 -0.22489186316E+03  0.28602749399E+03  0.41800000000E+01 0. -1.
        -11    1    1    2    0    0 -0.80224372961E+02  0.79260326232E+02 -0.51421761357E+02  0.12394493484E+03  0.00000000000E+00 0.  1.
         11    1    1    2    0    0 -0.11261170388E+03  0.12859657225E+02 -0.27442068540E+00  0.11334391003E+03  0.00000000000E+00 0. -1.
</event>
<event>
 7    1  0.2480409E-009  0.7613791E+02  0.7561462E-02  0.1340383E+00
          2   -1    0    0  501    0  0.00000000000E+00  0.00000000000E+00  0.34731047578E+03  0.34731047578E+03  0.00000000000E+00 0. -1.
         -2   -1    0    0    0  501 -0.00000000000E+00 -0.00000000000E+00 -0.41667893066E+02  0.41667893066E+02  0.00000000000E+00 0.  1.
         25    2    1    2    0    0 -0.33740621525E+02  0.32954351409E+01  0.23753305586E+03  0.27058989905E+03  0.12509057280E+03 0.  0.
          5    1    3    3  502    0 -0.11006571841E+02  0.22714008543E+02  0.23899961587E+03  0.24036505486E+03  0.41800000000E+01 0. -1.
         -5    1    3    3    0  502 -0.22734049685E+02 -0.19418573402E+02 -0.14665600096E+01  0.30224844190E+02  0.41800000000E+01 0. -1.
        -11    1    1    2    0    0  0.64560957675E+02  0.44810309772E+01  0.50201286214E+02  0.81904615450E+02  0.00000000000E+00 0. -1.
         11    1    1    2    0    0 -0.30820336149E+02 -0.77764661181E+01  0.17908240636E+02  0.36483854351E+02  0.00000000000E+00 0.  1.
</event>
<event>
 7    1  0.2480409E-009  0.1651072E+03  0.7561462E-02  0.1183048E+00
         -1   -1    0    0    0  501 -0.00000000000E+00  0.00000000000E+00  0.15641591089E+03  0.15641591089E+03  0.00000000000E+00 0.  1.
          1   -1    0    0  501    0  0.00000000000E+00 -0.00000000000E+00 -0.23193555186E+03  0.23193555186E+03  0.00000000000E+00 0. -1.
         25    2    1    2    0    0 -0.15114584153E+03  0.20611221259E+02 -0.76423650097E+02  0.21156496702E+03  0.12509705480E+03 0.  0.
          5    1    3    3  502    0 -0.48088015207E+02 -0.27837281287E+02 -0.80072146584E+02  0.97551998927E+02  0.41800000000E+01 0.  1.
         -5    1    3    3    0  502 -0.10305782633E+03  0.48448502547E+02  0.36484964873E+01  0.11401296809E+03  0.41800000000E+01 0.  1.
        -11    1    1    2    0    0  0.37605844181E+02 -0.27808444080E+02  0.34549350518E+02  0.58147800473E+02  0.00000000000E+00 0.  1.
         11    1    1    2    0    0  0.11353999735E+03  0.71972228205E+01 -0.33645341390E+02  0.11863869526E+03  0.00000000000E+00 0. -1.
</event>
<event>
 7    1  0.2480409E-009  0.2339213E+03  0.7561462E-02  0.1123910E+00
         -2   -1    0    0    0  501 -0.00000000000E+00  0.00000000000E+00  0.68720169029E+02  0.68720169029E+02  0.00000000000E+00 0. -1.
          2   -1    0    0  501    0  0.00000000000E+00 -0.00000000000E+00 -0.94079548914E+03  0.94079548914E+03  0.00000000000E+00 0.  1.
         25    2    1    2    0    0 -0.13533368999E+03  0.18495598580E+03 -0.44407408955E+03  0.51514430542E+03  0.12509170264E+03 0.  0.
          5    1    3    3  502    0 -0.57300062295E+02  0.11821827305E+03 -0.35707612535E+03  0.38049926270E+03  0.41800000000E+01 0.  1.
         -5    1    3    3    0  502 -0.78033627694E+02  0.66737712751E+02 -0.86997964205E+02  0.13464504272E+03  0.41800000000E+01 0.  1.
        -11    1    1    2    0    0  0.33068349398E+02 -0.82489160479E+02 -0.89096820625E+02  0.12584204692E+03  0.00000000000E+00 0. -1.
         11    1    1    2    0    0  0.10226534059E+03 -0.10246682532E+03 -0.33890440994E+03  0.36852930583E+03  0.00000000000E+00 0.  1.
</event>
<event>
 7    1  0.2480409E-009  0.1089954E+03  0.7561462E-02  0.1262442E+00
         -1   -1    0    0    0  501 -0.00000000000E+00  0.00000000000E+00  0.34955826671E+02  0.34955826671E+02  0.00000000000E+00 0.  1.
          1   -1    0    0  501    0  0.00000000000E+00 -0.00000000000E+00 -0.42952379921E+03  0.42952379921E+03  0.00000000000E+00 0. -1.
         25    2    1    2    0    0 -0.20440436955E+02  0.55367095988E+02 -0.21821897631E+03  0.25836048611E+03  0.12508913773E+03 0.  0.
          5    1    3    3  502    0  0.52040451297E+02  0.18883530567E+02 -0.70131663297E+02  0.89446737753E+02  0.41800000000E+01 0.  1.
         -5    1    3    3    0  502 -0.72480888251E+02  0.36483565420E+02 -0.14808731302E+03  0.16891374836E+03  0.41800000000E+01 0.  1.
        -11    1    1    2    0    0 -0.16998143739E+02 -0.34250785538E+02 -0.18414297389E+02  0.42439834458E+02  0.00000000000E+00 0.  1.
         11    1    1    2    0    0  0.37438580694E+02 -0.21116310450E+02 -0.15793469883E+03  0.16367930531E+03  0.00000000000E+00 0. -1.
</event>
<event>
 7    1  0.2480409E-009  0.1221507E+03  0.7561462E-02  0.1239591E+00
          2   -1    0    0  501    0  0.00000000000E+00  0.00000000000E+00  0.12612408290E+03  0.12612408290E+03  0.00000000000E+00 0. -1.
         -2   -1    0    0    0  501 -0.00000000000E+00 -0.00000000000E+00 -0.13396521018E+03  0.13396521018E+03  0.00000000000E+00 0.  1.
         25    2    1    2    0    0 -0.15650707366E+02  0.66865199154E+02 -0.40887051645E+02  0.14844256013E+03  0.12509014017E+03 0.  0.
          5    1    3    3  502    0  0.39389977531E+02 -0.12801368371E+02  0.36307352413E+01  0.41786361417E+02  0.41800000000E+01 0. -1.
         -5    1    3    3    0  502 -0.55040684897E+02  0.79666567525E+02 -0.44517786886E+02  0.10665619872E+03  0.41800000000E+01 0. -1.
        -11    1    1    2    0    0 -0.65023759500E+01 -0.79823085014E+02  0.31081035013E+02  0.85907139002E+02  0.00000000000E+00 0.  1.
         11    1    1    2    0    0  0.22153083316E+02  0.12957885859E+02  0.19648893487E+01  0.25739593946E+02  0.00000000000E+00 0. -1.
</event>
<event>
 7    1  0.2870058E-009  0.3059534E+03  0.7561462E-02  0.1082302E+00
         -2   -1    0    0    0  501 -0.00000000000E+00  0.00000000000E+00  0.12160755518E+03  0.12160755518E+03  0.00000000000E+00 0.  1.
          2   -1    0    0  501    0  0.00000000000E+00 -0.00000000000E+00 -0.77100732050E+03  0.77100732050E+03  0.00000000000E+00 0. -1.
         25    2    1    2    0    0 -0.24777089990E+03 -0.14275252645E+03 -0.34264559820E+03  0.46348881808E+03  0.12508867203E+03 0.  0.
          5    1    3    3  502    0 -0.51141429269E+02  0.21465754678E+02 -0.68760751698E+02  0.88440589017E+02  0.41800000000E+01 0. -1.
         -5    1    3    3    0  502 -0.19662947063E+03 -0.16421828113E+03 -0.27388484651E+03  0.37504822906E+03  0.41800000000E+01 0. -1.
        -11    1    1    2    0    0  0.15512691222E+03  0.13746740609E+03 -0.20967911969E+03  0.29483381737E+03  0.00000000000E+00 0.  1.
         11    1    1    2    0    0  0.92643987685E+02  0.52851203553E+01 -0.97075047424E+02  0.13429224022E+03  0.00000000000E+00 0. -1.
</event>
<event>
 7    1  0.2480409E-009  0.2600700E+03  0.7561462E-02  0.1107101E+00
          2   -1    0    0  501    0  0.00000000000E+00  0.00000000000E+00  0.32811948912E+03  0.32811948912E+03  0.00000000000E+00 0. -1.
         -2   -1    0    0    0  501 -0.00000000000E+00 -0.00000000000E+00 -0.25446408654E+03  0.25446408654E+03  0.00000000000E+00 0.  1.
         25    2    1    2    0    0  0.67534794875E+02  0.24073263359E+03 -0.58597253007E+02  0.28564658451E+03  0.12508870367E+03 0.  0.
          5    1    3    3  502    0  0.88874096732E+02  0.20789240257E+03 -0.81160468163E+02  0.24025476085E+03  0.41800000000E+01 0. -1.
         -5    1    3    3    0  502 -0.21339301857E+02  0.32840231020E+02  0.22563215156E+02  0.45391823662E+02  0.41800000000E+01 0. -1.
        -11    1    1    2    0    0 -0.11415122241E+02 -0.12980932180E+03  0.11025194313E+03  0.17069345625E+03  0.00000000000E+00 0. -1.
         11    1    1    2    0    0 -0.56119672634E+02 -0.11092331179E+03  0.22000712459E+02  0.12624353490E+03  0.00000000000E+00 0.  1.
</event>
<event>
 7    1  0.2480409E-009  0.1250238E+03  0.7561462E-02  0.1235032E+00
          1   -1    0    0  501    0  0.00000000000E+00  0.00000000000E+00  0.21429072696E+03  0.21429072696E+03  0.00000000000E+00 0. -1.
         -1   -1    0    0    0  501 -0.00000000000E+00 -0.00000000000E+00 -0.12586575698E+03  0.12586575698E+03  0.00000000000E+00 0.  1.
         25    2    1    2    0    0  0.60461366079E+02  0.10067737572E+03  0.81319957349E+02  0.18986892919E+03  0.12508302858E+03 0.  0.
          5    1    3    3  502    0  0.36638138711E+02  0.87801538224E+02  0.11313559533E+03  0.14788035249E+03  0.41800000000E+01 0.  1.
         -5    1    3    3    0  502  0.23823227368E+02  0.12875837496E+02 -0.31815637977E+02  0.41988576701E+02  0.41800000000E+01 0.  1.
        -11    1    1    2    0    0 -0.64725150680E+02 -0.65870214288E+02  0.41430882860E+02  0.10121634411E+03  0.00000000000E+00 0. -1.
         11    1    1    2    0    0  0.42637846010E+01 -0.34807161432E+02 -0.34325870226E+02  0.49071210631E+02  0.00000000000E+00 0.  1.
</event>
<event>
 7    1  0.2480409E-009  0.1682119E+03  0.7561462E-02  0.1179725E+00
          2   -1    0    0  501    0  0.00000000000E+00  0.00000000000E+00  0.11246573133E+03  0.11246573133E+03  0.00000000000E+00 0. -1.
         -2   -1    0    0    0  501 -0.00000000000E+00 -0.00000000000E+00 -0.59248729085E+03  0.59248729085E+03  0.00000000000E+00 0.  1.
         25    2    1    2    0    0 -0.10149103347E+03  0.11639075096E+03 -0.45581074889E+01  0.19878524440E+03  0.12509020851E+03 0.  0.
          5    1    3    3  502    0 -0.24794908364E+02  0.67705350820E+02 -0.58593999163E+02  0.93002855593E+02  0.41800000000E+01 0.  1.
         -5    1    3    3    0  502 -0.76696125105E+02  0.48685400135E+02  0.54035891674E+02  0.10578238881E+03  0.41800000000E+01 0.  1.
        -11    1    1    2    0    0  0.46517281692E+02 -0.10807541738E+03 -0.33753379603E+03  0.35745379674E+03  0.00000000000E+00 0. -1.
         11    1    1    2    0    0  0.54973751778E+02 -0.83153335763E+01 -0.13792965599E+03  0.14871398105E+03  0.00000000000E+00 0.  1.
</event>
<event>
 7    1  0.2480409E-009  0.5393798E+02  0.7561462E-02  0.1425189E+00
         -1   -1    0    0    0  501 -0.00000000000E+00  0.00000000000E+00  0.93639457077E+02  0.93639457077E+02  0.00000000000E+00 0.  1.
          1   -1    0    0  501    0  0.00000000000E+00 -0.00000000000E+00 -0.15417996325E+03  0.15417996325E+03  0.00000000000E+00 0. -1.
         25    2    1    2    0    0  0.51935810624E+01 -0.21480213402E+02 -0.80508574847E+02  0.15039557929E+03  0.12509527087E+03 0.  0.
          5    1    3    3  502    0  0.19350416972E+02  0.77527987500E+01  0.29077405283E+02  0.36020999756E+02  0.41800000000E+01 0.  1.
         -5    1    3    3    0  502 -0.14156835909E+02 -0.29233012152E+02 -0.10958598013E+03  0.11437457953E+03  0.41800000000E+01 0.  1.
        -11    1    1    2    0    0  0.21519988865E+02  0.15420743427E+02 -0.30263285494E+02  0.40209149425E+02  0.00000000000E+00 0. -1.
         11    1    1    2    0    0 -0.26713569927E+02  0.60594699743E+01  0.50231354168E+02  0.57214691611E+02  0.00000000000E+00 0.  1.
</event>
<event>
 7    1  0.2480409E-009  0.2503529E+03  0.7561462E-02  0.1113082E+00
         -2   -1    0    0    0  501 -0.00000000000E+00  0.00000000000E+00  0.23781561911E+03  0.23781561911E+03  0.00000000000E+00 0.  1.
          2   -1    0    0  501    0  0.00000000000E+00 -0.00000000000E+00 -0.30800294490E+03  0.30800294490E+03  0.00000000000E+00 0. -1.
         25    2    1    2    0    0 -0.18245974256E+03  0.16185691946E+03 -0.75649157554E+02  0.28435875428E+03  0.12509151077E+03 0.  0.
          5    1    3    3  502    0 -0.53478875937E+02  0.49255883129E+02 -0.86104749585E+02  0.11277248111E+03  0.41800000000E+01 0.  1.
         -5    1    3    3    0  502 -0.12898086662E+03  0.11260103633E+03  0.10455592031E+02  0.17158627317E+03  0.41800000000E+01 0.  1.
        -11    1    1    2    0    0  0.77907030942E+02 -0.20079078994E+02  0.24931737934E+02  0.84227468440E+02  0.00000000000E+00 0.  1.
         11    1    1    2    0    0  0.10455271162E+03 -0.14177784046E+03 -0.19469906164E+02  0.17723234129E+03  0.00000000000E+00 0. -1.
</event>
<event>
 7    1  0.2480409E-009  0.7970012E+02  0.7561462E-02  0.1329905E+00
          1   -1    0    0  501    0  0.00000000000E+00  0.00000000000E+00  0.70279847720E+03  0.70279847720E+03  0.00000000000E+00 0.  1.
         -1   -1    0    0    0  501 -0.00000000000E+00 -0.00000000000E+00 -0.19570106769E+02  0.19570106769E+02  0.00000000000E+00 0. -1.
         25    2    1    2    0    0 -0.35598745174E+01 -0.43222839874E+02  0.40089964726E+03  0.42219508490E+03  0.12508907205E+03 0.  0.
          5    1    3    3  502    0 -0.10245387491E+02 -0.56131937296E+02  0.67635337232E+02  0.88587660495E+02  0.41800000000E+01 0. -1.
         -5    1    3    3    0  502  0.66855129735E+01  0.12909097422E+02  0.33326431003E+03  0.33360742441E+03  0.41800000000E+01 0. -1.
        -11    1    1    2    0    0  0.36596063736E+02  0.39450009679E+02  0.88973737527E+02  0.10398029195E+03  0.00000000000E+00 0. -1.
         11    1    1    2    0    0 -0.33036189218E+02  0.37728301951E+01  0.19335498564E+03  0.19619320712E+03  0.00000000000E+00 0.  1.
</event>
<event>
 7    1  0.2480409E-009  0.1035079E+03  0.7561462E-02  0.1273088E+00
          1   -1    0    0  501    0  0.00000000000E+00  0.00000000000E+00  0.37867050241E+03  0.37867050241E+03  0.00000000000E+00 0. -1.
         -1   -1    0    0    0  501 -0.00000000000E+00 -0.00000000000E+00 -0.55386817081E+02  0.55386817081E+02  0.00000000000E+00 0.  1.
         25    2    1    2    0    0  0.51720328664E+02 -0.19590169502E+02  0.32753365820E+03  0.35494496935E+03  0.12509543105E+03 0.  0.
          5    1    3    3  502    0  0.12658860855E+02  0.52506387699E+02  0.14526835032E+03  0.15504042542E+03  0.41800000000E+01 0.  1.
         -5    1    3    3    0  502  0.39061467809E+02 -0.72096557200E+02  0.18226530788E+03  0.19990454393E+03  0.41800000000E+01 0.  1.
        -11    1    1    2    0    0 -0.38616107790E+02 -0.86795412707E+01  0.15180910194E+02  0.42391016169E+02  0.00000000000E+00 0. -1.
         11    1    1    2    0    0 -0.13104220874E+02  0.28269710772E+02 -0.19430883071E+02  0.36721333973E+02  0.00000000000E+00 0.  1.
</event>
<event>
 7    1  0.2480409E-009  0.6043653E+02  0.7561462E-02  0.1396009E+00
          2   -1    0    0  501    0  0.00000000000E+00  0.00000000000E+00  0.23854436845E+03  0.23854436845E+03  0.00000000000E+00 0. -1.
         -2   -1    0    0    0  501 -0.00000000000E+00 -0.00000000000E+00 -0.56304743631E+02  0.56304743631E+02  0.00000000000E+00 0.  1.
         25    2    1    2    0    0  0.14295975327E+02 -0.11901034665E+01  0.50177842976E+02  0.13553932137E+03  0.12508917001E+03 0.  0.
          5    1    3    3  502    0  0.73607737546E+01  0.13355589793E+02 -0.40431411095E+02  0.43413410049E+02  0.41800000000E+01 0.  1.
         -5    1    3    3    0  502  0.69352015722E+01 -0.14545693260E+02  0.90609254071E+02  0.92125911320E+02  0.41800000000E+01 0.  1.
        -11    1    1    2    0    0  0.36863987822E+02 -0.35475980737E+01  0.45721212838E+02  0.58838493809E+02  0.00000000000E+00 0.  1.
         11    1    1    2    0    0 -0.51159963149E+02  0.47377015402E+01  0.86340569000E+02  0.10047129690E+03  0.00000000000E+00 0. -1.
</event>
<event>
 7    1  0.2480409E-009  0.1334359E+03  0.7561462E-02  0.1222445E+00
          1   -1    0    0  501    0  0.00000000000E+00  0.00000000000E+00  0.23950245106E+03  0.23950245106E+03  0.00000000000E+00 0. -1.
         -1   -1    0    0    0  501 -0.00000000000E+00 -0.00000000000E+00 -0.14515322064E+03  0.14515322064E+03  0.00000000000E+00 0.  1.
         25    2    1    2    0    0 -0.47345319808E+01 -0.76161215929E+02 -0.73987110320E+02  0.16414602756E+03  0.12508748644E+03 0.  0.
          5    1    3    3  502    0  0.38064201654E+02  0.17544446611E+02 -0.31666250807E+02  0.52696441005E+02  0.41800000000E+01 0. -1.
         -5    1    3    3    0  502 -0.42798733635E+02 -0.93705662540E+02 -0.42320859514E+02  0.11144958655E+03  0.41800000000E+01 0. -1.
        -11    1    1    2    0    0  0.18177919256E+02  0.95988325032E+02  0.72319262741E+02  0.12154945929E+03  0.00000000000E+00 0.  1.
         11    1    1    2    0    0 -0.13443387275E+02 -0.19827109103E+02  0.96017078006E+02  0.98960184850E+02  0.00000000000E+00 0. -1.
</event>
<event>
 7    1  0.2480409E-009  0.9260512E+02  0.7561462E-02  0.1296663E+00
          1   -1    0    0  501    0  0.00000000000E+00  0.00000000000E+00  0.14218717305E+03  0.14218717305E+03  0.00000000000E+00 0. -1.
         -1   -1    0    0    0  501 -0.00000000000E+00 -0.00000000000E+00 -0.94447321318E+02  0.94447321318E+02  0.00000000000E+00 0.  1.
         25    2    1    2    0    0 -0.22849847814E+02  0.34908438931E+02  0.36991996019E+02  0.13695563139E+03  0.12509085716E+03 0.  0.
          5    1    3    3  502    0 -0.48781691182E+02  0.69999308863E+02  0.11349393918E+02  0.86173300843E+02  0.41800000000E+01 0.  1.
         -5    1    3    3    0  502  0.25931843368E+02 -0.35090869932E+02  0.25642602101E+02  0.50782330544E+02  0.41800000000E+01 0.  1.
        -11    1    1    2    0    0 -0.21755571547E+01 -0.30459562153E+02 -0.35548598969E+02  0.46863854560E+02  0.00000000000E+00 0.  1.
         11    1    1    2    0    0  0.25025404969E+02 -0.44488767774E+01  0.46296454680E+02  0.52815008420E+02  0.00000000000E+00 0. -1.
</event>
<event>
 7    1  0.2480409E-009  0.1369520E+03  0.7561462E-02  0.1217490E+00
         -3   -1    0    0    0  501 -0.00000000000E+00  0.00000000000E+00  0.51573640426E+02  0.51573640426E+02  0.00000000000E+00 0.  1.
          3   -1    0    0  501    0  0.00000000000E+00 -0.00000000000E+00 -0.39899896375E+03  0.39899896375E+03  0.00000000000E+00 0. -1.
         25    2    1    2    0    0  0.20682955737E+02  0.84245683996E+02 -0.13473799464E+03  0.20329003903E+03  0.12508953928E+03 0.  0.
          5    1    3    3  502    0  0.66998937125E+02  0.79749692204E+02 -0.80519507018E+02  0.13171839049E+03  0.41800000000E+01 0. -1.
         -5    1    3    3    0  502 -0.46315981388E+02  0.44959917920E+01 -0.54218487623E+02  0.71571648537E+02  0.41800000000E+01 0. -1.
        -11    1    1    2    0    0  0.24495562703E+02  0.30132404931E+01 -0.23396178065E+02  0.34007254497E+02  0.00000000000E+00 0.  1.
         11    1    1    2    0    0 -0.45178518440E+02 -0.87258924489E+02 -0.18929115062E+03  0.21327531065E+03  0.00000000000E+00 0. -1.
</event>
<event>
 7    1  0.2480409E-009  0.9477553E+02  0.7561462E-02  0.1291682E+00
          2   -1    0    0  501    0  0.00000000000E+00  0.00000000000E+00  0.88529295447E+03  0.88529295447E+03  0.00000000000E+00 0. -1.
         -2   -1    0    0    0  501 -0.00000000000E+00 -0.00000000000E+00 -0.42450608780E+02  0.42450608780E+02  0.00000000000E+00 0.  1.
         25    2    1    2    0    0 -0.72609939749E+02  0.26453531122E+02  0.78480931781E+03  0.79846414739E+03  0.12508931482E+03 0.  0.
          5    1    3    3  502    0 -0.16594898855E+02  0.21248029370E+02  0.26415698947E+02  0.37975399550E+02  0.41800000000E+01 0.  1.
         -5    1    3    3    0  502 -0.56015040894E+02  0.52055017525E+01  0.75839361886E+03  0.76048874784E+03  0.41800000000E+01 0.  1.
        -11    1    1    2    0    0  0.53045093353E+02  0.19020975416E+02  0.56429479545E+02  0.79748765485E+02  0.00000000000E+00 0. -1.
         11    1    1    2    0    0  0.19564846396E+02 -0.45474506539E+02  0.16035483319E+01  0.49530650376E+02  0.00000000000E+00 0.  1.
</event>
<event>
 7    1  0.2480409E-009  0.9442913E+02  0.7561462E-02  0.1292467E+00
         -1   -1    0    0    0  501 -0.00000000000E+00  0.00000000000E+00  0.19762562353E+03  0.19762562353E+03  0.00000000000E+00 0.  1.
          1   -1    0    0  501    0  0.00000000000E+00 -0.00000000000E+00 -0.74766393507E+02  0.74766393507E+02  0.00000000000E+00 0. -1.
         25    2    1    2    0    0 -0.14755124154E+02 -0.81711665502E+00  0.12616329338E+03  0.17827543821E+03  0.12508626585E+03 0.  0.
          5    1    3    3  502    0 -0.65339536341E+02  0.22366570604E+02  0.80697588952E+02  0.10629718600E+03  0.41800000000E+01 0.  1.
         -5    1    3    3    0  502  0.50584412187E+02 -0.23183687259E+02  0.45465704427E+02  0.71978252204E+02  0.41800000000E+01 0.  1.
        -11    1    1    2    0    0 -0.23557478637E+02 -0.73862587020E+01  0.32653934750E+02  0.40936427202E+02  0.00000000000E+00 0.  1.
         11    1    1    2    0    0  0.38312602791E+02  0.82033753570E+01 -0.35957998102E+02  0.53180151630E+02  0.00000000000E+00 0. -1.
</event>
<event>
 7    1  0.2480409E-009  0.1163649E+03  0.7561462E-02  0.1249217E+00
         -2   -1    0    0    0  501 -0.00000000000E+00  0.00000000000E+00  0.90391012617E+02  0.90391012617E+02  0.00000000000E+00 0.  1.
          2   -1    0    0  501    0  0.00000000000E+00 -0.00000000000E+00 -0.27111647552E+03  0.27111647552E+03  0.00000000000E+00 0. -1.
         25    2    1    2    0    0  0.51980864344E+02 -0.46134401340E+02 -0.19658356555E+03  0.24315588180E+03  0.12509712772E+03 0.  0.
          5    1    3    3  502    0  0.82306746229E+02  0.57913641908E+01 -0.10705657568E+03  0.13522767162E+03  0.41800000000E+01 0. -1.
         -5    1    3    3    0  502 -0.30325881885E+02 -0.51925765531E+02 -0.89526989865E+02  0.10792821018E+03  0.41800000000E+01 0. -1.
        -11    1    1    2    0    0  0.29650329426E+01 -0.10510144076E+02  0.35405354061E+02  0.37051230007E+02  0.00000000000E+00 0.  1.
         11    1    1    2    0    0 -0.54945897287E+02  0.56644545416E+02 -0.19547251415E+02  0.81300376333E+02  0.00000000000E+00 0. -1.
</event>
<event>
 7    1  0.2480409E-009  0.9297172E+02  0.7561462E-02  0.1295811E+00
          2   -1    0    0  501    0  0.00000000000E+00  0.00000000000E+00  0.45136572427E+03  0.45136572427E+03  0.00000000000E+00 0. -1.
         -2   -1    0    0    0  501 -0.00000000000E+00 -0.00000000000E+00 -0.37697044747E+02  0.37697044747E+02  0.00000000000E+00 0.  1.
         25    2    1    2    0    0 -0.32437994512E+02  0.38589461213E+02  0.32366553309E+03  0.35064295532E+03  0.12509890010E+03 0.  0.
          5    1    3    3  502    0  0.16714218019E+02  0.55714509448E+02  0.26819096686E+03  0.27445826413E+03  0.41800000000E+01 0.  1.
         -5    1    3    3    0  502 -0.49152212531E+02 -0.17125048235E+02  0.55474566228E+02  0.76184691191E+02  0.41800000000E+01 0.  1.
        -11    1    1    2    0    0  0.42511273170E+02 -0.80714973411E+01  0.96387198734E+02  0.10565438702E+03  0.00000000000E+00 0. -1.
         11    1    1    2    0    0 -0.10073278658E+02 -0.30517963872E+02 -0.63840522950E+01  0.32765426679E+02  0.00000000000E+00 0.  1.
</event>
<event>
 7    1  0.2480409E-009  0.1008673E+03  0.7561462E-02  0.1278483E+00
         -1   -1    0    0    0  501 -0.00000000000E+00  0.00000000000E+00  0.25543720884E+02  0.25543720884E+02  0.00000000000E+00 0.  1.
          1   -1    0    0  501    0  0.00000000000E+00 -0.00000000000E+00 -0.50965509917E+03  0.50965509917E+03  0.00000000000E+00 0. -1.
         25    2    1    2    0    0 -0.91140164873E+01  0.35826541404E+02 -0.30379719482E+03  0.33061534917E+03  0.12508863721E+03 0.  0.
          5    1    3    3  502    0 -0.37314384374E+02  0.58253018986E+02 -0.89125718471E+02  0.11290103452E+03  0.41800000000E+01 0. -1.
         -5    1    3    3    0  502  0.28200367886E+02 -0.22426477581E+02 -0.21467147635E+03  0.21771431465E+03  0.41800000000E+01 0. -1.
        -11    1    1    2    0    0 -0.25858394405E+02 -0.51657573531E+02 -0.11825146893E+03  0.13160764176E+03  0.00000000000E+00 0. -1.
         11    1    1    2    0    0  0.34972410893E+02  0.15831032126E+02 -0.62062714534E+02  0.72975829130E+02  0.00000000000E+00 0.  1.
</event>
<event>
 7    1  0.2480409E-009  0.1795786E+03  0.7561462E-02  0.1168212E+00
         -3   -1    0    0    0  501 -0.00000000000E+00  0.00000000000E+00  0.15152618063E+03  0.15152618063E+03  0.00000000000E+00 0.  1.
          3   -1    0    0  501    0  0.00000000000E+00 -0.00000000000E+00 -0.27141403173E+03  0.27141403173E+03  0.00000000000E+00 0. -1.
         25    2    1    2    0    0  0.10572770832E+03 -0.13128890348E+03 -0.92933275191E+02  0.22955947605E+03  0.12508331192E+03 0.  0.
          5    1    3    3  502    0  0.80272355578E+02 -0.10410917147E+03 -0.23704360464E+01  0.13155022623E+03  0.41800000000E+01 0.  1.
         -5    1    3    3    0  502  0.25455352746E+02 -0.27179732013E+02 -0.90562839145E+02  0.98009249817E+02  0.41800000000E+01 0.  1.
        -11    1    1    2    0    0  0.95198958254E+00  0.64043693892E+02  0.16507306786E+01  0.64072036984E+02  0.00000000000E+00 0.  1.
         11    1    1    2    0    0 -0.10667969791E+03  0.67245209590E+02 -0.28605306580E+02  0.12930869933E+03  0.00000000000E+00 0. -1.
</event>
<event>
 7    1  0.2480409E-009  0.1489755E+03  0.7561462E-02  0.1201738E+00
          2   -1    0    0  501    0  0.00000000000E+00  0.00000000000E+00  0.33672817633E+03  0.33672817633E+03  0.00000000000E+00 0.  1.
         -2   -1    0    0    0  501 -0.00000000000E+00 -0.00000000000E+00 -0.86070512334E+02  0.86070512334E+02  0.00000000000E+00 0. -1.
         25    2    1    2    0    0 -0.12302890473E+03 -0.11717444307E+02  0.82432400954E+02  0.19420704813E+03  0.12509143423E+03 0.  0.
          5    1    3    3  502    0  0.22107487590E+02  0.55192566296E+01 -0.51980357724E+01  0.23742265629E+02  0.41800000000E+01 0. -1.
         -5    1    3    3    0  502 -0.14513639232E+03 -0.17236700937E+02  0.87630436726E+02  0.17046478251E+03  0.41800000000E+01 0. -1.
        -11    1    1    2    0    0  0.87896797864E+02 -0.80371873776E+01  0.16626291901E+03  0.18823868277E+03  0.00000000000E+00 0.  1.
         11    1    1    2    0    0  0.35132106863E+02  0.19754631685E+02  0.19623440367E+01  0.40352957758E+02  0.00000000000E+00 0. -1.
</event>
<event>
 7    1  0.2480409E-009  0.1026233E+03  0.7561462E-02  0.1274874E+00
          1   -1    0    0  501    0  0.00000000000E+00  0.00000000000E+00  0.35144898979E+02  0.35144898979E+02  0.00000000000E+00 0. -1.
         -1   -1    0    0    0  501 -0.00000000000E+00 -0.00000000000E+00 -0.44305567828E+03  0.44305567828E+03  0.00000000000E+00 0.  1.
         25    2    1    2    0    0 -0.25427414377E+02 -0.56013853092E+02 -0.21039796473E+03  0.25238545285E+03  0.12508800146E+03 0.  0.
          5    1    3    3  502    0  0.52858562513E+01 -0.63841025591E+02 -0.21085705497E+03  0.22041276473E+03  0.41800000000E+01 0.  1.
         -5    1    3    3    0  502 -0.30713270628E+02  0.78271724988E+01  0.45909024305E+00  0.31972688124E+02  0.41800000000E+01 0.  1.
        -11    1    1    2    0    0 -0.31306252234E+02  0.30271313777E+01 -0.65726188293E+02  0.72864098024E+02  0.00000000000E+00 0.  1.
         11    1    1    2    0    0  0.56733666611E+02  0.52986721715E+02 -0.13178662628E+03  0.15295102639E+03  0.00000000000E+00 0. -1.
</event>
<event>
 7    1  0.2480409E-009  0.1649218E+03  0.7561462E-02  0.1183250E+00
          2   -1    0    0  501    0  0.00000000000E+00  0.00000000000E+00  0.28424759750E+03  0.28424759750E+03  0.00000000000E+00 0. -1.
         -2   -1    0    0    0  501 -0.00000000000E+00 -0.00000000000E+00 -0.11366834291E+03  0.11366834291E+03  0.00000000000E+00 0.  1.
         25    2    1    2    0    0  0.66493304513E+02  0.10538078856E+03  0.12706576844E+02  0.17702611304E+03  0.12510122886E+03 0.  0.
          5    1    3    3  502    0  0.50061112569E+02 -0.16299103453E+02 -0.43500990276E+01  0.52992183637E+02  0.41800000000E+01 0. -1.
         -5    1    3    3    0  502  0.16432191944E+02  0.12167989201E+03  0.17056675872E+02  0.12403392941E+03  0.41800000000E+01 0. -1.
        -11    1    1    2    0    0 -0.53992061851E+02 -0.63571145986E+01  0.48977268552E+02  0.73173277115E+02  0.00000000000E+00 0.  1.
         11    1    1    2    0    0 -0.12501242662E+02 -0.99023673960E+02  0.10889540920E+03  0.14771655025E+03  0.00000000000E+00 0. -1.
</event>
<event>
 7    1  0.2480409E-009  0.1025729E+03  0.7561462E-02  0.1274977E+00
          2   -1    0    0  501    0  0.00000000000E+00  0.00000000000E+00  0.17550673159E+03  0.17550673159E+03  0.00000000000E+00 0. -1.
         -2   -1    0    0    0  501 -0.00000000000E+00 -0.00000000000E+00 -0.10975813197E+03  0.10975813197E+03  0.00000000000E+00 0.  1.
         25    2    1    2    0    0 -0.12269084387E+02 -0.16414279905E+02 -0.50144536123E+02  0.13631466820E+03  0.12508898931E+03 0.  0.
          5    1    3    3  502    0 -0.27051808287E+02  0.44733653979E+02  0.48287122173E+01  0.52665823754E+02  0.41800000000E+01 0. -1.
         -5    1    3    3    0  502  0.14782723900E+02 -0.61147933885E+02 -0.54973248340E+02  0.83648844447E+02  0.41800000000E+01 0. -1.
        -11    1    1    2    0    0 -0.34879070066E+02 -0.90971742755E+01  0.26588785295E+02  0.44791423419E+02  0.00000000000E+00 0.  1.
         11    1    1    2    0    0  0.47148154453E+02  0.25511454181E+02  0.89304350454E+02  0.10415877194E+03  0.00000000000E+00 0. -1.
</event>
<event>
 7    1  0.2480409E-009  0.8068710E+02  0.7561462E-02  0.1327113E+00
         -1   -1    0    0    0  501 -0.00000000000E+00  0.00000000000E+00  0.12891510603E+03  0.12891510603E+03  0.00000000000E+00 0.  1.
          1   -1    0    0  501    0  0.00000000000E+00 -0.00000000000E+00 -0.10945475099E+03  0.10945475099E+03  0.00000000000E+00 0. -1.
         25    2    1    2    0    0 -0.37802895610E+02  0.42935051833E+02  0.42170048292E+02  0.14386795718E+03  0.12508876264E+03 0.  0.
          5    1    3    3  502    0 -0.92777835448E+01  0.55317293753E+02 -0.31022573082E+02  0.64233579195E+02  0.41800000000E+01 0.  1.
         -5    1    3    3    0  502 -0.28525112065E+02 -0.12382241920E+02  0.73192621374E+02  0.79634377984E+02  0.41800000000E+01 0.  1.
        -11    1    1    2    0    0  0.36250177399E+02 -0.59505681645E+01 -0.39423931288E+02  0.53886278227E+02  0.00000000000E+00 0. -1.
         11    1    1    2    0    0  0.15527182111E+01 -0.36984483669E+02  0.16714238041E+02  0.40615621617E+02  0.00000000000E+00 0.  1.
</event>
<event>
 7    1  0.2480409E-009  0.1396208E+03  0.7561462E-02  0.1213840E+00
          2   -1    0    0  501    0  0.00000000000E+00  0.00000000000E+00  0.83953381084E+03  0.83953381084E+03  0.00000000000E+00 0. -1.
         -2   -1    0    0    0  501 -0.00000000000E+00 -0.00000000000E+00 -0.29659716605E+02  0.29659716605E+02  0.00000000000E+00 0.  1.
         25    2    1    2    0    0  0.75551086801E+02  0.71699781792E+02  0.30431810271E+03  0.34511827993E+03  0.12509314160E+03 0.  0.
          5    1    3    3  502    0  0.25438989291E+02  0.87166543274E+02  0.10455697805E+03  0.13854523630E+03  0.41800000000E+01 0.  1.
         -5    1    3    3    0  502  0.50112097510E+02 -0.15466761482E+02  0.19976112466E+03  0.20657304363E+03  0.41800000000E+01 0.  1.
        -11    1    1    2    0    0 -0.33579199944E+02 -0.85251359197E+02  0.29303614510E+03  0.30702693571E+03  0.00000000000E+00 0.  1.
         11    1    1    2    0    0 -0.41971886857E+02  0.13551577405E+02  0.21251984643E+03  0.21704831181E+03  0.00000000000E+00 0. -1.
</event>
<event>
 7    1  0.2480409E-009  0.1033195E+03  0.7561462E-02  0.1273466E+00
          2   -1    0    0  501    0  0.00000000000E+00  0.00000000000E+00  0.34587457143E+03  0.34587457143E+03  0.00000000000E+00 0. -1.
         -2   -1    0    0    0  501 -0.00000000000E+00 -0.00000000000E+00 -0.61198012864E+02  0.61198012864E+02  0.00000000000E+00 0.  1.
         25    2    1    2    0    0 -0.55680463980E+02  0.57728622019E+02  0.23250010649E+03  0.27592806656E+03  0.12508833091E+03 0.  0.
          5    1    3    3  502    0 -0.30077783410E+02 -0.65706469753E+01  0.19429545579E+03  0.19676392708E+03  0.41800000000E+01 0. -1.
         -5    1    3    3    0  502 -0.25602680570E+02  0.64299268994E+02  0.38204650694E+02  0.79164139484E+02  0.41800000000E+01 0. -1.
        -11    1    1    2    0    0  0.13205449218E+02 -0.62142885488E+02  0.60395557195E+02  0.87656975961E+02  0.00000000000E+00 0. -1.
         11    1    1    2    0    0  0.42475014761E+02  0.44142634691E+01 -0.82191051109E+01  0.43487541777E+02  0.00000000000E+00 0.  1.
</event>
<event>
 7    1  0.2480409E-009  0.3745268E+03  0.7561462E-02  0.1052975E+00
         -1   -1    0    0    0  501 -0.00000000000E+00  0.00000000000E+00  0.16445263988E+03  0.16445263988E+03  0.00000000000E+00 0.  1.
          1   -1    0    0  501    0  0.00000000000E+00 -0.00000000000E+00 -0.11520784886E+04  0.11520784886E+04  0.00000000000E+00 0. -1.
         25    2    1    2    0    0 -0.67157147009E+02 -0.35677660265E+03 -0.82126178850E+03  0.90659578400E+03  0.12508142834E+03 0.  0.
          5    1    3    3  502    0  0.30748523354E+02 -0.39405961858E+02 -0.13906647506E+03  0.14783524073E+03  0.41800000000E+01 0.  1.
         -5    1    3    3    0  502 -0.97905670363E+02 -0.31737064079E+03 -0.68219531345E+03  0.75876054326E+03  0.41800000000E+01 0.  1.
        -11    1    1    2    0    0  0.60967454762E+02  0.18368444873E+03 -0.45744583889E+02  0.19887074747E+03  0.00000000000E+00 0.  1.
         11    1    1    2    0    0  0.61896922463E+01  0.17309215392E+03 -0.12061947631E+03  0.21106459699E+03  0.00000000000E+00 0. -1.
</event>
<event>
 7    1  0.2480409E-009  0.2251125E+03  0.7561462E-02  0.1130128E+00
         -1   -1    0    0    0  501 -0.00000000000E+00  0.00000000000E+00  0.57215895382E+02  0.57215895382E+02  0.00000000000E+00 0.  1.
          1   -1    0    0  501    0  0.00000000000E+00 -0.00000000000E+00 -0.10285413871E+04  0.10285413871E+04  0.00000000000E+00 0. -1.
         25    2    1    2    0    0 -0.19876404771E+03 -0.44343212322E+02 -0.33593044539E+03  0.41227636206E+03  0.12509623267E+03 0.  0.
          5    1    3    3  502    0 -0.14971228076E+03 -0.80570641003E+02 -0.19549557885E+03  0.25911655477E+03  0.41800000000E+01 0. -1.
         -5    1    3    3    0  502 -0.49051766947E+02  0.36227428682E+02 -0.14043486654E+03  0.15315980729E+03  0.41800000000E+01 0. -1.
        -11    1    1    2    0    0  0.16912283986E+03  0.42519538373E+01 -0.53943131707E+03  0.56533773968E+03  0.00000000000E+00 0. -1.
         11    1    1    2    0    0  0.29641207853E+02  0.40091258484E+02 -0.95963729302E+02  0.10814318079E+03  0.00000000000E+00 0.  1.
</event>
<event>
 7    1  0.2480409E-009  0.1420806E+03  0.7561462E-02  0.1210557E+00
         -1   -1    0    0    0  501 -0.00000000000E+00  0.00000000000E+00  0.56325459736E+02  0.56325459736E+02  0.00000000000E+00 0.  1.
          1   -1    0    0  501    0  0.00000000000E+00 -0.00000000000E+00 -0.62587310426E+03  0.62587310426E+03  0.00000000000E+00 0. -1.
         25    2    1    2    0    0  0.21665072758E+02  0.11812686556E+03 -0.12772968368E+03  0.21537303260E+03  0.12508932543E+03 0.  0.
          5    1    3    3  502    0  0.26021699533E+02 -0.46451872790E+01  0.11950484798E+02  0.29308584039E+02  0.41800000000E+01 0.  1.
         -5    1    3    3    0  502 -0.43566267751E+01  0.12277205284E+03 -0.13968016848E+03  0.18606444857E+03  0.41800000000E+01 0.  1.
        -11    1    1    2    0    0  0.14505298245E+02 -0.82301389077E+02 -0.16065771579E+03  0.18109341226E+03  0.00000000000E+00 0.  1.
         11    1    1    2    0    0 -0.36170371003E+02 -0.35825476479E+02 -0.28116024505E+03  0.28573211913E+03  0.00000000000E+00 0. -1.
</event>
<event>
 7    1  0.2480409E-009  0.9309266E+02  0.7561462E-02  0.1295531E+00
         -1   -1    0    0    0  501 -0.00000000000E+00  0.00000000000E+00  0.46600225369E+02  0.46600225369E+02  0.00000000000E+00 0.  1.
          1   -1    0    0  501    0  0.00000000000E+00 -0.00000000000E+00 -0.29138220756E+03  0.29138220756E+03  0.00000000000E+00 0. -1.
         25    2    1    2    0    0 -0.26586287877E+02  0.15253235234E+01 -0.84654889988E+02  0.15337264980E+03  0.12509021542E+03 0.  0.
          5    1    3    3  502    0 -0.66059338884E+01 -0.46099272281E+02 -0.89859957761E+02  0.10129691839E+03  0.41800000000E+01 0.  1.
         -5    1    3    3    0  502 -0.19980353988E+02  0.47624595805E+02  0.52050677723E+01  0.52075731407E+02  0.41800000000E+01 0.  1.
        -11    1    1    2    0    0 -0.14383513461E+02  0.31734727780E+02 -0.37924598195E+02  0.51500034515E+02  0.00000000000E+00 0.  1.
         11    1    1    2    0    0  0.40969801338E+02 -0.33260051304E+02 -0.12220249401E+03  0.13310974862E+03  0.00000000000E+00 0. -1.
</event>
<event>
 7    1  0.2480409E-009  0.1000103E+03  0.7561462E-02  0.1280274E+00
          1   -1    0    0  501    0  0.00000000000E+00  0.00000000000E+00  0.10991928271E+03  0.10991928271E+03  0.00000000000E+00 0. -1.
         -1   -1    0    0    0  501 -0.00000000000E+00 -0.00000000000E+00 -0.11265580295E+03  0.11265580295E+03  0.00000000000E+00 0.  1.
         25    2    1    2    0    0 -0.16843669602E+02  0.15334682794E+02  0.89687372319E+01  0.12746789388E+03  0.12509501997E+03 0.  0.
          5    1    3    3  502    0  0.47554441602E+02  0.18715477283E+02 -0.22015307516E+02  0.55801793618E+02  0.41800000000E+01 0.  1.
         -5    1    3    3    0  502 -0.64398111205E+02 -0.33807944887E+01  0.30984044748E+02  0.71666100264E+02  0.41800000000E+01 0.  1.
        -11    1    1    2    0    0 -0.30830617239E+02 -0.19153852007E+02 -0.26616861074E+02  0.45009491215E+02  0.00000000000E+00 0.  1.
         11    1    1    2    0    0  0.47674286841E+02  0.38191692131E+01  0.14911603607E+02  0.50097700560E+02  0.00000000000E+00 0. -1.
</event>
<event>
 7    1  0.2480409E-009  0.2760718E+03  0.7561462E-02  0.1097854E+00
         -2   -1    0    0    0  501 -0.00000000000E+00  0.00000000000E+00  0.33417024061E+02  0.33417024061E+02  0.00000000000E+00 0.  1.
          2   -1    0    0  501    0  0.00000000000E+00 -0.00000000000E+00 -0.25161667283E+04  0.25161667283E+04  0.00000000000E+00 0. -1.
         25    2    1    2    0    0  0.26679246366E+03  0.92124448795E+01 -0.14712386182E+04  0.15004843264E+04  0.12508818640E+03 0.  0.
          5    1    3    3  502    0  0.13447514097E+03  0.36752176272E+02 -0.47313528794E+03  0.49326337700E+03  0.41800000000E+01 0. -1.
         -5    1    3    3    0  502  0.13231732269E+03 -0.27539731393E+02 -0.99810333023E+03  0.10072209494E+04  0.41800000000E+01 0. -1.
        -11    1    1    2    0    0 -0.22684376656E+03  0.20356224199E+02 -0.85983582994E+03  0.88948868724E+03  0.00000000000E+00 0. -1.
         11    1    1    2    0    0 -0.39948697101E+02 -0.29568669078E+02 -0.15167525613E+03  0.15961073872E+03  0.00000000000E+00 0.  1.
</event>
<event>
 7    1  0.2480409E-009  0.1042065E+03  0.7561462E-02  0.1271691E+00
         -2   -1    0    0    0  501 -0.00000000000E+00  0.00000000000E+00  0.28211250178E+02  0.28211250178E+02  0.00000000000E+00 0.  1.
          2   -1    0    0  501    0  0.00000000000E+00 -0.00000000000E+00 -0.54400489472E+03  0.54400489472E+03  0.00000000000E+00 0. -1.
         25    2    1    2    0    0 -0.54011858643E+02  0.23458905606E+02 -0.33992766364E+03  0.36696790880E+03  0.12508808278E+03 0.  0.
          5    1    3    3  502    0  0.20889772116E+02 -0.64895791067E+01 -0.55217232271E+01  0.22944695322E+02  0.41800000000E+01 0. -1.
         -5    1    3    3    0  502 -0.74901630758E+02  0.29948484713E+02 -0.33440594041E+03  0.34402321348E+03  0.41800000000E+01 0. -1.
        -11    1    1    2    0    0 -0.23994734626E+02 -0.10907446871E+02 -0.36138993264E+02  0.44729705131E+02  0.00000000000E+00 0. -1.
         11    1    1    2    0    0  0.78006593269E+02 -0.12551458736E+02 -0.13972698764E+03  0.16051853097E+03  0.00000000000E+00 0.  1.
</event>
<event>
 7    1  0.2480409E-009  0.1825280E+03  0.7561462E-02  0.1165379E+00
          2   -1    0    0  501    0  0.00000000000E+00  0.00000000000E+00  0.34918751996E+02  0.34918751996E+02  0.00000000000E+00 0.  1.
         -2   -1    0    0    0  501 -0.00000000000E+00 -0.00000000000E+00 -0.13424504059E+04  0.13424504059E+04  0.00000000000E+00 0. -1.
         25    2    1    2    0    0 -0.16932519170E+03  0.40391479264E+02 -0.46143894397E+03  0.50879875519E+03  0.12509109534E+03 0.  0.
          5    1    3    3  502    0 -0.14254482095E+03  0.39722508991E+01 -0.43136289469E+03  0.45434152801E+03  0.41800000000E+01 0. -1.
         -5    1    3    3    0  502 -0.26780370754E+02  0.36419228365E+02 -0.30076049276E+02  0.54457227183E+02  0.41800000000E+01 0. -1.
        -11    1    1    2    0    0  0.56909700336E+02  0.17622148426E+01 -0.12250307631E+03  0.13508820488E+03  0.00000000000E+00 0.  1.
         11    1    1    2    0    0  0.11241549137E+03 -0.42153694106E+02 -0.72358963366E+03  0.73348219786E+03  0.00000000000E+00 0. -1.
</event>
<event>
 7    1  0.2480409E-009  0.1402982E+03  0.7561462E-02  0.1212928E+00
         -2   -1    0    0    0  501 -0.00000000000E+00  0.00000000000E+00  0.66349196956E+02  0.66349196956E+02  0.00000000000E+00 0.  1.
          2   -1    0    0  501    0  0.00000000000E+00 -0.00000000000E+00 -0.33187873045E+03  0.33187873045E+03  0.00000000000E+00 0. -1.
         25    2    1    2    0    0  0.19179030764E+02  0.95779218458E+02 -0.10775450121E+03  0.19182687604E+03  0.12508007007E+03 0.  0.
          5    1    3    3  502    0 -0.29193038542E+01  0.12198835808E+03 -0.70330435023E+02  0.14090253487E+03  0.41800000000E+01 0. -1.
         -5    1    3    3    0  502  0.22098334618E+02 -0.26209139625E+02 -0.37424066191E+02  0.50924341165E+02  0.41800000000E+01 0. -1.
        -11    1    1    2    0    0 -0.46093644280E+02 -0.81162789968E+02 -0.14661367911E+03  0.17380331821E+03  0.00000000000E+00 0.  1.
         11    1    1    2    0    0  0.26914613516E+02 -0.14616428490E+02 -0.11161353167E+02  0.32597733158E+02  0.00000000000E+00 0. -1.
</event>
<event>
 7    1  0.2480409E-009  0.1326133E+03  0.7561462E-02  0.1223629E+00
         -2   -1    0    0    0  501 -0.00000000000E+00  0.00000000000E+00  0.83144192118E+03  0.83144192118E+03  0.00000000000E+00 0.  1.
          2   -1    0    0  501    0  0.00000000000E+00 -0.00000000000E+00 -0.29298070941E+02  0.29298070941E+02  0.00000000000E+00 0. -1.
         25    2    1    2    0    0 -0.78613504885E+02  0.72727690180E+02  0.51149073450E+03  0.53734537086E+03  0.12509147066E+03 0.  0.
          5    1    3    3  502    0 -0.60123380559E+02 -0.94482231074E+01  0.34880907922E+03  0.35410356671E+03  0.41800000000E+01 0. -1.
         -5    1    3    3    0  502 -0.18490124326E+02  0.82175913288E+02  0.16268165528E+03  0.18324180415E+03  0.41800000000E+01 0. -1.
        -11    1    1    2    0    0  0.71624550597E+01  0.88881967314E+01 -0.17236789389E+01  0.11544343754E+02  0.00000000000E+00 0. -1.
         11    1    1    2    0    0  0.71451049825E+02 -0.81615886912E+02  0.29237679467E+03  0.31185027751E+03  0.00000000000E+00 0.  1.
</event>
<event>
 7    1  0.2480409E-009  0.8645698E+02  0.7561462E-02  0.1311666E+00
         -1   -1    0    0    0  501 -0.00000000000E+00  0.00000000000E+00  0.87194904275E+02  0.87194904275E+02  0.00000000000E+00 0.  1.
          1   -1    0    0  501    0  0.00000000000E+00 -0.00000000000E+00 -0.17148124673E+03  0.17148124673E+03  0.00000000000E+00 0. -1.
         25    2    1    2    0    0  0.80965245702E+01  0.54790422127E+01 -0.84879511896E+02  0.15148373035E+03  0.12508883007E+03 0.  0.
          5    1    3    3  502    0  0.48824292338E+02  0.45893906948E+02 -0.54200086311E+02  0.86285479505E+02  0.41800000000E+01 0. -1.
         -5    1    3    3    0  502 -0.40727767768E+02 -0.40414864736E+02 -0.30679425585E+02  0.65198250845E+02  0.41800000000E+01 0. -1.
        -11    1    1    2    0    0 -0.37780509214E+01  0.21040972895E+02  0.48087077926E+02  0.52624740119E+02  0.00000000000E+00 0.  1.
         11    1    1    2    0    0 -0.43184736489E+01 -0.26520015108E+02 -0.47493908489E+02  0.54567680540E+02  0.00000000000E+00 0. -1.
</event>
<event>
 7    1  0.2480409E-009  0.6936518E+02  0.7561462E-02  0.1362265E+00
         -1   -1    0    0    0  501 -0.00000000000E+00  0.00000000000E+00  0.45367428274E+02  0.45367428274E+02  0.00000000000E+00 0.  1.
          1   -1    0    0  501    0  0.00000000000E+00 -0.00000000000E+00 -0.43701704022E+03  0.43701704022E+03  0.00000000000E+00 0. -1.
         25    2    1    2    0    0  0.24186929457E+02 -0.26309438866E+02 -0.34917823248E+03  0.37262597435E+03  0.12508990603E+03 0.  0.
          5    1    3    3  502    0  0.12694482362E+02 -0.76426155739E+01 -0.34995797031E+03  0.35029646421E+03  0.41800000000E+01 0. -1.
         -5    1    3    3    0  502  0.11492447095E+02 -0.18666823292E+02  0.77973782738E+00  0.22329510141E+02  0.41800000000E+01 0. -1.
        -11    1    1    2    0    0 -0.40526971059E+02  0.54810291991E+02 -0.31778015556E+02  0.75209346254E+02  0.00000000000E+00 0.  1.
         11    1    1    2    0    0  0.16340041602E+02 -0.28500853125E+02 -0.10693363912E+02  0.34549147893E+02  0.00000000000E+00 0. -1.
</event>
<event>
 7    1  0.2480409E-009  0.8551699E+02  0.7561462E-02  0.1314086E+00
          1   -1    0    0  501    0  0.00000000000E+00  0.00000000000E+00  0.66506664501E+03  0.66506664501E+03  0.00000000000E+00 0. -1.
         -1   -1    0    0    0  501 -0.00000000000E+00 -0.00000000000E+00 -0.23367465059E+02  0.23367465059E+02  0.00000000000E+00 0.  1.
         25    2    1    2    0    0  0.56478958808E+00  0.52979870784E+02  0.27154092917E+03  0.30362324382E+03  0.12508162247E+03 0.  0.
          5    1    3    3  502    0  0.19769481897E+02  0.10147039175E+02  0.25133040542E+03  0.25234547729E+03  0.41800000000E+01 0. -1.
         -5    1    3    3    0  502 -0.19204692309E+02  0.42832831609E+02  0.20210523745E+02  0.51277766530E+02  0.41800000000E+01 0. -1.
        -11    1    1    2    0    0 -0.27391200525E+02  0.12816099197E+02  0.68181163123E+02  0.74586870625E+02  0.00000000000E+00 0.  1.
         11    1    1    2    0    0  0.26826410937E+02 -0.65795969981E+02  0.30197708766E+03  0.31022399562E+03  0.00000000000E+00 0. -1.
</event>
<event>
 7    1  0.2480409E-009  0.7632465E+02  0.7561462E-02  0.1339817E+00
          2   -1    0    0  501    0  0.00000000000E+00  0.00000000000E+00  0.30182344146E+02  0.30182344146E+02  0.00000000000E+00 0. -1.
         -2   -1    0    0    0  501 -0.00000000000E+00 -0.00000000000E+00 -0.49014189720E+03  0.49014189720E+03  0.00000000000E+00 0.  1.
         25    2    1    2    0    0  0.33789500535E+02  0.71493837427E+01 -0.36080898152E+03  0.38343450306E+03  0.12508418346E+03 0.  0.
          5    1    3    3  502    0 -0.14393774306E+02  0.87752746391E+01 -0.31903189113E+03  0.31950431318E+03  0.41800000000E+01 0.  1.
         -5    1    3    3    0  502  0.48183274840E+02 -0.16258908964E+01 -0.41777090394E+02  0.63930189874E+02  0.41800000000E+01 0.  1.
        -11    1    1    2    0    0  0.81299783066E+01  0.29874386289E+02 -0.63275631694E+02  0.70444169877E+02  0.00000000000E+00 0.  1.
         11    1    1    2    0    0 -0.41919478841E+02 -0.37023770032E+02 -0.35874939841E+02  0.66445568417E+02  0.00000000000E+00 0. -1.
</event>
<event>
 7    1  0.2480409E-009  0.1081211E+03  0.7561462E-02  0.1264089E+00
          1   -1    0    0  501    0  0.00000000000E+00  0.00000000000E+00  0.43114333919E+03  0.43114333919E+03  0.00000000000E+00 0. -1.
         -1   -1    0    0    0  501 -0.00000000000E+00 -0.00000000000E+00 -0.50718535530E+02  0.50718535530E+02  0.00000000000E+00 0.  1.
         25    2    1    2    0    0  0.57543901242E+02 -0.67082530217E+02  0.12696188973E+03  0.19894368955E+03  0.12509158139E+03 0.  0.
          5    1    3    3  502    0  0.19182670676E+02 -0.81302788689E+01  0.12671519351E+03  0.12848458645E+03  0.41800000000E+01 0. -1.
         -5    1    3    3    0  502  0.38361230566E+02 -0.58952251348E+02  0.24669621757E+00  0.70459103092E+02  0.41800000000E+01 0. -1.
        -11    1    1    2    0    0 -0.43568176713E+02 -0.11223434657E+02  0.73771279612E+02  0.86408062142E+02  0.00000000000E+00 0. -1.
         11    1    1    2    0    0 -0.13975724528E+02  0.78305964874E+02  0.17969163432E+03  0.19651012304E+03  0.00000000000E+00 0.  1.
</event>
<event>
 7    1  0.2804072E-009  0.1045712E+03  0.7561462E-02  0.1270967E+00
          1   -1    0    0  501    0  0.00000000000E+00  0.00000000000E+00  0.42628801071E+03  0.42628801071E+03  0.00000000000E+00 0. -1.
         -1   -1    0    0    0  501 -0.00000000000E+00 -0.00000000000E+00 -0.37892260492E+02  0.37892260492E+02  0.00000000000E+00 0.  1.
         25    2    1    2    0    0 -0.39641274813E+02  0.16870449105E+02  0.12380324325E+03  0.18119435247E+03  0.12509239627E+03 0.  0.
          5    1    3    3  502    0  0.19561055879E+02 -0.42845869440E+02  0.35038043512E+02  0.58851850679E+02  0.41800000000E+01 0.  1.
         -5    1    3    3    0  502 -0.59202330693E+02  0.59716318545E+02  0.88765199734E+02  0.12234250179E+03  0.41800000000E+01 0.  1.
        -11    1    1    2    0    0 -0.68976315309E+01 -0.28805340234E+02  0.25409492110E+02  0.39025212824E+02  0.00000000000E+00 0.  1.
         11    1    1    2    0    0  0.46538906344E+02  0.11934891129E+02  0.23918301487E+03  0.24396070591E+03  0.00000000000E+00 0. -1.
</event>
<event>
 7    1  0.2480409E-009  0.1817093E+03  0.7561462E-02  0.1166159E+00
          1   -1    0    0  501    0  0.00000000000E+00  0.00000000000E+00  0.31546595517E+03  0.31546595517E+03  0.00000000000E+00 0. -1.
         -1   -1    0    0    0  501 -0.00000000000E+00 -0.00000000000E+00 -0.21516532219E+03  0.21516532219E+03  0.00000000000E+00 0.  1.
         25    2    1    2    0    0  0.15995269493E+03 -0.12442826763E+01  0.22889001687E+03  0.30598132976E+03  0.12509005349E+03 0.  0.
          5    1    3    3  502    0  0.39498744316E+02  0.56656496299E+02  0.83798052193E+02  0.10867242211E+03  0.41800000000E+01 0.  1.
         -5    1    3    3    0  502  0.12045395061E+03 -0.57900778976E+02  0.14509196468E+03  0.19730890765E+03  0.41800000000E+01 0.  1.
        -11    1    1    2    0    0 -0.98824466671E+02 -0.57196447342E+01 -0.12964661162E+03  0.16311723837E+03  0.00000000000E+00 0.  1.
         11    1    1    2    0    0 -0.61128228255E+02  0.69639274104E+01  0.10572277189E+01  0.61532709228E+02  0.00000000000E+00 0. -1.
</event>
<event>
 7    1  0.2480409E-009  0.1428580E+03  0.7561462E-02  0.1209534E+00
         -2   -1    0    0    0  501 -0.00000000000E+00  0.00000000000E+00  0.56675356970E+02  0.56675356970E+02  0.00000000000E+00 0.  1.
          2   -1    0    0  501    0  0.00000000000E+00 -0.00000000000E+00 -0.55649709388E+03  0.55649709388E+03  0.00000000000E+00 0. -1.
         25    2    1    2    0    0  0.63274804160E+02  0.10259792209E+03 -0.13906776827E+03  0.22252599526E+03  0.12509172609E+03 0.  0.
          5    1    3    3  502    0  0.13818257703E+02  0.11330437686E+03 -0.12606350078E+03  0.17011262355E+03  0.41800000000E+01 0. -1.
         -5    1    3    3    0  502  0.49456546457E+02 -0.10706454770E+02 -0.13004267491E+02  0.52413371711E+02  0.41800000000E+01 0. -1.
        -11    1    1    2    0    0 -0.18636297534E+02 -0.24730199669E+02 -0.16912846943E+02  0.35283689620E+02  0.00000000000E+00 0.  1.
         11    1    1    2    0    0 -0.44638506626E+02 -0.77867722422E+02 -0.34384112169E+03  0.35536276596E+03  0.00000000000E+00 0. -1.
</event>
<event>
 7    1  0.2480409E-009  0.2231924E+03  0.7561462E-02  0.1131525E+00
         -2   -1    0    0    0  501 -0.00000000000E+00  0.00000000000E+00  0.13859089292E+03  0.13859089292E+03  0.00000000000E+00 0.  1.
          2   -1    0    0  501    0  0.00000000000E+00 -0.00000000000E+00 -0.47635820691E+03  0.47635820691E+03  0.00000000000E+00 0. -1.
         25    2    1    2    0    0  0.12405526843E+03  0.16683825951E+03 -0.45227305582E+02  0.24681423421E+03  0.12508813923E+03 0.  0.
          5    1    3    3  502    0  0.90907569007E+02  0.17986935632E+03 -0.56277493511E+02  0.20928879597E+03  0.41800000000E+01 0. -1.
         -5    1    3    3    0  502  0.33147699426E+02 -0.13031096809E+02  0.11050187929E+02  0.37525438232E+02  0.41800000000E+01 0. -1.
        -11    1    1    2    0    0 -0.58180753016E+02 -0.95625221458E+02 -0.90244469214E+02  0.14378194332E+03  0.00000000000E+00 0.  1.
         11    1    1    2    0    0 -0.65874515417E+02 -0.71213038048E+02 -0.20229553919E+03  0.22435292231E+03  0.00000000000E+00 0. -1.
</event>
<event>
 7    1  0.2480409E-009  0.1151011E+03  0.7561462E-02  0.1251405E+00
          1   -1    0    0  501    0  0.00000000000E+00  0.00000000000E+00  0.37131335184E+03  0.37131335184E+03  0.00000000000E+00 0. -1.
         -1   -1    0    0    0  501 -0.00000000000E+00 -0.00000000000E+00 -0.43646782411E+02  0.43646782411E+02  0.00000000000E+00 0.  1.
         25    2    1    2    0    0  0.55486881637E+02  0.15630980088E+02  0.13056243613E+03  0.18978146669E+03  0.12508930329E+03 0.  0.
          5    1    3    3  502    0 -0.59710556622E+01 -0.47539671902E+02  0.33518935156E+02  0.58623078427E+02  0.41800000000E+01 0.  1.
         -5    1    3    3    0  502  0.61457937299E+02  0.63170651990E+02  0.97043500973E+02  0.13115838826E+03  0.41800000000E+01 0.  1.
        -11    1    1    2    0    0 -0.47545712354E+02  0.24136412199E+02  0.16516501126E+03  0.17355875692E+03  0.00000000000E+00 0. -1.
         11    1    1    2    0    0 -0.79411692822E+01 -0.39767392287E+02  0.31939122041E+02  0.51619910650E+02  0.00000000000E+00 0.  1.
</event>
<event>
 7    1  0.2480409E-009  0.2434808E+03  0.7561462E-02  0.1117495E+00
          2   -1    0    0  501    0  0.00000000000E+00  0.00000000000E+00  0.12589403337E+04  0.12589403337E+04  0.00000000000E+00 0.  1.
         -2   -1    0    0    0  501 -0.00000000000E+00 -0.00000000000E+00 -0.15348325613E+03  0.15348325613E+03  0.00000000000E+00 0. -1.
         25    2    1    2    0    0  0.20803434867E+03  0.80511174305E+02 -0.25000526442E+02  0.25696545258E+03  0.12508348445E+03 0.  0.
          5    1    3    3  502    0  0.70393198401E+02 -0.24807104533E+02  0.20918069182E+02  0.77624949821E+02  0.41800000000E+01 0. -1.
         -5    1    3    3    0  502  0.13764115027E+03  0.10531827884E+03 -0.45918595624E+02  0.17934050276E+03  0.41800000000E+01 0. -1.
        -11    1    1    2    0    0 -0.61919682004E+02 -0.68349018446E+02  0.46046876308E+03  0.46961379570E+03  0.00000000000E+00 0. -1.
         11    1    1    2    0    0 -0.14611466667E+03 -0.12162155859E+02  0.66998884090E+03  0.68584434151E+03  0.00000000000E+00 0.  1.
</event>
<event>
 7    1  0.2480409E-009  0.1030252E+03  0.7561462E-02  0.1274060E+00
          1   -1    0    0  501    0  0.00000000000E+00  0.00000000000E+00  0.21968295037E+02  0.21968295037E+02  0.00000000000E+00 0. -1.
         -1   -1    0    0    0  501 -0.00000000000E+00 -0.00000000000E+00 -0.92786912062E+03  0.92786912062E+03  0.00000000000E+00 0.  1.
         25    2    1    2    0    0  0.23125495613E+02 -0.85272119812E+02 -0.57995728324E+03  0.59983695060E+03  0.12509114261E+03 0.  0.
          5    1    3    3  502    0  0.14247969768E+02 -0.63997173141E+02 -0.10213100940E+03  0.12143664312E+03  0.41800000000E+01 0. -1.
         -5    1    3    3    0  502  0.88775258448E+01 -0.21274946670E+02 -0.47782627384E+03  0.47840030748E+03  0.41800000000E+01 0. -1.
        -11    1    1    2    0    0 -0.47636779508E+01  0.95693130815E+02 -0.30710839642E+03  0.32170706406E+03  0.00000000000E+00 0. -1.
         11    1    1    2    0    0 -0.18361817662E+02 -0.10421011004E+02 -0.18835145927E+02  0.28293401002E+02  0.00000000000E+00 0.  1.
</event>
<event>
 7    1  0.2480409E-009  0.7807703E+02  0.7561462E-02  0.1334599E+00
          2   -1    0    0  501    0  0.00000000000E+00  0.00000000000E+00  0.79823767575E+03  0.79823767575E+03  0.00000000000E+00 0.  1.
         -2   -1    0    0    0  501 -0.00000000000E+00 -0.00000000000E+00 -0.15605566601E+02  0.15605566601E+02  0.00000000000E+00 0. -1.
         25    2    1    2    0    0 -0.16438728947E+02 -0.18881514586E+02  0.48716645756E+03  0.50359455502E+03  0.12509826168E+03 0.  0.
          5    1    3    3  502    0 -0.40383639387E+02 -0.17034627728E+02  0.47370676735E+03  0.47574845318E+03  0.41800000000E+01 0.  1.
         -5    1    3    3    0  502  0.23944910440E+02 -0.18468868580E+01  0.13459690204E+02  0.27846101836E+02  0.41800000000E+01 0.  1.
        -11    1    1    2    0    0 -0.30615607179E+02 -0.10392483460E+02  0.17061848065E+03  0.17365478701E+03  0.00000000000E+00 0.  1.
         11    1    1    2    0    0  0.47054336126E+02  0.29273998046E+02  0.12484717095E+03  0.13659390031E+03  0.00000000000E+00 0. -1.
</event>
<event>
 7    1  0.2480409E-009  0.1545031E+03  0.7561462E-02  0.1195046E+00
          2   -1    0    0  501    0  0.00000000000E+00  0.00000000000E+00  0.31687432557E+03  0.31687432557E+03  0.00000000000E+00 0. -1.
         -2   -1    0    0    0  501 -0.00000000000E+00 -0.00000000000E+00 -0.93825218082E+02  0.93825218082E+02  0.00000000000E+00 0.  1.
         25    2    1    2    0    0 -0.13156621946E+03 -0.12438422709E+02  0.11560104820E+03  0.21558117234E+03  0.12508898857E+03 0.  0.
          5    1    3    3  502    0 -0.14855057941E+03 -0.20219820568E+02  0.12407181836E+03  0.19464687076E+03  0.41800000000E+01 0. -1.
         -5    1    3    3    0  502  0.16984359953E+02  0.77813978588E+01 -0.84707701582E+01  0.20934301582E+02  0.41800000000E+01 0. -1.
        -11    1    1    2    0    0  0.84938803360E+02  0.29967210258E+02  0.11354707447E+03  0.14493299186E+03  0.00000000000E+00 0. -1.
         11    1    1    2    0    0  0.46627416095E+02 -0.17528787549E+02 -0.60990151856E+01  0.50185379454E+02  0.00000000000E+00 0.  1.
</event>
<event>
 7    1  0.2480409E-009  0.1486431E+03  0.7561462E-02  0.1202150E+00
         -1   -1    0    0    0  501 -0.00000000000E+00  0.00000000000E+00  0.11207622816E+03  0.11207622816E+03  0.00000000000E+00 0.  1.
          1   -1    0    0  501    0  0.00000000000E+00 -0.00000000000E+00 -0.27766231305E+03  0.27766231305E+03  0.00000000000E+00 0. -1.
         25    2    1    2    0    0 -0.52445956852E+01 -0.13486015244E+03 -0.47324298925E+02  0.19000470611E+03  0.12508969812E+03 0.  0.
          5    1    3    3  502    0 -0.24736102959E+02 -0.13804106532E+03 -0.19201984084E+01  0.14031525244E+03  0.41800000000E+01 0.  1.
         -5    1    3    3    0  502  0.19491507274E+02  0.31809128840E+01 -0.45404100517E+02  0.49689453673E+02  0.41800000000E+01 0.  1.
        -11    1    1    2    0    0  0.13942250812E+02  0.71922956746E+02 -0.96378599158E+01  0.73893074158E+02  0.00000000000E+00 0.  1.
         11    1    1    2    0    0 -0.86976551267E+01  0.62937195690E+02 -0.10862392605E+03  0.12584076095E+03  0.00000000000E+00 0. -1.
</event>
<event>
 7    1  0.2480409E-009  0.1404596E+03  0.7561462E-02  0.1212712E+00
         -2   -1    0    0    0  501 -0.00000000000E+00  0.00000000000E+00  0.55226798585E+03  0.55226798585E+03  0.00000000000E+00 0.  1.
          2   -1    0    0  501    0  0.00000000000E+00 -0.00000000000E+00 -0.49151226796E+02  0.49151226796E+02  0.00000000000E+00 0. -1.
         25    2    1    2    0    0  0.21093258620E+02  0.11160744583E+03  0.35432530318E+03  0.39255072172E+03  0.12509396916E+03 0.  0.
          5    1    3    3  502    0 -0.43909304737E+02  0.65650948703E+02  0.10952102947E+03  0.13509405021E+03  0.41800000000E+01 0. -1.
         -5    1    3    3    0  502  0.65002563357E+02  0.45956497131E+02  0.24480427372E+03  0.25745667150E+03  0.41800000000E+01 0. -1.
        -11    1    1    2    0    0 -0.33433753999E+02 -0.98892331900E+02  0.64445392990E+02  0.12268136734E+03  0.00000000000E+00 0. -1.
         11    1    1    2    0    0  0.12340495379E+02 -0.12715113934E+02  0.84346062883E+02  0.86187123588E+02  0.00000000000E+00 0.  1.
</event>
<event>
 7    1  0.2480409E-009  0.8870409E+02  0.7561462E-02  0.1306021E+00
          1   -1    0    0  501    0  0.00000000000E+00  0.00000000000E+00  0.11655862603E+03  0.11655862603E+03  0.00000000000E+00 0. -1.
         -1   -1    0    0    0  501 -0.00000000000E+00 -0.00000000000E+00 -0.16429781585E+03  0.16429781585E+03  0.00000000000E+00 0.  1.
         25    2    1    2    0    0  0.29877131971E+02  0.54270811918E+02  0.32485575028E+02  0.14332076488E+03  0.12509022751E+03 0.  0.
          5    1    3    3  502    0  0.14826899310E+02  0.43435987894E+00  0.72710147905E+02  0.74325390143E+02  0.41800000000E+01 0.  1.
         -5    1    3    3    0  502  0.15050232661E+02  0.53836452039E+02 -0.40224572876E+02  0.68995374732E+02  0.41800000000E+01 0.  1.
        -11    1    1    2    0    0 -0.12219900423E+02  0.23340587898E+02 -0.27978577401E+01  0.26494094016E+02  0.00000000000E+00 0.  1.
         11    1    1    2    0    0 -0.17657231548E+02 -0.77611399816E+02 -0.77426907115E+02  0.11104158299E+03  0.00000000000E+00 0. -1.
</event>
<event>
 7    1  0.2480409E-009  0.1939672E+03  0.7561462E-02  0.1154931E+00
          2   -1    0    0  501    0  0.00000000000E+00  0.00000000000E+00  0.84793203015E+03  0.84793203015E+03  0.00000000000E+00 0.  1.
         -2   -1    0    0    0  501 -0.00000000000E+00 -0.00000000000E+00 -0.64749169135E+02  0.64749169135E+02  0.00000000000E+00 0. -1.
         25    2    1    2    0    0  0.84131052370E+02  0.15613983086E+03  0.61231111166E+03  0.64963807598E+03  0.12508817508E+03 0.  0.
          5    1    3    3  502    0  0.81529033437E+01  0.98647040937E+02  0.45511578906E+03  0.46577415382E+03  0.41800000000E+01 0. -1.
         -5    1    3    3    0  502  0.75978149026E+02  0.57492789925E+02  0.15719532260E+03  0.18386392215E+03  0.41800000000E+01 0. -1.
        -11    1    1    2    0    0 -0.77655473202E+02 -0.62645837119E+02  0.12116843378E+03  0.15696070455E+03  0.00000000000E+00 0.  1.
         11    1    1    2    0    0 -0.64755791677E+01 -0.93493993743E+02  0.49703315577E+02  0.10608241876E+03  0.00000000000E+00 0. -1.
</event>
<event>
 7    1  0.2813256E-009  0.1157494E+03  0.7561462E-02  0.1250279E+00
          2   -1    0    0  501    0  0.00000000000E+00  0.00000000000E+00  0.23794209849E+03  0.23794209849E+03  0.00000000000E+00 0. -1.
         -2   -1    0    0    0  501 -0.00000000000E+00 -0.00000000000E+00 -0.91653182588E+02  0.91653182588E+02  0.00000000000E+00 0.  1.
         25    2    1    2    0    0 -0.62040571756E+02  0.51471395410E+02  0.13605871349E+02  0.14943600199E+03  0.12509061463E+03 0.  0.
          5    1    3    3  502    0 -0.42435703519E+02 -0.37523862848E+02  0.12717269752E+02  0.58206791409E+02  0.41800000000E+01 0.  1.
         -5    1    3    3    0  502 -0.19604868236E+02  0.88995258259E+02  0.88860159652E+00  0.91229210584E+02  0.41800000000E+01 0.  1.
        -11    1    1    2    0    0  0.28664324019E+02 -0.37719164344E+02  0.51947257425E+01  0.47658829253E+02  0.00000000000E+00 0.  1.
         11    1    1    2    0    0  0.33376247737E+02 -0.13752231067E+02  0.12748831881E+03  0.13250044983E+03  0.00000000000E+00 0. -1.
</event>
<event>
 7    1  0.2480409E-009  0.1405582E+03  0.7561462E-02  0.1212580E+00
          1   -1    0    0  501    0  0.00000000000E+00  0.00000000000E+00  0.51815734547E+03  0.51815734547E+03  0.00000000000E+00 0. -1.
         -1   -1    0    0    0  501 -0.00000000000E+00 -0.00000000000E+00 -0.44327099311E+02  0.44327099311E+02  0.00000000000E+00 0.  1.
         25    2    1    2    0    0  0.86996804833E+02  0.30777633273E+02  0.35180623594E+03  0.38461834682E+03  0.12509171956E+03 0.  0.
          5    1    3    3  502    0  0.11869594771E+03  0.14964818019E+02  0.26617637395E+03  0.29185614304E+03  0.41800000000E+01 0. -1.
         -5    1    3    3    0  502 -0.31699142876E+02  0.15812815254E+02  0.85629861993E+02  0.92762203781E+02  0.41800000000E+01 0. -1.
        -11    1    1    2    0    0 -0.10239999610E+03 -0.14661130136E+02  0.81804915872E+02  0.13188158400E+03  0.00000000000E+00 0.  1.
         11    1    1    2    0    0  0.15403191263E+02 -0.16116503137E+02  0.40219094345E+02  0.45984513963E+02  0.00000000000E+00 0. -1.
</event>
<event>
 7    1  0.2480409E-009  0.7934213E+02  0.7561462E-02  0.1330929E+00
          2   -1    0    0  501    0  0.00000000000E+00  0.00000000000E+00  0.36836716684E+02  0.36836716684E+02  0.00000000000E+00 0. -1.
         -2   -1    0    0    0  501 -0.00000000000E+00 -0.00000000000E+00 -0.36889672616E+03  0.36889672616E+03  0.00000000000E+00 0.  1.
         25    2    1    2    0    0  0.21820847429E+02 -0.30077910520E+02 -0.15408281697E+03  0.20191182565E+03  0.12508413477E+03 0.  0.
          5    1    3    3  502    0  0.53928829628E+02 -0.85555269251E+01 -0.15355591453E+03  0.16302885325E+03  0.41800000000E+01 0.  1.
         -5    1    3    3    0  502 -0.32107982198E+02 -0.21522383595E+02 -0.52690243498E+00  0.38882972399E+02  0.41800000000E+01 0.  1.
        -11    1    1    2    0    0 -0.11074759912E+02 -0.15031153124E+02  0.12311598062E+01  0.18711002801E+02  0.00000000000E+00 0. -1.
         11    1    1    2    0    0 -0.10746087517E+02  0.45109063644E+02 -0.17920835231E+03  0.18511061439E+03  0.00000000000E+00 0.  1.
</event>
<event>
 7    1  0.2480409E-009  0.1409275E+03  0.7561462E-02  0.1212086E+00
          1   -1    0    0  501    0  0.00000000000E+00  0.00000000000E+00  0.29182773604E+02  0.29182773604E+02  0.00000000000E+00 0. -1.
         -1   -1    0    0    0  501 -0.00000000000E+00 -0.00000000000E+00 -0.95878572285E+03  0.95878572285E+03  0.00000000000E+00 0.  1.
         25    2    1    2    0    0  0.12302670183E+03  0.31660924439E+02 -0.52561439050E+03  0.55502730234E+03  0.12508731088E+03 0.  0.
          5    1    3    3  502    0  0.11164194842E+03  0.57485896516E+02 -0.26972980861E+03  0.29755704495E+03  0.41800000000E+01 0.  1.
         -5    1    3    3    0  502  0.11384753412E+02 -0.25824972077E+02 -0.25588458188E+03  0.25747025739E+03  0.41800000000E+01 0.  1.
        -11    1    1    2    0    0 -0.42186574527E+02 -0.17200065991E+02 -0.42714083944E+02  0.62450318715E+02  0.00000000000E+00 0. -1.
         11    1    1    2    0    0 -0.80840127305E+02 -0.14460858448E+02 -0.36127447480E+03  0.37049087540E+03  0.00000000000E+00 0.  1.
</event>
<event>
 7    1  0.2480409E-009  0.1195184E+03  0.7561462E-02  0.1243894E+00
          2   -1    0    0  501    0  0.00000000000E+00  0.00000000000E+00  0.27166773763E+03  0.27166773763E+03  0.00000000000E+00 0. -1.
         -2   -1    0    0    0  501 -0.00000000000E+00 -0.00000000000E+00 -0.60281511193E+02  0.60281511193E+02  0.00000000000E+00 0.  1.
         25    2    1    2    0    0  0.55105497113E+02 -0.92197783284E+01  0.68933314816E+02  0.15336657026E+03  0.12509149794E+03 0.  0.
          5    1    3    3  502    0 -0.38846330700E+02 -0.10421574636E+02  0.77721076852E+01  0.41176749321E+02  0.41800000000E+01 0.  1.
         -5    1    3    3    0  502  0.93951827813E+02  0.12017963072E+01  0.61161207131E+02  0.11218982094E+03  0.41800000000E+01 0.  1.
        -11    1    1    2    0    0  0.22133652044E+02 -0.10984836633E+02  0.54252042756E+02  0.59614170563E+02  0.00000000000E+00 0.  1.
         11    1    1    2    0    0 -0.77239149157E+02  0.20204614961E+02  0.88200868870E+02  0.11896850801E+03  0.00000000000E+00 0. -1.
</event>
<event>
 7    1  0.2480409E-009  0.1325957E+03  0.7561462E-02  0.1223654E+00
         -1   -1    0    0    0  501 -0.00000000000E+00  0.00000000000E+00  0.57789532470E+02  0.57789532470E+02  0.00000000000E+00 0.  1.
          1   -1    0    0  501    0  0.00000000000E+00 -0.00000000000E+00 -0.35187902209E+03  0.35187902209E+03  0.00000000000E+00 0. -1.
         25    2    1    2    0    0  0.75728420051E+02 -0.47655872030E+02 -0.12785083407E+03  0.19999817904E+03  0.12509020787E+03 0.  0.
          5    1    3    3  502    0  0.37840902702E+02 -0.80056977740E+02 -0.12025354689E+03  0.14939692615E+03  0.41800000000E+01 0.  1.
         -5    1    3    3    0  502  0.37887517349E+02  0.32401105710E+02 -0.75972871769E+01  0.50601252895E+02  0.41800000000E+01 0.  1.
        -11    1    1    2    0    0 -0.55652488284E+02 -0.17498164533E+02 -0.62144035169E+02  0.85236531613E+02  0.00000000000E+00 0.  1.
         11    1    1    2    0    0 -0.20075931766E+02  0.65154036563E+02 -0.10409462038E+03  0.12443384391E+03  0.00000000000E+00 0. -1.
</event>
<event>
 7    1  0.2480409E-009  0.9522409E+02  0.7561462E-02  0.1290672E+00
         -1   -1    0    0    0  501 -0.00000000000E+00  0.00000000000E+00  0.10206354739E+03  0.10206354739E+03  0.00000000000E+00 0.  1.
          1   -1    0    0  501    0  0.00000000000E+00 -0.00000000000E+00 -0.20982741031E+03  0.20982741031E+03  0.00000000000E+00 0. -1.
         25    2    1    2    0    0  0.74790431469E+02  0.45408270769E+02 -0.11415125541E+02  0.15307449461E+03  0.12508387632E+03 0.  0.
          5    1    3    3  502    0  0.51117603248E+02  0.23245801179E+02  0.55208927229E+02  0.78859841998E+02  0.41800000000E+01 0. -1.
         -5    1    3    3    0  502  0.23672828221E+02  0.22162469590E+02 -0.66624052770E+02  0.74214652609E+02  0.41800000000E+01 0. -1.
        -11    1    1    2    0    0 -0.15600403701E+02 -0.38879454700E+02 -0.89570329256E+02  0.98882902852E+02  0.00000000000E+00 0. -1.
         11    1    1    2    0    0 -0.59190027768E+02 -0.65288160683E+01 -0.67784081202E+01  0.59933560240E+02  0.00000000000E+00 0.  1.
</event>
<event>
 7    1  0.2480409E-009  0.2719939E+03  0.7561462E-02  0.1100144E+00
          1   -1    0    0  501    0  0.00000000000E+00  0.00000000000E+00  0.95426652967E+03  0.95426652967E+03  0.00000000000E+00 0. -1.
         -1   -1    0    0    0  501 -0.00000000000E+00 -0.00000000000E+00 -0.10673578776E+03  0.10673578776E+03  0.00000000000E+00 0.  1.
         25    2    1    2    0    0 -0.20962401484E+03  0.16206367693E+03  0.66313139604E+03  0.72498106493E+03  0.12508970031E+03 0.  0.
          5    1    3    3  502    0 -0.13403842947E+03  0.90552508710E+02  0.53997365166E+03  0.56369767987E+03  0.41800000000E+01 0. -1.
         -5    1    3    3    0  502 -0.75585585374E+02  0.71511168220E+02  0.12315774438E+03  0.16128338506E+03  0.41800000000E+01 0. -1.
        -11    1    1    2    0    0  0.16176346293E+03 -0.74167360664E+02  0.94496140235E+02  0.20148879832E+03  0.00000000000E+00 0.  1.
         11    1    1    2    0    0  0.47860551905E+02 -0.87896316266E+02  0.89903205644E+02  0.13453245418E+03  0.00000000000E+00 0. -1.
</event>
<event>
 7    1  0.2480409E-009  0.2256160E+03  0.7561462E-02  0.1129764E+00
         -2   -1    0    0    0  501 -0.00000000000E+00  0.00000000000E+00  0.11671009009E+03  0.11671009009E+03  0.00000000000E+00 0.  1.
          2   -1    0    0  501    0  0.00000000000E+00 -0.00000000000E+00 -0.50681768005E+03  0.50681768005E+03  0.00000000000E+00 0. -1.
         25    2    1    2    0    0  0.81453997081E+02  0.19975105938E+03 -0.23471283990E+03  0.34245142664E+03  0.12509045939E+03 0.  0.
          5    1    3    3  502    0  0.59929144354E+02  0.37089007521E+02 -0.22353360422E+02  0.74055667873E+02  0.41800000000E+01 0.  1.
         -5    1    3    3    0  502  0.21524852727E+02  0.16266205185E+03 -0.21235947948E+03  0.26839575876E+03  0.41800000000E+01 0.  1.
        -11    1    1    2    0    0 -0.28571222958E+02 -0.94230880104E+02 -0.12513130464E+03  0.15922819144E+03  0.00000000000E+00 0. -1.
         11    1    1    2    0    0 -0.52882774123E+02 -0.10552017927E+03 -0.30263445414E+02  0.12184815206E+03  0.00000000000E+00 0.  1.
</event>
<event>
 7    1  0.2480409E-009  0.1161443E+03  0.7561462E-02  0.1249597E+00
          1   -1    0    0  501    0  0.00000000000E+00  0.00000000000E+00  0.17989644541E+03  0.17989644541E+03  0.00000000000E+00 0. -1.
         -1   -1    0    0    0  501 -0.00000000000E+00 -0.00000000000E+00 -0.11660659877E+03  0.11660659877E+03  0.00000000000E+00 0.  1.
         25    2    1    2    0    0  0.66334021982E+02 -0.32996402011E+02 -0.29518524549E+02  0.14835415419E+03  0.12509455127E+03 0.  0.
          5    1    3    3  502    0  0.63542334711E+02  0.18658386959E+02 -0.58890330660E+02  0.88720387453E+02  0.41800000000E+01 0. -1.
         -5    1    3    3    0  502  0.27916872710E+01 -0.51654788970E+02  0.29371806112E+02  0.59633766740E+02  0.41800000000E+01 0. -1.
        -11    1    1    2    0    0  0.90831058260E+01  0.37400186552E+02  0.42754728305E+02  0.57526025049E+02  0.00000000000E+00 0. -1.
         11    1    1    2    0    0 -0.75417127808E+02 -0.44037845405E+01  0.50053642881E+02  0.90622864944E+02  0.00000000000E+00 0.  1.
</event>
<event>
 7    1  0.2480409E-009  0.1293484E+03  0.7561462E-02  0.1228426E+00
         -2   -1    0    0    0  501 -0.00000000000E+00  0.00000000000E+00  0.99989914727E+02  0.99989914727E+02  0.00000000000E+00 0.  1.
          2   -1    0    0  501    0  0.00000000000E+00 -0.00000000000E+00 -0.31816051387E+03  0.31816051387E+03  0.00000000000E+00 0. -1.
         25    2    1    2    0    0 -0.95592400739E+02 -0.40731222000E+02 -0.24981355565E+03  0.29807848813E+03  0.12508810086E+03 0.  0.
          5    1    3    3  502    0 -0.82486454163E+01  0.35953295150E+02 -0.11065868701E+03  0.11671973695E+03  0.41800000000E+01 0.  1.
         -5    1    3    3    0  502 -0.87343755323E+02 -0.76684517150E+02 -0.13915486864E+03  0.18135875118E+03  0.41800000000E+01 0.  1.
        -11    1    1    2    0    0  0.38777409202E+02  0.76532055461E+01  0.36961094308E+02  0.54114522192E+02  0.00000000000E+00 0. -1.
         11    1    1    2    0    0  0.56814991537E+02  0.33078016454E+02 -0.53181378078E+01  0.65957418276E+02  0.00000000000E+00 0.  1.
</event>
<event>
 7    1  0.2480409E-009  0.1431715E+03  0.7561462E-02  0.1209124E+00
         -1   -1    0    0    0  501 -0.00000000000E+00  0.00000000000E+00  0.37631951099E+02  0.37631951099E+02  0.00000000000E+00 0.  1.
          1   -1    0    0  501    0  0.00000000000E+00 -0.00000000000E+00 -0.80494436986E+03  0.80494436986E+03  0.00000000000E+00 0. -1.
         25    2    1    2    0    0  0.51635811717E+02 -0.12615351635E+03 -0.43081210745E+03  0.46885753093E+03  0.12508935064E+03 0.  0.
          5    1    3    3  502    0  0.31736830929E+02 -0.64869236098E+02 -0.37963792199E+03  0.38646819849E+03  0.41800000000E+01 0. -1.
         -5    1    3    3    0  502  0.19898980788E+02 -0.61284280249E+02 -0.51174185458E+02  0.82389332437E+02  0.41800000000E+01 0. -1.
        -11    1    1    2    0    0 -0.17489400862E+02  0.11049490820E+03 -0.17345315924E+03  0.20640010255E+03  0.00000000000E+00 0.  1.
         11    1    1    2    0    0 -0.34146410855E+02  0.15658608144E+02 -0.16304715207E+03  0.16731868748E+03  0.00000000000E+00 0. -1.
</event>
<event>
 7    1  0.2480409E-009  0.2251124E+03  0.7561462E-02  0.1130128E+00
         -2   -1    0    0    0  501 -0.00000000000E+00  0.00000000000E+00  0.11828563384E+03  0.11828563384E+03  0.00000000000E+00 0.  1.
          2   -1    0    0  501    0  0.00000000000E+00 -0.00000000000E+00 -0.43770940873E+03  0.43770940873E+03  0.00000000000E+00 0. -1.
         25    2    1    2    0    0  0.61988073092E+02  0.18846589174E+03 -0.15715321265E+03  0.28232638969E+03  0.12509654078E+03 0.  0.
          5    1    3    3  502    0  0.87488723497E+02  0.67189850307E+02 -0.68904944087E+02  0.13013115093E+03  0.41800000000E+01 0.  1.
         -5    1    3    3    0  502 -0.25500650405E+02  0.12127604143E+03 -0.88248268559E+02  0.15219523876E+03  0.41800000000E+01 0.  1.
        -11    1    1    2    0    0  0.18972932513E+02 -0.68699126921E+02 -0.28661601334E+02  0.76818159304E+02  0.00000000000E+00 0.  1.
         11    1    1    2    0    0 -0.80961005606E+02 -0.11976676482E+03 -0.13360896091E+03  0.19685049357E+03  0.00000000000E+00 0. -1.
</event>
<event>
 7    1  0.2480409E-009  0.5678914E+02  0.7561462E-02  0.1411823E+00
          2   -1    0    0  501    0  0.00000000000E+00  0.00000000000E+00  0.48601956620E+03  0.48601956620E+03  0.00000000000E+00 0.  1.
         -2   -1    0    0    0  501 -0.00000000000E+00 -0.00000000000E+00 -0.39000556739E+02  0.39000556739E+02  0.00000000000E+00 0. -1.
         25    2    1    2    0    0 -0.10483456836E+02 -0.23931198547E+01  0.41461175965E+03  0.43319938059E+03  0.12507262776E+03 0.  0.
          5    1    3    3  502    0  0.99656036520E+01 -0.26664363497E+01 -0.56064484029E+01  0.12463057516E+02  0.41800000000E+01 0. -1.
         -5    1    3    3    0  502 -0.20449060488E+02  0.27331649504E+00  0.42021820805E+03  0.42073632308E+03  0.41800000000E+01 0. -1.
        -11    1    1    2    0    0  0.47714109090E+01 -0.39250876613E+02  0.13588297772E+01  0.39563165891E+02  0.00000000000E+00 0. -1.
         11    1    1    2    0    0  0.57120459266E+01  0.41643996468E+02  0.31048420036E+02  0.52257576457E+02  0.00000000000E+00 0.  1.
</event>
<event>
 7    1  0.2480409E-009  0.1143598E+03  0.7561462E-02  0.1252703E+00
          1   -1    0    0  501    0  0.00000000000E+00  0.00000000000E+00  0.58055459965E+02  0.58055459965E+02  0.00000000000E+00 0. -1.
         -1   -1    0    0    0  501 -0.00000000000E+00 -0.00000000000E+00 -0.28393047619E+03  0.28393047619E+03  0.00000000000E+00 0.  1.
         25    2    1    2    0    0  0.81705187880E+01  0.64307898522E+02 -0.83241972303E+02  0.16364561550E+03  0.12509355831E+03 0.  0.
          5    1    3    3  502    0  0.24674953767E+02 -0.32691262464E+02 -0.14946721479E+02  0.43800101231E+02  0.41800000000E+01 0. -1.
         -5    1    3    3    0  502 -0.16504434979E+02  0.96999160986E+02 -0.68295250824E+02  0.11984551427E+03  0.41800000000E+01 0. -1.
        -11    1    1    2    0    0 -0.13603937628E+02  0.85099997768E+01 -0.81627263208E+02  0.83189526469E+02  0.00000000000E+00 0.  1.
         11    1    1    2    0    0  0.54334188398E+01 -0.72817898299E+02 -0.61005780712E+02  0.95150794181E+02  0.00000000000E+00 0. -1.
</event>
<event>
 7    1  0.2480409E-009  0.8128190E+02  0.7561462E-02  0.1325452E+00
         -1   -1    0    0    0  501 -0.00000000000E+00  0.00000000000E+00  0.49115942901E+03  0.49115942901E+03  0.00000000000E+00 0.  1.
          1   -1    0    0  501    0  0.00000000000E+00 -0.00000000000E+00 -0.39364769147E+02  0.39364769147E+02  0.00000000000E+00 0. -1.
         25    2    1    2    0    0 -0.41996391194E+02 -0.23095616103E+02  0.10890433785E+03  0.17264039414E+03  0.12508975389E+03 0.  0.
          5    1    3    3  502    0 -0.45379760181E+02  0.91441489690E+01 -0.11497328328E+02  0.47881092857E+02  0.41800000000E+01 0. -1.
         -5    1    3    3    0  502  0.33833689877E+01 -0.32239765072E+02  0.12040166618E+03  0.12475930128E+03  0.41800000000E+01 0. -1.
        -11    1    1    2    0    0  0.19958491118E+02  0.46893246662E+02  0.29898477710E+03  0.30329723851E+03  0.00000000000E+00 0.  1.
         11    1    1    2    0    0  0.22037900075E+02 -0.23797630559E+02  0.43905544912E+02  0.54586565508E+02  0.00000000000E+00 0. -1.
</event>
<event>
 7    1  0.2480409E-009  0.1376517E+03  0.7561462E-02  0.1216524E+00
         -1   -1    0    0    0  501 -0.00000000000E+00  0.00000000000E+00  0.36744869320E+02  0.36744869320E+02  0.00000000000E+00 0.  1.
          1   -1    0    0  501    0  0.00000000000E+00 -0.00000000000E+00 -0.62585131267E+03  0.62585131267E+03  0.00000000000E+00 0. -1.
         25    2    1    2    0    0  0.36226855824E+02  0.95260265789E+02 -0.25438143453E+03  0.30123868846E+03  0.12509168586E+03 0.  0.
          5    1    3    3  502    0  0.62450792396E+02  0.15145734826E+02 -0.54847457252E+02  0.84588478655E+02  0.41800000000E+01 0. -1.
         -5    1    3    3    0  502 -0.26223936572E+02  0.80114530964E+02 -0.19953397728E+03  0.21665020981E+03  0.41800000000E+01 0. -1.
        -11    1    1    2    0    0  0.18517109842E+02 -0.23486135481E+01 -0.15031783219E+02  0.23965680655E+02  0.00000000000E+00 0. -1.
         11    1    1    2    0    0 -0.54743965666E+02 -0.92911652241E+02 -0.31969322560E+03  0.33739181287E+03  0.00000000000E+00 0.  1.
</event>
<event>
 7    1  0.2480409E-009  0.1098272E+03  0.7561462E-02  0.1260890E+00
          1   -1    0    0  501    0  0.00000000000E+00  0.00000000000E+00  0.36709377754E+02  0.36709377754E+02  0.00000000000E+00 0. -1.
         -1   -1    0    0    0  501 -0.00000000000E+00 -0.00000000000E+00 -0.45147326173E+03  0.45147326173E+03  0.00000000000E+00 0.  1.
         25    2    1    2    0    0  0.52680846922E+02  0.27140150267E+02 -0.16688982140E+03  0.21682092688E+03  0.12508893818E+03 0.  0.
          5    1    3    3  502    0  0.23700920239E+02  0.63258190881E+02 -0.33417450286E+02  0.75481989358E+02  0.41800000000E+01 0. -1.
         -5    1    3    3    0  502  0.28979926683E+02 -0.36118040614E+02 -0.13347237111E+03  0.14133893752E+03  0.41800000000E+01 0. -1.
        -11    1    1    2    0    0  0.24391256114E+02 -0.10884631411E+02 -0.10358183693E+03  0.10697011507E+03  0.00000000000E+00 0.  1.
         11    1    1    2    0    0 -0.77072103036E+02 -0.16255518856E+02 -0.14429222565E+03  0.16439159754E+03  0.00000000000E+00 0. -1.
</event>
<event>
 7    1  0.2480409E-009  0.1113809E+03  0.7561462E-02  0.1258034E+00
         -2   -1    0    0    0  501 -0.00000000000E+00  0.00000000000E+00  0.64415258996E+02  0.64415258996E+02  0.00000000000E+00 0.  1.
          2   -1    0    0  501    0  0.00000000000E+00 -0.00000000000E+00 -0.25980968763E+03  0.25980968763E+03  0.00000000000E+00 0. -1.
         25    2    1    2    0    0 -0.36514768644E+02 -0.21303713364E+02 -0.47770811416E+02  0.14041521128E+03  0.12508878688E+03 0.  0.
          5    1    3    3  502    0  0.22184282201E+02 -0.57821016081E+02 -0.15329940478E+02  0.63936622937E+02  0.41800000000E+01 0. -1.
         -5    1    3    3    0  502 -0.58699050846E+02  0.36517302717E+02 -0.32440870937E+02  0.76478588344E+02  0.41800000000E+01 0. -1.
        -11    1    1    2    0    0  0.29822558787E+02 -0.28458821348E+02 -0.18339905316E+02  0.45118085643E+02  0.00000000000E+00 0.  1.
         11    1    1    2    0    0  0.66922098574E+01  0.49762534712E+02 -0.12928371190E+03  0.13869164970E+03  0.00000000000E+00 0. -1.
</event>
<event>
 7    1  0.2480409E-009  0.1172542E+03  0.7561462E-02  0.1247697E+00
          2   -1    0    0  501    0  0.00000000000E+00  0.00000000000E+00  0.45984409905E+03  0.45984409905E+03  0.00000000000E+00 0. -1.
         -2   -1    0    0    0  501 -0.00000000000E+00 -0.00000000000E+00 -0.32664462623E+02  0.32664462623E+02  0.00000000000E+00 0.  1.
         25    2    1    2    0    0  0.43616059897E+02  0.30414616921E+02  0.23438500504E+03  0.27094448240E+03  0.12508865795E+03 0.  0.
          5    1    3    3  502    0  0.83996834822E+02  0.46253564592E+01  0.17737153248E+03  0.19635425923E+03  0.41800000000E+01 0.  1.
         -5    1    3    3    0  502 -0.40380774925E+02  0.25789260461E+02  0.57013472563E+02  0.74590223169E+02  0.41800000000E+01 0.  1.
        -11    1    1    2    0    0  0.32066499069E+01  0.27513712958E+02  0.92995635259E+02  0.97033371484E+02  0.00000000000E+00 0. -1.
         11    1    1    2    0    0 -0.46822709804E+02 -0.57928329878E+02  0.99798996126E+02  0.12453070779E+03  0.00000000000E+00 0.  1.
</event>
<event>
 7    1  0.2480409E-009  0.1490550E+03  0.7561462E-02  0.1201639E+00
          2   -1    0    0  501    0  0.00000000000E+00  0.00000000000E+00  0.14400143685E+03  0.14400143685E+03  0.00000000000E+00 0. -1.
         -2   -1    0    0    0  501 -0.00000000000E+00 -0.00000000000E+00 -0.17785698243E+03  0.17785698243E+03  0.00000000000E+00 0.  1.
         25    2    1    2    0    0 -0.44352275050E+02 -0.98957660843E+02  0.25266425771E+02  0.16746886388E+03  0.12509070771E+03 0.  0.
          5    1    3    3  502    0  0.36619642676E+02 -0.45778021295E+02  0.37530274373E+02  0.69732484237E+02  0.41800000000E+01 0.  1.
         -5    1    3    3    0  502 -0.80971917726E+02 -0.53179639548E+02 -0.12263848603E+02  0.97736379641E+02  0.41800000000E+01 0.  1.
        -11    1    1    2    0    0  0.21073977161E+02 -0.15125844993E+02 -0.73315819592E+01  0.26956553826E+02  0.00000000000E+00 0. -1.
         11    1    1    2    0    0  0.23278297889E+02  0.11408350584E+03 -0.51790389387E+02  0.12743300157E+03  0.00000000000E+00 0.  1.
</event>
<event>
 7    1  0.2712150E-009  0.2526166E+03  0.7561462E-02  0.1111662E+00
         -2   -1    0    0    0  501 -0.00000000000E+00  0.00000000000E+00  0.62811293572E+02  0.62811293572E+02  0.00000000000E+00 0.  1.
          2   -1    0    0  501    0  0.00000000000E+00 -0.00000000000E+00 -0.11989494130E+04  0.11989494130E+04  0.00000000000E+00 0. -1.
         25    2    1    2    0    0  0.17790467156E+03 -0.17019988023E+03 -0.70008879424E+03  0.75258934458E+03  0.12509328662E+03 0.  0.
          5    1    3    3  502    0  0.42872142867E+02 -0.60403397146E+02 -0.82584676622E+02  0.11101482889E+03  0.41800000000E+01 0.  1.
         -5    1    3    3    0  502  0.13503252870E+03 -0.10979648308E+03 -0.61750411762E+03  0.64157451569E+03  0.41800000000E+01 0.  1.
        -11    1    1    2    0    0 -0.80336109653E+02  0.29175359407E+02 -0.97436285146E+02  0.12961065455E+03  0.00000000000E+00 0.  1.
         11    1    1    2    0    0 -0.97568561911E+02  0.14102452082E+03 -0.33861304004E+03  0.37956070744E+03  0.00000000000E+00 0. -1.
</event>
<event>
 7    1  0.2480409E-009  0.1648783E+03  0.7561462E-02  0.1183297E+00
          1   -1    0    0  501    0  0.00000000000E+00  0.00000000000E+00  0.11877331161E+04  0.11877331161E+04  0.00000000000E+00 0. -1.
         -1   -1    0    0    0  501 -0.00000000000E+00 -0.00000000000E+00 -0.23783560627E+02  0.23783560627E+02  0.00000000000E+00 0.  1.
         25    2    1    2    0    0 -0.81542959036E+02  0.97484542396E+02  0.57394482713E+03  0.60101005323E+03  0.12509168366E+03 0.  0.
          5    1    3    3  502    0 -0.73525055860E+02  0.12485729016E+03  0.52023446662E+03  0.54005245061E+03  0.41800000000E+01 0.  1.
         -5    1    3    3    0  502 -0.80179031765E+01 -0.27372747768E+02  0.53710360504E+02  0.60957602620E+02  0.41800000000E+01 0.  1.
        -11    1    1    2    0    0 -0.19656291541E+02 -0.23356844985E+02  0.91374859743E+02  0.96339384458E+02  0.00000000000E+00 0.  1.
         11    1    1    2    0    0  0.10119925058E+03 -0.74127697411E+02  0.49862986865E+03  0.51416723909E+03  0.00000000000E+00 0. -1.
</event>
<event>
 7    1  0.2480409E-009  0.1299322E+03  0.7561462E-02  0.1227556E+00
          2   -1    0    0  501    0  0.00000000000E+00  0.00000000000E+00  0.68095346291E+02  0.68095346291E+02  0.00000000000E+00 0. -1.
         -2   -1    0    0    0  501 -0.00000000000E+00 -0.00000000000E+00 -0.38731827381E+03  0.38731827381E+03  0.00000000000E+00 0.  1.
         25    2    1    2    0    0 -0.84380669906E+01 -0.11953207354E+03 -0.16541810285E+03  0.23951912241E+03  0.12508854332E+03 0.  0.
          5    1    3    3  502    0  0.23670811166E+02 -0.42841671215E+02 -0.14599404451E+03  0.15403716930E+03  0.41800000000E+01 0. -1.
         -5    1    3    3    0  502 -0.32108878156E+02 -0.76690402324E+02 -0.19424058342E+02  0.85481953110E+02  0.41800000000E+01 0. -1.
        -11    1    1    2    0    0 -0.17483526252E+02  0.61482533687E+02 -0.13536844527E+03  0.14970100739E+03  0.00000000000E+00 0.  1.
         11    1    1    2    0    0  0.25921593243E+02  0.58049539852E+02 -0.18436379402E+02  0.66193490304E+02  0.00000000000E+00 0. -1.
</event>
<event>
 7    1  0.2480409E-009  0.5925332E+02  0.7561462E-02  0.1400992E+00
         -2   -1    0    0    0  501 -0.00000000000E+00  0.00000000000E+00  0.26948093777E+02  0.26948093777E+02  0.00000000000E+00 0.  1.
          2   -1    0    0  501    0  0.00000000000E+00 -0.00000000000E+00 -0.49001505571E+03  0.49001505571E+03  0.00000000000E+00 0. -1.
         25    2    1    2    0    0 -0.24256610229E+02  0.18829987523E+01 -0.21863203608E+03  0.25306068191E+03  0.12509121752E+03 0.  0.
          5    1    3    3  502    0 -0.92630024475E+01 -0.18883315436E+01 -0.23198105640E+03  0.23221122268E+03  0.41800000000E+01 0. -1.
         -5    1    3    3    0  502 -0.14993607781E+02  0.37713302959E+01  0.13349020317E+02  0.20849459224E+02  0.41800000000E+01 0. -1.
        -11    1    1    2    0    0 -0.16912870164E+02  0.33721207918E+02 -0.15219427310E+03  0.15680006953E+03  0.00000000000E+00 0. -1.
         11    1    1    2    0    0  0.41169480393E+02 -0.35604206670E+02 -0.92240652744E+02  0.10710239805E+03  0.00000000000E+00 0.  1.
</event>
<event>
 7    1  0.2480409E-009  0.1176764E+03  0.7561462E-02  0.1246980E+00
         -1   -1    0    0    0  501 -0.00000000000E+00  0.00000000000E+00  0.82711899959E+02  0.82711899959E+02  0.00000000000E+00 0.  1.
          1   -1    0    0  501    0  0.00000000000E+00 -0.00000000000E+00 -0.43256841185E+03  0.43256841185E+03  0.00000000000E+00 0. -1.
         25    2    1    2    0    0  0.70225854723E+02 -0.70471777783E+02 -0.34030000083E+03  0.37596622750E+03  0.12509425055E+03 0.  0.
          5    1    3    3  502    0  0.33966804156E+02 -0.27107442464E+02 -0.30728654829E+03  0.31037244141E+03  0.41800000000E+01 0.  1.
         -5    1    3    3    0  502  0.36259050567E+02 -0.43364335320E+02 -0.33013452532E+02  0.65593786091E+02  0.41800000000E+01 0.  1.
        -11    1    1    2    0    0 -0.22203252340E+02 -0.21722925727E+02  0.11732871123E+02  0.33204369914E+02  0.00000000000E+00 0.  1.
         11    1    1    2    0    0 -0.48022602382E+02  0.92194703510E+02 -0.21289382184E+02  0.10610971439E+03  0.00000000000E+00 0. -1.
</event>
<event>
 7    1  0.2480409E-009  0.1038601E+03  0.7561462E-02  0.1272382E+00
          1   -1    0    0  501    0  0.00000000000E+00  0.00000000000E+00  0.17026166737E+02  0.17026166737E+02  0.00000000000E+00 0. -1.
         -1   -1    0    0    0  501 -0.00000000000E+00 -0.00000000000E+00 -0.73982066641E+03  0.73982066641E+03  0.00000000000E+00 0.  1.
         25    2    1    2    0    0  0.24381261635E+02 -0.13181644715E+02 -0.39841636987E+03  0.41851005501E+03  0.12508741217E+03 0.  0.
          5    1    3    3  502    0  0.11314540667E+02  0.52772568647E+02 -0.24574460996E+03  0.25163634188E+03  0.41800000000E+01 0. -1.
         -5    1    3    3    0  502  0.13066720969E+02 -0.65954213361E+02 -0.15267175991E+03  0.16687371313E+03  0.41800000000E+01 0. -1.
        -11    1    1    2    0    0  0.16211149447E+02  0.36123198122E+02 -0.76792981175E+02  0.86399356287E+02  0.00000000000E+00 0. -1.
         11    1    1    2    0    0 -0.40592411082E+02 -0.22941553407E+02 -0.24758514862E+03  0.25193742185E+03  0.00000000000E+00 0.  1.
</event>
<event>
 7    1  0.2480409E-009  0.1565336E+03  0.7561462E-02  0.1192667E+00
          2   -1    0    0  501    0  0.00000000000E+00  0.00000000000E+00  0.12028001051E+04  0.12028001051E+04  0.00000000000E+00 0.  1.
         -2   -1    0    0    0  501 -0.00000000000E+00 -0.00000000000E+00 -0.36108601744E+02  0.36108601744E+02  0.00000000000E+00 0. -1.
         25    2    1    2    0    0  0.33678561401E+02  0.13891658954E+03  0.92129807551E+03  0.94067480946E+03  0.12508752486E+03 0.  0.
          5    1    3    3  502    0  0.13668102796E+02  0.33843927094E+01  0.72005518213E+01  0.16358224065E+02  0.41800000000E+01 0. -1.
         -5    1    3    3    0  502  0.20010458605E+02  0.13553219683E+03  0.91409752369E+03  0.92431658540E+03  0.41800000000E+01 0. -1.
        -11    1    1    2    0    0 -0.57668960673E+02 -0.91149172956E+02  0.20350878506E+03  0.23032521867E+03  0.00000000000E+00 0.  1.
         11    1    1    2    0    0  0.23990399273E+02 -0.47767416585E+02  0.41884642804E+02  0.67908678733E+02  0.00000000000E+00 0. -1.
</event>
<event>
 7    1  0.2480409E-009  0.1117279E+03  0.7561462E-02  0.1257403E+00
          2   -1    0    0  501    0  0.00000000000E+00  0.00000000000E+00  0.64290536998E+03  0.64290536998E+03  0.00000000000E+00 0. -1.
         -2   -1    0    0    0  501 -0.00000000000E+00 -0.00000000000E+00 -0.33257902841E+02  0.33257902841E+02  0.00000000000E+00 0.  1.
         25    2    1    2    0    0  0.41646583892E+02  0.53167644900E+02  0.49052976055E+03  0.51071310067E+03  0.12508872370E+03 0.  0.
          5    1    3    3  502    0 -0.29468484425E+02  0.20651087370E+02  0.33124520568E+03  0.33322022398E+03  0.41800000000E+01 0. -1.
         -5    1    3    3    0  502  0.71115068317E+02  0.32516557529E+02  0.15928455486E+03  0.17749287668E+03  0.41800000000E+01 0. -1.
        -11    1    1    2    0    0  0.10386492191E+02 -0.55861431781E+02  0.88040433980E+02  0.10478309404E+03  0.00000000000E+00 0.  1.
         11    1    1    2    0    0 -0.52033076083E+02  0.26937868813E+01  0.31077272615E+02  0.60667078120E+02  0.00000000000E+00 0. -1.
</event>
<event>
 7    1  0.2480409E-009  0.6813516E+02  0.7561462E-02  0.1366552E+00
         -1   -1    0    0    0  501 -0.00000000000E+00  0.00000000000E+00  0.54971971887E+02  0.54971971887E+02  0.00000000000E+00 0.  1.
          1   -1    0    0  501    0  0.00000000000E+00 -0.00000000000E+00 -0.26776849301E+03  0.26776849301E+03  0.00000000000E+00 0. -1.
         25    2    1    2    0    0 -0.15135283303E+02 -0.59087936225E+02 -0.15571690661E+03  0.20884536819E+03  0.12509265287E+03 0.  0.
          5    1    3    3  502    0 -0.95044606649E+01 -0.10716431496E+02  0.20849424180E+02  0.25638790244E+02  0.41800000000E+01 0. -1.
         -5    1    3    3    0  502 -0.56308226383E+01 -0.48371504729E+02 -0.17656633079E+03  0.18320657795E+03  0.41800000000E+01 0. -1.
        -11    1    1    2    0    0 -0.11289375826E+02  0.51497269262E+01  0.15390836625E+02  0.19769864592E+02  0.00000000000E+00 0.  1.
         11    1    1    2    0    0  0.26424659129E+02  0.53938209299E+02 -0.72470451133E+02  0.94125232111E+02  0.00000000000E+00 0. -1.
</event>
<event>
 7    1  0.2480409E-009  0.1031687E+03  0.7561462E-02  0.1273770E+00
         -1   -1    0    0    0  501 -0.00000000000E+00  0.00000000000E+00  0.62857986785E+01  0.62857986785E+01  0.00000000000E+00 0.  1.
          1   -1    0    0  501    0  0.00000000000E+00 -0.00000000000E+00 -0.29675613536E+04  0.29675613536E+04  0.00000000000E+00 0. -1.
         25    2    1    2    0    0 -0.23811300715E+02 -0.23702499651E+02 -0.26136778768E+04  0.26168852330E+04  0.12508993667E+03 0.  0.
          5    1    3    3  502    0  0.68905830447E+01 -0.69926754587E+02 -0.17510919488E+04  0.17525061246E+04  0.41800000000E+01 0.  1.
         -5    1    3    3    0  502 -0.30701883760E+02  0.46224254936E+02 -0.86258592801E+03  0.86437910838E+03  0.41800000000E+01 0.  1.
        -11    1    1    2    0    0  0.26200973926E+02  0.48639771873E+02 -0.26262955676E+03  0.26837772361E+03  0.00000000000E+00 0. -1.
         11    1    1    2    0    0 -0.23896732107E+01 -0.24937272221E+02 -0.84968121397E+02  0.88584195755E+02  0.00000000000E+00 0.  1.
</event>
<event>
 7    1  0.2480409E-009  0.8947402E+02  0.7561462E-02  0.1304130E+00
         -2   -1    0    0    0  501 -0.00000000000E+00  0.00000000000E+00  0.29026140985E+03  0.29026140985E+03  0.00000000000E+00 0.  1.
          2   -1    0    0  501    0  0.00000000000E+00 -0.00000000000E+00 -0.46105155919E+02  0.46105155919E+02  0.00000000000E+00 0. -1.
         25    2    1    2    0    0 -0.44162796851E+01 -0.18196073516E+02  0.83223447539E+02  0.15140970925E+03  0.12509259457E+03 0.  0.
          5    1    3    3  502    0 -0.47243990785E+02 -0.52343738325E+02  0.55768440672E+02  0.89996960960E+02  0.41800000000E+01 0. -1.
         -5    1    3    3    0  502  0.42827711099E+02  0.34147664809E+02  0.27455006866E+02  0.61412748285E+02  0.41800000000E+01 0. -1.
        -11    1    1    2    0    0 -0.22355709625E+02  0.13734306102E+02  0.15496082715E+03  0.15716636685E+03  0.00000000000E+00 0.  1.
         11    1    1    2    0    0  0.26771989310E+02  0.44617674141E+01  0.59719792354E+01  0.27790489669E+02  0.00000000000E+00 0. -1.
</event>
<event>
 7    1  0.2480409E-009  0.1238416E+03  0.7561462E-02  0.1236891E+00
          1   -1    0    0  501    0  0.00000000000E+00  0.00000000000E+00  0.28033091576E+03  0.28033091576E+03  0.00000000000E+00 0. -1.
         -1   -1    0    0    0  501 -0.00000000000E+00 -0.00000000000E+00 -0.74673941668E+02  0.74673941668E+02  0.00000000000E+00 0.  1.
         25    2    1    2    0    0 -0.78138044967E+02  0.37028660655E+02  0.16289410687E+03  0.22284134957E+03  0.12508837373E+03 0.  0.
          5    1    3    3  502    0 -0.10600711155E+03  0.42109517312E+02  0.92738220148E+02  0.14706654624E+03  0.41800000000E+01 0. -1.
         -5    1    3    3    0  502  0.27869066585E+02 -0.50808566568E+01  0.70155886727E+02  0.75774803326E+02  0.41800000000E+01 0. -1.
        -11    1    1    2    0    0  0.62858835667E+02 -0.53424878781E+02 -0.15453421859E+01  0.82509629599E+02  0.00000000000E+00 0.  1.
         11    1    1    2    0    0  0.15279209300E+02  0.16396218126E+02  0.44308209405E+02  0.49653878261E+02  0.00000000000E+00 0. -1.
</event>
<event>
 7    1  0.2480409E-009  0.1183477E+03  0.7561462E-02  0.1245848E+00
          1   -1    0    0  501    0  0.00000000000E+00  0.00000000000E+00  0.69105614668E+02  0.69105614668E+02  0.00000000000E+00 0. -1.
         -1   -1    0    0    0  501 -0.00000000000E+00 -0.00000000000E+00 -0.27293516504E+03  0.27293516504E+03  0.00000000000E+00 0.  1.
         25    2    1    2    0    0 -0.70729360986E+02  0.32895479599E+02 -0.75786877832E+02  0.16575131470E+03  0.12508034374E+03 0.  0.
          5    1    3    3  502    0 -0.95804520701E+02  0.32414599996E+02 -0.91004560932E+02  0.13611948791E+03  0.41800000000E+01 0.  1.
         -5    1    3    3    0  502  0.25075159715E+02  0.48087960343E+00  0.15217683099E+02  0.29631826788E+02  0.41800000000E+01 0.  1.
        -11    1    1    2    0    0  0.76134805552E+02  0.57757793972E+00 -0.11887207008E+03  0.14116448299E+03  0.00000000000E+00 0.  1.
         11    1    1    2    0    0 -0.54054445659E+01 -0.33473057539E+02 -0.91706024565E+01  0.35124982012E+02  0.00000000000E+00 0. -1.
</event>
<event>
 7    1  0.2480409E-009  0.7814199E+02  0.7561462E-02  0.1334408E+00
          2   -1    0    0  501    0  0.00000000000E+00  0.00000000000E+00  0.50936096370E+03  0.50936096370E+03  0.00000000000E+00 0. -1.
         -2   -1    0    0    0  501 -0.00000000000E+00 -0.00000000000E+00 -0.25160488012E+02  0.25160488012E+02  0.00000000000E+00 0.  1.
         25    2    1    2    0    0  0.29929432618E+01 -0.37723200268E+02  0.24577614755E+03  0.27836241413E+03  0.12509085237E+03 0.  0.
          5    1    3    3  502    0 -0.24320765988E+02 -0.53521664975E+02  0.23855064206E+03  0.24572331902E+03  0.41800000000E+01 0. -1.
         -5    1    3    3    0  502  0.27313709249E+02  0.15798464708E+02  0.72255054859E+01  0.32639095110E+02  0.41800000000E+01 0. -1.
        -11    1    1    2    0    0 -0.18076838763E+02 -0.61735186633E+01  0.73471192215E+01  0.20466181696E+02  0.00000000000E+00 0.  1.
         11    1    1    2    0    0  0.15083895501E+02  0.43896718931E+02  0.23107720892E+03  0.23569285589E+03  0.00000000000E+00 0. -1.
</event>
<event>
 7    1  0.3251157E-009  0.1562152E+03  0.7561462E-02  0.1193037E+00
          1   -1    0    0  501    0  0.00000000000E+00  0.00000000000E+00  0.52511638928E+03  0.52511638928E+03  0.00000000000E+00 0. -1.
         -1   -1    0    0    0  501 -0.00000000000E+00 -0.00000000000E+00 -0.68132121527E+02  0.68132121527E+02  0.00000000000E+00 0.  1.
         25    2    1    2    0    0  0.38455273229E+02  0.14962003396E+03  0.24169067887E+03  0.31293272936E+03  0.12509015249E+03 0.  0.
          5    1    3    3  502    0  0.38983409506E+02  0.91227522270E+02  0.47430022414E+02  0.11004202135E+03  0.41800000000E+01 0.  1.
         -5    1    3    3    0  502 -0.52813627638E+00  0.58392511686E+02  0.19426065646E+03  0.20289070801E+03  0.41800000000E+01 0.  1.
        -11    1    1    2    0    0 -0.13852947465E+02 -0.43351430099E+02  0.81890133630E+01  0.46241870474E+02  0.00000000000E+00 0.  1.
         11    1    1    2    0    0 -0.24602325764E+02 -0.10626860386E+03  0.20710457552E+03  0.23407391098E+03  0.00000000000E+00 0. -1.
</event>
<event>
 7    1  0.2480409E-009  0.2075664E+03  0.7561462E-02  0.1143508E+00
         -1   -1    0    0    0  501 -0.00000000000E+00  0.00000000000E+00  0.62327763729E+02  0.62327763729E+02  0.00000000000E+00 0.  1.
          1   -1    0    0  501    0  0.00000000000E+00 -0.00000000000E+00 -0.88247303358E+03  0.88247303358E+03  0.00000000000E+00 0. -1.
         25    2    1    2    0    0  0.82936913319E+02 -0.17356063206E+03 -0.58484753707E+03  0.62824844779E+03  0.12509055098E+03 0.  0.
          5    1    3    3  502    0  0.65761242049E+02 -0.60771792143E+02 -0.40815167930E+03  0.41787918995E+03  0.41800000000E+01 0.  1.
         -5    1    3    3    0  502  0.17175671269E+02 -0.11278883991E+03 -0.17669585777E+03  0.21036925784E+03  0.41800000000E+01 0.  1.
        -11    1    1    2    0    0 -0.39192756154E+02  0.16116364187E+03 -0.17613077077E+03  0.24193354461E+03  0.00000000000E+00 0. -1.
         11    1    1    2    0    0 -0.43744157165E+02  0.12396990182E+02 -0.59166962010E+02  0.74618804903E+02  0.00000000000E+00 0.  1.
</event>
<event>
 7    1  0.2480409E-009  0.1194389E+03  0.7561462E-02  0.1244026E+00
         -2   -1    0    0    0  501 -0.00000000000E+00  0.00000000000E+00  0.99184873103E+02  0.99184873103E+02  0.00000000000E+00 0.  1.
          2   -1    0    0  501    0  0.00000000000E+00 -0.00000000000E+00 -0.21619804980E+03  0.21619804980E+03  0.00000000000E+00 0. -1.
         25    2    1    2    0    0 -0.20071668478E+02  0.79785178730E+02 -0.55830689294E+01  0.14981190811E+03  0.12507553931E+03 0.  0.
          5    1    3    3  502    0 -0.45704238272E+02  0.98483957860E+02 -0.26169607450E+02  0.11175995752E+03  0.41800000000E+01 0.  1.
         -5    1    3    3    0  502  0.25632569794E+02 -0.18698779129E+02  0.20586538521E+02  0.38051950586E+02  0.41800000000E+01 0.  1.
        -11    1    1    2    0    0 -0.15443982394E+02 -0.64436701024E+01 -0.74051733602E+02  0.75919014259E+02  0.00000000000E+00 0. -1.
         11    1    1    2    0    0  0.35515650873E+02 -0.73341508628E+02 -0.37378374170E+02  0.89652000537E+02  0.00000000000E+00 0.  1.
</event>
<event>
 7    1  0.2480409E-009  0.1302887E+03  0.7561462E-02  0.1227028E+00
         -1   -1    0    0    0  501 -0.00000000000E+00  0.00000000000E+00  0.11775205039E+03  0.11775205039E+03  0.00000000000E+00 0.  1.
          1   -1    0    0  501    0  0.00000000000E+00 -0.00000000000E+00 -0.23146481375E+03  0.23146481375E+03  0.00000000000E+00 0. -1.
         25    2    1    2    0    0  0.78644910687E+01 -0.64820676031E+02 -0.15798576489E+03  0.21182576728E+03  0.12508830287E+03 0.  0.
          5    1    3    3  502    0 -0.56431681627E+02 -0.22307378091E+02 -0.48145631221E+02  0.77573371811E+02  0.41800000000E+01 0.  1.
         -5    1    3    3    0  502  0.64296172695E+02 -0.42513297940E+02 -0.10984013367E+03  0.13425239547E+03  0.41800000000E+01 0.  1.
        -11    1    1    2    0    0  0.13648116747E+02 -0.25925195725E+02 -0.81440386653E+01  0.30409081372E+02  0.00000000000E+00 0.  1.
         11    1    1    2    0    0 -0.21512607815E+02  0.90745871756E+02  0.52417040189E+02  0.10698201549E+03  0.00000000000E+00 0. -1.
</event>
<event>
 7    1  0.2480409E-009  0.8027745E+02  0.7561462E-02  0.1328266E+00
         -1   -1    0    0    0  501 -0.00000000000E+00  0.00000000000E+00  0.34704851077E+03  0.34704851077E+03  0.00000000000E+00 0.  1.
          1   -1    0    0  501    0  0.00000000000E+00 -0.00000000000E+00 -0.56326748981E+02  0.56326748981E+02  0.00000000000E+00 0. -1.
         25    2    1    2    0    0 -0.44616206927E+01 -0.14153931826E+02  0.28221944466E+03  0.30905617324E+03  0.12509062086E+03 0.  0.
          5    1    3    3  502    0  0.36604620325E+02 -0.17175890577E+02  0.23308549827E+02  0.46857980550E+02  0.41800000000E+01 0. -1.
         -5    1    3    3    0  502 -0.41066241018E+02  0.30219587510E+01  0.25891089484E+03  0.26219819269E+03  0.41800000000E+01 0. -1.
        -11    1    1    2    0    0  0.40531654979E+02  0.12472530814E+02  0.30319096572E+02  0.52130861275E+02  0.00000000000E+00 0.  1.
         11    1    1    2    0    0 -0.36070034287E+02  0.16814010121E+01 -0.21816779448E+02  0.42188225233E+02  0.00000000000E+00 0. -1.
</event>
<event>
 7    1  0.2480409E-009  0.1594941E+03  0.7561462E-02  0.1189269E+00
          4   -1    0    0  501    0  0.00000000000E+00  0.00000000000E+00  0.53852530058E+03  0.53852530058E+03  0.00000000000E+00 0. -1.
         -4   -1    0    0    0  501 -0.00000000000E+00 -0.00000000000E+00 -0.50067638846E+02  0.50067638846E+02  0.00000000000E+00 0.  1.
         25    2    1    2    0    0 -0.47795003154E+01  0.12324525511E+03  0.25947108772E+03  0.31334877019E+03  0.12509983969E+03 0.  0.
          5    1    3    3  502    0 -0.47901446084E+02  0.14062151408E+02  0.38815471830E+02  0.63375120454E+02  0.41800000000E+01 0. -1.
         -5    1    3    3    0  502  0.43121945769E+02  0.10918310370E+03  0.22065561589E+03  0.24997364974E+03  0.41800000000E+01 0. -1.
        -11    1    1    2    0    0 -0.37775291039E+02 -0.27732631749E+02  0.88178508807E+02  0.99857502934E+02  0.00000000000E+00 0. -1.
         11    1    1    2    0    0  0.42554791355E+02 -0.95512623358E+02  0.14080806521E+03  0.17538666630E+03  0.00000000000E+00 0.  1.
</event>
<event>
 7    1  0.2480409E-009  0.9846330E+02  0.7561462E-02  0.1283561E+00
          2   -1    0    0  501    0  0.00000000000E+00  0.00000000000E+00  0.82136388795E+03  0.82136388795E+03  0.00000000000E+00 0.  1.
         -2   -1    0    0    0  501 -0.00000000000E+00 -0.00000000000E+00 -0.22002879314E+02  0.22002879314E+02  0.00000000000E+00 0. -1.
         25    2    1    2    0    0 -0.63014635705E+02  0.33300308936E+02  0.53008443346E+03  0.54928740401E+03  0.12508953083E+03 0.  0.
          5    1    3    3  502    0  0.21659958630E+02 -0.92021166646E+00  0.16329502492E+02  0.27461348274E+02  0.41800000000E+01 0. -1.
         -5    1    3    3    0  502 -0.84674594335E+02  0.34220520603E+02  0.51375493096E+03  0.52182605574E+03  0.41800000000E+01 0. -1.
        -11    1    1    2    0    0  0.13107994997E+02  0.10676744271E+02  0.20457681995E+00  0.16907224869E+02  0.00000000000E+00 0. -1.
         11    1    1    2    0    0  0.49906640708E+02 -0.43977053208E+02  0.26907199836E+03  0.27717213839E+03  0.00000000000E+00 0.  1.
</event>
<event>
 7    1  0.2480409E-009  0.8776382E+02  0.7561462E-02  0.1308359E+00
          2   -1    0    0  501    0  0.00000000000E+00  0.00000000000E+00  0.54089073988E+03  0.54089073988E+03  0.00000000000E+00 0.  1.
         -2   -1    0    0    0  501 -0.00000000000E+00 -0.00000000000E+00 -0.17571883391E+02  0.17571883391E+02  0.00000000000E+00 0. -1.
         25    2    1    2    0    0 -0.12280344107E+02 -0.22529475921E+02  0.37549294436E+03  0.39661275902E+03  0.12509334601E+03 0.  0.
          5    1    3    3  502    0 -0.62081824047E+02 -0.39150315810E+01  0.28354199031E+03  0.29031536821E+03  0.41800000000E+01 0.  1.
         -5    1    3    3    0  502  0.49801479939E+02 -0.18614444340E+02  0.91950954044E+02  0.10629739080E+03  0.41800000000E+01 0.  1.
        -11    1    1    2    0    0 -0.21491517172E+02  0.11166523962E+02  0.28931035017E+02  0.37730377084E+02  0.00000000000E+00 0. -1.
         11    1    1    2    0    0  0.33771861279E+02  0.11362951960E+02  0.11889487712E+03  0.12411948718E+03  0.00000000000E+00 0.  1.
</event>
<event>
 7    1  0.2480409E-009  0.1108399E+03  0.7561462E-02  0.1259022E+00
         -1   -1    0    0    0  501 -0.00000000000E+00  0.00000000000E+00  0.13367072352E+03  0.13367072352E+03  0.00000000000E+00 0.  1.
          1   -1    0    0  501    0  0.00000000000E+00 -0.00000000000E+00 -0.97958908487E+02  0.97958908487E+02  0.00000000000E+00 0. -1.
         25    2    1    2    0    0 -0.31308358796E+02  0.12283581909E+02  0.82159502474E+01  0.12978995820E+03  0.12508729630E+03 0.  0.
          5    1    3    3  502    0  0.45138422849E+02  0.19859267573E+02 -0.10542520581E+02  0.50601233839E+02  0.41800000000E+01 0. -1.
         -5    1    3    3    0  502 -0.76446781646E+02 -0.75756856639E+01  0.18758470829E+02  0.79188724356E+02  0.41800000000E+01 0. -1.
        -11    1    1    2    0    0 -0.18151430058E+02  0.26694638930E+02  0.21049556306E+02  0.38537799385E+02  0.00000000000E+00 0.  1.
         11    1    1    2    0    0  0.49459788854E+02 -0.38978220839E+02  0.64463084829E+01  0.63301874430E+02  0.00000000000E+00 0. -1.
</event>
<event>
 7    1  0.2480409E-009  0.1255018E+03  0.7561462E-02  0.1234287E+00
          4   -1    0    0  501    0  0.00000000000E+00  0.00000000000E+00  0.25335453293E+03  0.25335453293E+03  0.00000000000E+00 0.  1.
         -4   -1    0    0    0  501 -0.00000000000E+00 -0.00000000000E+00 -0.89619265591E+02  0.89619265591E+02  0.00000000000E+00 0. -1.
         25    2    1    2    0    0  0.41646822071E+02 -0.95210156516E+02  0.80224992671E+02  0.18133516865E+03  0.12508781815E+03 0.  0.
          5    1    3    3  502    0  0.53910684647E+02 -0.33869688995E+02  0.97303176732E+02  0.11635677184E+03  0.41800000000E+01 0.  1.
         -5    1    3    3    0  502 -0.12263862575E+02 -0.61340467521E+02 -0.17078184061E+02  0.64978396808E+02  0.41800000000E+01 0.  1.
        -11    1    1    2    0    0 -0.51984924829E+01  0.86985484920E+02  0.22339095371E+02  0.89958513177E+02  0.00000000000E+00 0. -1.
         11    1    1    2    0    0 -0.36448329588E+02  0.82246715955E+01  0.61171179296E+02  0.71680116693E+02  0.00000000000E+00 0.  1.
</event>
<event>
 7    1  0.2480409E-009  0.1217413E+03  0.7561462E-02  0.1240252E+00
         -2   -1    0    0    0  501 -0.00000000000E+00  0.00000000000E+00  0.75753498013E+02  0.75753498013E+02  0.00000000000E+00 0.  1.
          2   -1    0    0  501    0  0.00000000000E+00 -0.00000000000E+00 -0.26128913641E+03  0.26128913641E+03  0.00000000000E+00 0. -1.
         25    2    1    2    0    0  0.18607894940E+02 -0.60279597534E+02 -0.24969132341E+02  0.14230177972E+03  0.12508579180E+03 0.  0.
          5    1    3    3  502    0  0.70329394248E+02 -0.43390748591E+02 -0.11262971895E+01  0.82750961952E+02  0.41800000000E+01 0. -1.
         -5    1    3    3    0  502 -0.51721499308E+02 -0.16888848943E+02 -0.23842835151E+02  0.59550817772E+02  0.41800000000E+01 0. -1.
        -11    1    1    2    0    0 -0.52399718792E+02  0.27880085721E+02 -0.63186550078E+02  0.86692386172E+02  0.00000000000E+00 0.  1.
         11    1    1    2    0    0  0.33791823852E+02  0.32399511813E+02 -0.97379955975E+02  0.10804846852E+03  0.00000000000E+00 0. -1.
</event>
<event>
 7    1  0.2480409E-009  0.1503342E+03  0.7561462E-02  0.1200063E+00
          2   -1    0    0  501    0  0.00000000000E+00  0.00000000000E+00  0.56012332768E+03  0.56012332768E+03  0.00000000000E+00 0.  1.
         -2   -1    0    0    0  501 -0.00000000000E+00 -0.00000000000E+00 -0.11617814377E+03  0.11617814377E+03  0.00000000000E+00 0. -1.
         25    2    1    2    0    0  0.10162093652E+02 -0.14541789259E+03 -0.82820836511E+01  0.19226551712E+03  0.12509118486E+03 0.  0.
          5    1    3    3  502    0 -0.19149964333E+02 -0.31602360960E+02  0.48951134179E+02  0.61474517401E+02  0.41800000000E+01 0. -1.
         -5    1    3    3    0  502  0.29312057985E+02 -0.11381553163E+03 -0.57233217830E+02  0.13079099971E+03  0.41800000000E+01 0. -1.
        -11    1    1    2    0    0 -0.99722986924E+01  0.10814529623E+03  0.42285958525E+03  0.43658341777E+03  0.00000000000E+00 0.  1.
         11    1    1    2    0    0 -0.18979496002E+00  0.37272596360E+02  0.29367682318E+02  0.47452536564E+02  0.00000000000E+00 0. -1.
</event>
<event>
 7    1  0.2480409E-009  0.1725703E+03  0.7561462E-02  0.1175194E+00
         -1   -1    0    0    0  501 -0.00000000000E+00  0.00000000000E+00  0.96076392890E+02  0.96076392890E+02  0.00000000000E+00 0.  1.
          1   -1    0    0  501    0  0.00000000000E+00 -0.00000000000E+00 -0.42836440131E+03  0.42836440131E+03  0.00000000000E+00 0. -1.
         25    2    1    2    0    0 -0.15209573280E+03  0.99723007048E+01 -0.27441155120E+03  0.33790830432E+03  0.12509102278E+03 0.  0.
          5    1    3    3  502    0 -0.86504472691E+02  0.53286786317E+02 -0.84088084935E+02  0.13194992921E+03  0.41800000000E+01 0. -1.
         -5    1    3    3    0  502 -0.65591260112E+02 -0.43314485612E+02 -0.19032346626E+03  0.20595837511E+03  0.41800000000E+01 0. -1.
        -11    1    1    2    0    0  0.14304129349E+03  0.94078826884E+01 -0.72479858424E+02  0.16063203222E+03  0.00000000000E+00 0. -1.
         11    1    1    2    0    0  0.90544393151E+01 -0.19380183393E+02  0.14603401206E+02  0.25900457649E+02  0.00000000000E+00 0.  1.
</event>
<event>
 7    1  0.2911745E-009  0.1173839E+03  0.7561462E-02  0.1247476E+00
          1   -1    0    0  501    0  0.00000000000E+00  0.00000000000E+00  0.38860452591E+03  0.38860452591E+03  0.00000000000E+00 0. -1.
         -1   -1    0    0    0  501 -0.00000000000E+00 -0.00000000000E+00 -0.49147420985E+02  0.49147420985E+02  0.00000000000E+00 0.  1.
         25    2    1    2    0    0 -0.88895500085E+01 -0.58736998482E+02  0.89196374729E+02  0.16471833194E+03  0.12508827492E+03 0.  0.
          5    1    3    3  502    0  0.17172227414E+02  0.31916853802E+02  0.25567114409E+01  0.36572942518E+02  0.41800000000E+01 0.  1.
         -5    1    3    3    0  502 -0.26061777422E+02 -0.90653852284E+02  0.86639663288E+02  0.12814538943E+03  0.41800000000E+01 0.  1.
        -11    1    1    2    0    0 -0.36967460715E+02  0.39607876346E+02  0.88049995471E+02  0.10338364824E+03  0.00000000000E+00 0.  1.
         11    1    1    2    0    0  0.45857010724E+02  0.19129122136E+02  0.16221073472E+03  0.16964996671E+03  0.00000000000E+00 0. -1.
</event>
<event>
 7    1  0.2707418E-009  0.1036606E+03  0.7561462E-02  0.1272781E+00
         -1   -1    0    0    0  501 -0.00000000000E+00  0.00000000000E+00  0.33915399396E+02  0.33915399396E+02  0.00000000000E+00 0.  1.
          1   -1    0    0  501    0  0.00000000000E+00 -0.00000000000E+00 -0.52231427487E+03  0.52231427487E+03  0.00000000000E+00 0. -1.
         25    2    1    2    0    0 -0.45620293059E+02 -0.62023630164E+02 -0.25026389017E+03  0.29018607180E+03  0.12509116559E+03 0.  0.
          5    1    3    3  502    0 -0.74018264184E+02 -0.66946370828E+02 -0.23886775707E+03  0.25891272230E+03  0.41800000000E+01 0. -1.
         -5    1    3    3    0  502  0.28397971125E+02  0.49227406635E+01 -0.11396133096E+02  0.31273349503E+02  0.41800000000E+01 0. -1.
        -11    1    1    2    0    0  0.17387522096E+02  0.35692306341E+02 -0.19881614799E+02  0.44402086252E+02  0.00000000000E+00 0.  1.
         11    1    1    2    0    0  0.28232770964E+02  0.26331323823E+02 -0.21825337051E+03  0.22164151622E+03  0.00000000000E+00 0. -1.
</event>
<event>
 7    1  0.2480409E-009  0.1131728E+03  0.7561462E-02  0.1254805E+00
          2   -1    0    0  501    0  0.00000000000E+00  0.00000000000E+00  0.11578636707E+03  0.11578636707E+03  0.00000000000E+00 0. -1.
         -2   -1    0    0    0  501 -0.00000000000E+00 -0.00000000000E+00 -0.30457688235E+03  0.30457688235E+03  0.00000000000E+00 0.  1.
         25    2    1    2    0    0 -0.73852522162E+02  0.66699414927E+02  0.30783754149E+02  0.16278122006E+03  0.12508828524E+03 0.  0.
          5    1    3    3  502    0 -0.67209312351E+02  0.67361467615E+02  0.72894233832E+02  0.11994040483E+03  0.41800000000E+01 0.  1.
         -5    1    3    3    0  502 -0.66432098111E+01 -0.66205268782E+00 -0.42110479683E+02  0.42840815229E+02  0.41800000000E+01 0.  1.
        -11    1    1    2    0    0  0.87525552835E+02 -0.47303928048E+02 -0.20925986829E+03  0.23170687622E+03  0.00000000000E+00 0. -1.
         11    1    1    2    0    0 -0.13673030674E+02 -0.19395486879E+02 -0.10314401140E+02  0.25875153139E+02  0.00000000000E+00 0.  1.
</event>
<event>
 7    1  0.2480409E-009  0.1058318E+03  0.7561462E-02  0.1268489E+00
          4   -1    0    0  501    0  0.00000000000E+00  0.00000000000E+00  0.21832121430E+03  0.21832121430E+03  0.00000000000E+00 0. -1.
         -4   -1    0    0    0  501 -0.00000000000E+00 -0.00000000000E+00 -0.87915467874E+02  0.87915467874E+02  0.00000000000E+00 0.  1.
         25    2    1    2    0    0 -0.66031570971E+02 -0.32242691767E+02  0.11815619409E+03  0.18710463940E+03  0.12508996900E+03 0.  0.
          5    1    3    3  502    0 -0.71824000946E+02  0.28122152547E+02  0.94066990630E+02  0.12171940561E+03  0.41800000000E+01 0.  1.
         -5    1    3    3    0  502  0.57924299745E+01 -0.60364844314E+02  0.24089203465E+02  0.65385233789E+02  0.41800000000E+01 0.  1.
        -11    1    1    2    0    0  0.35746452213E+02  0.20034387514E+02  0.52948485308E+02  0.66953174871E+02  0.00000000000E+00 0. -1.
         11    1    1    2    0    0  0.30285118758E+02  0.12208304253E+02 -0.40698932973E+02  0.52178867907E+02  0.00000000000E+00 0.  1.
</event>
<event>
 7    1  0.2480409E-009  0.1314903E+03  0.7561462E-02  0.1225261E+00
         -2   -1    0    0    0  501 -0.00000000000E+00  0.00000000000E+00  0.28043582834E+03  0.28043582834E+03  0.00000000000E+00 0.  1.
          2   -1    0    0  501    0  0.00000000000E+00 -0.00000000000E+00 -0.26995425325E+03  0.26995425325E+03  0.00000000000E+00 0. -1.
         25    2    1    2    0    0  0.11898242428E+01 -0.13110243008E+03  0.22201033193E+03  0.28657614296E+03  0.12509210758E+03 0.  0.
          5    1    3    3  502    0 -0.55488585164E+00 -0.15801800917E+02  0.14929038054E+03  0.15018353749E+03  0.41800000000E+01 0.  1.
         -5    1    3    3    0  502  0.17447100945E+01 -0.11530062916E+03  0.72719951388E+02  0.13639260547E+03  0.41800000000E+01 0.  1.
        -11    1    1    2    0    0  0.23308417556E+01  0.42266204306E+02 -0.14957871695E+03  0.15545307142E+03  0.00000000000E+00 0. -1.
         11    1    1    2    0    0 -0.35206659984E+01  0.88836225771E+02 -0.61950039892E+02  0.10836086720E+03  0.00000000000E+00 0.  1.
</event>
<event>
 7    1  0.2480409E-009  0.1193182E+03  0.7561462E-02  0.1244226E+00
         -2   -1    0    0    0  501 -0.00000000000E+00  0.00000000000E+00  0.15335040372E+02  0.15335040372E+02  0.00000000000E+00 0.  1.
          2   -1    0    0  501    0  0.00000000000E+00 -0.00000000000E+00 -0.22600826597E+04  0.22600826597E+04  0.00000000000E+00 0. -1.
         25    2    1    2    0    0  0.25943931486E+02  0.61533296564E+02 -0.20081386716E+04  0.20131386585E+04  0.12508756859E+03 0.  0.
          5    1    3    3  502    0  0.47357032422E+02 -0.24186626202E+02 -0.76278300345E+03  0.76464571153E+03  0.41800000000E+01 0. -1.
         -5    1    3    3    0  502 -0.21413100935E+02  0.85719922766E+02 -0.12453556682E+04  0.12484929470E+04  0.41800000000E+01 0. -1.
        -11    1    1    2    0    0 -0.26435668729E+01  0.15829241510E+02 -0.47357662257E+01  0.16732627240E+02  0.00000000000E+00 0.  1.
         11    1    1    2    0    0 -0.23300364614E+02 -0.77362538074E+02 -0.23187318143E+03  0.24554641426E+03  0.00000000000E+00 0. -1.
</event>
<event>
 7    1  0.2480409E-009  0.1252628E+03  0.7561462E-02  0.1234659E+00
         -1   -1    0    0    0  501 -0.00000000000E+00  0.00000000000E+00  0.15366673048E+02  0.15366673048E+02  0.00000000000E+00 0.  1.
          1   -1    0    0  501    0  0.00000000000E+00 -0.00000000000E+00 -0.10458926867E+04  0.10458926867E+04  0.00000000000E+00 0. -1.
         25    2    1    2    0    0  0.57393936879E+01  0.61061063504E+02 -0.54021492867E+03  0.55788997894E+03  0.12509062848E+03 0.  0.
          5    1    3    3  502    0  0.62718056661E+02  0.11962426353E+02 -0.24751273831E+03  0.25564953022E+03  0.41800000000E+01 0. -1.
         -5    1    3    3    0  502 -0.56978662973E+02  0.49098637151E+02 -0.29270219036E+03  0.30224044873E+03  0.41800000000E+01 0. -1.
        -11    1    1    2    0    0 -0.48916541835E+02 -0.24896852074E+02 -0.18765652660E+03  0.19551893331E+03  0.00000000000E+00 0.  1.
         11    1    1    2    0    0  0.43177148147E+02 -0.36164211429E+02 -0.30265455841E+03  0.30785044752E+03  0.00000000000E+00 0. -1.
</event>
<event>
 7    1  0.2480409E-009  0.1104871E+03  0.7561462E-02  0.1259671E+00
          2   -1    0    0  501    0  0.00000000000E+00  0.00000000000E+00  0.96213650113E+02  0.96213650113E+02  0.00000000000E+00 0. -1.
         -2   -1    0    0    0  501 -0.00000000000E+00 -0.00000000000E+00 -0.12990453968E+03  0.12990453968E+03  0.00000000000E+00 0.  1.
         25    2    1    2    0    0  0.98331480868E+01 -0.47133875787E+02 -0.18402911399E+02  0.13529525841E+03  0.12509135363E+03 0.  0.
          5    1    3    3  502    0 -0.55112027484E+02 -0.38157862881E+02 -0.18255228989E+02  0.69599453004E+02  0.41800000000E+01 0.  1.
         -5    1    3    3    0  502  0.64945175571E+02 -0.89760129060E+01 -0.14768240936E+00  0.65695805404E+02  0.41800000000E+01 0.  1.
        -11    1    1    2    0    0  0.23268103975E+02  0.49738782587E+02 -0.17259771488E+02  0.57560844918E+02  0.00000000000E+00 0.  1.
         11    1    1    2    0    0 -0.33101252061E+02 -0.26049067998E+01  0.19717933166E+01  0.33262086470E+02  0.00000000000E+00 0. -1.
</event>
<event>
 7    1  0.2480409E-009  0.4021100E+03  0.7561462E-02  0.1043052E+00
         -3   -1    0    0    0  501 -0.00000000000E+00  0.00000000000E+00  0.10604036718E+03  0.10604036718E+03  0.00000000000E+00 0.  1.
          3   -1    0    0  501    0  0.00000000000E+00 -0.00000000000E+00 -0.16070812340E+04  0.16070812340E+04  0.00000000000E+00 0. -1.
         25    2    1    2    0    0 -0.34558860903E+03  0.18266584875E+03 -0.91465835172E+03  0.10025202775E+04  0.12509479381E+03 0.  0.
          5    1    3    3  502    0 -0.24051495737E+02 -0.13948114952E+02 -0.31078778910E+02  0.41909274110E+02  0.41800000000E+01 0.  1.
         -5    1    3    3    0  502 -0.32153711329E+03  0.19661396370E+03 -0.88357957281E+03  0.96061100339E+03  0.41800000000E+01 0.  1.
        -11    1    1    2    0    0  0.18791391047E+03 -0.14428180219E+03 -0.31099350797E+03  0.39095503347E+03  0.00000000000E+00 0.  1.
         11    1    1    2    0    0  0.15767469856E+03 -0.38384046562E+02 -0.27538900711E+03  0.31964629019E+03  0.00000000000E+00 0. -1.
</event>
<event>
 7    1  0.2480409E-009  0.1129689E+03  0.7561462E-02  0.1255169E+00
          2   -1    0    0  501    0  0.00000000000E+00  0.00000000000E+00  0.10928474594E+04  0.10928474594E+04  0.00000000000E+00 0. -1.
         -2   -1    0    0    0  501 -0.00000000000E+00 -0.00000000000E+00 -0.15656370118E+02  0.15656370118E+02  0.00000000000E+00 0.  1.
         25    2    1    2    0    0  0.48953622617E+02  0.20970073556E+02  0.80853367466E+03  0.81988460810E+03  0.12509143207E+03 0.  0.
          5    1    3    3  502    0 -0.40320897675E+01  0.56667917213E+02  0.57230887463E+03  0.57513688020E+03  0.41800000000E+01 0. -1.
         -5    1    3    3    0  502  0.52985712385E+02 -0.35697843657E+02  0.23622480004E+03  0.24474772790E+03  0.41800000000E+01 0. -1.
        -11    1    1    2    0    0  0.25371404613E+02 -0.16952395142E+02  0.91735386869E+02  0.96677159024E+02  0.00000000000E+00 0.  1.
         11    1    1    2    0    0 -0.74325027231E+02 -0.40176784146E+01  0.17692202772E+03  0.19194206236E+03  0.00000000000E+00 0. -1.
</event>
<event>
 7    1  0.2480409E-009  0.1343268E+03  0.7561462E-02  0.1221173E+00
         -2   -1    0    0    0  501 -0.00000000000E+00  0.00000000000E+00  0.74693334659E+03  0.74693334659E+03  0.00000000000E+00 0.  1.
          2   -1    0    0  501    0  0.00000000000E+00 -0.00000000000E+00 -0.31020667333E+02  0.31020667333E+02  0.00000000000E+00 0. -1.
         25    2    1    2    0    0  0.96673065874E+02  0.33657222255E+02  0.31540966310E+03  0.35441467835E+03  0.12509203960E+03 0.  0.
          5    1    3    3  502    0  0.26871187045E+02 -0.29163604954E+02  0.20753105212E+03  0.21132720256E+03  0.41800000000E+01 0. -1.
         -5    1    3    3    0  502  0.69801878829E+02  0.62820827209E+02  0.10787861098E+03  0.14308747579E+03  0.41800000000E+01 0. -1.
        -11    1    1    2    0    0 -0.53949744228E+01  0.25461215649E+02  0.11779257734E+03  0.12063362105E+03  0.00000000000E+00 0.  1.
         11    1    1    2    0    0 -0.91278091452E+02 -0.59118437904E+02  0.28271043882E+03  0.30290571453E+03  0.00000000000E+00 0. -1.
</event>
<event>
 7    1  0.2755905E-009  0.1364721E+03  0.7561462E-02  0.1218156E+00
          2   -1    0    0  501    0  0.00000000000E+00  0.00000000000E+00  0.61512802434E+03  0.61512802434E+03  0.00000000000E+00 0. -1.
         -2   -1    0    0    0  501 -0.00000000000E+00 -0.00000000000E+00 -0.47179823317E+02  0.47179823317E+02  0.00000000000E+00 0.  1.
         25    2    1    2    0    0 -0.88478255051E+02 -0.43603911114E+02  0.46970105032E+03  0.49598009637E+03  0.12508987425E+03 0.  0.
          5    1    3    3  502    0 -0.29075965430E+01 -0.66129045551E+02  0.26020875153E+03  0.26852853025E+03  0.41800000000E+01 0. -1.
         -5    1    3    3    0  502 -0.85570658508E+02  0.22525134437E+02  0.20949229879E+03  0.22745156612E+03  0.41800000000E+01 0. -1.
        -11    1    1    2    0    0  0.33770887727E+02  0.52684752133E+02  0.90941730447E+02  0.11039272758E+03  0.00000000000E+00 0. -1.
         11    1    1    2    0    0  0.54707367324E+02 -0.90808410192E+01  0.73054202612E+01  0.55935023718E+02  0.00000000000E+00 0.  1.
</event>
<event>
 7    1  0.2480409E-009  0.8860873E+02  0.7561462E-02  0.1306256E+00
         -1   -1    0    0    0  501 -0.00000000000E+00  0.00000000000E+00  0.64310560990E+02  0.64310560990E+02  0.00000000000E+00 0.  1.
          1   -1    0    0  501    0  0.00000000000E+00 -0.00000000000E+00 -0.36718959653E+03  0.36718959653E+03  0.00000000000E+00 0. -1.
         25    2    1    2    0    0 -0.34528367701E+02  0.66730334404E+02 -0.27140180422E+03  0.30814422694E+03  0.12509508205E+03 0.  0.
          5    1    3    3  502    0 -0.27998421734E+02  0.80034785567E+02 -0.27852669982E+03  0.29117704826E+03  0.41800000000E+01 0. -1.
         -5    1    3    3    0  502 -0.65299459664E+01 -0.13304451163E+02  0.71248955966E+01  0.16967178679E+02  0.41800000000E+01 0. -1.
        -11    1    1    2    0    0  0.21676142321E+02 -0.24168179469E+02  0.32178958157E+02  0.45710407927E+02  0.00000000000E+00 0.  1.
         11    1    1    2    0    0  0.12852225379E+02 -0.42562154935E+02 -0.63656189474E+02  0.77645522654E+02  0.00000000000E+00 0. -1.
</event>
<event>
 7    1  0.2480409E-009  0.1227428E+03  0.7561462E-02  0.1238640E+00
         -1   -1    0    0    0  501 -0.00000000000E+00  0.00000000000E+00  0.28687863427E+02  0.28687863427E+02  0.00000000000E+00 0.  1.
          1   -1    0    0  501    0  0.00000000000E+00 -0.00000000000E+00 -0.70073253815E+03  0.70073253815E+03  0.00000000000E+00 0. -1.
         25    2    1    2    0    0  0.87248953965E+02 -0.17949376422E+02 -0.32688919658E+03  0.36116309049E+03  0.12509065116E+03 0.  0.
          5    1    3    3  502    0  0.81788599967E+02 -0.56266856415E+02 -0.29354430788E+03  0.30990493269E+03  0.41800000000E+01 0.  1.
         -5    1    3    3    0  502  0.54603539978E+01  0.38317479993E+02 -0.33344888705E+02  0.51258157805E+02  0.41800000000E+01 0.  1.
        -11    1    1    2    0    0 -0.85901949212E+02  0.33044727780E+02 -0.34001835841E+03  0.35225499708E+03  0.00000000000E+00 0. -1.
         11    1    1    2    0    0 -0.13470047532E+01 -0.15095351358E+02 -0.51371197319E+01  0.16002314007E+02  0.00000000000E+00 0.  1.
</event>
<event>
 7    1  0.2480409E-009  0.2731890E+03  0.7561462E-02  0.1099468E+00
         -2   -1    0    0    0  501 -0.00000000000E+00  0.00000000000E+00  0.72904375102E+02  0.72904375102E+02  0.00000000000E+00 0.  1.
          2   -1    0    0  501    0  0.00000000000E+00 -0.00000000000E+00 -0.10278409804E+04  0.10278409804E+04  0.00000000000E+00 0. -1.
         25    2    1    2    0    0 -0.14870873437E+03 -0.20199910284E+03 -0.48642994952E+03  0.56140943844E+03  0.12509411077E+03 0.  0.
          5    1    3    3  502    0 -0.12159626031E+03 -0.21656211050E+03 -0.41753307088E+03  0.48583550292E+03  0.41800000000E+01 0. -1.
         -5    1    3    3    0  502 -0.27112474062E+02  0.14563007663E+02 -0.68896878648E+02  0.75573935516E+02  0.41800000000E+01 0. -1.
        -11    1    1    2    0    0  0.38997216034E+02  0.12992617079E+03 -0.22621599455E+03  0.26377124351E+03  0.00000000000E+00 0.  1.
         11    1    1    2    0    0  0.10971151833E+03  0.72072932051E+02 -0.24229066118E+03  0.27556467351E+03  0.00000000000E+00 0. -1.
</event>
<event>
 7    1  0.2480409E-009  0.1041188E+03  0.7561462E-02  0.1271866E+00
          1   -1    0    0  501    0  0.00000000000E+00  0.00000000000E+00  0.13323244865E+02  0.13323244865E+02  0.00000000000E+00 0. -1.
         -1   -1    0    0    0  501 -0.00000000000E+00 -0.00000000000E+00 -0.13065019617E+04  0.13065019617E+04  0.00000000000E+00 0.  1.
         25    2    1    2    0    0  0.47191871291E+02 -0.91884399174E+01 -0.99806208628E+03  0.10070189868E+04  0.12509121318E+03 0.  0.
          5    1    3    3  502    0  0.57355900889E+02 -0.42981827036E+02 -0.31692116081E+03  0.32495173701E+03  0.41800000000E+01 0. -1.
         -5    1    3    3    0  502 -0.10164029598E+02  0.33793387119E+02 -0.68114092547E+03  0.68206724981E+03  0.41800000000E+01 0. -1.
        -11    1    1    2    0    0 -0.20142145028E+02 -0.39991990886E+02 -0.95994425591E+02  0.10592447822E+03  0.00000000000E+00 0. -1.
         11    1    1    2    0    0 -0.27049726263E+02  0.49180430803E+02 -0.19912220497E+03  0.20688174153E+03  0.00000000000E+00 0.  1.
</event>
<event>
 7    1  0.2480409E-009  0.8456115E+02  0.7561462E-02  0.1316584E+00
          1   -1    0    0  501    0  0.00000000000E+00  0.00000000000E+00  0.52943097539E+02  0.52943097539E+02  0.00000000000E+00 0. -1.
         -1   -1    0    0    0  501 -0.00000000000E+00 -0.00000000000E+00 -0.23872904349E+03  0.23872904349E+03  0.00000000000E+00 0.  1.
         25    2    1    2    0    0  0.11058682186E+02 -0.99969774631E+01 -0.74970671070E+02  0.14659640134E+03  0.12509064455E+03 0.  0.
          5    1    3    3  502    0 -0.42464337889E+01 -0.42996823475E+02  0.17758479882E+02  0.46899840475E+02  0.41800000000E+01 0.  1.
         -5    1    3    3    0  502  0.15305115975E+02  0.32999846012E+02 -0.92729150952E+02  0.99696560863E+02  0.41800000000E+01 0.  1.
        -11    1    1    2    0    0 -0.32482732180E+02  0.40441711502E+02 -0.85676458766E+02  0.10015545669E+03  0.00000000000E+00 0.  1.
         11    1    1    2    0    0  0.21424049994E+02 -0.30444734039E+02 -0.25138816118E+02  0.44920282999E+02  0.00000000000E+00 0. -1.
</event>
<event>
 7    1  0.2480409E-009  0.1131282E+03  0.7561462E-02  0.1254884E+00
          2   -1    0    0  501    0  0.00000000000E+00  0.00000000000E+00  0.57665058131E+03  0.57665058131E+03  0.00000000000E+00 0.  1.
         -2   -1    0    0    0  501 -0.00000000000E+00 -0.00000000000E+00 -0.34458132364E+02  0.34458132364E+02  0.00000000000E+00 0. -1.
         25    2    1    2    0    0 -0.69676371445E+02  0.48268235310E+02  0.23055434282E+03  0.27566375073E+03  0.12510227495E+03 0.  0.
          5    1    3    3  502    0 -0.71564552488E+02  0.20681183962E+02  0.23570141820E+03  0.24722829022E+03  0.41800000000E+01 0. -1.
         -5    1    3    3    0  502  0.18881810433E+01  0.27587051347E+02 -0.51470753811E+01  0.28435460514E+02  0.41800000000E+01 0. -1.
        -11    1    1    2    0    0 -0.46297018147E+01 -0.49151684841E+02  0.13838156364E+03  0.14692440035E+03  0.00000000000E+00 0.  1.
         11    1    1    2    0    0  0.74306073260E+02  0.88344953176E+00  0.17325654249E+03  0.18852056260E+03  0.00000000000E+00 0. -1.
</event>
<event>
 7    1  0.2480409E-009  0.1070932E+03  0.7561462E-02  0.1266050E+00
         -1   -1    0    0    0  501 -0.00000000000E+00  0.00000000000E+00  0.84103277977E+03  0.84103277977E+03  0.00000000000E+00 0.  1.
          1   -1    0    0  501    0  0.00000000000E+00 -0.00000000000E+00 -0.15544176860E+02  0.15544176860E+02  0.00000000000E+00 0. -1.
         25    2    1    2    0    0 -0.10199431937E+02  0.26987935141E+02  0.57395651910E+03  0.58813732159E+03  0.12508815359E+03 0.  0.
          5    1    3    3  502    0 -0.30172000204E+02 -0.43645550757E+02  0.28825521908E+03  0.29312766403E+03  0.41800000000E+01 0. -1.
         -5    1    3    3    0  502  0.19972568267E+02  0.70633485898E+02  0.28570130002E+03  0.29500965755E+03  0.41800000000E+01 0. -1.
        -11    1    1    2    0    0 -0.29213047524E+02 -0.36643227110E+02  0.18196889575E+03  0.18790637897E+03  0.00000000000E+00 0.  1.
         11    1    1    2    0    0  0.39412479461E+02  0.96552919683E+01  0.69563188065E+02  0.80533256075E+02  0.00000000000E+00 0. -1.
</event>
<event>
 7    1  0.2480409E-009  0.9090779E+02  0.7561462E-02  0.1300668E+00
         -1   -1    0    0    0  501 -0.00000000000E+00  0.00000000000E+00  0.19808119391E+02  0.19808119391E+02  0.00000000000E+00 0.  1.
          1   -1    0    0  501    0  0.00000000000E+00 -0.00000000000E+00 -0.64887493584E+03  0.64887493584E+03  0.00000000000E+00 0. -1.
         25    2    1    2    0    0  0.27535690207E+02 -0.19691820156E+02 -0.39251066208E+03  0.41334947844E+03  0.12508872636E+03 0.  0.
          5    1    3    3  502    0  0.38446229207E+01  0.30142265608E+02 -0.19699470879E+02  0.36453790671E+02  0.41800000000E+01 0.  1.
         -5    1    3    3    0  502  0.23691067286E+02 -0.49834085764E+02 -0.37281119120E+03  0.37689568776E+03  0.41800000000E+01 0.  1.
        -11    1    1    2    0    0 -0.33772631546E+02 -0.30332509319E+02 -0.12219282550E+03  0.13035236234E+03  0.00000000000E+00 0. -1.
         11    1    1    2    0    0  0.62369413392E+01  0.50024329476E+02 -0.11436332887E+03  0.12498121446E+03  0.00000000000E+00 0.  1.
</event>
<event>
 7    1  0.2480409E-009  0.9902456E+02  0.7561462E-02  0.1282361E+00
          3   -1    0    0  501    0  0.00000000000E+00  0.00000000000E+00  0.86789165527E+02  0.86789165527E+02  0.00000000000E+00 0. -1.
         -3   -1    0    0    0  501 -0.00000000000E+00 -0.00000000000E+00 -0.17833682939E+03  0.17833682939E+03  0.00000000000E+00 0.  1.
         25    2    1    2    0    0  0.45037860222E+02  0.44424602321E+02 -0.57419406117E+02  0.15146777729E+03  0.12507415886E+03 0.  0.
          5    1    3    3  502    0 -0.14651674748E+02 -0.32912461960E+02 -0.36535820853E+02  0.51480484949E+02  0.41800000000E+01 0.  1.
         -5    1    3    3    0  502  0.59689534969E+02  0.77337064280E+02 -0.20883585264E+02  0.99987292342E+02  0.41800000000E+01 0.  1.
        -11    1    1    2    0    0 -0.36160227921E+02 -0.29648478943E+02  0.24329658413E+02  0.52711731763E+02  0.00000000000E+00 0. -1.
         11    1    1    2    0    0 -0.88776323005E+01 -0.14776123377E+02 -0.58457916162E+02  0.60946485865E+02  0.00000000000E+00 0.  1.
</event>
<event>
 7    1  0.2480409E-009  0.9973329E+02  0.7561462E-02  0.1280858E+00
          2   -1    0    0  501    0  0.00000000000E+00  0.00000000000E+00  0.59721797191E+02  0.59721797191E+02  0.00000000000E+00 0. -1.
         -2   -1    0    0    0  501 -0.00000000000E+00 -0.00000000000E+00 -0.33460867627E+03  0.33460867627E+03  0.00000000000E+00 0.  1.
         25    2    1    2    0    0  0.10929050648E+02  0.48534509734E+02 -0.24840717821E+03  0.28254070564E+03  0.12509229144E+03 0.  0.
          5    1    3    3  502    0 -0.52621673253E+02  0.63492305421E+00 -0.75194292463E+02  0.91875446351E+02  0.41800000000E+01 0.  1.
         -5    1    3    3    0  502  0.63550723901E+02  0.47899586680E+02 -0.17321288575E+03  0.19066525929E+03  0.41800000000E+01 0.  1.
        -11    1    1    2    0    0 -0.28211337743E+02 -0.24390234208E+02 -0.57701259452E+02  0.68703700368E+02  0.00000000000E+00 0.  1.
         11    1    1    2    0    0  0.17282287095E+02 -0.24144275526E+02  0.31221558582E+02  0.43086067449E+02  0.00000000000E+00 0. -1.
</event>
<event>
 7    1  0.4704483E-009  0.1104679E+03  0.7561462E-02  0.1259706E+00
          2   -1    0    0  501    0  0.00000000000E+00  0.00000000000E+00  0.10199977304E+04  0.10199977304E+04  0.00000000000E+00 0. -1.
         -2   -1    0    0    0  501 -0.00000000000E+00 -0.00000000000E+00 -0.20788905289E+02  0.20788905289E+02  0.00000000000E+00 0.  1.
         25    2    1    2    0    0  0.88635961671E+02 -0.76546518298E+00  0.40293135299E+03  0.43111182298E+03  0.12508720581E+03 0.  0.
          5    1    3    3  502    0  0.26435254805E+02 -0.17125336399E+02  0.10560639263E+02  0.33482821640E+02  0.41800000000E+01 0. -1.
         -5    1    3    3    0  502  0.62200706866E+02  0.16359871216E+02  0.39237071372E+03  0.39762900134E+03  0.41800000000E+01 0. -1.
        -11    1    1    2    0    0 -0.38184968407E+02  0.44006698466E+02  0.33812326248E+03  0.34310642949E+03  0.00000000000E+00 0. -1.
         11    1    1    2    0    0 -0.50450993263E+02 -0.43241233283E+02  0.25815420967E+03  0.26656838325E+03  0.00000000000E+00 0.  1.
</event>
<event>
 7    1  0.2480409E-009  0.9858788E+02  0.7561462E-02  0.1283294E+00
         -2   -1    0    0    0  501 -0.00000000000E+00  0.00000000000E+00  0.18357652936E+02  0.18357652936E+02  0.00000000000E+00 0. -1.
          2   -1    0    0  501    0  0.00000000000E+00 -0.00000000000E+00 -0.85677982910E+03  0.85677982910E+03  0.00000000000E+00 0.  1.
         25    2    1    2    0    0 -0.54365192706E+02 -0.27755480570E+01 -0.59013933662E+03  0.60570216392E+03  0.12508955555E+03 0.  0.
          5    1    3    3  502    0 -0.72182342817E+02 -0.29445491719E+02 -0.20753629951E+03  0.22173433566E+03  0.41800000000E+01 0. -1.
         -5    1    3    3    0  502  0.17817150111E+02  0.26669943662E+02 -0.38260303711E+03  0.38396782826E+03  0.41800000000E+01 0. -1.
        -11    1    1    2    0    0  0.53697315442E+02  0.28660879846E+02 -0.22953155495E+03  0.23746490780E+03  0.00000000000E+00 0.  1.
         11    1    1    2    0    0  0.66787726380E+00 -0.25885331788E+02 -0.18751284600E+02  0.31970410319E+02  0.00000000000E+00 0. -1.
</event>
<event>
 7    1  0.2480409E-009  0.1206477E+03  0.7561462E-02  0.1242032E+00
         -1   -1    0    0    0  501 -0.00000000000E+00  0.00000000000E+00  0.11671850737E+03  0.11671850737E+03  0.00000000000E+00 0.  1.
          1   -1    0    0  501    0  0.00000000000E+00 -0.00000000000E+00 -0.13295272126E+03  0.13295272126E+03  0.00000000000E+00 0. -1.
         25    2    1    2    0    0  0.59378027979E+02 -0.16877102517E+02 -0.19557884891E+02  0.14085052311E+03  0.12508306122E+03 0.  0.
          5    1    3    3  502    0  0.19385101789E+02 -0.67779618465E+02  0.65516061003E+01  0.70924289161E+02  0.41800000000E+01 0.  1.
         -5    1    3    3    0  502  0.39992926191E+02  0.50902515948E+02 -0.26109490991E+02  0.69926233954E+02  0.41800000000E+01 0.  1.
        -11    1    1    2    0    0 -0.17236546678E+02 -0.34972895817E+02  0.13445044376E+02  0.41242832123E+02  0.00000000000E+00 0.  1.
         11    1    1    2    0    0 -0.42141481301E+02  0.51849998334E+02 -0.10121373373E+02  0.67577873394E+02  0.00000000000E+00 0. -1.
</event>
<event>
 7    1  0.2480409E-009  0.1797834E+03  0.7561462E-02  0.1168013E+00
          1   -1    0    0  501    0  0.00000000000E+00  0.00000000000E+00  0.12283661752E+04  0.12283661752E+04  0.00000000000E+00 0. -1.
         -1   -1    0    0    0  501 -0.00000000000E+00 -0.00000000000E+00 -0.46880911653E+02  0.46880911653E+02  0.00000000000E+00 0.  1.
         25    2    1    2    0    0 -0.11401709428E+03  0.12783526386E+03  0.94940743659E+03  0.97281265331E+03  0.12509286678E+03 0.  0.
          5    1    3    3  502    0 -0.78940359222E+02  0.95108745684E+02  0.87811304958E+03  0.88677914616E+03  0.41800000000E+01 0. -1.
         -5    1    3    3    0  502 -0.35076735053E+02  0.32726518176E+02  0.71294387008E+02  0.86033507151E+02  0.41800000000E+01 0. -1.
        -11    1    1    2    0    0  0.47391537274E+02 -0.10844874135E+03  0.18105712854E+03  0.21630712216E+03  0.00000000000E+00 0. -1.
         11    1    1    2    0    0  0.66625557002E+02 -0.19386522509E+02  0.51020698471E+02  0.86127311425E+02  0.00000000000E+00 0.  1.
</event>
<event>
 7    1  0.2480409E-009  0.2391446E+03  0.7561462E-02  0.1120364E+00
         -1   -1    0    0    0  501 -0.00000000000E+00  0.00000000000E+00  0.98890499893E+02  0.98890499893E+02  0.00000000000E+00 0. -1.
          1   -1    0    0  501    0  0.00000000000E+00 -0.00000000000E+00 -0.64949707516E+03  0.64949707516E+03  0.00000000000E+00 0.  1.
         25    2    1    2    0    0  0.19313851397E+03  0.98195093386E+02 -0.39156223835E+03  0.46466511282E+03  0.12509164093E+03 0.  0.
          5    1    3    3  502    0  0.19633608449E+03  0.51320132241E+02 -0.32094698095E+03  0.37974471823E+03  0.41800000000E+01 0. -1.
         -5    1    3    3    0  502 -0.31975705203E+01  0.46874961145E+02 -0.70615257402E+02  0.84920394591E+02  0.41800000000E+01 0. -1.
        -11    1    1    2    0    0 -0.79791271133E+02 -0.80643497000E+02 -0.11301655525E+03  0.16013357648E+03  0.00000000000E+00 0.  1.
         11    1    1    2    0    0 -0.11334724284E+03 -0.17551596386E+02 -0.46027781667E+02  0.12358888574E+03  0.00000000000E+00 0. -1.
</event>
<event>
 7    1  0.2483288E-009  0.1946463E+03  0.7561462E-02  0.1154336E+00
         -2   -1    0    0    0  501 -0.00000000000E+00  0.00000000000E+00  0.18355051550E+03  0.18355051550E+03  0.00000000000E+00 0.  1.
          2   -1    0    0  501    0  0.00000000000E+00 -0.00000000000E+00 -0.22387659010E+03  0.22387659010E+03  0.00000000000E+00 0. -1.
         25    2    1    2    0    0 -0.14338008261E+03  0.92038353413E+02 -0.31461680771E+02  0.21369557930E+03  0.12508819556E+03 0.  0.
          5    1    3    3  502    0 -0.49179276636E+02 -0.29025053872E+02 -0.16084741490E+02  0.59474753564E+02  0.41800000000E+01 0. -1.
         -5    1    3    3    0  502 -0.94200805970E+02  0.12106340728E+03 -0.15376939281E+02  0.15422082574E+03  0.41800000000E+01 0. -1.
        -11    1    1    2    0    0  0.77189434431E+02 -0.17981664263E+02 -0.41134712793E+02  0.89295093001E+02  0.00000000000E+00 0. -1.
         11    1    1    2    0    0  0.66190648175E+02 -0.74056689149E+02  0.32270318973E+02  0.10443643330E+03  0.00000000000E+00 0.  1.
</event>
<event>
 7    1  0.2480409E-009  0.1194307E+03  0.7561462E-02  0.1244039E+00
          3   -1    0    0  501    0  0.00000000000E+00  0.00000000000E+00  0.46503584163E+03  0.46503584163E+03  0.00000000000E+00 0. -1.
         -3   -1    0    0    0  501 -0.00000000000E+00 -0.00000000000E+00 -0.35283726878E+02  0.35283726878E+02  0.00000000000E+00 0.  1.
         25    2    1    2    0    0  0.31992335395E+02  0.49732124045E+02  0.28261884526E+03  0.31467311713E+03  0.12509582432E+03 0.  0.
          5    1    3    3  502    0 -0.24618342288E+02 -0.24372206287E+02  0.32427393331E+02  0.47634813472E+02  0.41800000000E+01 0. -1.
         -5    1    3    3    0  502  0.56610677684E+02  0.74104330332E+02  0.25019145193E+03  0.26703830366E+03  0.41800000000E+01 0. -1.
        -11    1    1    2    0    0  0.32768811616E+02 -0.25320249782E+02  0.36783522863E+02  0.55388966572E+02  0.00000000000E+00 0.  1.
         11    1    1    2    0    0 -0.64761147011E+02 -0.24411874264E+02  0.11034974663E+03  0.13025748481E+03  0.00000000000E+00 0. -1.
</event>
<event>
 7    1  0.2480409E-009  0.1222612E+03  0.7561462E-02  0.1239413E+00
          2   -1    0    0  501    0  0.00000000000E+00  0.00000000000E+00  0.17388421974E+03  0.17388421974E+03  0.00000000000E+00 0.  1.
         -2   -1    0    0    0  501 -0.00000000000E+00 -0.00000000000E+00 -0.13009527325E+03  0.13009527325E+03  0.00000000000E+00 0. -1.
         25    2    1    2    0    0  0.10276427256E+03  0.19035337248E+01  0.71663166760E+01  0.16206126861E+03  0.12509348317E+03 0.  0.
          5    1    3    3  502    0  0.68648697172E+02  0.16686145128E+02  0.63067330062E+02  0.94794681200E+02  0.41800000000E+01 0.  1.
         -5    1    3    3    0  502  0.34115575388E+02 -0.14782611403E+02 -0.55901013386E+02  0.67266587408E+02  0.41800000000E+01 0.  1.
        -11    1    1    2    0    0 -0.78601523482E+02  0.39826702764E+02  0.16401137779E+02  0.89629030270E+02  0.00000000000E+00 0.  1.
         11    1    1    2    0    0 -0.24162749077E+02 -0.41730236488E+02  0.20221492034E+02  0.52289194108E+02  0.00000000000E+00 0. -1.
</event>
<event>
 7    1  0.2480409E-009  0.1504606E+03  0.7561462E-02  0.1199908E+00
          2   -1    0    0  501    0  0.00000000000E+00  0.00000000000E+00  0.94382902381E+03  0.94382902381E+03  0.00000000000E+00 0. -1.
         -2   -1    0    0    0  501 -0.00000000000E+00 -0.00000000000E+00 -0.30398906369E+02  0.30398906369E+02  0.00000000000E+00 0.  1.
         25    2    1    2    0    0  0.10087856733E+03 -0.52974191482E+02  0.67014476860E+03  0.69117426994E+03  0.12508041506E+03 0.  0.
          5    1    3    3  502    0  0.61866686284E+01 -0.61331109030E+02  0.40040805233E+03  0.40514671487E+03  0.41800000000E+01 0. -1.
         -5    1    3    3    0  502  0.94691898700E+02  0.83569175482E+01  0.26973671627E+03  0.28602755507E+03  0.41800000000E+01 0. -1.
        -11    1    1    2    0    0 -0.86392077274E+02 -0.27232944344E+01  0.13226416776E+03  0.15800258676E+03  0.00000000000E+00 0.  1.
         11    1    1    2    0    0 -0.14486490055E+02  0.55697485916E+02  0.11102118107E+03  0.12505107348E+03  0.00000000000E+00 0. -1.
</event>
<event>
 7    1  0.2480409E-009  0.1072507E+03  0.7561462E-02  0.1265748E+00
          2   -1    0    0  501    0  0.00000000000E+00  0.00000000000E+00  0.43518125911E+03  0.43518125911E+03  0.00000000000E+00 0. -1.
         -2   -1    0    0    0  501 -0.00000000000E+00 -0.00000000000E+00 -0.36164700282E+02  0.36164700282E+02  0.00000000000E+00 0.  1.
         25    2    1    2    0    0 -0.39498708936E+02  0.17741415892E+02  0.30509847083E+03  0.33257496411E+03  0.12508446749E+03 0.  0.
          5    1    3    3  502    0  0.45672642658E+02  0.74081760985E+01  0.10501750964E+03  0.11483475559E+03  0.41800000000E+01 0.  1.
         -5    1    3    3    0  502 -0.85171351593E+02  0.10333239794E+02  0.20008096119E+03  0.21774020852E+03  0.41800000000E+01 0.  1.
        -11    1    1    2    0    0 -0.75433332437E+01 -0.32089531291E+02  0.23740513911E+00  0.32965076310E+02  0.00000000000E+00 0.  1.
         11    1    1    2    0    0  0.47042042179E+02  0.14348115399E+02  0.93680682862E+02  0.10580591897E+03  0.00000000000E+00 0. -1.
</event>
<event>
 7    1  0.2480409E-009  0.1723307E+03  0.7561462E-02  0.1175439E+00
         -1   -1    0    0    0  501 -0.00000000000E+00  0.00000000000E+00  0.28507142071E+03  0.28507142071E+03  0.00000000000E+00 0.  1.
          1   -1    0    0  501    0  0.00000000000E+00 -0.00000000000E+00 -0.12591408117E+03  0.12591408117E+03  0.00000000000E+00 0. -1.
         25    2    1    2    0    0  0.11707394848E+03  0.90219917906E+02  0.32396695898E+02  0.19632347766E+03  0.12508964377E+03 0.  0.
          5    1    3    3  502    0  0.12971882957E+03  0.34515606905E+02  0.35676784731E+02  0.13895541456E+03  0.41800000000E+01 0.  1.
         -5    1    3    3    0  502 -0.12644881094E+02  0.55704311001E+02 -0.32800888328E+01  0.57368063108E+02  0.41800000000E+01 0.  1.
        -11    1    1    2    0    0 -0.91712327742E+02 -0.88847483209E+02  0.55907268978E+02  0.13939386305E+03  0.00000000000E+00 0. -1.
         11    1    1    2    0    0 -0.25361620736E+02 -0.13724346968E+01  0.70853374661E+02  0.75268161159E+02  0.00000000000E+00 0.  1.
</event>
<event>
 7    1  0.2480409E-009  0.1099617E+03  0.7561462E-02  0.1260641E+00
         -1   -1    0    0    0  501 -0.00000000000E+00  0.00000000000E+00  0.26053596571E+02  0.26053596571E+02  0.00000000000E+00 0.  1.
          1   -1    0    0  501    0  0.00000000000E+00 -0.00000000000E+00 -0.55806413703E+03  0.55806413703E+03  0.00000000000E+00 0. -1.
         25    2    1    2    0    0  0.13989818133E+02  0.21749714706E+02 -0.18686956147E+03  0.22635297696E+03  0.12508665825E+03 0.  0.
          5    1    3    3  502    0  0.29850726365E+02 -0.47668524971E+02 -0.83325065661E+02  0.10061755863E+03  0.41800000000E+01 0.  1.
         -5    1    3    3    0  502 -0.15860908232E+02  0.69418239676E+02 -0.10354449581E+03  0.12573541833E+03  0.41800000000E+01 0.  1.
        -11    1    1    2    0    0 -0.33729211773E+02  0.24646276082E+02 -0.12052612850E+03  0.12756036337E+03  0.00000000000E+00 0.  1.
         11    1    1    2    0    0  0.19739393640E+02 -0.46395990788E+02 -0.22461485049E+03  0.23020439327E+03  0.00000000000E+00 0. -1.
</event>
<event>
 7    1  0.2480409E-009  0.1075752E+03  0.7561462E-02  0.1265127E+00
         -1   -1    0    0    0  501 -0.00000000000E+00  0.00000000000E+00  0.19103740212E+02  0.19103740212E+02  0.00000000000E+00 0.  1.
          1   -1    0    0  501    0  0.00000000000E+00 -0.00000000000E+00 -0.76823444554E+03  0.76823444554E+03  0.00000000000E+00 0. -1.
         25    2    1    2    0    0  0.33536969628E+02 -0.37685432425E+02 -0.39384795967E+03  0.41630376446E+03  0.12509072236E+03 0.  0.
          5    1    3    3  502    0  0.79334008894E+02 -0.73552772775E+01 -0.23513635292E+03  0.24830336674E+03  0.41800000000E+01 0.  1.
         -5    1    3    3    0  502 -0.45797039266E+02 -0.30330155147E+02 -0.15871160676E+03  0.16800039772E+03  0.41800000000E+01 0.  1.
        -11    1    1    2    0    0  0.58682667563E+01 -0.14060672316E+02 -0.70651695553E+01  0.16794513436E+02  0.00000000000E+00 0.  1.
         11    1    1    2    0    0 -0.39405236385E+02  0.51746104740E+02 -0.34821757610E+03  0.35423990786E+03  0.00000000000E+00 0. -1.
</event>
<event>
 7    1  0.2480409E-009  0.3201130E+03  0.7561462E-02  0.1075597E+00
         -1   -1    0    0    0  501 -0.00000000000E+00  0.00000000000E+00  0.14583439935E+03  0.14583439935E+03  0.00000000000E+00 0.  1.
          1   -1    0    0  501    0  0.00000000000E+00 -0.00000000000E+00 -0.74113730022E+03  0.74113730022E+03  0.00000000000E+00 0. -1.
         25    2    1    2    0    0  0.30690763571E+03  0.28961639022E+02 -0.34556514095E+03  0.47968085055E+03  0.12508948141E+03 0.  0.
          5    1    3    3  502    0  0.30265309298E+03  0.33291127256E+00 -0.30525425240E+03  0.42987979312E+03  0.41800000000E+01 0.  1.
         -5    1    3    3    0  502  0.42545427254E+01  0.28628727750E+02 -0.40310888550E+02  0.49801057439E+02  0.41800000000E+01 0.  1.
        -11    1    1    2    0    0 -0.15542522480E+03 -0.12531704776E+02 -0.67951728736E+02  0.17009256764E+03  0.00000000000E+00 0. -1.
         11    1    1    2    0    0 -0.15148241091E+03 -0.16429934246E+02 -0.18178603118E+03  0.23719828137E+03  0.00000000000E+00 0.  1.
</event>
<event>
 7    1  0.2480409E-009  0.1171131E+03  0.7561462E-02  0.1247937E+00
         -1   -1    0    0    0  501 -0.00000000000E+00  0.00000000000E+00  0.43985729137E+03  0.43985729137E+03  0.00000000000E+00 0.  1.
          1   -1    0    0  501    0  0.00000000000E+00 -0.00000000000E+00 -0.58705969519E+02  0.58705969519E+02  0.00000000000E+00 0. -1.
         25    2    1    2    0    0 -0.98032746919E+02 -0.20853017765E+01  0.31310706249E+03  0.35114077158E+03  0.12509612677E+03 0.  0.
          5    1    3    3  502    0 -0.88930662371E+02  0.78101752332E+01  0.87428764158E+02  0.12502368875E+03  0.41800000000E+01 0.  1.
         -5    1    3    3    0  502 -0.91020845483E+01 -0.98954770097E+01  0.22567829834E+03  0.22611708283E+03  0.41800000000E+01 0.  1.
        -11    1    1    2    0    0  0.10893986965E+03  0.19064065083E+02  0.57115426326E+02  0.12447291151E+03  0.00000000000E+00 0. -1.
         11    1    1    2    0    0 -0.10907122726E+02 -0.16978763306E+02  0.10928833033E+02  0.22949577796E+02  0.00000000000E+00 0.  1.
</event>
<event>
 7    1  0.2480409E-009  0.9329206E+02  0.7561462E-02  0.1295070E+00
          2   -1    0    0  501    0  0.00000000000E+00  0.00000000000E+00  0.10091079414E+03  0.10091079414E+03  0.00000000000E+00 0. -1.
         -2   -1    0    0    0  501 -0.00000000000E+00 -0.00000000000E+00 -0.13458546475E+03  0.13458546475E+03  0.00000000000E+00 0.  1.
         25    2    1    2    0    0  0.38095174961E+02  0.13859945950E+01 -0.36299850683E+02  0.13571834474E+03  0.12509447072E+03 0.  0.
          5    1    3    3  502    0 -0.18503334418E+02 -0.49244730791E+02 -0.34871273156E+01  0.52887137871E+02  0.41800000000E+01 0. -1.
         -5    1    3    3    0  502  0.56598509378E+02  0.50630725386E+02 -0.32812723367E+02  0.82831206871E+02  0.41800000000E+01 0. -1.
        -11    1    1    2    0    0  0.88544426491E-02 -0.16693457632E+02 -0.38314143299E+02  0.41792884356E+02  0.00000000000E+00 0.  1.
         11    1    1    2    0    0 -0.38104029403E+02  0.15307463037E+02  0.40939323379E+02  0.57985029793E+02  0.00000000000E+00 0. -1.
</event>
<event>
 7    1  0.2480409E-009  0.1006545E+03  0.7561462E-02  0.1278926E+00
         -2   -1    0    0    0  501 -0.00000000000E+00  0.00000000000E+00  0.44304553427E+02  0.44304553427E+02  0.00000000000E+00 0.  1.
          2   -1    0    0  501    0  0.00000000000E+00 -0.00000000000E+00 -0.35285980053E+03  0.35285980053E+03  0.00000000000E+00 0. -1.
         25    2    1    2    0    0  0.15089855757E+02 -0.59145652692E+02 -0.14642301355E+03  0.20202893220E+03  0.12510027406E+03 0.  0.
          5    1    3    3  502    0 -0.47477849908E+01  0.34808585063E+02 -0.72849115167E+02  0.80985461887E+02  0.41800000000E+01 0. -1.
         -5    1    3    3    0  502  0.19837640748E+02 -0.93954237755E+02 -0.73573898381E+02  0.12104347031E+03  0.41800000000E+01 0. -1.
        -11    1    1    2    0    0  0.10718744480E+02  0.12185953092E+02  0.70320564555E+01  0.17687248344E+02  0.00000000000E+00 0.  1.
         11    1    1    2    0    0 -0.25808600237E+02  0.46959699601E+02 -0.16916429001E+03  0.17744817341E+03  0.00000000000E+00 0. -1.
</event>
<event>
 7    1  0.2480409E-009  0.9876636E+02  0.7561462E-02  0.1282912E+00
          2   -1    0    0  501    0  0.00000000000E+00  0.00000000000E+00  0.32557721532E+03  0.32557721532E+03  0.00000000000E+00 0.  1.
         -2   -1    0    0    0  501 -0.00000000000E+00 -0.00000000000E+00 -0.47244123007E+02  0.47244123007E+02  0.00000000000E+00 0. -1.
         25    2    1    2    0    0 -0.30947437715E+02 -0.58601075459E+01  0.23034373754E+03  0.26400007950E+03  0.12508285171E+03 0.  0.
          5    1    3    3  502    0 -0.66064635378E+02 -0.10467206661E+02  0.59968438361E+02  0.89932110296E+02  0.41800000000E+01 0. -1.
         -5    1    3    3    0  502  0.35117197663E+02  0.46070991147E+01  0.17037529918E+03  0.17406796921E+03  0.41800000000E+01 0. -1.
        -11    1    1    2    0    0 -0.82170284119E+01 -0.36350962469E+02  0.31841754292E+02  0.49018459225E+02  0.00000000000E+00 0.  1.
         11    1    1    2    0    0  0.39164466127E+02  0.42211070015E+02  0.16147600487E+02  0.59802799603E+02  0.00000000000E+00 0. -1.
</event>
<event>
 7    1  0.2480409E-009  0.1499760E+03  0.7561462E-02  0.1200502E+00
         -2   -1    0    0    0  501 -0.00000000000E+00  0.00000000000E+00  0.18025936348E+02  0.18025936348E+02  0.00000000000E+00 0.  1.
          2   -1    0    0  501    0  0.00000000000E+00 -0.00000000000E+00 -0.16018892194E+04  0.16018892194E+04  0.00000000000E+00 0. -1.
         25    2    1    2    0    0 -0.10445176630E+03 -0.49504405326E+02 -0.94797820980E+03  0.96315730828E+03  0.12509379121E+03 0.  0.
          5    1    3    3  502    0 -0.86938113654E+02 -0.80676400996E+02 -0.50667451745E+03  0.52038779416E+03  0.41800000000E+01 0. -1.
         -5    1    3    3    0  502 -0.17513652648E+02  0.31171995670E+02 -0.44130369236E+03  0.44276951411E+03  0.41800000000E+01 0. -1.
        -11    1    1    2    0    0  0.10775775765E+02  0.50457191911E+02 -0.97765594850E+02  0.11054481940E+03  0.00000000000E+00 0. -1.
         11    1    1    2    0    0  0.93675990537E+02 -0.95278658547E+00 -0.53811947837E+03  0.54621302804E+03  0.00000000000E+00 0.  1.
</event>
<event>
 7    1  0.2480409E-009  0.1028605E+03  0.7561462E-02  0.1274393E+00
          2   -1    0    0  501    0  0.00000000000E+00  0.00000000000E+00  0.94081135825E+03  0.94081135825E+03  0.00000000000E+00 0. -1.
         -2   -1    0    0    0  501 -0.00000000000E+00 -0.00000000000E+00 -0.11384999103E+02  0.11384999103E+02  0.00000000000E+00 0.  1.
         25    2    1    2    0    0 -0.30743641021E+02  0.19466483942E+02  0.54457942582E+03  0.55994452467E+03  0.12508798593E+03 0.  0.
          5    1    3    3  502    0  0.40878483895E+02  0.38068927908E+02  0.22160109563E+03  0.22857123989E+03  0.41800000000E+01 0.  1.
         -5    1    3    3    0  502 -0.71622124916E+02 -0.18602443967E+02  0.32297833018E+03  0.33137328478E+03  0.41800000000E+01 0.  1.
        -11    1    1    2    0    0 -0.13417999383E+02 -0.27595819418E+02  0.14028375530E+03  0.14360050124E+03  0.00000000000E+00 0.  1.
         11    1    1    2    0    0  0.44161640404E+02  0.81293354760E+01  0.24456317803E+03  0.24865133144E+03  0.00000000000E+00 0. -1.
</event>
<event>
 7    1  0.2480409E-009  0.8511130E+02  0.7561462E-02  0.1315142E+00
          2   -1    0    0  501    0  0.00000000000E+00  0.00000000000E+00  0.18144147540E+03  0.18144147540E+03  0.00000000000E+00 0.  1.
         -2   -1    0    0    0  501 -0.00000000000E+00 -0.00000000000E+00 -0.72881122883E+02  0.72881122883E+02  0.00000000000E+00 0. -1.
         25    2    1    2    0    0 -0.19479076636E+02  0.31818985364E+02  0.63216998118E+02  0.14503658519E+03  0.12508932783E+03 0.  0.
          5    1    3    3  502    0 -0.31772962745E+02 -0.15522704090E+02 -0.25394447723E+02  0.43735864905E+02  0.41800000000E+01 0. -1.
         -5    1    3    3    0  502  0.12293886109E+02  0.47341689454E+02  0.88611445841E+02  0.10130072028E+03  0.41800000000E+01 0. -1.
        -11    1    1    2    0    0  0.48889503967E+02 -0.12930271893E+02  0.53263371896E+02  0.73446322679E+02  0.00000000000E+00 0.  1.
         11    1    1    2    0    0 -0.29410427331E+02 -0.18888713471E+02 -0.79200174923E+01  0.35839690420E+02  0.00000000000E+00 0. -1.
</event>
<event>
 7    1  0.2480409E-009  0.3057377E+03  0.7561462E-02  0.1082407E+00
          2   -1    0    0  501    0  0.00000000000E+00  0.00000000000E+00  0.57538193490E+03  0.57538193490E+03  0.00000000000E+00 0. -1.
         -2   -1    0    0    0  501 -0.00000000000E+00 -0.00000000000E+00 -0.18011221047E+03  0.18011221047E+03  0.00000000000E+00 0.  1.
         25    2    1    2    0    0  0.10020999603E+03 -0.28537002075E+03  0.22243929518E+03  0.39573259398E+03  0.12508778456E+03 0.  0.
          5    1    3    3  502    0  0.75309235305E+02 -0.12289249249E+03  0.17049816869E+03  0.22329608944E+03  0.41800000000E+01 0.  1.
         -5    1    3    3    0  502  0.24900760728E+02 -0.16247752827E+03  0.51941126488E+02  0.17243650454E+03  0.41800000000E+01 0.  1.
        -11    1    1    2    0    0 -0.29603624984E+02  0.10697752900E+03  0.11394205320E+03  0.15907029205E+03  0.00000000000E+00 0.  1.
         11    1    1    2    0    0 -0.70606371049E+02  0.17839249175E+03  0.58888376048E+02  0.20069125935E+03  0.00000000000E+00 0. -1.
</event>
<event>
 7    1  0.2480409E-009  0.1131847E+03  0.7561462E-02  0.1254783E+00
         -2   -1    0    0    0  501 -0.00000000000E+00  0.00000000000E+00  0.96562251657E+02  0.96562251657E+02  0.00000000000E+00 0. -1.
          2   -1    0    0  501    0  0.00000000000E+00 -0.00000000000E+00 -0.26421089572E+03  0.26421089572E+03  0.00000000000E+00 0.  1.
         25    2    1    2    0    0 -0.57145264539E+02  0.34360676007E+02  0.17314153010E+02  0.14281320908E+03  0.12509834323E+03 0.  0.
          5    1    3    3  502    0 -0.91384682815E+02  0.21260189038E+02 -0.13317491081E+02  0.94857703218E+02  0.41800000000E+01 0. -1.
         -5    1    3    3    0  502  0.34239418276E+02  0.13100486969E+02  0.30631644091E+02  0.47955505862E+02  0.41800000000E+01 0. -1.
        -11    1    1    2    0    0  0.68005513997E+02 -0.98117080831E+01 -0.17714066153E+03  0.18999956189E+03  0.00000000000E+00 0.  1.
         11    1    1    2    0    0 -0.10860249459E+02 -0.24548967924E+02 -0.78221355404E+01  0.27960376408E+02  0.00000000000E+00 0. -1.
</event>
<event>
 7    1  0.2480409E-009  0.1024949E+03  0.7561462E-02  0.1275135E+00
         -2   -1    0    0    0  501 -0.00000000000E+00  0.00000000000E+00  0.10707050740E+03  0.10707050740E+03  0.00000000000E+00 0.  1.
          2   -1    0    0  501    0  0.00000000000E+00 -0.00000000000E+00 -0.14062093572E+03  0.14062093572E+03  0.00000000000E+00 0. -1.
         25    2    1    2    0    0  0.99419040101E+01 -0.38077120796E+02 -0.59265080538E+02  0.14390804599E+03  0.12509383417E+03 0.  0.
          5    1    3    3  502    0 -0.36381468481E+02 -0.59734365511E+02 -0.65898605818E+01  0.70375452640E+02  0.41800000000E+01 0. -1.
         -5    1    3    3    0  502  0.46323372491E+02  0.21657244715E+02 -0.52675219956E+02  0.73532593352E+02  0.41800000000E+01 0. -1.
        -11    1    1    2    0    0 -0.41261685692E+02  0.30728304677E+02  0.43190529102E+02  0.67172741634E+02  0.00000000000E+00 0.  1.
         11    1    1    2    0    0  0.31319781682E+02  0.73488161188E+01 -0.17475876890E+02  0.36610655498E+02  0.00000000000E+00 0. -1.
</event>
<event>
 7    1  0.2480409E-009  0.1283105E+03  0.7561462E-02  0.1229984E+00
          1   -1    0    0  501    0  0.00000000000E+00  0.00000000000E+00  0.10170975088E+04  0.10170975088E+04  0.00000000000E+00 0. -1.
         -1   -1    0    0    0  501 -0.00000000000E+00 -0.00000000000E+00 -0.16569650493E+02  0.16569650493E+02  0.00000000000E+00 0.  1.
         25    2    1    2    0    0 -0.61081526882E+02 -0.32539654662E+02  0.62987745019E+03  0.64589751056E+03  0.12509280488E+03 0.  0.
          5    1    3    3  502    0  0.51399310080E+01 -0.67584539125E+02  0.29476280562E+03  0.30248416950E+03  0.41800000000E+01 0. -1.
         -5    1    3    3    0  502 -0.66221457890E+02  0.35044884463E+02  0.33511464457E+03  0.34341334106E+03  0.41800000000E+01 0. -1.
        -11    1    1    2    0    0  0.84989190964E+02  0.24501516793E+02  0.29905872491E+03  0.31186472685E+03  0.00000000000E+00 0.  1.
         11    1    1    2    0    0 -0.23907664082E+02  0.80381378694E+01  0.71591683159E+02  0.75904921842E+02  0.00000000000E+00 0. -1.
</event>
<event>
 7    1  0.2480409E-009  0.1403343E+03  0.7561462E-02  0.1212880E+00
         -1   -1    0    0    0  501 -0.00000000000E+00  0.00000000000E+00  0.51302927291E+02  0.51302927291E+02  0.00000000000E+00 0.  1.
          1   -1    0    0  501    0  0.00000000000E+00 -0.00000000000E+00 -0.68428353117E+03  0.68428353117E+03  0.00000000000E+00 0. -1.
         25    2    1    2    0    0 -0.10150519346E+03 -0.81724622972E+01 -0.10906173262E+03  0.19471140981E+03  0.12509187883E+03 0.  0.
          5    1    3    3  502    0  0.19469569859E+02 -0.15223718090E+02  0.78598698268E+01  0.26269291895E+02  0.41800000000E+01 0.  1.
         -5    1    3    3    0  502 -0.12097476332E+03  0.70512557926E+01 -0.11692160244E+03  0.16844211791E+03  0.41800000000E+01 0.  1.
        -11    1    1    2    0    0  0.54343522855E+02  0.48087951244E+02 -0.28734345835E+03  0.29636452654E+03  0.00000000000E+00 0.  1.
         11    1    1    2    0    0  0.47161670607E+02 -0.39915488947E+02 -0.23657541291E+03  0.24451052212E+03  0.00000000000E+00 0. -1.
</event>
<event>
 7    1  0.2480409E-009  0.9586466E+02  0.7561462E-02  0.1289240E+00
         -2   -1    0    0    0  501 -0.00000000000E+00  0.00000000000E+00  0.12935192637E+03  0.12935192637E+03  0.00000000000E+00 0.  1.
          2   -1    0    0  501    0  0.00000000000E+00 -0.00000000000E+00 -0.10484197061E+03  0.10484197061E+03  0.00000000000E+00 0. -1.
         25    2    1    2    0    0  0.71431227712E+01  0.28657936399E+01  0.55670320498E+02  0.13713629071E+03  0.12509172902E+03 0.  0.
          5    1    3    3  502    0 -0.50125121996E+02  0.78224721687E+01 -0.76936043637E+01  0.51481869372E+02  0.41800000000E+01 0. -1.
         -5    1    3    3    0  502  0.57268244767E+02 -0.49566785288E+01  0.63363924862E+02  0.85654421337E+02  0.41800000000E+01 0. -1.
        -11    1    1    2    0    0 -0.41583033549E+02 -0.18324082880E+02  0.38075299439E+01  0.45600635706E+02  0.00000000000E+00 0.  1.
         11    1    1    2    0    0  0.34439910778E+02  0.15458289240E+02 -0.34967894686E+02  0.51456970562E+02  0.00000000000E+00 0. -1.
</event>
<event>
 7    1  0.2480409E-009  0.1171481E+03  0.7561462E-02  0.1247877E+00
         -2   -1    0    0    0  501 -0.00000000000E+00  0.00000000000E+00  0.21929237051E+02  0.21929237051E+02  0.00000000000E+00 0.  1.
          2   -1    0    0  501    0  0.00000000000E+00 -0.00000000000E+00 -0.66500633559E+03  0.66500633559E+03  0.00000000000E+00 0. -1.
         25    2    1    2    0    0  0.22870632843E+02 -0.40645299377E+02 -0.44183247192E+03  0.46155915219E+03  0.12508321838E+03 0.  0.
          5    1    3    3  502    0 -0.50135430013E+02 -0.31066953199E+02 -0.21884520663E+03  0.22669233289E+03  0.41800000000E+01 0.  1.
         -5    1    3    3    0  502  0.73006062856E+02 -0.95783461781E+01 -0.22298726529E+03  0.23486681931E+03  0.41800000000E+01 0.  1.
        -11    1    1    2    0    0  0.24836264159E+02  0.47128200995E+02 -0.10225890583E+03  0.11530304058E+03  0.00000000000E+00 0.  1.
         11    1    1    2    0    0 -0.47706897002E+02 -0.64829016180E+01 -0.98985720782E+02  0.11007337986E+03  0.00000000000E+00 0. -1.
</event>
<event>
 7    1  0.2480409E-009  0.1827398E+03  0.7561462E-02  0.1165178E+00
         -4   -1    0    0    0  501 -0.00000000000E+00  0.00000000000E+00  0.26948238962E+02  0.26948238962E+02  0.00000000000E+00 0.  1.
          4   -1    0    0  501    0  0.00000000000E+00 -0.00000000000E+00 -0.13355596633E+04  0.13355596633E+04  0.00000000000E+00 0. -1.
         25    2    1    2    0    0  0.32297987453E+02  0.14792420805E+03 -0.56649858238E+03  0.59957712202E+03  0.12508936840E+03 0.  0.
          5    1    3    3  502    0  0.12352961397E+02 -0.20441264831E+02 -0.43929194767E+02  0.50176563414E+02  0.41800000000E+01 0. -1.
         -5    1    3    3    0  502  0.19945026056E+02  0.16836547288E+03 -0.52256938761E+03  0.54940055860E+03  0.41800000000E+01 0. -1.
        -11    1    1    2    0    0  0.48221090772E+01 -0.13057499637E+03 -0.63375679679E+03  0.64708636200E+03  0.00000000000E+00 0. -1.
         11    1    1    2    0    0 -0.37120096530E+02 -0.17349211679E+02 -0.10835604513E+03  0.11584441820E+03  0.00000000000E+00 0.  1.
</event>
<event>
 7    1  0.2480409E-009  0.8472916E+02  0.7561462E-02  0.1316142E+00
         -1   -1    0    0    0  501 -0.00000000000E+00  0.00000000000E+00  0.12232850345E+03  0.12232850345E+03  0.00000000000E+00 0.  1.
          1   -1    0    0  501    0  0.00000000000E+00 -0.00000000000E+00 -0.96543391117E+02  0.96543391117E+02  0.00000000000E+00 0. -1.
         25    2    1    2    0    0 -0.47715647419E+01 -0.55832932714E+01  0.25314161437E+02  0.12783811399E+03  0.12509130915E+03 0.  0.
          5    1    3    3  502    0 -0.51567477375E+02  0.30867776439E+02  0.31622146451E+02  0.68040112370E+02  0.41800000000E+01 0.  1.
         -5    1    3    3    0  502  0.46795912633E+02 -0.36451069711E+02 -0.63079850135E+01  0.59798001615E+02  0.41800000000E+01 0.  1.
        -11    1    1    2    0    0 -0.33983264200E+01  0.26799327632E+02  0.38318131172E+02  0.46883171399E+02  0.00000000000E+00 0.  1.
         11    1    1    2    0    0  0.81698911619E+01 -0.21216034361E+02 -0.37847180281E+02  0.44150609178E+02  0.00000000000E+00 0. -1.
</event>
<event>
 7    1  0.2480409E-009  0.1516965E+03  0.7561462E-02  0.1198404E+00
          2   -1    0    0  501    0  0.00000000000E+00  0.00000000000E+00  0.13919059536E+04  0.13919059536E+04  0.00000000000E+00 0. -1.
         -2   -1    0    0    0  501 -0.00000000000E+00 -0.00000000000E+00 -0.24721004217E+02  0.24721004217E+02  0.00000000000E+00 0.  1.
         25    2    1    2    0    0  0.43232597249E+02 -0.10734010777E+03  0.10797182481E+04  0.10930825511E+04  0.12508801732E+03 0.  0.
          5    1    3    3  502    0  0.45742778971E+02  0.13071016514E+02  0.39031784290E+03  0.39322861568E+03  0.41800000000E+01 0.  1.
         -5    1    3    3    0  502 -0.25101817218E+01 -0.12041112428E+03  0.68940040518E+03  0.69985393542E+03  0.41800000000E+01 0.  1.
        -11    1    1    2    0    0  0.12469491468E+02  0.62178170974E+02  0.69498805309E+02  0.94083458177E+02  0.00000000000E+00 0.  1.
         11    1    1    2    0    0 -0.55702088717E+02  0.45161936793E+02  0.21796789602E+03  0.22946094857E+03  0.00000000000E+00 0. -1.
</event>
<event>
 7    1  0.2480409E-009  0.2157948E+03  0.7561462E-02  0.1137058E+00
          2   -1    0    0  501    0  0.00000000000E+00  0.00000000000E+00  0.24112356857E+03  0.24112356857E+03  0.00000000000E+00 0. -1.
         -2   -1    0    0    0  501 -0.00000000000E+00 -0.00000000000E+00 -0.20097653638E+03  0.20097653638E+03  0.00000000000E+00 0.  1.
         25    2    1    2    0    0 -0.13855677733E+03  0.13146806784E+03  0.32144739736E+02  0.23057122185E+03  0.12509184885E+03 0.  0.
          5    1    3    3  502    0 -0.13093717023E+03  0.15130680706E+03  0.45338104295E+02  0.20521040060E+03  0.41800000000E+01 0.  1.
         -5    1    3    3    0  502 -0.76196071006E+01 -0.19838739225E+02 -0.13193364560E+02  0.25360821257E+02  0.41800000000E+01 0.  1.
        -11    1    1    2    0    0  0.69846448896E+02 -0.12179797408E+03  0.17515624623E+02  0.14149229668E+03  0.00000000000E+00 0. -1.
         11    1    1    2    0    0  0.68710328437E+02 -0.96700937554E+01 -0.95133321696E+01  0.70036586411E+02  0.00000000000E+00 0.  1.
</event>
<event>
 7    1  0.2729006E-009  0.1833997E+03  0.7561462E-02  0.1164553E+00
         -2   -1    0    0    0  501 -0.00000000000E+00  0.00000000000E+00  0.44544306819E+02  0.44544306819E+02  0.00000000000E+00 0. -1.
          2   -1    0    0  501    0  0.00000000000E+00 -0.00000000000E+00 -0.10033612116E+04  0.10033612116E+04  0.00000000000E+00 0.  1.
         25    2    1    2    0    0  0.10709540255E+02  0.16838160130E+03 -0.66138831171E+03  0.69393787791E+03  0.12509285204E+03 0.  0.
          5    1    3    3  502    0  0.90268458467E+01 -0.23338642308E+00  0.13769717170E+01  0.10045240976E+02  0.41800000000E+01 0.  1.
         -5    1    3    3    0  502  0.16826944083E+01  0.16861498772E+03 -0.66276528342E+03  0.68389263694E+03  0.41800000000E+01 0.  1.
        -11    1    1    2    0    0 -0.42594471994E+02 -0.13687073629E+03 -0.19374748164E+03  0.24101031957E+03  0.00000000000E+00 0. -1.
         11    1    1    2    0    0  0.31884931739E+02 -0.31510865002E+02 -0.10368111145E+03  0.11295732095E+03  0.00000000000E+00 0.  1.
</event>
<event>
 7    1  0.2480409E-009  0.4394366E+03  0.7561462E-02  0.1030920E+00
          2   -1    0    0  501    0  0.00000000000E+00  0.00000000000E+00  0.56895086502E+03  0.56895086502E+03  0.00000000000E+00 0. -1.
         -2   -1    0    0    0  501 -0.00000000000E+00 -0.00000000000E+00 -0.34411343979E+03  0.34411343979E+03  0.00000000000E+00 0.  1.
         25    2    1    2    0    0  0.24810714631E+03  0.34895225628E+03  0.14012846479E+03  0.46755420620E+03  0.12508443501E+03 0.  0.
          5    1    3    3  502    0  0.20675646306E+03  0.19465561789E+03  0.66878253214E+02  0.29176911719E+03  0.41800000000E+01 0.  1.
         -5    1    3    3    0  502  0.41350683250E+02  0.15429663839E+03  0.73250211573E+02  0.17578508901E+03  0.41800000000E+01 0.  1.
        -11    1    1    2    0    0 -0.12439704733E+03 -0.23958018697E+03  0.30270616560E+02  0.27164241495E+03  0.00000000000E+00 0.  1.
         11    1    1    2    0    0 -0.12371009898E+03 -0.10937206930E+03  0.54438343888E+02  0.17386768365E+03  0.00000000000E+00 0. -1.
</event>
<event>
 7    1  0.2480409E-009  0.1030822E+03  0.7561462E-02  0.1273945E+00
          2   -1    0    0  501    0  0.00000000000E+00  0.00000000000E+00  0.56741491663E+02  0.56741491663E+02  0.00000000000E+00 0. -1.
         -2   -1    0    0    0  501 -0.00000000000E+00 -0.00000000000E+00 -0.28488182672E+03  0.28488182672E+03  0.00000000000E+00 0.  1.
         25    2    1    2    0    0 -0.50971507003E+02  0.23640405230E+02 -0.17727758089E+03  0.22412287861E+03  0.12508701269E+03 0.  0.
          5    1    3    3  502    0 -0.76587707816E+02  0.19247048842E+02 -0.48687265000E+02  0.92865752842E+02  0.41800000000E+01 0.  1.
         -5    1    3    3    0  502  0.25616200813E+02  0.43933563884E+01 -0.12859031589E+03  0.13125712577E+03  0.41800000000E+01 0.  1.
        -11    1    1    2    0    0  0.71802526559E+02 -0.31615986623E+02 -0.22895565123E+02  0.81727475996E+02  0.00000000000E+00 0. -1.
         11    1    1    2    0    0 -0.20831019555E+02  0.79755813926E+01 -0.27967189042E+02  0.35772963774E+02  0.00000000000E+00 0.  1.
</event>
<event>
 7    1  0.2480409E-009  0.2650842E+03  0.7561462E-02  0.1104126E+00
         -2   -1    0    0    0  501 -0.00000000000E+00  0.00000000000E+00  0.88958507494E+02  0.88958507494E+02  0.00000000000E+00 0.  1.
          2   -1    0    0  501    0  0.00000000000E+00 -0.00000000000E+00 -0.81024162509E+03  0.81024162509E+03  0.00000000000E+00 0. -1.
         25    2    1    2    0    0 -0.90523018057E+01  0.24426927810E+03 -0.32819100663E+03  0.42790966002E+03  0.12509163007E+03 0.  0.
          5    1    3    3  502    0  0.54022840931E+02  0.13611877624E+03 -0.20709267677E+03  0.25367624595E+03  0.41800000000E+01 0.  1.
         -5    1    3    3    0  502 -0.63075142737E+02  0.10815050186E+03 -0.12109832986E+03  0.17423341407E+03  0.41800000000E+01 0.  1.
        -11    1    1    2    0    0  0.42914408148E+02 -0.18699649394E+03 -0.26787111964E+03  0.32949092841E+03  0.00000000000E+00 0. -1.
         11    1    1    2    0    0 -0.33862106342E+02 -0.57272784159E+02 -0.12522099133E+03  0.14179954415E+03  0.00000000000E+00 0.  1.
</event>
<event>
 7    1  0.2480409E-009  0.9271406E+02  0.7561462E-02  0.1296409E+00
          1   -1    0    0  501    0  0.00000000000E+00  0.00000000000E+00  0.31388250824E+03  0.31388250824E+03  0.00000000000E+00 0. -1.
         -1   -1    0    0    0  501 -0.00000000000E+00 -0.00000000000E+00 -0.52470928923E+02  0.52470928923E+02  0.00000000000E+00 0.  1.
         25    2    1    2    0    0 -0.58705293212E+02 -0.29646963791E+02  0.11871853471E+03  0.18457459929E+03  0.12509371809E+03 0.  0.
          5    1    3    3  502    0 -0.51433074113E+02 -0.10714293089E+02 -0.10473251698E+02  0.53733775135E+02  0.41800000000E+01 0.  1.
         -5    1    3    3    0  502 -0.72722190990E+01 -0.18932670703E+02  0.12919178640E+03  0.13084082415E+03  0.41800000000E+01 0.  1.
        -11    1    1    2    0    0 -0.14242572716E+02 -0.19434585690E+02  0.38831105838E+02  0.45699111360E+02  0.00000000000E+00 0.  1.
         11    1    1    2    0    0  0.72947865928E+02  0.49081549481E+02  0.10386193878E+03  0.13607972652E+03  0.00000000000E+00 0. -1.
</event>
<event>
 7    1  0.2480409E-009  0.9989261E+02  0.7561462E-02  0.1280522E+00
          1   -1    0    0  501    0  0.00000000000E+00  0.00000000000E+00  0.78027295088E+02  0.78027295088E+02  0.00000000000E+00 0. -1.
         -1   -1    0    0    0  501 -0.00000000000E+00 -0.00000000000E+00 -0.18541716370E+03  0.18541716370E+03  0.00000000000E+00 0.  1.
         25    2    1    2    0    0 -0.26065178365E+02  0.32850626417E+02 -0.20984467113E+02  0.13358874308E+03  0.12508815787E+03 0.  0.
          5    1    3    3  502    0  0.38300156605E+02  0.42666068349E+02 -0.34381506184E+02  0.66983996236E+02  0.41800000000E+01 0.  1.
         -5    1    3    3    0  502 -0.64365334971E+02 -0.98154419313E+01  0.13397039071E+02  0.66604746843E+02  0.41800000000E+01 0.  1.
        -11    1    1    2    0    0  0.36292764525E+02 -0.47133667591E+02 -0.22533734799E+02  0.63612236098E+02  0.00000000000E+00 0. -1.
         11    1    1    2    0    0 -0.10227586160E+02  0.14283041173E+02 -0.63871666703E+02  0.66243479613E+02  0.00000000000E+00 0.  1.
</event>
<event>
 7    1  0.2480409E-009  0.1006519E+03  0.7561462E-02  0.1278931E+00
          1   -1    0    0  501    0  0.00000000000E+00  0.00000000000E+00  0.22780898522E+03  0.22780898522E+03  0.00000000000E+00 0. -1.
         -1   -1    0    0    0  501 -0.00000000000E+00 -0.00000000000E+00 -0.85351034219E+02  0.85351034219E+02  0.00000000000E+00 0.  1.
         25    2    1    2    0    0 -0.21518244238E+02  0.54415350785E+02  0.37587844012E+01  0.13814837879E+03  0.12508709313E+03 0.  0.
          5    1    3    3  502    0 -0.54744532172E+02  0.63048421026E+02 -0.30952967933E+02  0.89149457768E+02  0.41800000000E+01 0. -1.
         -5    1    3    3    0  502  0.33226287934E+02 -0.86330702411E+01  0.34711752334E+02  0.48998921027E+02  0.41800000000E+01 0. -1.
        -11    1    1    2    0    0  0.34907693959E+02 -0.59343966939E+02  0.14414202792E+03  0.15974097071E+03  0.00000000000E+00 0. -1.
         11    1    1    2    0    0 -0.13389449721E+02  0.49286161542E+01 -0.54428613192E+01  0.15270669939E+02  0.00000000000E+00 0.  1.
</event>
<event>
 7    1  0.2480409E-009  0.1408287E+03  0.7561462E-02  0.1212218E+00
         -3   -1    0    0    0  501 -0.00000000000E+00  0.00000000000E+00  0.83322597922E+03  0.83322597922E+03  0.00000000000E+00 0.  1.
          3   -1    0    0  501    0  0.00000000000E+00 -0.00000000000E+00 -0.35172311207E+02  0.35172311207E+02  0.00000000000E+00 0. -1.
         25    2    1    2    0    0 -0.24202250806E+02 -0.11364486020E+03  0.58034149455E+03  0.60493049071E+03  0.12507495789E+03 0.  0.
          5    1    3    3  502    0  0.26554452422E+02 -0.92554772439E+02  0.48768274601E+03  0.49711513556E+03  0.41800000000E+01 0. -1.
         -5    1    3    3    0  502 -0.50756703228E+02 -0.21090087760E+02  0.92658748544E+02  0.10781535515E+03  0.41800000000E+01 0. -1.
        -11    1    1    2    0    0  0.40147412432E+02  0.10409555011E+03  0.11939823260E+03  0.16341247268E+03  0.00000000000E+00 0. -1.
         11    1    1    2    0    0 -0.15945161626E+02  0.95493100859E+01  0.98313940858E+02  0.10005532704E+03  0.00000000000E+00 0.  1.
</event>
<event>
 7    1  0.2480409E-009  0.9253009E+02  0.7561462E-02  0.1296838E+00
         -2   -1    0    0    0  501 -0.00000000000E+00  0.00000000000E+00  0.28110765344E+02  0.28110765344E+02  0.00000000000E+00 0. -1.
          2   -1    0    0  501    0  0.00000000000E+00 -0.00000000000E+00 -0.84872172384E+03  0.84872172384E+03  0.00000000000E+00 0.  1.
         25    2    1    2    0    0 -0.48025315393E+02 -0.54057889210E+02 -0.67700059981E+03  0.69224983018E+03  0.12510527147E+03 0.  0.
          5    1    3    3  502    0 -0.38451521507E+02  0.94780324249E+01 -0.53327936172E+03  0.53476415609E+03  0.41800000000E+01 0.  1.
         -5    1    3    3    0  502 -0.95737938866E+01 -0.63535921635E+02 -0.14372123809E+03  0.15748567410E+03  0.41800000000E+01 0.  1.
        -11    1    1    2    0    0  0.34989023199E+02  0.57551138770E+02 -0.15364867141E+03  0.16776256896E+03  0.00000000000E+00 0.  1.
         11    1    1    2    0    0  0.13036292195E+02 -0.34932495599E+01  0.10038312719E+02  0.16820090039E+02  0.00000000000E+00 0. -1.
</event>
<event>
 7    1  0.2480409E-009  0.9035994E+02  0.7561462E-02  0.1301982E+00
         -2   -1    0    0    0  501 -0.00000000000E+00  0.00000000000E+00  0.43254212568E+02  0.43254212568E+02  0.00000000000E+00 0.  1.
          2   -1    0    0  501    0  0.00000000000E+00 -0.00000000000E+00 -0.32878416707E+03  0.32878416707E+03  0.00000000000E+00 0. -1.
         25    2    1    2    0    0  0.34053420359E+02 -0.19568983047E+02 -0.11582210064E+03  0.17494122835E+03  0.12508834416E+03 0.  0.
          5    1    3    3  502    0  0.32182103231E+02 -0.56347125480E+02 -0.13904942632E+02  0.66494406892E+02  0.41800000000E+01 0. -1.
         -5    1    3    3    0  502  0.18713171271E+01  0.36778142433E+02 -0.10191715801E+03  0.10844682146E+03  0.41800000000E+01 0. -1.
        -11    1    1    2    0    0 -0.51463573982E+02 -0.12693400268E+01 -0.16029379810E+03  0.16835739479E+03  0.00000000000E+00 0. -1.
         11    1    1    2    0    0  0.17410153623E+02  0.20838323074E+02 -0.94140557655E+01  0.28739756500E+02  0.00000000000E+00 0.  1.
</event>
<event>
 7    1  0.2480409E-009  0.1161119E+03  0.7561462E-02  0.1249653E+00
          1   -1    0    0  501    0  0.00000000000E+00  0.00000000000E+00  0.11272085274E+03  0.11272085274E+03  0.00000000000E+00 0. -1.
         -1   -1    0    0    0  501 -0.00000000000E+00 -0.00000000000E+00 -0.14519065087E+03  0.14519065087E+03  0.00000000000E+00 0.  1.
         25    2    1    2    0    0 -0.49444391049E+02  0.11921839014E+02  0.24811639984E+02  0.13729294669E+03  0.12508740017E+03 0.  0.
          5    1    3    3  502    0 -0.56437375982E+01  0.64675987479E+02  0.26435050283E+01  0.65109873670E+02  0.41800000000E+01 0.  1.
         -5    1    3    3    0  502 -0.43800653451E+02 -0.52754148465E+02  0.22168134956E+02  0.72183073018E+02  0.41800000000E+01 0.  1.
        -11    1    1    2    0    0  0.58908615876E+02 -0.38423517073E+02 -0.59863766013E+02  0.92359418415E+02  0.00000000000E+00 0.  1.
         11    1    1    2    0    0 -0.94642248270E+01  0.26501678058E+02  0.25823279007E+01  0.28259138502E+02  0.00000000000E+00 0. -1.
</event>
<event>
 7    1  0.2480409E-009  0.1678694E+03  0.7561462E-02  0.1180088E+00
          3   -1    0    0  501    0  0.00000000000E+00  0.00000000000E+00  0.71537798981E+03  0.71537798981E+03  0.00000000000E+00 0. -1.
         -3   -1    0    0    0  501 -0.00000000000E+00 -0.00000000000E+00 -0.45113891789E+02  0.45113891789E+02  0.00000000000E+00 0.  1.
         25    2    1    2    0    0 -0.13195608670E+03 -0.50302231670E+02  0.32714641687E+03  0.37764235399E+03  0.12508495565E+03 0.  0.
          5    1    3    3  502    0 -0.10941215274E+03 -0.80187898449E+02  0.30528081415E+03  0.33408826096E+03  0.41800000000E+01 0. -1.
         -5    1    3    3    0  502 -0.22543933962E+02  0.29885666779E+02  0.21865602718E+02  0.43554093029E+02  0.41800000000E+01 0. -1.
        -11    1    1    2    0    0  0.36473034818E+02 -0.21993364176E+02  0.46988446699E+02  0.63418486735E+02  0.00000000000E+00 0.  1.
         11    1    1    2    0    0  0.95483051880E+02  0.72295595846E+02  0.29612923445E+03  0.31943104087E+03  0.00000000000E+00 0. -1.
</event>
<event>
 7    1  0.2480409E-009  0.1736353E+03  0.7561462E-02  0.1174109E+00
         -1   -1    0    0    0  501 -0.00000000000E+00  0.00000000000E+00  0.87366518716E+02  0.87366518716E+02  0.00000000000E+00 0.  1.
          1   -1    0    0  501    0  0.00000000000E+00 -0.00000000000E+00 -0.50468586491E+03  0.50468586491E+03  0.00000000000E+00 0. -1.
         25    2    1    2    0    0 -0.16218266846E+03 -0.16580620026E+02 -0.32122396289E+03  0.38132761198E+03  0.12509108046E+03 0.  0.
          5    1    3    3  502    0 -0.15176671043E+03  0.11553357114E+02 -0.31575199390E+03  0.35054729853E+03  0.41800000000E+01 0. -1.
         -5    1    3    3    0  502 -0.10415958029E+02 -0.28133977140E+02 -0.54719689971E+01  0.30780313450E+02  0.41800000000E+01 0. -1.
        -11    1    1    2    0    0  0.31959538735E+02  0.12834542100E+02 -0.69780267568E+02  0.77816600600E+02  0.00000000000E+00 0. -1.
         11    1    1    2    0    0  0.13022312972E+03  0.37460779267E+01 -0.26315115729E+02  0.13290817104E+03  0.00000000000E+00 0.  1.
</event>
<event>
 7    1  0.2480409E-009  0.8939656E+02  0.7561462E-02  0.1304320E+00
         -3   -1    0    0    0  501 -0.00000000000E+00  0.00000000000E+00  0.43943268818E+02  0.43943268818E+02  0.00000000000E+00 0.  1.
          3   -1    0    0  501    0  0.00000000000E+00 -0.00000000000E+00 -0.38835327562E+03  0.38835327562E+03  0.00000000000E+00 0. -1.
         25    2    1    2    0    0 -0.36313768988E+02 -0.15555529587E+02 -0.29430902755E+03  0.32222071028E+03  0.12509083948E+03 0.  0.
          5    1    3    3  502    0 -0.63037344224E+02  0.23576507668E+01 -0.27949576899E+03  0.28655649106E+03  0.41800000000E+01 0.  1.
         -5    1    3    3    0  502  0.26723575236E+02 -0.17913180354E+02 -0.14813258552E+02  0.35664219222E+02  0.41800000000E+01 0.  1.
        -11    1    1    2    0    0  0.42658493428E+02  0.39635101466E+02 -0.48569489984E+01  0.58431825945E+02  0.00000000000E+00 0.  1.
         11    1    1    2    0    0 -0.63447244400E+01 -0.24079571879E+02 -0.45244030260E+02  0.51644008212E+02  0.00000000000E+00 0. -1.
</event>
<event>
 7    1  0.2480409E-009  0.1393761E+03  0.7561462E-02  0.1214171E+00
          2   -1    0    0  501    0  0.00000000000E+00  0.00000000000E+00  0.38860690597E+03  0.38860690597E+03  0.00000000000E+00 0. -1.
         -2   -1    0    0    0  501 -0.00000000000E+00 -0.00000000000E+00 -0.91794570775E+02  0.91794570775E+02  0.00000000000E+00 0.  1.
         25    2    1    2    0    0  0.27057310857E+02 -0.55135211198E+02  0.23129173876E+03  0.27002867829E+03  0.12509048363E+03 0.  0.
          5    1    3    3  502    0  0.69585820272E+02 -0.44435175440E+02  0.90816063145E+02  0.12280757682E+03  0.41800000000E+01 0. -1.
         -5    1    3    3    0  502 -0.42528509415E+02 -0.10700035758E+02  0.14047567561E+03  0.14722110147E+03  0.41800000000E+01 0. -1.
        -11    1    1    2    0    0 -0.83111771870E+02  0.46734259225E+02 -0.29432159050E+02  0.99789326058E+02  0.00000000000E+00 0.  1.
         11    1    1    2    0    0  0.56054461013E+02  0.84009519730E+01  0.94952755485E+02  0.11058347240E+03  0.00000000000E+00 0. -1.
</event>
<event>
 7    1  0.2480409E-009  0.1726407E+03  0.7561462E-02  0.1175122E+00
          3   -1    0    0  501    0  0.00000000000E+00  0.00000000000E+00  0.57842626375E+02  0.57842626375E+02  0.00000000000E+00 0. -1.
         -3   -1    0    0    0  501 -0.00000000000E+00 -0.00000000000E+00 -0.72013781489E+03  0.72013781489E+03  0.00000000000E+00 0.  1.
         25    2    1    2    0    0 -0.86372080307E+02  0.14580713227E+03 -0.40444703816E+03  0.45600944472E+03  0.12508937175E+03 0.  0.
          5    1    3    3  502    0 -0.78022410211E+01  0.54234448356E+01 -0.17745503341E+03  0.17775840346E+03  0.41800000000E+01 0. -1.
         -5    1    3    3    0  502 -0.78569839286E+02  0.14038368743E+03 -0.22699200475E+03  0.27825104126E+03  0.41800000000E+01 0. -1.
        -11    1    1    2    0    0  0.81920765644E+02 -0.10624993051E+03 -0.24638707976E+03  0.28054705960E+03  0.00000000000E+00 0.  1.
         11    1    1    2    0    0  0.44513146629E+01 -0.39557201756E+02 -0.11461070603E+02  0.41423936948E+02  0.00000000000E+00 0. -1.
</event>
<event>
 7    1  0.2480409E-009  0.1681963E+03  0.7561462E-02  0.1179742E+00
         -1   -1    0    0    0  501 -0.00000000000E+00  0.00000000000E+00  0.22877653071E+03  0.22877653071E+03  0.00000000000E+00 0.  1.
          1   -1    0    0  501    0  0.00000000000E+00 -0.00000000000E+00 -0.16172375708E+03  0.16172375708E+03  0.00000000000E+00 0. -1.
         25    2    1    2    0    0  0.12346109964E+03 -0.71707334158E+02 -0.34614293799E+02  0.19295449849E+03  0.12509478109E+03 0.  0.
          5    1    3    3  502    0  0.77096816109E+02  0.17522042911E+02 -0.46167350886E+02  0.91650628638E+02  0.41800000000E+01 0.  1.
         -5    1    3    3    0  502  0.46364283532E+02 -0.89229377069E+02  0.11553057087E+02  0.10130386986E+03  0.41800000000E+01 0.  1.
        -11    1    1    2    0    0 -0.12815640059E+03  0.55420696140E+02  0.11084054999E+03  0.17827266783E+03  0.00000000000E+00 0.  1.
         11    1    1    2    0    0  0.46953009485E+01  0.16286638018E+02 -0.91734825607E+01  0.19273121471E+02  0.00000000000E+00 0. -1.
</event>
<event>
 7    1  0.2480409E-009  0.8349046E+02  0.7561462E-02  0.1319428E+00
          2   -1    0    0  501    0  0.00000000000E+00  0.00000000000E+00  0.13637317972E+03  0.13637317972E+03  0.00000000000E+00 0.  1.
         -2   -1    0    0    0  501 -0.00000000000E+00 -0.00000000000E+00 -0.12297511231E+03  0.12297511231E+03  0.00000000000E+00 0. -1.
         25    2    1    2    0    0  0.56450765274E+02  0.23639002642E+02 -0.29051717826E+02  0.14225484577E+03  0.12508775915E+03 0.  0.
          5    1    3    3  502    0  0.27949977934E+02  0.14238254029E+02  0.49111545219E+02  0.58423842891E+02  0.41800000000E+01 0.  1.
         -5    1    3    3    0  502  0.28500787340E+02  0.94007486139E+01 -0.78163263046E+02  0.83831002877E+02  0.41800000000E+01 0.  1.
        -11    1    1    2    0    0 -0.53035625379E+02  0.23331392840E+02  0.39060162157E+02  0.69877233195E+02  0.00000000000E+00 0.  1.
         11    1    1    2    0    0 -0.34151398947E+01 -0.46970395483E+02  0.33896230807E+01  0.47216213073E+02  0.00000000000E+00 0. -1.
</event>
<event>
 7    1  0.2480409E-009  0.8883141E+02  0.7561462E-02  0.1305707E+00
         -1   -1    0    0    0  501 -0.00000000000E+00  0.00000000000E+00  0.69235223604E+02  0.69235223604E+02  0.00000000000E+00 0.  1.
          1   -1    0    0  501    0  0.00000000000E+00 -0.00000000000E+00 -0.22347946958E+03  0.22347946958E+03  0.00000000000E+00 0. -1.
         25    2    1    2    0    0  0.62015982204E+02  0.96066870855E+01 -0.55841845448E+02  0.15067960818E+03  0.12509101540E+03 0.  0.
          5    1    3    3  502    0  0.33685252929E+01  0.41698021227E+02  0.22435892366E+02  0.47654103739E+02  0.41800000000E+01 0. -1.
         -5    1    3    3    0  502  0.58647456911E+02 -0.32091334142E+02 -0.78277737813E+02  0.10302550445E+03  0.41800000000E+01 0. -1.
        -11    1    1    2    0    0 -0.43861246028E+02  0.65329211431E+01 -0.39632730694E+01  0.44521854130E+02  0.00000000000E+00 0.  1.
         11    1    1    2    0    0 -0.18154736176E+02 -0.16139608229E+02 -0.94439127461E+02  0.97513230872E+02  0.00000000000E+00 0. -1.
</event>
<event>
 7    1  0.2480409E-009  0.8033231E+02  0.7561462E-02  0.1328111E+00
         -1   -1    0    0    0  501 -0.00000000000E+00  0.00000000000E+00  0.16502598296E+03  0.16502598296E+03  0.00000000000E+00 0.  1.
          1   -1    0    0  501    0  0.00000000000E+00 -0.00000000000E+00 -0.81265143514E+02  0.81265143514E+02  0.00000000000E+00 0. -1.
         25    2    1    2    0    0  0.34475934671E+02 -0.72906922016E+01  0.23303102882E+02  0.13203336916E+03  0.12509209289E+03 0.  0.
          5    1    3    3  502    0  0.30779083020E+02 -0.38735321754E+02  0.63555558154E+02  0.80650842991E+02  0.41800000000E+01 0. -1.
         -5    1    3    3    0  502  0.36968516517E+01  0.31444629553E+02 -0.40252455272E+02  0.51382526166E+02  0.41800000000E+01 0. -1.
        -11    1    1    2    0    0 -0.26736578751E+02  0.38527697469E+02  0.13008438918E+01  0.46913967114E+02  0.00000000000E+00 0. -1.
         11    1    1    2    0    0 -0.77393559207E+01 -0.31237005268E+02  0.59156892676E+02  0.67343790205E+02  0.00000000000E+00 0.  1.
</event>
<event>
 7    1  0.2480409E-009  0.1637440E+03  0.7561462E-02  0.1184534E+00
          1   -1    0    0  501    0  0.00000000000E+00  0.00000000000E+00  0.63366414236E+03  0.63366414236E+03  0.00000000000E+00 0. -1.
         -1   -1    0    0    0  501 -0.00000000000E+00 -0.00000000000E+00 -0.63217287546E+02  0.63217287546E+02  0.00000000000E+00 0.  1.
         25    2    1    2    0    0 -0.33835348748E+02  0.13434780592E+03  0.13321615659E+03  0.22931163520E+03  0.12507245054E+03 0.  0.
          5    1    3    3  502    0  0.43578886564E+02  0.64248419009E+02  0.32835339322E+02  0.84395560356E+02  0.41800000000E+01 0.  1.
         -5    1    3    3    0  502 -0.77414235312E+02  0.70099386910E+02  0.10038081727E+03  0.14491607485E+03  0.41800000000E+01 0.  1.
        -11    1    1    2    0    0  0.43134164054E+02 -0.88637744588E+02  0.38554453440E+03  0.39794697370E+03  0.00000000000E+00 0. -1.
         11    1    1    2    0    0 -0.92988153064E+01 -0.45710061332E+02  0.51686163833E+02  0.69622821006E+02  0.00000000000E+00 0.  1.
</event>
<event>
 7    1  0.2523950E-009  0.1300374E+03  0.7561462E-02  0.1227400E+00
          2   -1    0    0  501    0  0.00000000000E+00  0.00000000000E+00  0.16473493192E+04  0.16473493192E+04  0.00000000000E+00 0.  1.
         -2   -1    0    0    0  501 -0.00000000000E+00 -0.00000000000E+00 -0.16867735154E+02  0.16867735154E+02  0.00000000000E+00 0. -1.
         25    2    1    2    0    0  0.76974369637E+01  0.10528735223E+03  0.12127258632E+04  0.12237224656E+04  0.12509187256E+03 0.  0.
          5    1    3    3  502    0 -0.19490180964E+02  0.65787932662E+01  0.72712759402E+03  0.72743051768E+03  0.41800000000E+01 0. -1.
         -5    1    3    3    0  502  0.27187617928E+02  0.98708558964E+02  0.48559826917E+03  0.49629194795E+03  0.41800000000E+01 0. -1.
        -11    1    1    2    0    0 -0.43131050153E+02 -0.27541235204E+02  0.20339236739E+03  0.20973140498E+03  0.00000000000E+00 0.  1.
         11    1    1    2    0    0  0.35433613190E+02 -0.77746117026E+02  0.21436335345E+03  0.23076318371E+03  0.00000000000E+00 0. -1.
</event>
<event>
 7    1  0.2480409E-009  0.1175020E+03  0.7561462E-02  0.1247276E+00
         -1   -1    0    0    0  501 -0.00000000000E+00  0.00000000000E+00  0.74662057184E+02  0.74662057184E+02  0.00000000000E+00 0.  1.
          1   -1    0    0  501    0  0.00000000000E+00 -0.00000000000E+00 -0.34907636965E+03  0.34907636965E+03  0.00000000000E+00 0. -1.
         25    2    1    2    0    0 -0.47756563708E+02 -0.63484514827E+02 -0.26281966097E+03  0.30171671167E+03  0.12509127431E+03 0.  0.
          5    1    3    3  502    0 -0.25175051813E+02  0.18863323828E+02 -0.77015085006E+01  0.32655686378E+02  0.41800000000E+01 0. -1.
         -5    1    3    3    0  502 -0.22581511894E+02 -0.82347838655E+02 -0.25511815247E+03  0.26906102529E+03  0.41800000000E+01 0. -1.
        -11    1    1    2    0    0  0.72357393981E+01  0.75240420340E+02  0.70065723433E+01  0.75911585634E+02  0.00000000000E+00 0.  1.
         11    1    1    2    0    0  0.40520824309E+02 -0.11755905513E+02 -0.18601223840E+02  0.46110129533E+02  0.00000000000E+00 0. -1.
</event>
<event>
 7    1  0.2480409E-009  0.1774809E+03  0.7561462E-02  0.1170264E+00
         -1   -1    0    0    0  501 -0.00000000000E+00  0.00000000000E+00  0.42564659449E+02  0.42564659449E+02  0.00000000000E+00 0.  1.
          1   -1    0    0  501    0  0.00000000000E+00 -0.00000000000E+00 -0.10724322756E+04  0.10724322756E+04  0.00000000000E+00 0. -1.
         25    2    1    2    0    0 -0.14683185959E+03 -0.57796527609E+02 -0.78033277772E+03  0.80589544444E+03  0.12509272482E+03 0.  0.
          5    1    3    3  502    0 -0.29492412969E+01 -0.24317832142E+02 -0.35023948924E+03  0.35111996128E+03  0.41800000000E+01 0.  1.
         -5    1    3    3    0  502 -0.14388261829E+03 -0.33478695467E+02 -0.43009328847E+03  0.45477548316E+03  0.41800000000E+01 0.  1.
        -11    1    1    2    0    0  0.10519264282E+02 -0.21992625364E+02 -0.30133651824E+02  0.38760385237E+02  0.00000000000E+00 0.  1.
         11    1    1    2    0    0  0.13631259530E+03  0.79789152973E+02 -0.21940118665E+03  0.27034110541E+03  0.00000000000E+00 0. -1.
</event>
<event>
 7    1  0.2480409E-009  0.9872485E+02  0.7561462E-02  0.1283000E+00
          2   -1    0    0  501    0  0.00000000000E+00  0.00000000000E+00  0.29808357580E+03  0.29808357580E+03  0.00000000000E+00 0. -1.
         -2   -1    0    0    0  501 -0.00000000000E+00 -0.00000000000E+00 -0.48164709370E+02  0.48164709370E+02  0.00000000000E+00 0.  1.
         25    2    1    2    0    0 -0.32241740661E+02 -0.24819383088E+02  0.22982714680E+03  0.26480848875E+03  0.12508991441E+03 0.  0.
          5    1    3    3  502    0 -0.63653756017E+02 -0.57478253623E+02  0.15650737067E+03  0.17851492870E+03  0.41800000000E+01 0.  1.
         -5    1    3    3    0  502  0.31412015356E+02  0.32658870536E+02  0.73319776130E+02  0.86293560044E+02  0.41800000000E+01 0.  1.
        -11    1    1    2    0    0 -0.10068463352E+02  0.21374609242E+02  0.29664108222E+02  0.37923702234E+02  0.00000000000E+00 0. -1.
         11    1    1    2    0    0  0.42310204013E+02  0.34447738453E+01 -0.95723885910E+01  0.43516094193E+02  0.00000000000E+00 0.  1.
</event>
<event>
 7    1  0.2480409E-009  0.1049776E+03  0.7561462E-02  0.1270164E+00
         -1   -1    0    0    0  501 -0.00000000000E+00  0.00000000000E+00  0.10595761650E+03  0.10595761650E+03  0.00000000000E+00 0.  1.
          1   -1    0    0  501    0  0.00000000000E+00 -0.00000000000E+00 -0.27104584971E+03  0.27104584971E+03  0.00000000000E+00 0. -1.
         25    2    1    2    0    0  0.37385477175E+02 -0.30795588231E+02 -0.22060931727E+03  0.25819141517E+03  0.12509314068E+03 0.  0.
          5    1    3    3  502    0 -0.39098672663E+02 -0.31428245897E+02 -0.13079797046E+03  0.14014999936E+03  0.41800000000E+01 0. -1.
         -5    1    3    3    0  502  0.76484149838E+02  0.63265766596E+00 -0.89811346811E+02  0.11804141582E+03  0.41800000000E+01 0. -1.
        -11    1    1    2    0    0 -0.55403980679E+02  0.11441519513E+02  0.68921984077E+02  0.89166974452E+02  0.00000000000E+00 0.  1.
         11    1    1    2    0    0  0.18018503504E+02  0.19354068718E+02 -0.13400900017E+02  0.29645076585E+02  0.00000000000E+00 0. -1.
</event>
<event>
 7    1  0.2480409E-009  0.8666586E+02  0.7561462E-02  0.1311133E+00
         -1   -1    0    0    0  501 -0.00000000000E+00  0.00000000000E+00  0.54121843883E+02  0.54121843883E+02  0.00000000000E+00 0.  1.
          1   -1    0    0  501    0  0.00000000000E+00 -0.00000000000E+00 -0.23024486099E+03  0.23024486099E+03  0.00000000000E+00 0. -1.
         25    2    1    2    0    0  0.18755619205E+02  0.17072467526E+02 -0.92606040629E+02  0.15769225751E+03  0.12509087464E+03 0.  0.
          5    1    3    3  502    0  0.94974578960E+01  0.67933142605E+02 -0.77695300141E+02  0.10372630156E+03  0.41800000000E+01 0.  1.
         -5    1    3    3    0  502  0.92581613087E+01 -0.50860675079E+02 -0.14910740488E+02  0.53965955956E+02  0.41800000000E+01 0.  1.
        -11    1    1    2    0    0 -0.19250353647E+02  0.12639790765E+02 -0.92742515543E+02  0.95558958844E+02  0.00000000000E+00 0. -1.
         11    1    1    2    0    0  0.49473444182E+00 -0.29712258291E+02  0.92255390614E+01  0.31115488521E+02  0.00000000000E+00 0.  1.
</event>
<event>
 7    1  0.2480409E-009  0.1136276E+03  0.7561462E-02  0.1253996E+00
         -2   -1    0    0    0  501 -0.00000000000E+00  0.00000000000E+00  0.25029288590E+03  0.25029288590E+03  0.00000000000E+00 0. -1.
          2   -1    0    0  501    0  0.00000000000E+00 -0.00000000000E+00 -0.78531240759E+02  0.78531240759E+02  0.00000000000E+00 0.  1.
         25    2    1    2    0    0 -0.76120147195E+02  0.33223271553E+02  0.56850940262E+02  0.16055478619E+03  0.12509095642E+03 0.  0.
          5    1    3    3  502    0  0.47110021652E+01 -0.36691547792E+02  0.35599085279E+02  0.51509518474E+02  0.41800000000E+01 0. -1.
         -5    1    3    3    0  502 -0.80831149360E+02  0.69914819344E+02  0.21251854983E+02  0.10904526771E+03  0.41800000000E+01 0. -1.
        -11    1    1    2    0    0  0.50119726424E+02 -0.20972785748E+02  0.48833723119E+01  0.54549904161E+02  0.00000000000E+00 0.  1.
         11    1    1    2    0    0  0.26000420770E+02 -0.12250485805E+02  0.11002733257E+03  0.11371943631E+03  0.00000000000E+00 0. -1.
</event>
<event>
 7    1  0.2480409E-009  0.9971394E+02  0.7561462E-02  0.1280899E+00
          2   -1    0    0  501    0  0.00000000000E+00  0.00000000000E+00  0.23018088929E+03  0.23018088929E+03  0.00000000000E+00 0. -1.
         -2   -1    0    0    0  501 -0.00000000000E+00 -0.00000000000E+00 -0.73942104235E+02  0.73942104235E+02  0.00000000000E+00 0.  1.
         25    2    1    2    0    0 -0.19117004336E+02 -0.56007358769E+02  0.31922974210E+02  0.14202453711E+03  0.12509839634E+03 0.  0.
          5    1    3    3  502    0  0.25723604738E+02 -0.40296658978E+02  0.67287544627E+02  0.82647508295E+02  0.41800000000E+01 0. -1.
         -5    1    3    3    0  502 -0.44840609074E+02 -0.15710699790E+02 -0.35364570417E+02  0.59377028814E+02  0.41800000000E+01 0. -1.
        -11    1    1    2    0    0  0.38118035833E+02  0.70297261975E+02  0.90598250299E+02  0.12084176701E+03  0.00000000000E+00 0. -1.
         11    1    1    2    0    0 -0.19001031497E+02 -0.14289903206E+02  0.33717560548E+02  0.41256689408E+02  0.00000000000E+00 0.  1.
</event>
<event>
 7    1  0.2480409E-009  0.1090347E+03  0.7561462E-02  0.1262368E+00
         -2   -1    0    0    0  501 -0.00000000000E+00  0.00000000000E+00  0.44026196315E+03  0.44026196315E+03  0.00000000000E+00 0.  1.
          2   -1    0    0  501    0  0.00000000000E+00 -0.00000000000E+00 -0.44748012418E+02  0.44748012418E+02  0.00000000000E+00 0. -1.
         25    2    1    2    0    0  0.62503907958E+02  0.23557410604E+02  0.31825730780E+03  0.34841929611E+03  0.12508637747E+03 0.  0.
          5    1    3    3  502    0  0.20032994316E+02  0.50831788776E+02  0.46158057323E+02  0.71646564936E+02  0.41800000000E+01 0.  1.
         -5    1    3    3    0  502  0.42470913642E+02 -0.27274378171E+02  0.27209925048E+03  0.27677273118E+03  0.41800000000E+01 0.  1.
        -11    1    1    2    0    0 -0.78284956465E+02 -0.41603023338E+02  0.61787020182E+02  0.10806008432E+03  0.00000000000E+00 0.  1.
         11    1    1    2    0    0  0.15781048507E+02  0.18045612734E+02  0.15469622741E+02  0.28530595134E+02  0.00000000000E+00 0. -1.
</event>
<event>
 7    1  0.2480409E-009  0.9553433E+02  0.7561462E-02  0.1289977E+00
         -1   -1    0    0    0  501 -0.00000000000E+00  0.00000000000E+00  0.27035276735E+02  0.27035276735E+02  0.00000000000E+00 0.  1.
          1   -1    0    0  501    0  0.00000000000E+00 -0.00000000000E+00 -0.69830600962E+03  0.69830600962E+03  0.00000000000E+00 0. -1.
         25    2    1    2    0    0 -0.64648378643E+02  0.31745049506E+02 -0.49022291122E+03  0.51103252738E+03  0.12509428577E+03 0.  0.
          5    1    3    3  502    0 -0.75593981829E+02  0.28419618451E+02 -0.14848842103E+03  0.16908107044E+03  0.41800000000E+01 0. -1.
         -5    1    3    3    0  502  0.10945603187E+02  0.33254310556E+01 -0.34173449019E+03  0.34195145694E+03  0.41800000000E+01 0. -1.
        -11    1    1    2    0    0  0.33649612054E+02  0.18936157038E+02 -0.21801982684E+02  0.44341863782E+02  0.00000000000E+00 0. -1.
         11    1    1    2    0    0  0.30998766589E+02 -0.50681206545E+02 -0.15924583898E+03  0.16996689519E+03  0.00000000000E+00 0.  1.
</event>
<event>
 7    1  0.2480409E-009  0.1321397E+03  0.7561462E-02  0.1224315E+00
          1   -1    0    0  501    0  0.00000000000E+00  0.00000000000E+00  0.24939003390E+03  0.24939003390E+03  0.00000000000E+00 0. -1.
         -1   -1    0    0    0  501 -0.00000000000E+00 -0.00000000000E+00 -0.12560029418E+03  0.12560029418E+03  0.00000000000E+00 0.  1.
         25    2    1    2    0    0 -0.98994491836E+02  0.17351620431E+02  0.16658280126E+03  0.23129941455E+03  0.12509436977E+03 0.  0.
          5    1    3    3  502    0  0.25668960269E+02  0.12045935503E+02  0.85651678802E+01  0.29913785857E+02  0.41800000000E+01 0. -1.
         -5    1    3    3    0  502 -0.12466345211E+03  0.53056849273E+01  0.15801763338E+03  0.20138562869E+03  0.41800000000E+01 0. -1.
        -11    1    1    2    0    0  0.81065454247E+02 -0.32462913099E+02  0.80573877070E+01  0.87694755236E+02  0.00000000000E+00 0. -1.
         11    1    1    2    0    0  0.17929037589E+02  0.15111292668E+02 -0.50850449252E+02  0.55996158298E+02  0.00000000000E+00 0.  1.
</event>
<event>
 7    1  0.2480409E-009  0.1392271E+03  0.7561462E-02  0.1214373E+00
         -2   -1    0    0    0  501 -0.00000000000E+00  0.00000000000E+00  0.32979574158E+03  0.32979574158E+03  0.00000000000E+00 0.  1.
          2   -1    0    0  501    0  0.00000000000E+00 -0.00000000000E+00 -0.74037692888E+02  0.74037692888E+02  0.00000000000E+00 0. -1.
         25    2    1    2    0    0 -0.15205402595E+01 -0.11120917049E+03  0.15566380379E+03  0.22858141450E+03  0.12509377122E+03 0.  0.
          5    1    3    3  502    0 -0.28905764269E+02 -0.10742362648E+03  0.55118976079E+02  0.12422138567E+03  0.41800000000E+01 0.  1.
         -5    1    3    3    0  502  0.27385224010E+02 -0.37855440152E+01  0.10054482771E+03  0.10436002883E+03  0.41800000000E+01 0.  1.
        -11    1    1    2    0    0 -0.38614970667E+02  0.31142352475E+02  0.15293029515E+02  0.51911837080E+02  0.00000000000E+00 0. -1.
         11    1    1    2    0    0  0.40135510927E+02  0.80066818018E+02  0.84801215391E+02  0.12334018290E+03  0.00000000000E+00 0.  1.
</event>
<event>
 7    1  0.2480409E-009  0.1668253E+03  0.7561462E-02  0.1181200E+00
          2   -1    0    0  501    0  0.00000000000E+00  0.00000000000E+00  0.11392960874E+04  0.11392960874E+04  0.00000000000E+00 0. -1.
         -2   -1    0    0    0  501 -0.00000000000E+00 -0.00000000000E+00 -0.31285581808E+02  0.31285581808E+02  0.00000000000E+00 0.  1.
         25    2    1    2    0    0 -0.14185110585E+03 -0.56514448082E+02  0.51520477281E+03  0.55172292252E+03  0.12508639508E+03 0.  0.
          5    1    3    3  502    0 -0.80606701692E+02 -0.53194242798E+02  0.13195978340E+03  0.16357849693E+03  0.41800000000E+01 0. -1.
         -5    1    3    3    0  502 -0.61244404156E+02 -0.33202052842E+01  0.38324498941E+03  0.38814442559E+03  0.41800000000E+01 0. -1.
        -11    1    1    2    0    0  0.12994450907E+03  0.13231859319E+02  0.47986001055E+03  0.49731910004E+03  0.00000000000E+00 0. -1.
         11    1    1    2    0    0  0.11906596779E+02  0.43282588763E+02  0.11294572220E+03  0.12153964661E+03  0.00000000000E+00 0.  1.
</event>
<event>
 7    1  0.2480409E-009  0.1040642E+03  0.7561462E-02  0.1271974E+00
         -2   -1    0    0    0  501 -0.00000000000E+00  0.00000000000E+00  0.11128699629E+02  0.11128699629E+02  0.00000000000E+00 0.  1.
          2   -1    0    0  501    0  0.00000000000E+00 -0.00000000000E+00 -0.11522585835E+04  0.11522585835E+04  0.00000000000E+00 0. -1.
         25    2    1    2    0    0 -0.19496142334E+02  0.31418952796E+02 -0.80202480125E+03  0.81256266091E+03  0.12508815265E+03 0.  0.
          5    1    3    3  502    0  0.15144829729E+02 -0.38701524073E+02 -0.14531588609E+03  0.15119971225E+03  0.41800000000E+01 0.  1.
         -5    1    3    3    0  502 -0.34640972064E+02  0.70120476869E+02 -0.65670891515E+03  0.66136294866E+03  0.41800000000E+01 0.  1.
        -11    1    1    2    0    0  0.17959290045E+02 -0.58355745637E+02 -0.19941516183E+03  0.20855295710E+03  0.00000000000E+00 0.  1.
         11    1    1    2    0    0  0.15368522890E+01  0.26936792841E+02 -0.13968992083E+03  0.14227166515E+03  0.00000000000E+00 0. -1.
</event>
<event>
 7    1  0.2480409E-009  0.1130069E+03  0.7561462E-02  0.1255101E+00
          1   -1    0    0  501    0  0.00000000000E+00  0.00000000000E+00  0.37668472400E+02  0.37668472400E+02  0.00000000000E+00 0. -1.
         -1   -1    0    0    0  501 -0.00000000000E+00 -0.00000000000E+00 -0.38682835504E+03  0.38682835504E+03  0.00000000000E+00 0.  1.
         25    2    1    2    0    0  0.45043739272E+02 -0.30124579488E+02 -0.22363663075E+03  0.26191143708E+03  0.12509128477E+03 0.  0.
          5    1    3    3  502    0  0.82331168589E+02 -0.61744512499E+01 -0.18628127876E+03  0.20380071733E+03  0.41800000000E+01 0.  1.
         -5    1    3    3    0  502 -0.37287429317E+02 -0.23950128238E+02 -0.37355351988E+02  0.58110719750E+02  0.41800000000E+01 0.  1.
        -11    1    1    2    0    0  0.74792352128E+00 -0.26217764644E+02 -0.14613315835E+02  0.30024649410E+02  0.00000000000E+00 0. -1.
         11    1    1    2    0    0 -0.45791662793E+02  0.56342344132E+02 -0.11090993606E+03  0.13256074095E+03  0.00000000000E+00 0.  1.
</event>
<event>
 7    1  0.2480409E-009  0.2150649E+03  0.7561462E-02  0.1137617E+00
          1   -1    0    0  501    0  0.00000000000E+00  0.00000000000E+00  0.48954617913E+03  0.48954617913E+03  0.00000000000E+00 0. -1.
         -1   -1    0    0    0  501 -0.00000000000E+00 -0.00000000000E+00 -0.19777664909E+03  0.19777664909E+03  0.00000000000E+00 0.  1.
         25    2    1    2    0    0 -0.21055979527E+02  0.18889891544E+03 -0.95111388020E+02  0.24661438135E+03  0.12508526065E+03 0.  0.
          5    1    3    3  502    0 -0.73789294199E+02  0.10977100499E+03 -0.53654695749E+02  0.14279647142E+03  0.41800000000E+01 0.  1.
         -5    1    3    3    0  502  0.52733314673E+02  0.79127910450E+02 -0.41456692271E+02  0.10381790993E+03  0.41800000000E+01 0.  1.
        -11    1    1    2    0    0 -0.94193090030E+00 -0.17811327021E+03  0.28627660513E+03  0.33716393476E+03  0.00000000000E+00 0.  1.
         11    1    1    2    0    0  0.21997910427E+02 -0.10785645231E+02  0.10060431293E+03  0.10354451210E+03  0.00000000000E+00 0. -1.
</event>
<event>
 7    1  0.2480409E-009  0.9847280E+02  0.7561462E-02  0.1283541E+00
         -1   -1    0    0    0  501 -0.00000000000E+00  0.00000000000E+00  0.42682861178E+02  0.42682861178E+02  0.00000000000E+00 0.  1.
          1   -1    0    0  501    0  0.00000000000E+00 -0.00000000000E+00 -0.33089671881E+03  0.33089671881E+03  0.00000000000E+00 0. -1.
         25    2    1    2    0    0 -0.52714423809E+01 -0.39558793950E+02 -0.11656578644E+03  0.17557436964E+03  0.12508433323E+03 0.  0.
          5    1    3    3  502    0  0.43063844984E+02 -0.24749665658E+02 -0.11441747877E+03  0.12480333546E+03  0.41800000000E+01 0.  1.
         -5    1    3    3    0  502 -0.48335287365E+02 -0.14809128292E+02 -0.21483076786E+01  0.50771034176E+02  0.41800000000E+01 0.  1.
        -11    1    1    2    0    0 -0.17497313918E+02  0.61990584489E+02 -0.93170715602E+02  0.11326857819E+03  0.00000000000E+00 0.  1.
         11    1    1    2    0    0  0.22768756299E+02 -0.22431790539E+02 -0.78477355582E+02  0.84736632157E+02  0.00000000000E+00 0. -1.
</event>
<event>
 7    1  0.2480409E-009  0.2122162E+03  0.7561462E-02  0.1139823E+00
         -2   -1    0    0    0  501 -0.00000000000E+00  0.00000000000E+00  0.26041915540E+02  0.26041915540E+02  0.00000000000E+00 0. -1.
          2   -1    0    0  501    0  0.00000000000E+00 -0.00000000000E+00 -0.18493544558E+04  0.18493544558E+04  0.00000000000E+00 0.  1.
         25    2    1    2    0    0  0.14359052494E+03  0.12302359258E+03 -0.84671782006E+03  0.87654518744E+03  0.12508939059E+03 0.  0.
          5    1    3    3  502    0  0.70286659498E+01 -0.18392341842E+02 -0.18883941659E+03  0.18990913101E+03  0.41800000000E+01 0. -1.
         -5    1    3    3    0  502  0.13656185899E+03  0.14141593442E+03 -0.65787840347E+03  0.68663605643E+03  0.41800000000E+01 0. -1.
        -11    1    1    2    0    0 -0.79422480463E+02 -0.11939577312E+03 -0.73472006559E+03  0.74858323239E+03  0.00000000000E+00 0.  1.
         11    1    1    2    0    0 -0.64168044481E+02 -0.36278194582E+01 -0.24187465460E+03  0.25026795150E+03  0.00000000000E+00 0. -1.
</event>
<event>
 7    1  0.2480409E-009  0.1115091E+03  0.7561462E-02  0.1257800E+00
          4   -1    0    0  501    0  0.00000000000E+00  0.00000000000E+00  0.31883894637E+03  0.31883894637E+03  0.00000000000E+00 0. -1.
         -4   -1    0    0    0  501 -0.00000000000E+00 -0.00000000000E+00 -0.55686799466E+02  0.55686799466E+02  0.00000000000E+00 0.  1.
         25    2    1    2    0    0 -0.29753956165E+02  0.62184027922E+02  0.98870446554E+02  0.17370939149E+03  0.12508971282E+03 0.  0.
          5    1    3    3  502    0  0.13172097773E+02  0.78148410467E+02  0.10005244174E+03  0.12770529244E+03  0.41800000000E+01 0.  1.
         -5    1    3    3    0  502 -0.42926053938E+02 -0.15964382546E+02 -0.11819951853E+01  0.46004099050E+02  0.41800000000E+01 0.  1.
        -11    1    1    2    0    0  0.50342548585E+02 -0.57741873356E+02  0.16253293147E+03  0.17968152368E+03  0.00000000000E+00 0. -1.
         11    1    1    2    0    0 -0.20588592420E+02 -0.44421545663E+01  0.17487688736E+01  0.21134830673E+02  0.00000000000E+00 0.  1.
</event>
<event>
 7    1  0.2480409E-009  0.1176830E+03  0.7561462E-02  0.1246969E+00
          2   -1    0    0  501    0  0.00000000000E+00  0.00000000000E+00  0.62901187081E+03  0.62901187081E+03  0.00000000000E+00 0. -1.
         -2   -1    0    0    0  501 -0.00000000000E+00 -0.00000000000E+00 -0.27338356946E+02  0.27338356946E+02  0.00000000000E+00 0.  1.
         25    2    1    2    0    0  0.12550468834E+02  0.75851908736E+02  0.30346819807E+03  0.33712131353E+03  0.12508719546E+03 0.  0.
          5    1    3    3  502    0  0.40746288425E+02 -0.69125405520E+01  0.33649133073E+02  0.53458206048E+02  0.41800000000E+01 0. -1.
         -5    1    3    3    0  502 -0.28195819592E+02  0.82764449288E+02  0.26981906500E+03  0.28366310748E+03  0.41800000000E+01 0. -1.
        -11    1    1    2    0    0  0.24186209815E+02 -0.62814193567E+02  0.12802303143E+03  0.14463917946E+03  0.00000000000E+00 0. -1.
         11    1    1    2    0    0 -0.36736678649E+02 -0.13037715169E+02  0.17018228436E+03  0.17458973477E+03  0.00000000000E+00 0.  1.
</event>
<event>
 7    1  0.2480409E-009  0.1202610E+03  0.7561462E-02  0.1242667E+00
         -4   -1    0    0    0  501 -0.00000000000E+00  0.00000000000E+00  0.23374444337E+03  0.23374444337E+03  0.00000000000E+00 0.  1.
          4   -1    0    0  501    0  0.00000000000E+00 -0.00000000000E+00 -0.74806612062E+02  0.74806612062E+02  0.00000000000E+00 0. -1.
         25    2    1    2    0    0 -0.42780393385E+02  0.62864146934E+02  0.10192813520E+03  0.17837940742E+03  0.12509118762E+03 0.  0.
          5    1    3    3  502    0 -0.75940778599E+02  0.61978374689E+02  0.10630442064E+03  0.14465968005E+03  0.41800000000E+01 0. -1.
         -5    1    3    3    0  502  0.33160385214E+02  0.88577224435E+00 -0.43762854420E+01  0.33719727375E+02  0.41800000000E+01 0. -1.
        -11    1    1    2    0    0  0.62753074055E+02 -0.27826343680E+02  0.11913687676E+02  0.69672014898E+02  0.00000000000E+00 0. -1.
         11    1    1    2    0    0 -0.19972680670E+02 -0.35037803254E+02  0.45096008429E+02  0.60499633108E+02  0.00000000000E+00 0.  1.
</event>
<event>
 7    1  0.2480409E-009  0.3093606E+03  0.7561462E-02  0.1080653E+00
          1   -1    0    0  501    0  0.00000000000E+00  0.00000000000E+00  0.11600737239E+03  0.11600737239E+03  0.00000000000E+00 0. -1.
         -1   -1    0    0    0  501 -0.00000000000E+00 -0.00000000000E+00 -0.10859224020E+04  0.10859224020E+04  0.00000000000E+00 0.  1.
         25    2    1    2    0    0 -0.29842936264E+03 -0.68892888142E+02 -0.73231697558E+03  0.80358075356E+03  0.12509020847E+03 0.  0.
          5    1    3    3  502    0 -0.12047762261E+03 -0.23039437048E+02 -0.15499505066E+03  0.19770334175E+03  0.41800000000E+01 0. -1.
         -5    1    3    3    0  502 -0.17795174003E+03 -0.45853451093E+02 -0.57732192491E+03  0.60587741181E+03  0.41800000000E+01 0. -1.
        -11    1    1    2    0    0  0.36211182720E+02 -0.11363098482E+02 -0.40845807549E+01  0.38171370961E+02  0.00000000000E+00 0.  1.
         11    1    1    2    0    0  0.26221817992E+03  0.80255986624E+02 -0.23351347331E+03  0.36017764990E+03  0.00000000000E+00 0. -1.
</event>
<event>
 7    1  0.2480409E-009  0.1147382E+03  0.7561462E-02  0.1252039E+00
         -1   -1    0    0    0  501 -0.00000000000E+00  0.00000000000E+00  0.17980306373E+03  0.17980306373E+03  0.00000000000E+00 0. -1.
          1   -1    0    0  501    0  0.00000000000E+00 -0.00000000000E+00 -0.10399291875E+03  0.10399291875E+03  0.00000000000E+00 0.  1.
         25    2    1    2    0    0  0.33720737609E+01 -0.71590986864E+02 -0.11399188508E+01  0.14416966191E+03  0.12508777606E+03 0.  0.
          5    1    3    3  502    0  0.28961848327E+02  0.28243874233E+02  0.41940914318E+01  0.40884812500E+02  0.41800000000E+01 0. -1.
         -5    1    3    3    0  502 -0.25589774566E+02 -0.99834861097E+02 -0.53340102827E+01  0.10328484941E+03  0.41800000000E+01 0. -1.
        -11    1    1    2    0    0  0.17792482135E+02  0.57609446153E+02  0.18114720602E+01  0.60321655628E+02  0.00000000000E+00 0.  1.
         11    1    1    2    0    0 -0.21164555896E+02  0.13981540711E+02  0.75138591771E+02  0.79304664934E+02  0.00000000000E+00 0. -1.
</event>
<event>
 7    1  0.2480409E-009  0.8927339E+02  0.7561462E-02  0.1304621E+00
         -1   -1    0    0    0  501 -0.00000000000E+00  0.00000000000E+00  0.35456330054E+02  0.35456330054E+02  0.00000000000E+00 0.  1.
          1   -1    0    0  501    0  0.00000000000E+00 -0.00000000000E+00 -0.36447094381E+03  0.36447094381E+03  0.00000000000E+00 0. -1.
         25    2    1    2    0    0 -0.12680128699E+02  0.16944942052E+01 -0.13102942488E+03  0.18160516891E+03  0.12509224682E+03 0.  0.
          5    1    3    3  502    0 -0.48421122581E+02 -0.25121825480E+02 -0.12484100160E+03  0.13630282209E+03  0.41800000000E+01 0. -1.
         -5    1    3    3    0  502  0.35740993882E+02  0.26816319685E+02 -0.61884232824E+01  0.45302346825E+02  0.41800000000E+01 0. -1.
        -11    1    1    2    0    0  0.29564310481E+02  0.30580281929E+02 -0.48710524204E+02  0.64667745169E+02  0.00000000000E+00 0.  1.
         11    1    1    2    0    0 -0.16884181782E+02 -0.32274776134E+02 -0.14927466467E+03  0.15365435979E+03  0.00000000000E+00 0. -1.
</event>
<event>
 7    1  0.2480409E-009  0.8611030E+02  0.7561462E-02  0.1312554E+00
          2   -1    0    0  501    0  0.00000000000E+00  0.00000000000E+00  0.99094920992E+03  0.99094920992E+03  0.00000000000E+00 0. -1.
         -2   -1    0    0    0  501 -0.00000000000E+00 -0.00000000000E+00 -0.14167199729E+02  0.14167199729E+02  0.00000000000E+00 0.  1.
         25    2    1    2    0    0 -0.57555541675E+02  0.13005978947E+01  0.61370592925E+03  0.62896452533E+03  0.12508826721E+03 0.  0.
          5    1    3    3  502    0 -0.32264394921E+02 -0.26725315096E+02  0.56483726153E+02  0.70449395787E+02  0.41800000000E+01 0.  1.
         -5    1    3    3    0  502 -0.25291146754E+02  0.28025912991E+02  0.55722220310E+03  0.55851512954E+03  0.41800000000E+01 0.  1.
        -11    1    1    2    0    0  0.47980313225E+02 -0.33516311651E+02  0.16117249825E+03  0.17147019507E+03  0.00000000000E+00 0.  1.
         11    1    1    2    0    0  0.95752284501E+01  0.32215713756E+02  0.20190358269E+03  0.20468168926E+03  0.00000000000E+00 0. -1.
</event>
<event>
 7    1  0.2480409E-009  0.2517793E+03  0.7561462E-02  0.1112185E+00
          2   -1    0    0  501    0  0.00000000000E+00  0.00000000000E+00  0.19076277408E+04  0.19076277408E+04  0.00000000000E+00 0. -1.
         -2   -1    0    0    0  501 -0.00000000000E+00 -0.00000000000E+00 -0.36661168285E+02  0.36661168285E+02  0.00000000000E+00 0.  1.
         25    2    1    2    0    0  0.46988673632E+02 -0.23583014553E+03  0.10114565900E+04  0.10471463537E+04  0.12508900681E+03 0.  0.
          5    1    3    3  502    0  0.35962553330E+02 -0.23791195121E+03  0.80149366282E+03  0.83684225856E+03  0.41800000000E+01 0. -1.
         -5    1    3    3    0  502  0.11026120302E+02  0.20818056781E+01  0.20996292716E+03  0.21030409512E+03  0.41800000000E+01 0. -1.
        -11    1    1    2    0    0 -0.11300799007E+02  0.20014957949E+03  0.75385001117E+03  0.78004961482E+03  0.00000000000E+00 0. -1.
         11    1    1    2    0    0 -0.35687874625E+02  0.35680566042E+02  0.10565997140E+03  0.11709294063E+03  0.00000000000E+00 0.  1.
</event>
<event>
 7    1  0.2480409E-009  0.1416353E+03  0.7561462E-02  0.1211145E+00
         -1   -1    0    0    0  501 -0.00000000000E+00  0.00000000000E+00  0.11560481887E+02  0.11560481887E+02  0.00000000000E+00 0.  1.
          1   -1    0    0  501    0  0.00000000000E+00 -0.00000000000E+00 -0.21033518623E+04  0.21033518623E+04  0.00000000000E+00 0. -1.
         25    2    1    2    0    0  0.68390365682E+02 -0.78168234095E+02 -0.14206668280E+04  0.14299403072E+04  0.12509009104E+03 0.  0.
          5    1    3    3  502    0  0.82707672989E+02 -0.94294109285E+02 -0.88836821742E+03  0.89718866485E+03  0.41800000000E+01 0.  1.
         -5    1    3    3    0  502 -0.14317307307E+02  0.16125875190E+02 -0.53229861061E+03  0.53275164232E+03  0.41800000000E+01 0.  1.
        -11    1    1    2    0    0  0.12034619027E+02  0.48683094396E+02 -0.29354534442E+03  0.29779816145E+03  0.00000000000E+00 0. -1.
         11    1    1    2    0    0 -0.80424984709E+02  0.29485139699E+02 -0.37757920798E+03  0.38717387557E+03  0.00000000000E+00 0.  1.
</event>
<event>
 7    1  0.2480409E-009  0.1287151E+03  0.7561462E-02  0.1229375E+00
         -2   -1    0    0    0  501 -0.00000000000E+00  0.00000000000E+00  0.38105707077E+02  0.38105707077E+02  0.00000000000E+00 0.  1.
          2   -1    0    0  501    0  0.00000000000E+00 -0.00000000000E+00 -0.46904703446E+03  0.46904703446E+03  0.00000000000E+00 0. -1.
         25    2    1    2    0    0 -0.66264451263E+02  0.34658751314E+02 -0.24579976981E+03  0.28575771251E+03  0.12509091446E+03 0.  0.
          5    1    3    3  502    0 -0.95033704897E+02  0.58608385194E+01 -0.21287621584E+03  0.23323702571E+03  0.41800000000E+01 0. -1.
         -5    1    3    3    0  502  0.28769253634E+02  0.28797912794E+02 -0.32923553970E+02  0.52520686801E+02  0.41800000000E+01 0. -1.
        -11    1    1    2    0    0  0.83019290499E+02 -0.34707473058E+00 -0.12083534137E+03  0.14660662598E+03  0.00000000000E+00 0. -1.
         11    1    1    2    0    0 -0.16754839236E+02 -0.34311676583E+02 -0.64306216200E+02  0.74788403043E+02  0.00000000000E+00 0.  1.
</event>
<event>
 7    1  0.2480409E-009  0.1073003E+03  0.7561462E-02  0.1265653E+00
         -3   -1    0    0    0  501 -0.00000000000E+00  0.00000000000E+00  0.40588162030E+02  0.40588162030E+02  0.00000000000E+00 0.  1.
          3   -1    0    0  501    0  0.00000000000E+00 -0.00000000000E+00 -0.29532195566E+03  0.29532195566E+03  0.00000000000E+00 0. -1.
         25    2    1    2    0    0 -0.11084720387E+02 -0.81267175567E+01 -0.14653110735E+03  0.19314914956E+03  0.12508522690E+03 0.  0.
          5    1    3    3  502    0  0.56353328860E+02  0.35143257904E+01 -0.56529436104E+02  0.80006860366E+02  0.41800000000E+01 0.  1.
         -5    1    3    3    0  502 -0.67438049247E+02 -0.11641043347E+02 -0.90001671244E+02  0.11314228919E+03  0.41800000000E+01 0.  1.
        -11    1    1    2    0    0  0.50059874458E+02  0.53898896640E+01 -0.80186814454E+02  0.94683510463E+02  0.00000000000E+00 0. -1.
         11    1    1    2    0    0 -0.38975154071E+02  0.27368278926E+01 -0.28015871828E+02  0.48077457670E+02  0.00000000000E+00 0.  1.
</event>
<event>
 7    1  0.2480409E-009  0.1171996E+03  0.7561462E-02  0.1247790E+00
          2   -1    0    0  501    0  0.00000000000E+00  0.00000000000E+00  0.97593002816E+03  0.97593002816E+03  0.00000000000E+00 0.  1.
         -2   -1    0    0    0  501 -0.00000000000E+00 -0.00000000000E+00 -0.22695178180E+02  0.22695178180E+02  0.00000000000E+00 0. -1.
         25    2    1    2    0    0  0.72399972569E+02 -0.69827845986E+02  0.55838708145E+03  0.58100043517E+03  0.12509072245E+03 0.  0.
          5    1    3    3  502    0  0.13812963988E+02 -0.51105044677E+02  0.47140945006E+03  0.47439104710E+03  0.41800000000E+01 0.  1.
         -5    1    3    3    0  502  0.58587008581E+02 -0.18722801309E+02  0.86977631390E+02  0.10660938807E+03  0.41800000000E+01 0.  1.
        -11    1    1    2    0    0 -0.39937217534E+02 -0.28608293928E+01  0.24198171633E+03  0.24527192405E+03  0.00000000000E+00 0.  1.
         11    1    1    2    0    0 -0.32462755035E+02  0.72688675379E+02  0.15286605220E+03  0.17235284712E+03  0.00000000000E+00 0. -1.
</event>
<event>
 7    1  0.2480409E-009  0.8574618E+02  0.7561462E-02  0.1313493E+00
         -2   -1    0    0    0  501 -0.00000000000E+00  0.00000000000E+00  0.11740806558E+03  0.11740806558E+03  0.00000000000E+00 0.  1.
          2   -1    0    0  501    0  0.00000000000E+00 -0.00000000000E+00 -0.15568697958E+03  0.15568697958E+03  0.00000000000E+00 0. -1.
         25    2    1    2    0    0  0.21595911356E+02  0.52562401794E+02  0.41409312804E+02  0.14349545766E+03  0.12508807182E+03 0.  0.
          5    1    3    3  502    0 -0.18008872250E+02 -0.44831095208E+01  0.66784258513E+02  0.69440818945E+02  0.41800000000E+01 0. -1.
         -5    1    3    3    0  502  0.39604783605E+02  0.57045511314E+02 -0.25374945709E+02  0.74054638715E+02  0.41800000000E+01 0. -1.
        -11    1    1    2    0    0 -0.42610834065E+02 -0.39821662381E+02 -0.14737710780E+02  0.60155200054E+02  0.00000000000E+00 0.  1.
         11    1    1    2    0    0  0.21014922709E+02 -0.12740739413E+02 -0.64950516018E+02  0.69444387449E+02  0.00000000000E+00 0. -1.
</event>
<event>
 7    1  0.2480409E-009  0.1304591E+03  0.7561462E-02  0.1226776E+00
         -1   -1    0    0    0  501 -0.00000000000E+00  0.00000000000E+00  0.56952036528E+02  0.56952036528E+02  0.00000000000E+00 0.  1.
          1   -1    0    0  501    0  0.00000000000E+00 -0.00000000000E+00 -0.42412252375E+03  0.42412252375E+03  0.00000000000E+00 0. -1.
         25    2    1    2    0    0 -0.10784029263E+03  0.16397660816E+02 -0.16877930628E+03  0.23671146262E+03  0.12508976901E+03 0.  0.
          5    1    3    3  502    0 -0.99265079454E+01  0.36130934641E+02 -0.11940033038E+03  0.12521138643E+03  0.41800000000E+01 0.  1.
         -5    1    3    3    0  502 -0.97913784687E+02 -0.19733273825E+02 -0.49378975902E+02  0.11150007618E+03  0.41800000000E+01 0.  1.
        -11    1    1    2    0    0  0.10276691877E+03 -0.31361447039E+02 -0.10707231986E+03  0.15168738126E+03  0.00000000000E+00 0.  1.
         11    1    1    2    0    0  0.50733738597E+01  0.14963786223E+02 -0.91318861078E+02  0.92675716393E+02  0.00000000000E+00 0. -1.
</event>
<event>
 7    1  0.2480409E-009  0.1870529E+03  0.7561462E-02  0.1161147E+00
         -2   -1    0    0    0  501 -0.00000000000E+00  0.00000000000E+00  0.42069306851E+02  0.42069306851E+02  0.00000000000E+00 0.  1.
          2   -1    0    0  501    0  0.00000000000E+00 -0.00000000000E+00 -0.97336866269E+03  0.97336866269E+03  0.00000000000E+00 0. -1.
         25    2    1    2    0    0 -0.11820690525E+03 -0.12200798834E+03 -0.52002047165E+03  0.56118427500E+03  0.12509067874E+03 0.  0.
          5    1    3    3  502    0 -0.65422904218E+02 -0.14866113409E+02 -0.32946269641E+03  0.33625035085E+03  0.41800000000E+01 0.  1.
         -5    1    3    3    0  502 -0.52784001032E+02 -0.10714187493E+03 -0.19055777524E+03  0.22493392415E+03  0.41800000000E+01 0.  1.
        -11    1    1    2    0    0  0.63172230370E+01 -0.11535491466E+02 -0.91948689610E+01  0.16047444827E+02  0.00000000000E+00 0. -1.
         11    1    1    2    0    0  0.11188968221E+03  0.13354347980E+03 -0.40208401523E+03  0.43820624971E+03  0.00000000000E+00 0.  1.
</event>
<event>
 7    1  0.2480409E-009  0.2419390E+03  0.7561462E-02  0.1118508E+00
          2   -1    0    0  501    0  0.00000000000E+00  0.00000000000E+00  0.82716820480E+03  0.82716820480E+03  0.00000000000E+00 0. -1.
         -2   -1    0    0    0  501 -0.00000000000E+00 -0.00000000000E+00 -0.23215048660E+03  0.23215048660E+03  0.00000000000E+00 0.  1.
         25    2    1    2    0    0  0.96603593445E+02 -0.19399878519E+03  0.74092559617E+03  0.78203954582E+03  0.12508928509E+03 0.  0.
          5    1    3    3  502    0  0.12501306237E+03 -0.14683341097E+03  0.61499475489E+03  0.64453420179E+03  0.41800000000E+01 0.  1.
         -5    1    3    3    0  502 -0.28409468929E+02 -0.47165374219E+02  0.12593084128E+03  0.13750534403E+03  0.41800000000E+01 0.  1.
        -11    1    1    2    0    0 -0.82962816488E+02  0.63278322287E+02 -0.63061847575E+02  0.12191706858E+03  0.00000000000E+00 0. -1.
         11    1    1    2    0    0 -0.13640776957E+02  0.13072046290E+03 -0.82846030396E+02  0.15536207700E+03  0.00000000000E+00 0.  1.
</event>
<event>
 7    1  0.2480409E-009  0.6417819E+02  0.7561462E-02  0.1381090E+00
          3   -1    0    0  501    0  0.00000000000E+00  0.00000000000E+00  0.12065313439E+03  0.12065313439E+03  0.00000000000E+00 0. -1.
         -3   -1    0    0    0  501 -0.00000000000E+00 -0.00000000000E+00 -0.98771307201E+02  0.98771307201E+02  0.00000000000E+00 0.  1.
         25    2    1    2    0    0  0.12126795067E+02  0.12497122564E+02  0.13478913762E+02  0.12701056274E+03  0.12508702851E+03 0.  0.
          5    1    3    3  502    0  0.25075921813E+02 -0.28553432241E+02 -0.41916813676E+02  0.56732636253E+02  0.41800000000E+01 0. -1.
         -5    1    3    3    0  502 -0.12949126746E+02  0.41050554805E+02  0.55395727438E+02  0.70277926489E+02  0.41800000000E+01 0. -1.
        -11    1    1    2    0    0 -0.23350666535E+02  0.70039995639E+01 -0.35509555945E+02  0.43072476141E+02  0.00000000000E+00 0.  1.
         11    1    1    2    0    0  0.11223871468E+02 -0.19501122128E+02  0.43912469377E+02  0.49341402714E+02  0.00000000000E+00 0. -1.
</event>
<event>
 7    1  0.2480409E-009  0.2762796E+03  0.7561462E-02  0.1097738E+00
          1   -1    0    0  501    0  0.00000000000E+00  0.00000000000E+00  0.16101434789E+03  0.16101434789E+03  0.00000000000E+00 0. -1.
         -1   -1    0    0    0  501 -0.00000000000E+00 -0.00000000000E+00 -0.51460733485E+03  0.51460733485E+03  0.00000000000E+00 0.  1.
         25    2    1    2    0    0  0.23849955940E+03  0.11789704144E+03 -0.19100909019E+03  0.35058914905E+03  0.12508607710E+03 0.  0.
          5    1    3    3  502    0  0.20193438740E+03  0.62600584062E+02 -0.90261749782E+02  0.22991517091E+03  0.41800000000E+01 0. -1.
         -5    1    3    3    0  502  0.36565171994E+02  0.55296457376E+02 -0.10074734041E+03  0.12067397814E+03  0.41800000000E+01 0. -1.
        -11    1    1    2    0    0 -0.20023036855E+03 -0.67298130865E+02 -0.92804318625E+02  0.23072468542E+03  0.00000000000E+00 0. -1.
         11    1    1    2    0    0 -0.38269190849E+02 -0.50598910573E+02 -0.69779578142E+02  0.94307848269E+02  0.00000000000E+00 0.  1.
</event>
<event>
 7    1  0.2480409E-009  0.7973821E+02  0.7561462E-02  0.1329796E+00
          1   -1    0    0  501    0  0.00000000000E+00  0.00000000000E+00  0.68813521889E+03  0.68813521889E+03  0.00000000000E+00 0. -1.
         -1   -1    0    0    0  501 -0.00000000000E+00 -0.00000000000E+00 -0.19222465477E+02  0.19222465477E+02  0.00000000000E+00 0.  1.
         25    2    1    2    0    0  0.20144663955E+02  0.19905932099E+02  0.29639685150E+03  0.32295662092E+03  0.12509129384E+03 0.  0.
          5    1    3    3  502    0 -0.19342420274E+02 -0.83450751580E+01 -0.10905151786E+01  0.21504211793E+02  0.41800000000E+01 0. -1.
         -5    1    3    3    0  502  0.39487084230E+02  0.28251007257E+02  0.29748736668E+03  0.30145240913E+03  0.41800000000E+01 0. -1.
        -11    1    1    2    0    0 -0.48479729842E+02  0.84164318512E+01  0.13850569633E+03  0.14698621856E+03  0.00000000000E+00 0.  1.
         11    1    1    2    0    0  0.28335065887E+02 -0.28322363950E+02  0.23401020558E+03  0.23741484489E+03  0.00000000000E+00 0. -1.
</event>
<event>
 7    1  0.2480409E-009  0.1501107E+03  0.7561462E-02  0.1200337E+00
         -2   -1    0    0    0  501 -0.00000000000E+00  0.00000000000E+00  0.58026738765E+03  0.58026738765E+03  0.00000000000E+00 0.  1.
          2   -1    0    0  501    0  0.00000000000E+00 -0.00000000000E+00 -0.96944622026E+02  0.96944622026E+02  0.00000000000E+00 0. -1.
         25    2    1    2    0    0  0.95881308549E+02 -0.85990877138E+02  0.11748942192E+02  0.17992533162E+03  0.12508969197E+03 0.  0.
          5    1    3    3  502    0  0.81718635619E+02 -0.31942689601E+02 -0.46260060851E+02  0.99276061850E+02  0.41800000000E+01 0. -1.
         -5    1    3    3    0  502  0.14162672929E+02 -0.54048187537E+02  0.58009003043E+02  0.80649269771E+02  0.41800000000E+01 0. -1.
        -11    1    1    2    0    0  0.14973172957E+02 -0.16160759874E+01  0.69394463840E+02  0.71009852990E+02  0.00000000000E+00 0.  1.
         11    1    1    2    0    0 -0.11085448151E+03  0.87606953126E+02  0.40217935960E+03  0.42627682507E+03  0.00000000000E+00 0. -1.
</event>
<event>
 7    1  0.2480409E-009  0.7564007E+02  0.7561462E-02  0.1341900E+00
         -3   -1    0    0    0  501 -0.00000000000E+00  0.00000000000E+00  0.15270080351E+03  0.15270080351E+03  0.00000000000E+00 0.  1.
          3   -1    0    0  501    0  0.00000000000E+00 -0.00000000000E+00 -0.94885849877E+02  0.94885849877E+02  0.00000000000E+00 0. -1.
         25    2    1    2    0    0 -0.47660278476E+02 -0.31371960713E+01  0.87968657495E+01  0.13419521881E+03  0.12509847226E+03 0.  0.
          5    1    3    3  502    0 -0.21455198856E+02 -0.64918457883E+01  0.66658355488E+02  0.70450538508E+02  0.41800000000E+01 0.  1.
         -5    1    3    3    0  502 -0.26205079620E+02  0.33546497170E+01 -0.57861489738E+02  0.63744680307E+02  0.41800000000E+01 0.  1.
        -11    1    1    2    0    0 -0.12708963451E+01 -0.37867944491E+02  0.23836199816E+02  0.44763387039E+02  0.00000000000E+00 0.  1.
         11    1    1    2    0    0  0.48931174821E+02  0.41005140563E+02  0.25181888072E+02  0.68628047538E+02  0.00000000000E+00 0. -1.
</event>
<event>
 7    1  0.2480409E-009  0.1075786E+03  0.7561462E-02  0.1265121E+00
          1   -1    0    0  501    0  0.00000000000E+00  0.00000000000E+00  0.97653426734E+03  0.97653426734E+03  0.00000000000E+00 0. -1.
         -1   -1    0    0    0  501 -0.00000000000E+00 -0.00000000000E+00 -0.12927747938E+02  0.12927747938E+02  0.00000000000E+00 0.  1.
         25    2    1    2    0    0 -0.28469946761E+01 -0.11193480061E+02  0.68765404739E+03  0.69903419150E+03  0.12508921867E+03 0.  0.
          5    1    3    3  502    0  0.11567688326E+02  0.55533378393E+02  0.28650203904E+03  0.29209357799E+03  0.41800000000E+01 0. -1.
         -5    1    3    3    0  502 -0.14414683002E+02 -0.66726858454E+02  0.40115200835E+03  0.40694061352E+03  0.41800000000E+01 0. -1.
        -11    1    1    2    0    0  0.45876229589E+02  0.22253992622E+01  0.15848706395E+03  0.16500827338E+03  0.00000000000E+00 0. -1.
         11    1    1    2    0    0 -0.43029234913E+02  0.89680807991E+01  0.11746540807E+03  0.12541955040E+03  0.00000000000E+00 0.  1.
</event>
<event>
 7    1  0.2803566E-009  0.1142044E+03  0.7561462E-02  0.1252976E+00
          2   -1    0    0  501    0  0.00000000000E+00  0.00000000000E+00  0.23344578637E+03  0.23344578637E+03  0.00000000000E+00 0. -1.
         -2   -1    0    0    0  501 -0.00000000000E+00 -0.00000000000E+00 -0.95200717004E+02  0.95200717004E+02  0.00000000000E+00 0.  1.
         25    2    1    2    0    0  0.98851090317E+02 -0.18642595932E+02  0.58004532746E+02  0.17067918077E+03  0.12509105679E+03 0.  0.
          5    1    3    3  502    0  0.11152075469E+03 -0.20180810606E+02  0.84195188153E+02  0.14124604756E+03  0.41800000000E+01 0. -1.
         -5    1    3    3    0  502 -0.12669664377E+02  0.15382146737E+01 -0.26190655407E+02  0.29433133208E+02  0.41800000000E+01 0. -1.
        -11    1    1    2    0    0 -0.33463600425E+02 -0.40033590521E+00 -0.18330607507E+02  0.38157358318E+02  0.00000000000E+00 0.  1.
         11    1    1    2    0    0 -0.65387489891E+02  0.19042931838E+02  0.98571144126E+02  0.11980996428E+03  0.00000000000E+00 0. -1.
</event>
<event>
 7    1  0.2480409E-009  0.2164469E+03  0.7561462E-02  0.1136560E+00
          1   -1    0    0  501    0  0.00000000000E+00  0.00000000000E+00  0.25927950283E+03  0.25927950283E+03  0.00000000000E+00 0. -1.
         -1   -1    0    0    0  501 -0.00000000000E+00 -0.00000000000E+00 -0.36996292517E+03  0.36996292517E+03  0.00000000000E+00 0.  1.
         25    2    1    2    0    0  0.58485835102E+02  0.19327055914E+03 -0.26740946319E+03  0.35766989750E+03  0.12508330278E+03 0.  0.
          5    1    3    3  502    0  0.83527836871E+02  0.17743568962E+03 -0.18358733442E+03  0.26866727609E+03  0.41800000000E+01 0. -1.
         -5    1    3    3    0  502 -0.25042001770E+02  0.15834869518E+02 -0.83822128771E+02  0.89002621406E+02  0.41800000000E+01 0. -1.
        -11    1    1    2    0    0 -0.19365263474E+02 -0.15540882674E+02 -0.80212648039E+01  0.26093546189E+02  0.00000000000E+00 0.  1.
         11    1    1    2    0    0 -0.39120571628E+02 -0.17772967646E+03  0.16474730566E+03  0.24547898432E+03  0.00000000000E+00 0. -1.
</event>
<event>
 7    1  0.2480409E-009  0.1027328E+03  0.7561462E-02  0.1274652E+00
          2   -1    0    0  501    0  0.00000000000E+00  0.00000000000E+00  0.30359428452E+03  0.30359428452E+03  0.00000000000E+00 0. -1.
         -2   -1    0    0    0  501 -0.00000000000E+00 -0.00000000000E+00 -0.52749675222E+02  0.52749675222E+02  0.00000000000E+00 0.  1.
         25    2    1    2    0    0  0.53127548084E+02  0.30643624152E+02  0.11072572566E+03  0.17796266456E+03  0.12509578565E+03 0.  0.
          5    1    3    3  502    0  0.10231038373E+02 -0.44800972514E+02  0.65182075653E+02  0.79862235574E+02  0.41800000000E+01 0. -1.
         -5    1    3    3    0  502  0.42896509711E+02  0.75444596665E+02  0.45543650003E+02  0.98100428985E+02  0.41800000000E+01 0. -1.
        -11    1    1    2    0    0 -0.23107614104E+02 -0.35162606226E+02  0.80128427825E+01  0.42831954843E+02  0.00000000000E+00 0.  1.
         11    1    1    2    0    0 -0.30019933980E+02  0.45189820747E+01  0.13210604086E+03  0.13554934034E+03  0.00000000000E+00 0. -1.
</event>
<event>
 7    1  0.2480409E-009  0.1214965E+03  0.7561462E-02  0.1240648E+00
         -2   -1    0    0    0  501 -0.00000000000E+00  0.00000000000E+00  0.41745142865E+02  0.41745142865E+02  0.00000000000E+00 0.  1.
          2   -1    0    0  501    0  0.00000000000E+00 -0.00000000000E+00 -0.65818375375E+03  0.65818375375E+03  0.00000000000E+00 0. -1.
         25    2    1    2    0    0  0.12249395388E+01 -0.11449372755E+03 -0.21185369494E+03  0.27136818092E+03  0.12509351475E+03 0.  0.
          5    1    3    3  502    0  0.22541527249E+02 -0.85575292749E+02 -0.42618083650E+02  0.98310857151E+02  0.41800000000E+01 0. -1.
         -5    1    3    3    0  502 -0.21316587711E+02 -0.28918434800E+02 -0.16923561129E+03  0.17305732377E+03  0.41800000000E+01 0. -1.
        -11    1    1    2    0    0 -0.12475870560E+02  0.24073514606E+02 -0.20981465343E+02  0.34284155811E+02  0.00000000000E+00 0.  1.
         11    1    1    2    0    0  0.11250931021E+02  0.90420212943E+02 -0.38360345060E+03  0.39427655988E+03  0.00000000000E+00 0. -1.
</event>
<event>
 7    1  0.2480409E-009  0.1441935E+03  0.7561462E-02  0.1207795E+00
          1   -1    0    0  501    0  0.00000000000E+00  0.00000000000E+00  0.35597466619E+03  0.35597466619E+03  0.00000000000E+00 0. -1.
         -1   -1    0    0    0  501 -0.00000000000E+00 -0.00000000000E+00 -0.10775932955E+03  0.10775932955E+03  0.00000000000E+00 0.  1.
         25    2    1    2    0    0 -0.95762626309E+02  0.98907045669E+02  0.27606210218E+02  0.18804586964E+03  0.12508421949E+03 0.  0.
          5    1    3    3  502    0 -0.19191555305E+02  0.44719115224E+02  0.69727748221E+02  0.85132522184E+02  0.41800000000E+01 0.  1.
         -5    1    3    3    0  502 -0.76571071004E+02  0.54187930444E+02 -0.42121538003E+02  0.10291334745E+03  0.41800000000E+01 0.  1.
        -11    1    1    2    0    0  0.50746151769E+02 -0.84160230182E+02  0.78153766289E+02  0.12556324083E+03  0.00000000000E+00 0.  1.
         11    1    1    2    0    0  0.45016474540E+02 -0.14746815487E+02  0.14245536014E+03  0.15012488527E+03  0.00000000000E+00 0. -1.
</event>
<event>
 7    1  0.2480409E-009  0.8827678E+02  0.7561462E-02  0.1307079E+00
          2   -1    0    0  501    0  0.00000000000E+00  0.00000000000E+00  0.78248939279E+03  0.78248939279E+03  0.00000000000E+00 0. -1.
         -2   -1    0    0    0  501 -0.00000000000E+00 -0.00000000000E+00 -0.18595282147E+02  0.18595282147E+02  0.00000000000E+00 0.  1.
         25    2    1    2    0    0 -0.43083886591E+02 -0.20746914041E+02  0.51580335125E+03  0.53290453925E+03  0.12508994794E+03 0.  0.
          5    1    3    3  502    0  0.13956218089E+02 -0.51616601508E+01  0.18757405051E+01  0.15569507420E+02  0.41800000000E+01 0. -1.
         -5    1    3    3    0  502 -0.57040104680E+02 -0.15585253890E+02  0.51392761074E+03  0.51733503183E+03  0.41800000000E+01 0. -1.
        -11    1    1    2    0    0  0.28522981170E+02 -0.34454781288E+02  0.10623018831E+03  0.11526293991E+03  0.00000000000E+00 0. -1.
         11    1    1    2    0    0  0.14560905421E+02  0.55201695329E+02  0.14186057109E+03  0.15291719577E+03  0.00000000000E+00 0.  1.
</event>
<event>
 7    1  0.2480409E-009  0.9267404E+02  0.7561462E-02  0.1296502E+00
         -1   -1    0    0    0  501 -0.00000000000E+00  0.00000000000E+00  0.14489927326E+02  0.14489927326E+02  0.00000000000E+00 0.  1.
          1   -1    0    0  501    0  0.00000000000E+00 -0.00000000000E+00 -0.10871352926E+04  0.10871352926E+04  0.00000000000E+00 0. -1.
         25    2    1    2    0    0  0.37320950847E+02 -0.45893780395E+02 -0.70301040937E+03  0.71649850874E+03  0.12508950749E+03 0.  0.
          5    1    3    3  502    0 -0.25935550800E+02 -0.12800546753E+02 -0.50714841134E+03  0.50798965572E+03  0.41800000000E+01 0. -1.
         -5    1    3    3    0  502  0.63256501647E+02 -0.33093233642E+02 -0.19586199803E+03  0.20850885302E+03  0.41800000000E+01 0. -1.
        -11    1    1    2    0    0 -0.51849982591E+02  0.21313568710E+02 -0.33756244064E+03  0.34218575400E+03  0.00000000000E+00 0. -1.
         11    1    1    2    0    0  0.14529031744E+02  0.24580211685E+02 -0.32072515278E+02  0.42940957211E+02  0.00000000000E+00 0.  1.
</event>
<event>
 7    1  0.2480409E-009  0.9516469E+02  0.7561462E-02  0.1290806E+00
          1   -1    0    0  501    0  0.00000000000E+00  0.00000000000E+00  0.14646874046E+03  0.14646874046E+03  0.00000000000E+00 0. -1.
         -1   -1    0    0    0  501 -0.00000000000E+00 -0.00000000000E+00 -0.10431725840E+03  0.10431725840E+03  0.00000000000E+00 0.  1.
         25    2    1    2    0    0  0.50851200704E+02 -0.31070114077E+02  0.21135781350E+02  0.14016250128E+03  0.12509040295E+03 0.  0.
          5    1    3    3  502    0 -0.51828586010E+01 -0.26989399791E+02 -0.45241801176E+02  0.53099742918E+02  0.41800000000E+01 0. -1.
         -5    1    3    3    0  502  0.56034059305E+02 -0.40807142864E+01  0.66377582527E+02  0.87062758361E+02  0.41800000000E+01 0. -1.
        -11    1    1    2    0    0  0.25277368150E+02  0.10180290798E+02  0.15820967913E+02  0.31510104523E+02  0.00000000000E+00 0.  1.
         11    1    1    2    0    0 -0.76128568854E+02  0.20889823279E+02  0.51947328019E+01  0.79113393059E+02  0.00000000000E+00 0. -1.
</event>
<event>
 7    1  0.2480409E-009  0.1072264E+03  0.7561462E-02  0.1265794E+00
         -1   -1    0    0    0  501 -0.00000000000E+00  0.00000000000E+00  0.17967045387E+02  0.17967045387E+02  0.00000000000E+00 0.  1.
          1   -1    0    0  501    0  0.00000000000E+00 -0.00000000000E+00 -0.11083918311E+04  0.11083918311E+04  0.00000000000E+00 0. -1.
         25    2    1    2    0    0  0.68586894664E+02 -0.54864398840E+02 -0.62502306014E+03  0.64344052869E+03  0.12509046279E+03 0.  0.
          5    1    3    3  502    0  0.22402681519E+02 -0.50354984923E+02 -0.84866774536E+02  0.10127855877E+03  0.41800000000E+01 0. -1.
         -5    1    3    3    0  502  0.46184213145E+02 -0.45094139163E+01 -0.54015628560E+03  0.54216196993E+03  0.41800000000E+01 0. -1.
        -11    1    1    2    0    0  0.14553828410E+02  0.38847493333E+01 -0.12321938930E+02  0.19461124781E+02  0.00000000000E+00 0.  1.
         11    1    1    2    0    0 -0.83140723074E+02  0.50979649506E+02 -0.45307978664E+03  0.46345722300E+03  0.00000000000E+00 0. -1.
</event>
<event>
 7    1  0.2480409E-009  0.8460143E+02  0.7561462E-02  0.1316478E+00
         -1   -1    0    0    0  501 -0.00000000000E+00  0.00000000000E+00  0.46837138228E+03  0.46837138228E+03  0.00000000000E+00 0.  1.
          1   -1    0    0  501    0  0.00000000000E+00 -0.00000000000E+00 -0.35089345368E+02  0.35089345368E+02  0.00000000000E+00 0. -1.
         25    2    1    2    0    0  0.12152015503E+02 -0.51009552474E+02  0.32894048691E+03  0.35580665910E+03  0.12508752459E+03 0.  0.
          5    1    3    3  502    0  0.49748358415E+01 -0.60124129471E+02  0.33613393936E+03  0.34153060994E+03  0.41800000000E+01 0.  1.
         -5    1    3    3    0  502  0.71771796618E+01  0.91145769971E+01 -0.71934524439E+01  0.14276049166E+02  0.41800000000E+01 0.  1.
        -11    1    1    2    0    0 -0.45590256128E+02  0.41457912924E+02  0.92046082659E+02  0.11076872903E+03  0.00000000000E+00 0.  1.
         11    1    1    2    0    0  0.33438240625E+02  0.95516395496E+01  0.12295467340E+02  0.36885339517E+02  0.00000000000E+00 0. -1.
</event>
<event>
 7    1  0.2480409E-009  0.2473122E+03  0.7561462E-02  0.1115015E+00
          1   -1    0    0  501    0  0.00000000000E+00  0.00000000000E+00  0.60246547050E+03  0.60246547050E+03  0.00000000000E+00 0. -1.
         -1   -1    0    0    0  501 -0.00000000000E+00 -0.00000000000E+00 -0.16821469230E+03  0.16821469230E+03  0.00000000000E+00 0.  1.
         25    2    1    2    0    0 -0.11604047191E+03  0.19851844362E+03 -0.99571383092E+01  0.26195559314E+03  0.12508646847E+03 0.  0.
          5    1    3    3  502    0 -0.11953633784E+03  0.90468007640E+02 -0.27158706647E+02  0.15240887184E+03  0.41800000000E+01 0.  1.
         -5    1    3    3    0  502  0.34958659227E+01  0.10805043598E+03  0.17201568337E+02  0.10954672130E+03  0.41800000000E+01 0.  1.
        -11    1    1    2    0    0  0.10632882843E+03 -0.13322109299E+03  0.24192170693E+03  0.29593883094E+03  0.00000000000E+00 0.  1.
         11    1    1    2    0    0  0.97116434864E+01 -0.65297350629E+02  0.20228620958E+03  0.21278573872E+03  0.00000000000E+00 0. -1.
</event>
<event>
 7    1  0.2480409E-009  0.1079070E+03  0.7561462E-02  0.1264496E+00
         -2   -1    0    0    0  501 -0.00000000000E+00  0.00000000000E+00  0.18859237725E+03  0.18859237725E+03  0.00000000000E+00 0.  1.
          2   -1    0    0  501    0  0.00000000000E+00 -0.00000000000E+00 -0.81678794720E+02  0.81678794720E+02  0.00000000000E+00 0. -1.
         25    2    1    2    0    0  0.80406176841E+01  0.14000980667E+02  0.11991661853E+03  0.17403484534E+03  0.12508977976E+03 0.  0.
          5    1    3    3  502    0  0.55371308979E+02 -0.24102619194E+02  0.83289630406E+02  0.10296384338E+03  0.41800000000E+01 0. -1.
         -5    1    3    3    0  502 -0.47330691295E+02  0.38103599862E+02  0.36626988128E+02  0.71071001964E+02  0.41800000000E+01 0. -1.
        -11    1    1    2    0    0 -0.30839977056E+01  0.40013544786E+02  0.12562989273E+01  0.40151875363E+02  0.00000000000E+00 0. -1.
         11    1    1    2    0    0 -0.49566199786E+01 -0.54014525453E+02 -0.14259334926E+02  0.56084451269E+02  0.00000000000E+00 0.  1.
</event>
<event>
 7    1  0.2480409E-009  0.1268328E+03  0.7561462E-02  0.1232232E+00
          2   -1    0    0  501    0  0.00000000000E+00  0.00000000000E+00  0.71444099060E+03  0.71444099060E+03  0.00000000000E+00 0. -1.
         -2   -1    0    0    0  501 -0.00000000000E+00 -0.00000000000E+00 -0.64207787346E+02  0.64207787346E+02  0.00000000000E+00 0.  1.
         25    2    1    2    0    0  0.93985710117E+02  0.57572906380E+02  0.60189994765E+03  0.62456294714E+03  0.12508946680E+03 0.  0.
          5    1    3    3  502    0  0.47697522404E+02 -0.33924926844E+01  0.46653488992E+03  0.46899769569E+03  0.41800000000E+01 0.  1.
         -5    1    3    3    0  502  0.46288187712E+02  0.60965399064E+02  0.13536505773E+03  0.15556525145E+03  0.41800000000E+01 0.  1.
        -11    1    1    2    0    0 -0.71587887583E+02 -0.48859023410E+01 -0.98877505776E+01  0.72432487889E+02  0.00000000000E+00 0.  1.
         11    1    1    2    0    0 -0.22397822534E+02 -0.52687004039E+02  0.58221006186E+02  0.81653342921E+02  0.00000000000E+00 0. -1.
</event>
<event>
 7    1  0.2480409E-009  0.2478503E+03  0.7561462E-02  0.1114671E+00
         -2   -1    0    0    0  501 -0.00000000000E+00  0.00000000000E+00  0.10450611098E+03  0.10450611098E+03  0.00000000000E+00 0.  1.
          2   -1    0    0  501    0  0.00000000000E+00 -0.00000000000E+00 -0.73473326277E+03  0.73473326277E+03  0.00000000000E+00 0. -1.
         25    2    1    2    0    0 -0.23075512647E+03 -0.83471756072E+02 -0.22791120218E+03  0.35750021727E+03  0.12508967507E+03 0.  0.
          5    1    3    3  502    0 -0.11837137646E+03 -0.68539783946E+02 -0.48416816546E+02  0.14515903442E+03  0.41800000000E+01 0. -1.
         -5    1    3    3    0  502 -0.11238375001E+03 -0.14931972126E+02 -0.17949438563E+03  0.21234118285E+03  0.41800000000E+01 0. -1.
        -11    1    1    2    0    0  0.14854004605E+03  0.55218349932E+02 -0.16396921239E+03  0.22803314246E+03  0.00000000000E+00 0. -1.
         11    1    1    2    0    0  0.82215080427E+02  0.28253406140E+02 -0.23834673721E+03  0.25370601402E+03  0.00000000000E+00 0.  1.
</event>
<event>
 7    1  0.2480409E-009  0.1657115E+03  0.7561462E-02  0.1182395E+00
          2   -1    0    0  501    0  0.00000000000E+00  0.00000000000E+00  0.82270863665E+03  0.82270863665E+03  0.00000000000E+00 0. -1.
         -2   -1    0    0    0  501 -0.00000000000E+00 -0.00000000000E+00 -0.40272479315E+02  0.40272479315E+02  0.00000000000E+00 0.  1.
         25    2    1    2    0    0 -0.80548145770E+02  0.12509710006E+03  0.38700480661E+03  0.43307946023E+03  0.12509120795E+03 0.  0.
          5    1    3    3  502    0 -0.78675992304E+01  0.78119398555E+02  0.72819972865E+02  0.10716697437E+03  0.41800000000E+01 0.  1.
         -5    1    3    3    0  502 -0.72680546540E+02  0.46977701502E+02  0.31418483375E+03  0.32591248586E+03  0.41800000000E+01 0.  1.
        -11    1    1    2    0    0  0.23415976636E+02 -0.10179542817E+03  0.21131338369E+03  0.23572009520E+03  0.00000000000E+00 0.  1.
         11    1    1    2    0    0  0.57132169134E+02 -0.23301671889E+02  0.18411796704E+03  0.19418156053E+03  0.00000000000E+00 0. -1.
</event>
<event>
 7    1  0.2480409E-009  0.1020659E+03  0.7561462E-02  0.1276011E+00
          1   -1    0    0  501    0  0.00000000000E+00  0.00000000000E+00  0.12939715467E+03  0.12939715467E+03  0.00000000000E+00 0. -1.
         -1   -1    0    0    0  501 -0.00000000000E+00 -0.00000000000E+00 -0.10636847574E+03  0.10636847574E+03  0.00000000000E+00 0.  1.
         25    2    1    2    0    0 -0.53209496882E+01  0.43637093025E+02  0.22249178243E+02  0.13444341918E+03  0.12508996216E+03 0.  0.
          5    1    3    3  502    0 -0.78856955690E+00 -0.38965275615E+02  0.32580623522E+02  0.50969441578E+02  0.41800000000E+01 0. -1.
         -5    1    3    3    0  502 -0.45323801313E+01  0.82602368640E+02 -0.10331445278E+02  0.83473977599E+02  0.41800000000E+01 0. -1.
        -11    1    1    2    0    0  0.22956202192E+02 -0.56028867471E+02 -0.26887355073E+02  0.66250668464E+02  0.00000000000E+00 0.  1.
         11    1    1    2    0    0 -0.17635252504E+02  0.12391774446E+02  0.27666855758E+02  0.35071542771E+02  0.00000000000E+00 0. -1.
</event>
<event>
 7    1  0.2480409E-009  0.5001091E+02  0.7561462E-02  0.1445283E+00
          1   -1    0    0  501    0  0.00000000000E+00  0.00000000000E+00  0.14482453209E+03  0.14482453209E+03  0.00000000000E+00 0. -1.
         -1   -1    0    0    0  501 -0.00000000000E+00 -0.00000000000E+00 -0.11682717460E+03  0.11682717460E+03  0.00000000000E+00 0.  1.
         25    2    1    2    0    0  0.31782936905E+02 -0.17717106088E+02 -0.44079929555E+02  0.13752861888E+03  0.12508808854E+03 0.  0.
          5    1    3    3  502    0  0.20027803757E+02 -0.17746767803E+02 -0.87894324742E+02  0.91972525314E+02  0.41800000000E+01 0. -1.
         -5    1    3    3    0  502  0.11755133148E+02  0.29661714797E-01  0.43814395187E+02  0.45556093563E+02  0.41800000000E+01 0. -1.
        -11    1    1    2    0    0  0.77075576636E+01  0.19462085212E+02 -0.16807214347E+02  0.26845142206E+02  0.00000000000E+00 0.  1.
         11    1    1    2    0    0 -0.39490494568E+02 -0.17449791237E+01  0.88884501393E+02  0.97277945606E+02  0.00000000000E+00 0. -1.
</event>
<event>
 7    1  0.2480409E-009  0.2132503E+03  0.7561462E-02  0.1139018E+00
         -1   -1    0    0    0  501 -0.00000000000E+00  0.00000000000E+00  0.12378578831E+03  0.12378578831E+03  0.00000000000E+00 0.  1.
          1   -1    0    0  501    0  0.00000000000E+00 -0.00000000000E+00 -0.41681734205E+03  0.41681734205E+03  0.00000000000E+00 0. -1.
         25    2    1    2    0    0 -0.97852357915E+01  0.19640892912E+03 -0.20757104309E+03  0.31209885983E+03  0.12509093534E+03 0.  0.
          5    1    3    3  502    0  0.42950316026E+02  0.15925223687E+03 -0.12375825201E+03  0.20625125923E+03  0.41800000000E+01 0. -1.
         -5    1    3    3    0  502 -0.52735551817E+02  0.37156692249E+02 -0.83812791083E+02  0.10584760060E+03  0.41800000000E+01 0. -1.
        -11    1    1    2    0    0  0.39024700090E+01 -0.15339006409E+03 -0.99493726389E+02  0.18287357006E+03  0.00000000000E+00 0. -1.
         11    1    1    2    0    0  0.58827657826E+01 -0.43018865023E+02  0.14033215742E+02  0.45630700468E+02  0.00000000000E+00 0.  1.
</event>
<event>
 7    1  0.2480409E-009  0.1620683E+03  0.7561462E-02  0.1186381E+00
          1   -1    0    0  501    0  0.00000000000E+00  0.00000000000E+00  0.58208670933E+02  0.58208670933E+02  0.00000000000E+00 0. -1.
         -1   -1    0    0    0  501 -0.00000000000E+00 -0.00000000000E+00 -0.51485132169E+03  0.51485132169E+03  0.00000000000E+00 0.  1.
         25    2    1    2    0    0  0.11167198182E+03  0.63168243006E+02 -0.20411825036E+03  0.27161179271E+03  0.12509135606E+03 0.  0.
          5    1    3    3  502    0 -0.73241569552E+01  0.59140583398E+02 -0.60722040835E+02  0.85181515149E+02  0.41800000000E+01 0.  1.
         -5    1    3    3    0  502  0.11899613877E+03  0.40276596077E+01 -0.14339620953E+03  0.18643027756E+03  0.41800000000E+01 0.  1.
        -11    1    1    2    0    0 -0.12036418125E+03 -0.52021765104E+02 -0.25533528342E+03  0.28703642126E+03  0.00000000000E+00 0.  1.
         11    1    1    2    0    0  0.86921994301E+01 -0.11146477902E+02  0.28108830241E+01  0.14411778652E+02  0.00000000000E+00 0. -1.
</event>
<event>
 7    1  0.2480409E-009  0.1198205E+03  0.7561462E-02  0.1243393E+00
         -1   -1    0    0    0  501 -0.00000000000E+00  0.00000000000E+00  0.61950834454E+03  0.61950834454E+03  0.00000000000E+00 0.  1.
          1   -1    0    0  501    0  0.00000000000E+00 -0.00000000000E+00 -0.68712682620E+02  0.68712682620E+02  0.00000000000E+00 0. -1.
         25    2    1    2    0    0 -0.45039312274E+02  0.73143963075E+02  0.54207302368E+03  0.56291148755E+03  0.12509037061E+03 0.  0.
          5    1    3    3  502    0 -0.58715901342E+02  0.10262013877E+03  0.40120763779E+03  0.41828637436E+03  0.41800000000E+01 0.  1.
         -5    1    3    3    0  502  0.13676589068E+02 -0.29476175691E+02  0.14086538589E+03  0.14462511319E+03  0.41800000000E+01 0.  1.
        -11    1    1    2    0    0  0.35758689208E+02 -0.37806302456E+02 -0.39126266402E+02  0.65106567118E+02  0.00000000000E+00 0. -1.
         11    1    1    2    0    0  0.92806230657E+01 -0.35337660618E+02  0.47848904643E+02  0.60202972501E+02  0.00000000000E+00 0.  1.
</event>
<event>
 7    1  0.2480409E-009  0.8508589E+02  0.7561462E-02  0.1315208E+00
          3   -1    0    0  501    0  0.00000000000E+00  0.00000000000E+00  0.41287441455E+02  0.41287441455E+02  0.00000000000E+00 0. -1.
         -3   -1    0    0    0  501 -0.00000000000E+00 -0.00000000000E+00 -0.34908550660E+03  0.34908550660E+03  0.00000000000E+00 0.  1.
         25    2    1    2    0    0  0.76475881775E+01  0.22450997421E+02 -0.24662451908E+03  0.27754882578E+03  0.12508862614E+03 0.  0.
          5    1    3    3  502    0  0.13904947810E+02  0.71439009136E+02 -0.18236775371E+03  0.19639844601E+03  0.41800000000E+01 0.  1.
         -5    1    3    3    0  502 -0.62573596323E+01 -0.48988011715E+02 -0.64256765361E+02  0.81150379765E+02  0.41800000000E+01 0.  1.
        -11    1    1    2    0    0 -0.24665103622E+02 -0.16527860799E+02  0.15894621929E+02  0.33677537403E+02  0.00000000000E+00 0. -1.
         11    1    1    2    0    0  0.17017515444E+02 -0.59231366221E+01 -0.77068167995E+02  0.79146584875E+02  0.00000000000E+00 0.  1.
</event>
<event>
 7    1  0.2480409E-009  0.6591471E+02  0.7561462E-02  0.1374563E+00
          1   -1    0    0  501    0  0.00000000000E+00  0.00000000000E+00  0.29378689433E+02  0.29378689433E+02  0.00000000000E+00 0. -1.
         -1   -1    0    0    0  501 -0.00000000000E+00 -0.00000000000E+00 -0.48892459812E+03  0.48892459812E+03  0.00000000000E+00 0.  1.
         25    2    1    2    0    0 -0.73136502907E+01  0.26247473208E+02 -0.34801147120E+03  0.37081139885E+03  0.12508673033E+03 0.  0.
          5    1    3    3  502    0  0.78212366089E+01  0.12259038985E+02 -0.34940871742E+03  0.34973615768E+03  0.41800000000E+01 0.  1.
         -5    1    3    3    0  502 -0.15134886900E+02  0.13988434224E+02  0.13972462237E+01  0.21075241173E+02  0.41800000000E+01 0.  1.
        -11    1    1    2    0    0 -0.98850663313E+01  0.32753984814E+02 -0.49466867587E+02  0.60145731740E+02  0.00000000000E+00 0.  1.
         11    1    1    2    0    0  0.17198716622E+02 -0.59001458023E+02 -0.62067569901E+02  0.87346156960E+02  0.00000000000E+00 0. -1.
</event>
<event>
 7    1  0.2480409E-009  0.1079012E+03  0.7561462E-02  0.1264507E+00
         -2   -1    0    0    0  501 -0.00000000000E+00  0.00000000000E+00  0.51643830459E+02  0.51643830459E+02  0.00000000000E+00 0.  1.
          2   -1    0    0  501    0  0.00000000000E+00 -0.00000000000E+00 -0.30181185330E+03  0.30181185330E+03  0.00000000000E+00 0. -1.
         25    2    1    2    0    0  0.39929893432E+02  0.44698444467E+02 -0.11363396039E+03  0.17932193341E+03  0.12510528176E+03 0.  0.
          5    1    3    3  502    0  0.85549595479E+01 -0.31181178385E+02 -0.86985233705E+02  0.92894329757E+02  0.41800000000E+01 0.  1.
         -5    1    3    3    0  502  0.31374933885E+02  0.75879622851E+02 -0.26648726682E+02  0.86427603658E+02  0.41800000000E+01 0.  1.
        -11    1    1    2    0    0 -0.45010777290E+02  0.99513146210E+01 -0.32156161216E+02  0.56205137124E+02  0.00000000000E+00 0.  1.
         11    1    1    2    0    0  0.50808838572E+01 -0.54649759088E+02 -0.10437790124E+03  0.11792861322E+03  0.00000000000E+00 0. -1.
</event>
<event>
 7    1  0.2480409E-009  0.9496967E+02  0.7561462E-02  0.1291244E+00
          2   -1    0    0  501    0  0.00000000000E+00  0.00000000000E+00  0.18609927283E+03  0.18609927283E+03  0.00000000000E+00 0. -1.
         -2   -1    0    0    0  501 -0.00000000000E+00 -0.00000000000E+00 -0.79828494729E+02  0.79828494729E+02  0.00000000000E+00 0.  1.
         25    2    1    2    0    0 -0.39492038108E+02 -0.17797589252E-01  0.19567197660E+02  0.13262723465E+03  0.12508991469E+03 0.  0.
          5    1    3    3  502    0 -0.28426807174E+01 -0.36538950680E+02  0.57515001232E+02  0.68327326285E+02  0.41800000000E+01 0. -1.
         -5    1    3    3    0  502 -0.36649357391E+02  0.36521153091E+02 -0.37947803572E+02  0.64299908369E+02  0.41800000000E+01 0. -1.
        -11    1    1    2    0    0  0.85521564625E+01 -0.45394958531E+02  0.42635564806E+02  0.62862015769E+02  0.00000000000E+00 0. -1.
         11    1    1    2    0    0  0.30939881646E+02  0.45412756120E+02  0.44068015638E+02  0.70438517141E+02  0.00000000000E+00 0.  1.
</event>
<event>
 7    1  0.2915992E-009  0.2549794E+03  0.7561462E-02  0.1110198E+00
          2   -1    0    0  501    0  0.00000000000E+00  0.00000000000E+00  0.11342346337E+04  0.11342346337E+04  0.00000000000E+00 0. -1.
         -2   -1    0    0    0  501 -0.00000000000E+00 -0.00000000000E+00 -0.62312875638E+02  0.62312875638E+02  0.00000000000E+00 0.  1.
         25    2    1    2    0    0 -0.11884314496E+03  0.20721622377E+03  0.64156893527E+03  0.69593100979E+03  0.12508802971E+03 0.  0.
          5    1    3    3  502    0 -0.85133420863E+02  0.20680458134E+03  0.60936621982E+03  0.64912286700E+03  0.41800000000E+01 0.  1.
         -5    1    3    3    0  502 -0.33709724096E+02  0.41164243016E+00  0.32202715454E+02  0.46808142783E+02  0.41800000000E+01 0.  1.
        -11    1    1    2    0    0  0.59128307231E+02 -0.17443964698E+03  0.27498089615E+03  0.33096803531E+03  0.00000000000E+00 0.  1.
         11    1    1    2    0    0  0.59714837729E+02 -0.32776576795E+02  0.15537192668E+03  0.16964846428E+03  0.00000000000E+00 0. -1.
</event>
<event>
 7    1  0.2480409E-009  0.2017759E+03  0.7561462E-02  0.1148249E+00
          1   -1    0    0  501    0  0.00000000000E+00  0.00000000000E+00  0.30446136165E+02  0.30446136165E+02  0.00000000000E+00 0. -1.
         -1   -1    0    0    0  501 -0.00000000000E+00 -0.00000000000E+00 -0.14732851794E+04  0.14732851794E+04  0.00000000000E+00 0.  1.
         25    2    1    2    0    0 -0.17958888217E+03 -0.17827396739E+02 -0.79823174820E+03  0.82788366977E+03  0.12508982444E+03 0.  0.
          5    1    3    3  502    0 -0.11535263805E+03  0.42988535944E+02 -0.56813193374E+03  0.58133089705E+03  0.41800000000E+01 0. -1.
         -5    1    3    3    0  502 -0.64236244118E+02 -0.60815932683E+02 -0.23009981445E+03  0.24655277272E+03  0.41800000000E+01 0. -1.
        -11    1    1    2    0    0  0.10869562927E+03  0.42569588543E+02 -0.49342684608E+03  0.50704729772E+03  0.00000000000E+00 0.  1.
         11    1    1    2    0    0  0.70893252899E+02 -0.24742191804E+02 -0.15118044895E+03  0.16880034807E+03  0.00000000000E+00 0. -1.
</event>
<event>
 7    1  0.2480409E-009  0.1164217E+03  0.7561462E-02  0.1249120E+00
          1   -1    0    0  501    0  0.00000000000E+00  0.00000000000E+00  0.74018060560E+03  0.74018060560E+03  0.00000000000E+00 0. -1.
         -1   -1    0    0    0  501 -0.00000000000E+00 -0.00000000000E+00 -0.35761193017E+02  0.35761193017E+02  0.00000000000E+00 0.  1.
         25    2    1    2    0    0  0.56950546410E+02 -0.81484762801E+02  0.19698352745E+03  0.25363937463E+03  0.12508913212E+03 0.  0.
          5    1    3    3  502    0  0.47755398616E+01 -0.46620196588E+02  0.20021724908E+00  0.47050621652E+02  0.41800000000E+01 0.  1.
         -5    1    3    3    0  502  0.52175006549E+02 -0.34864566212E+02  0.19678331020E+03  0.20658875298E+03  0.41800000000E+01 0.  1.
        -11    1    1    2    0    0  0.14409286071E+02  0.34701740997E+02  0.18423240032E+03  0.18802504004E+03  0.00000000000E+00 0.  1.
         11    1    1    2    0    0 -0.71359832481E+02  0.46783021803E+02  0.32320348482E+03  0.33427738395E+03  0.00000000000E+00 0. -1.
</event>
<event>
 7    1  0.2480409E-009  0.1202193E+03  0.7561462E-02  0.1242736E+00
          1   -1    0    0  501    0  0.00000000000E+00  0.00000000000E+00  0.90344629366E+02  0.90344629366E+02  0.00000000000E+00 0. -1.
         -1   -1    0    0    0  501 -0.00000000000E+00 -0.00000000000E+00 -0.21207231089E+03  0.21207231089E+03  0.00000000000E+00 0.  1.
         25    2    1    2    0    0  0.72575419647E+02 -0.29051250728E+02 -0.10403206076E+03  0.18050260665E+03  0.12508938658E+03 0.  0.
          5    1    3    3  502    0  0.85131557279E+02 -0.57138120556E+02 -0.10826449464E+03  0.14916708774E+03  0.41800000000E+01 0. -1.
         -5    1    3    3    0  502 -0.12556137631E+02  0.28086869827E+02  0.42324338787E+01  0.31335518912E+02  0.41800000000E+01 0. -1.
        -11    1    1    2    0    0 -0.56829651717E+02 -0.16011143569E+02 -0.37814591532E+02  0.70113546233E+02  0.00000000000E+00 0.  1.
         11    1    1    2    0    0 -0.15745767931E+02  0.45062394297E+02  0.20118970767E+02  0.51800787371E+02  0.00000000000E+00 0. -1.
</event>
<event>
 7    1  0.2480409E-009  0.1192690E+03  0.7561462E-02  0.1244308E+00
         -2   -1    0    0    0  501 -0.00000000000E+00  0.00000000000E+00  0.93364054813E+02  0.93364054813E+02  0.00000000000E+00 0.  1.
          2   -1    0    0  501    0  0.00000000000E+00 -0.00000000000E+00 -0.21588530496E+03  0.21588530496E+03  0.00000000000E+00 0. -1.
         25    2    1    2    0    0 -0.83616623368E+02 -0.44476087955E+01 -0.11060743852E+03  0.18679403346E+03  0.12508590869E+03 0.  0.
          5    1    3    3  502    0 -0.89159747416E+02  0.44140851634E+02 -0.59806832203E+02  0.11615595086E+03  0.41800000000E+01 0.  1.
         -5    1    3    3    0  502  0.55431240477E+01 -0.48588460430E+02 -0.50800606316E+02  0.70638082599E+02  0.41800000000E+01 0.  1.
        -11    1    1    2    0    0  0.18571032922E+02 -0.12838617921E+02 -0.42810543293E+02  0.48398925515E+02  0.00000000000E+00 0. -1.
         11    1    1    2    0    0  0.65045590446E+02  0.17286226716E+02  0.30896731670E+02  0.74056400794E+02  0.00000000000E+00 0.  1.
</event>
<event>
 7    1  0.2480409E-009  0.7633804E+02  0.7561462E-02  0.1339777E+00
          1   -1    0    0  501    0  0.00000000000E+00  0.00000000000E+00  0.58517534260E+02  0.58517534260E+02  0.00000000000E+00 0. -1.
         -1   -1    0    0    0  501 -0.00000000000E+00 -0.00000000000E+00 -0.28429364988E+03  0.28429364988E+03  0.00000000000E+00 0.  1.
         25    2    1    2    0    0  0.11742673432E+02  0.57670581946E+00 -0.22243713319E+03  0.25546778896E+03  0.12508912825E+03 0.  0.
          5    1    3    3  502    0 -0.37015115542E+02  0.13430895153E+02 -0.15645968333E+02  0.42576712511E+02  0.41800000000E+01 0.  1.
         -5    1    3    3    0  502  0.48757788974E+02 -0.12854189334E+02 -0.20679116486E+03  0.21289107645E+03  0.41800000000E+01 0.  1.
        -11    1    1    2    0    0 -0.31698970019E+02 -0.17594561147E+02  0.28483892912E+02  0.46105590091E+02  0.00000000000E+00 0. -1.
         11    1    1    2    0    0  0.19956296587E+02  0.17017855327E+02 -0.31822875339E+02  0.41237805085E+02  0.00000000000E+00 0.  1.
</event>
<event>
 7    1  0.2480409E-009  0.1358230E+03  0.7561462E-02  0.1219063E+00
          1   -1    0    0  501    0  0.00000000000E+00  0.00000000000E+00  0.63828262318E+03  0.63828262318E+03  0.00000000000E+00 0. -1.
         -1   -1    0    0    0  501 -0.00000000000E+00 -0.00000000000E+00 -0.32655312129E+02  0.32655312129E+02  0.00000000000E+00 0.  1.
         25    2    1    2    0    0  0.44652808863E+02 -0.72297778214E+02  0.29004005378E+03  0.32709640092E+03  0.12509188871E+03 0.  0.
          5    1    3    3  502    0 -0.41966507476E+02 -0.18510204484E+02  0.61731927736E+02  0.77020248777E+02  0.41800000000E+01 0. -1.
         -5    1    3    3    0  502  0.86619316339E+02 -0.53787573730E+02  0.22830812604E+03  0.25007615214E+03  0.41800000000E+01 0. -1.
        -11    1    1    2    0    0  0.26558974176E+02  0.83739396364E+01  0.15024284063E+03  0.15280187543E+03  0.00000000000E+00 0.  1.
         11    1    1    2    0    0 -0.71211783039E+02  0.63923838578E+02  0.16534441663E+03  0.19103965896E+03  0.00000000000E+00 0. -1.
</event>
<event>
 7    1  0.2480409E-009  0.1703339E+03  0.7561462E-02  0.1177500E+00
         -1   -1    0    0    0  501 -0.00000000000E+00  0.00000000000E+00  0.27250262027E+03  0.27250262027E+03  0.00000000000E+00 0.  1.
          1   -1    0    0  501    0  0.00000000000E+00 -0.00000000000E+00 -0.13106297495E+03  0.13106297495E+03  0.00000000000E+00 0. -1.
         25    2    1    2    0    0 -0.24118832343E+02  0.12863207641E+03  0.16148677749E+03  0.24259666595E+03  0.12508890388E+03 0.  0.
          5    1    3    3  502    0 -0.69431458847E+02  0.11338717249E+03  0.12048913204E+03  0.17947835999E+03  0.41800000000E+01 0.  1.
         -5    1    3    3    0  502  0.45312626504E+02  0.15244903915E+02  0.40997645443E+02  0.63118305965E+02  0.41800000000E+01 0.  1.
        -11    1    1    2    0    0 -0.16270317624E+02 -0.11628929078E+03 -0.12782880899E+02  0.11811572474E+03  0.00000000000E+00 0.  1.
         11    1    1    2    0    0  0.40389149967E+02 -0.12342785626E+02 -0.72642512675E+01  0.42853204531E+02  0.00000000000E+00 0. -1.
</event>
<event>
 7    1  0.2480409E-009  0.1477311E+03  0.7561462E-02  0.1203289E+00
         -2   -1    0    0    0  501 -0.00000000000E+00  0.00000000000E+00  0.11376309110E+04  0.11376309110E+04  0.00000000000E+00 0. -1.
          2   -1    0    0  501    0  0.00000000000E+00 -0.00000000000E+00 -0.30554245830E+02  0.30554245830E+02  0.00000000000E+00 0.  1.
         25    2    1    2    0    0  0.11509645256E+03 -0.37502718601E+02  0.85600946653E+03  0.87352945791E+03  0.12509140563E+03 0.  0.
          5    1    3    3  502    0  0.12412352683E+03 -0.46514286009E+02  0.50066598632E+03  0.51793255446E+03  0.41800000000E+01 0. -1.
         -5    1    3    3    0  502 -0.90270742633E+01  0.90115674079E+01  0.35534348021E+03  0.35559690345E+03  0.41800000000E+01 0. -1.
        -11    1    1    2    0    0 -0.19853674801E+02  0.49587681973E+02  0.56859909032E+02  0.78013818402E+02  0.00000000000E+00 0.  1.
         11    1    1    2    0    0 -0.95242777763E+02 -0.12084963372E+02  0.19420728961E+03  0.21664188052E+03  0.00000000000E+00 0. -1.
</event>
<event>
 7    1  0.2691744E-009  0.1310528E+03  0.7561462E-02  0.1225902E+00
         -2   -1    0    0    0  501 -0.00000000000E+00  0.00000000000E+00  0.33872489851E+02  0.33872489851E+02  0.00000000000E+00 0.  1.
          2   -1    0    0  501    0  0.00000000000E+00 -0.00000000000E+00 -0.74651139088E+03  0.74651139088E+03  0.00000000000E+00 0. -1.
         25    2    1    2    0    0  0.66846990188E+02 -0.76306621626E+02 -0.52143115108E+03  0.54573786670E+03  0.12509257867E+03 0.  0.
          5    1    3    3  502    0 -0.18814067449E+02 -0.71734839254E+02 -0.21340287397E+03  0.22596042865E+03  0.41800000000E+01 0. -1.
         -5    1    3    3    0  502  0.85661057638E+02 -0.45717823722E+01 -0.30802827711E+03  0.31977743806E+03  0.41800000000E+01 0. -1.
        -11    1    1    2    0    0 -0.24547774281E+02  0.20934911203E+02 -0.15055821649E+03  0.15397610296E+03  0.00000000000E+00 0. -1.
         11    1    1    2    0    0 -0.42299215908E+02  0.55371710423E+02 -0.40649533458E+02  0.80669911069E+02  0.00000000000E+00 0.  1.
</event>
<event>
 7    1  0.2480409E-009  0.1036804E+03  0.7561462E-02  0.1272742E+00
         -3   -1    0    0    0  501 -0.00000000000E+00  0.00000000000E+00  0.24673866453E+03  0.24673866453E+03  0.00000000000E+00 0.  1.
          3   -1    0    0  501    0  0.00000000000E+00 -0.00000000000E+00 -0.95366943467E+02  0.95366943467E+02  0.00000000000E+00 0. -1.
         25    2    1    2    0    0 -0.36662997546E+02  0.18170993016E+02  0.19449084468E+03  0.23483305223E+03  0.12508202659E+03 0.  0.
          5    1    3    3  502    0  0.44801658583E+02 -0.36857620823E+01  0.49143371697E+02  0.66733176425E+02  0.41800000000E+01 0.  1.
         -5    1    3    3    0  502 -0.81464656130E+02  0.21856755098E+02  0.14534747298E+03  0.16809987580E+03  0.41800000000E+01 0.  1.
        -11    1    1    2    0    0 -0.44884128476E+01 -0.33538429778E+02  0.12787420386E+02  0.36173059616E+02  0.00000000000E+00 0.  1.
         11    1    1    2    0    0  0.41151410394E+02  0.15367436762E+02 -0.55906544008E+02  0.71099496151E+02  0.00000000000E+00 0. -1.
</event>
<event>
 7    1  0.2480409E-009  0.7801956E+02  0.7561462E-02  0.1334767E+00
         -2   -1    0    0    0  501 -0.00000000000E+00  0.00000000000E+00  0.91444822760E+02  0.91444822760E+02  0.00000000000E+00 0.  1.
          2   -1    0    0  501    0  0.00000000000E+00 -0.00000000000E+00 -0.18611112310E+03  0.18611112310E+03  0.00000000000E+00 0. -1.
         25    2    1    2    0    0  0.33158477192E+02 -0.16016797689E+01 -0.12441088962E+03  0.17952030752E+03  0.12508965333E+03 0.  0.
          5    1    3    3  502    0 -0.17841960998E+02 -0.30422693114E+02 -0.11459968408E+03  0.11997681367E+03  0.41800000000E+01 0. -1.
         -5    1    3    3    0  502  0.51000438191E+02  0.28821013345E+02 -0.98112055396E+01  0.59543493852E+02  0.41800000000E+01 0. -1.
        -11    1    1    2    0    0 -0.38748270943E+02  0.19260810026E+02  0.52925642858E+02  0.68363228244E+02  0.00000000000E+00 0.  1.
         11    1    1    2    0    0  0.55897937509E+01 -0.17659130257E+02 -0.23181053587E+02  0.29672410098E+02  0.00000000000E+00 0. -1.
</event>
<event>
 7    1  0.2480409E-009  0.9460535E+02  0.7561462E-02  0.1292067E+00
          2   -1    0    0  501    0  0.00000000000E+00  0.00000000000E+00  0.34028014053E+03  0.34028014053E+03  0.00000000000E+00 0. -1.
         -2   -1    0    0    0  501 -0.00000000000E+00 -0.00000000000E+00 -0.42378351267E+02  0.42378351267E+02  0.00000000000E+00 0.  1.
         25    2    1    2    0    0 -0.12114434514E+02  0.50202243758E+02  0.17846359518E+03  0.22397091589E+03  0.12508673615E+03 0.  0.
          5    1    3    3  502    0  0.17577915233E+02  0.54194067064E+02  0.16863017168E+02  0.59563527069E+02  0.41800000000E+01 0.  1.
         -5    1    3    3    0  502 -0.29692349748E+02 -0.39918233059E+01  0.16160057801E+03  0.16440738882E+03  0.41800000000E+01 0.  1.
        -11    1    1    2    0    0 -0.35854698198E+02 -0.38191126629E+02  0.43615608011E+02  0.68164820826E+02  0.00000000000E+00 0.  1.
         11    1    1    2    0    0  0.47969132712E+02 -0.12011117129E+02  0.75822586073E+02  0.90522755076E+02  0.00000000000E+00 0. -1.
</event>
<event>
 7    1  0.2480409E-009  0.1629829E+03  0.7561462E-02  0.1185370E+00
         -1   -1    0    0    0  501 -0.00000000000E+00  0.00000000000E+00  0.11269716395E+03  0.11269716395E+03  0.00000000000E+00 0.  1.
          1   -1    0    0  501    0  0.00000000000E+00 -0.00000000000E+00 -0.24815848701E+03  0.24815848701E+03  0.00000000000E+00 0. -1.
         25    2    1    2    0    0  0.12621490063E+03 -0.10186428207E+02 -0.75471281590E+02  0.19333064708E+03  0.12508741062E+03 0.  0.
          5    1    3    3  502    0  0.11359101602E+03 -0.52752957605E+02 -0.28403266567E+02  0.12849128923E+03  0.41800000000E+01 0.  1.
         -5    1    3    3    0  502  0.12623884603E+02  0.42566529398E+02 -0.47068015022E+02  0.64839357844E+02  0.41800000000E+01 0.  1.
        -11    1    1    2    0    0 -0.12416880827E+02  0.37098086714E+02 -0.10195123057E+02  0.40427558688E+02  0.00000000000E+00 0.  1.
         11    1    1    2    0    0 -0.11379801980E+03 -0.26911658507E+02 -0.49794918419E+02  0.12709744519E+03  0.00000000000E+00 0. -1.
</event>
<event>
 7    1  0.2480409E-009  0.1401077E+03  0.7561462E-02  0.1213184E+00
         -2   -1    0    0    0  501 -0.00000000000E+00  0.00000000000E+00  0.91279125963E+02  0.91279125963E+02  0.00000000000E+00 0. -1.
          2   -1    0    0  501    0  0.00000000000E+00 -0.00000000000E+00 -0.50643516921E+03  0.50643516921E+03  0.00000000000E+00 0.  1.
         25    2    1    2    0    0 -0.35985443683E+02  0.90616057987E+02 -0.43159030561E+03  0.45980829340E+03  0.12508897895E+03 0.  0.
          5    1    3    3  502    0  0.24904701335E+02  0.93961984334E+02 -0.27553070682E+03  0.29220496479E+03  0.41800000000E+01 0.  1.
         -5    1    3    3    0  502 -0.60890145019E+02 -0.33459263473E+01 -0.15605959879E+03  0.16760332860E+03  0.41800000000E+01 0.  1.
        -11    1    1    2    0    0 -0.21843268898E+02 -0.14565132979E+02 -0.22656291724E+02  0.34678221545E+02  0.00000000000E+00 0.  1.
         11    1    1    2    0    0  0.57828712582E+02 -0.76050925008E+02  0.39090554087E+02  0.10322778024E+03  0.00000000000E+00 0. -1.
</event>
<event>
 7    1  0.2480409E-009  0.1067407E+03  0.7561462E-02  0.1266727E+00
          1   -1    0    0  501    0  0.00000000000E+00  0.00000000000E+00  0.58471440825E+03  0.58471440825E+03  0.00000000000E+00 0. -1.
         -1   -1    0    0    0  501 -0.00000000000E+00 -0.00000000000E+00 -0.23681741664E+02  0.23681741664E+02  0.00000000000E+00 0.  1.
         25    2    1    2    0    0 -0.14457014261E+02  0.27268338182E+02  0.40915296632E+03  0.42896120991E+03  0.12509597208E+03 0.  0.
          5    1    3    3  502    0  0.48742502604E+02  0.39779387795E+02  0.17261205515E+03  0.18376785692E+03  0.41800000000E+01 0.  1.
         -5    1    3    3    0  502 -0.63199516865E+02 -0.12511049613E+02  0.23654091117E+03  0.24519335299E+03  0.41800000000E+01 0.  1.
        -11    1    1    2    0    0  0.10015072587E+02  0.28352238291E+02  0.19665305697E+02  0.35928753711E+02  0.00000000000E+00 0.  1.
         11    1    1    2    0    0  0.44419416735E+01 -0.55620576474E+02  0.13221439457E+03  0.14350618629E+03  0.00000000000E+00 0. -1.
</event>
<event>
 7    1  0.2480409E-009  0.8399546E+02  0.7561462E-02  0.1318081E+00
          1   -1    0    0  501    0  0.00000000000E+00  0.00000000000E+00  0.74075704305E+02  0.74075704305E+02  0.00000000000E+00 0. -1.
         -1   -1    0    0    0  501 -0.00000000000E+00 -0.00000000000E+00 -0.17910399790E+03  0.17910399790E+03  0.00000000000E+00 0.  1.
         25    2    1    2    0    0  0.21051716507E+02  0.67058183948E+01 -0.23573691108E+02  0.12918622552E+03  0.12508085059E+03 0.  0.
          5    1    3    3  502    0 -0.99228015961E+01  0.34842833086E+02  0.39255577877E+02  0.53581319538E+02  0.41800000000E+01 0. -1.
         -5    1    3    3    0  502  0.30974518103E+02 -0.28137014691E+02 -0.62829268985E+02  0.75604905983E+02  0.41800000000E+01 0. -1.
        -11    1    1    2    0    0  0.33885711406E+02  0.15104484027E+01 -0.49201306783E+02  0.59760283475E+02  0.00000000000E+00 0.  1.
         11    1    1    2    0    0 -0.54937427913E+02 -0.82162667975E+01 -0.32253295700E+02  0.64233193205E+02  0.00000000000E+00 0. -1.
</event>
<event>
 7    1  0.2480409E-009  0.9284199E+02  0.7561462E-02  0.1296112E+00
          2   -1    0    0  501    0  0.00000000000E+00  0.00000000000E+00  0.14850039501E+03  0.14850039501E+03  0.00000000000E+00 0. -1.
         -2   -1    0    0    0  501 -0.00000000000E+00 -0.00000000000E+00 -0.97495674610E+02  0.97495674610E+02  0.00000000000E+00 0.  1.
         25    2    1    2    0    0 -0.30614809651E+02 -0.39021298000E+02  0.13837279892E+02  0.13527129823E+03  0.12508767143E+03 0.  0.
          5    1    3    3  502    0 -0.68431708197E+02 -0.11896324603E+02  0.41452074133E+02  0.80994864502E+02  0.41800000000E+01 0.  1.
         -5    1    3    3    0  502  0.37816898546E+02 -0.27124973397E+02 -0.27614794241E+02  0.54276433730E+02  0.41800000000E+01 0.  1.
        -11    1    1    2    0    0  0.39334171165E+02  0.44251488490E+02 -0.12090765293E+02  0.60428121435E+02  0.00000000000E+00 0.  1.
         11    1    1    2    0    0 -0.87193615142E+01 -0.52301904900E+01  0.49258205797E+02  0.50296649949E+02  0.00000000000E+00 0. -1.
</event>
<event>
 7    1  0.2480409E-009  0.1109908E+03  0.7561462E-02  0.1258746E+00
         -2   -1    0    0    0  501 -0.00000000000E+00  0.00000000000E+00  0.94430215248E+02  0.94430215248E+02  0.00000000000E+00 0.  1.
          2   -1    0    0  501    0  0.00000000000E+00 -0.00000000000E+00 -0.57746079670E+03  0.57746079670E+03  0.00000000000E+00 0. -1.
         25    2    1    2    0    0 -0.57394189539E+02  0.10197896670E+02 -0.52719659279E+03  0.54496182233E+03  0.12509616405E+03 0.  0.
          5    1    3    3  502    0 -0.90474519278E+02  0.62268658903E+00 -0.46505381680E+03  0.47379167500E+03  0.41800000000E+01 0. -1.
         -5    1    3    3    0  502  0.33080329739E+02  0.95752100810E+01 -0.62142775991E+02  0.71170147334E+02  0.41800000000E+01 0. -1.
        -11    1    1    2    0    0 -0.93303806961E+01 -0.26445489696E+02 -0.18796905180E+02  0.33760088471E+02  0.00000000000E+00 0.  1.
         11    1    1    2    0    0  0.66724570235E+02  0.16247593026E+02  0.62962916517E+02  0.93169101147E+02  0.00000000000E+00 0. -1.
</event>
<event>
 7    1  0.2480409E-009  0.1147066E+03  0.7561462E-02  0.1252094E+00
          3   -1    0    0  501    0  0.00000000000E+00  0.00000000000E+00  0.28041072916E+03  0.28041072916E+03  0.00000000000E+00 0. -1.
         -3   -1    0    0    0  501 -0.00000000000E+00 -0.00000000000E+00 -0.68673288733E+02  0.68673288733E+02  0.00000000000E+00 0.  1.
         25    2    1    2    0    0  0.31362908505E+02  0.79581700801E+02  0.13234616887E+03  0.20120214121E+03  0.12509961663E+03 0.  0.
          5    1    3    3  502    0  0.51826413932E+02  0.26661234552E+02  0.13194878811E+03  0.14430784349E+03  0.41800000000E+01 0. -1.
         -5    1    3    3    0  502 -0.20463505428E+02  0.52920466249E+02  0.39738076688E+00  0.56894297727E+02  0.41800000000E+01 0. -1.
        -11    1    1    2    0    0 -0.50857663095E+02 -0.26098592952E+02  0.98384807551E+01  0.58003742578E+02  0.00000000000E+00 0.  1.
         11    1    1    2    0    0  0.19494754590E+02 -0.53483107849E+02  0.69552790804E+02  0.89878134105E+02  0.00000000000E+00 0. -1.
</event>
<event>
 7    1  0.2480409E-009  0.1149689E+03  0.7561462E-02  0.1251635E+00
         -2   -1    0    0    0  501 -0.00000000000E+00  0.00000000000E+00  0.28901343241E+02  0.28901343241E+02  0.00000000000E+00 0.  1.
          2   -1    0    0  501    0  0.00000000000E+00 -0.00000000000E+00 -0.75704834334E+03  0.75704834334E+03  0.00000000000E+00 0. -1.
         25    2    1    2    0    0  0.67609664544E+02 -0.64223446687E+02 -0.29508743373E+03  0.33379659998E+03  0.12509140166E+03 0.  0.
          5    1    3    3  502    0  0.54825122291E+02 -0.78610080855E+02 -0.29874080242E+03  0.31376564228E+03  0.41800000000E+01 0. -1.
         -5    1    3    3    0  502  0.12784542253E+02  0.14386634169E+02  0.36533686935E+01  0.20030957694E+02  0.41800000000E+01 0. -1.
        -11    1    1    2    0    0 -0.37669718122E+02 -0.58394229871E+01 -0.57811138610E+02  0.69247630079E+02  0.00000000000E+00 0.  1.
         11    1    1    2    0    0 -0.29939946422E+02  0.70062869674E+02 -0.37524842776E+03  0.38290545653E+03  0.00000000000E+00 0. -1.
</event>
<event>
 7    1  0.2722197E-009  0.1524785E+03  0.7561462E-02  0.1197460E+00
         -1   -1    0    0    0  501 -0.00000000000E+00  0.00000000000E+00  0.38598314256E+02  0.38598314256E+02  0.00000000000E+00 0.  1.
          1   -1    0    0  501    0  0.00000000000E+00 -0.00000000000E+00 -0.79589122120E+03  0.79589122120E+03  0.00000000000E+00 0. -1.
         25    2    1    2    0    0 -0.44706830918E+02 -0.12831454471E+03 -0.45035733297E+03  0.48675600542E+03  0.12508540418E+03 0.  0.
          5    1    3    3  502    0  0.31334255513E+02 -0.40820537762E+02 -0.24971900393E+03  0.25500040235E+03  0.41800000000E+01 0.  1.
         -5    1    3    3    0  502 -0.76041086430E+02 -0.87494006951E+02 -0.20063832904E+03  0.23175560308E+03  0.41800000000E+01 0.  1.
        -11    1    1    2    0    0  0.49092969877E+01  0.41981746892E+02 -0.22607096592E+02  0.47933798987E+02  0.00000000000E+00 0.  1.
         11    1    1    2    0    0  0.39797533930E+02  0.86332797821E+02 -0.28432847738E+03  0.29979973105E+03  0.00000000000E+00 0. -1.
</event>
<event>
 7    1  0.2480409E-009  0.1361632E+03  0.7561462E-02  0.1218587E+00
          2   -1    0    0  501    0  0.00000000000E+00  0.00000000000E+00  0.38437792726E+02  0.38437792726E+02  0.00000000000E+00 0.  1.
         -2   -1    0    0    0  501 -0.00000000000E+00 -0.00000000000E+00 -0.52812833796E+03  0.52812833796E+03  0.00000000000E+00 0. -1.
         25    2    1    2    0    0 -0.66136793366E+02 -0.60211367928E+02 -0.29932493138E+03  0.33651596399E+03  0.12509234672E+03 0.  0.
          5    1    3    3  502    0 -0.11907510492E+02 -0.90379453324E+02 -0.16714915090E+03  0.19043777313E+03  0.41800000000E+01 0. -1.
         -5    1    3    3    0  502 -0.54229282874E+02  0.30168085396E+02 -0.13217578048E+03  0.14607819085E+03  0.41800000000E+01 0. -1.
        -11    1    1    2    0    0 -0.13176007526E+02  0.32146255482E+02 -0.10326418573E+03  0.10895173689E+03  0.00000000000E+00 0.  1.
         11    1    1    2    0    0  0.79312800892E+02  0.28065112446E+02 -0.87101428118E+02  0.12109842981E+03  0.00000000000E+00 0. -1.
</event>
<event>
 7    1  0.2480409E-009  0.1295652E+03  0.7561462E-02  0.1228102E+00
          2   -1    0    0  501    0  0.00000000000E+00  0.00000000000E+00  0.20341916363E+03  0.20341916363E+03  0.00000000000E+00 0. -1.
         -2   -1    0    0    0  501 -0.00000000000E+00 -0.00000000000E+00 -0.17851443262E+03  0.17851443262E+03  0.00000000000E+00 0.  1.
         25    2    1    2    0    0 -0.81056078211E+02 -0.85176605330E+02  0.10986675944E+03  0.20383189578E+03  0.12510633476E+03 0.  0.
          5    1    3    3  502    0 -0.35143483506E+02 -0.72760824260E+02  0.12909902088E+03  0.15235889069E+03  0.41800000000E+01 0. -1.
         -5    1    3    3    0  502 -0.45912594705E+02 -0.12415781071E+02 -0.19232261448E+02  0.51473005085E+02  0.41800000000E+01 0. -1.
        -11    1    1    2    0    0  0.57900533281E+02  0.89812750173E+02 -0.10297541760E+03  0.14840060134E+03  0.00000000000E+00 0.  1.
         11    1    1    2    0    0  0.23155544929E+02 -0.46361448430E+01  0.18013389179E+02  0.29701099133E+02  0.00000000000E+00 0. -1.
</event>
<event>
 7    1  0.2480409E-009  0.1572727E+03  0.7561462E-02  0.1191811E+00
         -1   -1    0    0    0  501 -0.00000000000E+00  0.00000000000E+00  0.18534088489E+03  0.18534088489E+03  0.00000000000E+00 0.  1.
          1   -1    0    0  501    0  0.00000000000E+00 -0.00000000000E+00 -0.32288758229E+03  0.32288758229E+03  0.00000000000E+00 0. -1.
         25    2    1    2    0    0  0.12811074524E+03 -0.37031880212E+02  0.10861992010E+03  0.21267649284E+03  0.12509708377E+03 0.  0.
          5    1    3    3  502    0  0.66256691386E+02 -0.77684412815E+02  0.34525698722E+02  0.10786247457E+03  0.41800000000E+01 0. -1.
         -5    1    3    3    0  502  0.61854053854E+02  0.40652532603E+02  0.74094221374E+02  0.10481401827E+03  0.41800000000E+01 0. -1.
        -11    1    1    2    0    0 -0.19263257752E+02 -0.74272055614E+01  0.21981220655E+01  0.20762182503E+02  0.00000000000E+00 0.  1.
         11    1    1    2    0    0 -0.10884748749E+03  0.44459085774E+02 -0.24836473957E+03  0.27478979184E+03  0.00000000000E+00 0. -1.
</event>
<event>
 7    1  0.2480409E-009  0.1575892E+03  0.7561462E-02  0.1191446E+00
          2   -1    0    0  501    0  0.00000000000E+00  0.00000000000E+00  0.16063588324E+04  0.16063588324E+04  0.00000000000E+00 0. -1.
         -2   -1    0    0    0  501 -0.00000000000E+00 -0.00000000000E+00 -0.22920540841E+02  0.22920540841E+02  0.00000000000E+00 0.  1.
         25    2    1    2    0    0  0.50237998795E+01  0.12398374134E+03  0.12488349184E+04  0.12612016559E+04  0.12507500429E+03 0.  0.
          5    1    3    3  502    0 -0.46788146650E+02  0.32320538159E+02  0.23128214714E+03  0.23820716161E+03  0.41800000000E+01 0.  1.
         -5    1    3    3    0  502  0.51811946529E+02  0.91663203179E+02  0.10175527713E+04  0.10229944943E+04  0.41800000000E+01 0.  1.
        -11    1    1    2    0    0  0.24306195137E+02  0.10758608750E+01  0.65945865151E+02  0.70290865191E+02  0.00000000000E+00 0. -1.
         11    1    1    2    0    0 -0.29329995017E+02 -0.12505960221E+03  0.26865750795E+03  0.29778685211E+03  0.00000000000E+00 0.  1.
</event>
<event>
 7    1  0.2480409E-009  0.7298847E+02  0.7561462E-02  0.1350216E+00
         -1   -1    0    0    0  501 -0.00000000000E+00  0.00000000000E+00  0.18348006210E+02  0.18348006210E+02  0.00000000000E+00 0.  1.
          1   -1    0    0  501    0  0.00000000000E+00 -0.00000000000E+00 -0.71388124275E+03  0.71388124275E+03  0.00000000000E+00 0. -1.
         25    2    1    2    0    0 -0.12668766778E+02  0.62628583982E+01 -0.50504121610E+03  0.52049449997E+03  0.12509265961E+03 0.  0.
          5    1    3    3  502    0 -0.13488364688E+02 -0.22006941169E+02 -0.16076552687E+02  0.30694777860E+02  0.41800000000E+01 0. -1.
         -5    1    3    3    0  502  0.81959790938E+00  0.28269799567E+02 -0.48896466341E+03  0.48979972211E+03  0.41800000000E+01 0. -1.
        -11    1    1    2    0    0  0.20431174287E+01 -0.48065121141E+02 -0.11725688146E+03  0.12674228359E+03  0.00000000000E+00 0. -1.
         11    1    1    2    0    0  0.10625649350E+02  0.41802262743E+02 -0.73235138979E+02  0.84992465406E+02  0.00000000000E+00 0.  1.
</event>
<event>
 7    1  0.2480409E-009  0.1227135E+03  0.7561462E-02  0.1238687E+00
         -2   -1    0    0    0  501 -0.00000000000E+00  0.00000000000E+00  0.65530302747E+02  0.65530302747E+02  0.00000000000E+00 0.  1.
          2   -1    0    0  501    0  0.00000000000E+00 -0.00000000000E+00 -0.43540892430E+03  0.43540892430E+03  0.00000000000E+00 0. -1.
         25    2    1    2    0    0  0.52907738963E+02 -0.58591862872E+02 -0.34782423855E+03  0.37796833345E+03  0.12508447119E+03 0.  0.
          5    1    3    3  502    0 -0.16194786519E+02  0.29912354192E+02 -0.10394457779E+03  0.10944847051E+03  0.41800000000E+01 0. -1.
         -5    1    3    3    0  502  0.69102525482E+02 -0.88504217064E+02 -0.24387966076E+03  0.26851986295E+03  0.41800000000E+01 0. -1.
        -11    1    1    2    0    0 -0.43231051840E+02  0.70957966698E+02  0.13429187163E+02  0.84168283510E+02  0.00000000000E+00 0.  1.
         11    1    1    2    0    0 -0.96766871224E+01 -0.12366103826E+02 -0.35483570166E+02  0.38802610083E+02  0.00000000000E+00 0. -1.
</event>
<event>
 7    1  0.2480409E-009  0.8314484E+02  0.7561462E-02  0.1320357E+00
         -1   -1    0    0    0  501 -0.00000000000E+00  0.00000000000E+00  0.21691569247E+03  0.21691569247E+03  0.00000000000E+00 0.  1.
          1   -1    0    0  501    0  0.00000000000E+00 -0.00000000000E+00 -0.60971644543E+02  0.60971644543E+02  0.00000000000E+00 0. -1.
         25    2    1    2    0    0  0.30346509991E+02  0.24835526303E+01  0.53782508581E+02  0.13952135024E+03  0.12508625121E+03 0.  0.
          5    1    3    3  502    0 -0.13373884798E+02 -0.33603777568E+02 -0.23686125975E+02  0.43434774376E+02  0.41800000000E+01 0. -1.
         -5    1    3    3    0  502  0.43720394789E+02  0.36087330198E+02  0.77468634556E+02  0.96086575864E+02  0.41800000000E+01 0. -1.
        -11    1    1    2    0    0 -0.58362089088E+01 -0.33217851988E+02  0.91672456662E+02  0.97679713019E+02  0.00000000000E+00 0.  1.
         11    1    1    2    0    0 -0.24510301082E+02  0.30734299358E+02  0.10489082680E+02  0.40686273750E+02  0.00000000000E+00 0. -1.
</event>
<event>
 7    1  0.2480409E-009  0.8935167E+02  0.7561462E-02  0.1304429E+00
         -4   -1    0    0    0  501 -0.00000000000E+00  0.00000000000E+00  0.15641389810E+03  0.15641389810E+03  0.00000000000E+00 0.  1.
          4   -1    0    0  501    0  0.00000000000E+00 -0.00000000000E+00 -0.13893038243E+03  0.13893038243E+03  0.00000000000E+00 0. -1.
         25    2    1    2    0    0 -0.80723037543E+02  0.31367540217E+02 -0.60351764556E+02  0.16367518084E+03  0.12508836065E+03 0.  0.
          5    1    3    3  502    0 -0.65708845205E+01  0.12749546277E+02  0.36952138766E+02  0.39858003124E+02  0.41800000000E+01 0.  1.
         -5    1    3    3    0  502 -0.74152153022E+02  0.18617993940E+02 -0.97303903322E+02  0.12381717772E+03  0.41800000000E+01 0.  1.
        -11    1    1    2    0    0  0.50728093297E+02 -0.14392100173E+02  0.81435114093E+02  0.97016234746E+02  0.00000000000E+00 0.  1.
         11    1    1    2    0    0  0.29994944246E+02 -0.16975440043E+02 -0.35998338616E+01  0.34652864944E+02  0.00000000000E+00 0. -1.
</event>
<event>
 7    1  0.2480409E-009  0.7524047E+02  0.7561462E-02  0.1343128E+00
          1   -1    0    0  501    0  0.00000000000E+00  0.00000000000E+00  0.28708036273E+03  0.28708036273E+03  0.00000000000E+00 0. -1.
         -1   -1    0    0    0  501 -0.00000000000E+00 -0.00000000000E+00 -0.49699794887E+02  0.49699794887E+02  0.00000000000E+00 0.  1.
         25    2    1    2    0    0  0.13153152974E+02  0.41385332634E+02  0.10465869638E+03  0.16877951127E+03  0.12508928613E+03 0.  0.
          5    1    3    3  502    0 -0.11956108221E+02  0.33409191854E+02  0.12827147270E+03  0.13315466846E+03  0.41800000000E+01 0. -1.
         -5    1    3    3    0  502  0.25109261195E+02  0.79761407799E+01 -0.23612776321E+02  0.35624842808E+02  0.41800000000E+01 0. -1.
        -11    1    1    2    0    0 -0.34120173485E+02  0.74554396641E+01  0.99183061306E+02  0.10515250577E+03  0.00000000000E+00 0. -1.
         11    1    1    2    0    0  0.20967020511E+02 -0.48840772298E+02  0.33538810160E+02  0.62848140582E+02  0.00000000000E+00 0.  1.
</event>
<event>
 7    1  0.2480409E-009  0.1170334E+03  0.7561462E-02  0.1248073E+00
          1   -1    0    0  501    0  0.00000000000E+00  0.00000000000E+00  0.28652092584E+03  0.28652092584E+03  0.00000000000E+00 0. -1.
         -1   -1    0    0    0  501 -0.00000000000E+00 -0.00000000000E+00 -0.73336275050E+02  0.73336275050E+02  0.00000000000E+00 0.  1.
         25    2    1    2    0    0 -0.14836699175E+01  0.91223248297E+02  0.14284341276E+03  0.21065484523E+03  0.12508933186E+03 0.  0.
          5    1    3    3  502    0  0.25948301093E+00 -0.13930492316E+02 -0.15027980385E+02  0.20915031486E+02  0.41800000000E+01 0.  1.
         -5    1    3    3    0  502 -0.17431529285E+01  0.10515374061E+03  0.15787139314E+03  0.18973981375E+03  0.41800000000E+01 0.  1.
        -11    1    1    2    0    0  0.22675495641E+02 -0.22270844560E+01 -0.12322315397E+02  0.25903232703E+02  0.00000000000E+00 0.  1.
         11    1    1    2    0    0 -0.21191825723E+02 -0.88996163841E+02  0.82663553425E+02  0.12329912295E+03  0.00000000000E+00 0. -1.
</event>
<event>
 7    1  0.2480409E-009  0.1189391E+03  0.7561462E-02  0.1244857E+00
          1   -1    0    0  501    0  0.00000000000E+00  0.00000000000E+00  0.40562828452E+03  0.40562828452E+03  0.00000000000E+00 0. -1.
         -1   -1    0    0    0  501 -0.00000000000E+00 -0.00000000000E+00 -0.46376308126E+02  0.46376308126E+02  0.00000000000E+00 0.  1.
         25    2    1    2    0    0  0.78448899596E+02 -0.25094099752E+01  0.14740800003E+03  0.20864839899E+03  0.12507801142E+03 0.  0.
          5    1    3    3  502    0  0.44518539145E+02 -0.58803764944E+02  0.43809674234E+02  0.85886803734E+02  0.41800000000E+01 0. -1.
         -5    1    3    3    0  502  0.33930360451E+02  0.56294354968E+02  0.10359832580E+03  0.12276159525E+03  0.41800000000E+01 0. -1.
        -11    1    1    2    0    0 -0.62994685783E+02  0.27519587808E+02  0.20030544273E+03  0.21177329515E+03  0.00000000000E+00 0. -1.
         11    1    1    2    0    0 -0.15454213814E+02 -0.25010177833E+02  0.11538533633E+02  0.31582898509E+02  0.00000000000E+00 0.  1.
</event>
<event>
 7    1  0.2480409E-009  0.7629787E+02  0.7561462E-02  0.1339898E+00
         -3   -1    0    0    0  501 -0.00000000000E+00  0.00000000000E+00  0.13334588227E+03  0.13334588227E+03  0.00000000000E+00 0.  1.
          3   -1    0    0  501    0  0.00000000000E+00 -0.00000000000E+00 -0.10322962945E+03  0.10322962945E+03  0.00000000000E+00 0. -1.
         25    2    1    2    0    0 -0.30244731395E+01 -0.16976732995E+02  0.62316776728E+02  0.14080844184E+03  0.12508508996E+03 0.  0.
          5    1    3    3  502    0 -0.34818069653E+02 -0.22579957898E+02  0.89277914986E+02  0.98540199804E+02  0.41800000000E+01 0.  1.
         -5    1    3    3    0  502  0.31793596514E+02  0.56032249029E+01 -0.26961138258E+02  0.42268242035E+02  0.41800000000E+01 0.  1.
        -11    1    1    2    0    0  0.35950547742E+02  0.25795110529E+02 -0.41257297711E+02  0.60497886117E+02  0.00000000000E+00 0. -1.
         11    1    1    2    0    0 -0.32926074603E+02 -0.88183775342E+01  0.90567738026E+01  0.35269183756E+02  0.00000000000E+00 0.  1.
</event>
<event>
 7    1  0.2480409E-009  0.1032748E+03  0.7561462E-02  0.1273556E+00
         -1   -1    0    0    0  501 -0.00000000000E+00  0.00000000000E+00  0.82592626839E+02  0.82592626839E+02  0.00000000000E+00 0.  1.
          1   -1    0    0  501    0  0.00000000000E+00 -0.00000000000E+00 -0.32038013411E+03  0.32038013411E+03  0.00000000000E+00 0. -1.
         25    2    1    2    0    0  0.27313816064E+02 -0.24377245108E+02  0.15414824549E+02  0.13124617284E+03  0.12509055297E+03 0.  0.
          5    1    3    3  502    0  0.46756929697E+01  0.39944769089E+02 -0.29001458172E+02  0.49759457979E+02  0.41800000000E+01 0.  1.
         -5    1    3    3    0  502  0.22638123094E+02 -0.64322014197E+02  0.44416282721E+02  0.81486714857E+02  0.41800000000E+01 0.  1.
        -11    1    1    2    0    0  0.30234265827E+02  0.26509861834E+02 -0.12160086965E+03  0.12807675474E+03  0.00000000000E+00 0. -1.
         11    1    1    2    0    0 -0.57548081890E+02 -0.21326167257E+01 -0.13160146217E+03  0.14364983337E+03  0.00000000000E+00 0.  1.
</event>
<event>
 7    1  0.2480409E-009  0.8843088E+02  0.7561462E-02  0.1306697E+00
          2   -1    0    0  501    0  0.00000000000E+00  0.00000000000E+00  0.19293266229E+03  0.19293266229E+03  0.00000000000E+00 0. -1.
         -2   -1    0    0    0  501 -0.00000000000E+00 -0.00000000000E+00 -0.71510421732E+02  0.71510421732E+02  0.00000000000E+00 0.  1.
         25    2    1    2    0    0 -0.86603054557E+01  0.43365145775E+02  0.58316728949E+02  0.14492486733E+03  0.12508732764E+03 0.  0.
          5    1    3    3  502    0 -0.29911375855E+02 -0.44828360214E+01 -0.29592990286E+02  0.42520626740E+02  0.41800000000E+01 0. -1.
         -5    1    3    3    0  502  0.21251070399E+02  0.47847981797E+02  0.87909719234E+02  0.10240424059E+03  0.41800000000E+01 0. -1.
        -11    1    1    2    0    0  0.39343439125E+02  0.15942315376E+01  0.49796061742E+02  0.63483033492E+02  0.00000000000E+00 0. -1.
         11    1    1    2    0    0 -0.30683133669E+02 -0.44959377313E+02  0.13309449866E+02  0.56035183196E+02  0.00000000000E+00 0.  1.
</event>
<event>
 7    1  0.2480409E-009  0.1147465E+03  0.7561462E-02  0.1252024E+00
          1   -1    0    0  501    0  0.00000000000E+00  0.00000000000E+00  0.51777705194E+02  0.51777705194E+02  0.00000000000E+00 0. -1.
         -1   -1    0    0    0  501 -0.00000000000E+00 -0.00000000000E+00 -0.30577709780E+03  0.30577709780E+03  0.00000000000E+00 0.  1.
         25    2    1    2    0    0  0.21940545071E+02 -0.57548398983E+02 -0.16156969629E+03  0.21341235962E+03  0.12508742036E+03 0.  0.
          5    1    3    3  502    0  0.27489037779E+02  0.28965703640E+02 -0.14590579318E+02  0.42720212900E+02  0.41800000000E+01 0.  1.
         -5    1    3    3    0  502 -0.55484927079E+01 -0.86514102623E+02 -0.14697911697E+03  0.17069214672E+03  0.41800000000E+01 0.  1.
        -11    1    1    2    0    0  0.29419312630E+02  0.36904151042E+02 -0.16124018390E+02  0.49873803632E+02  0.00000000000E+00 0. -1.
         11    1    1    2    0    0 -0.51359857700E+02  0.20644247942E+02 -0.76305677926E+02  0.94268639747E+02  0.00000000000E+00 0.  1.
</event>
<event>
 7    1  0.2480409E-009  0.1231325E+03  0.7561462E-02  0.1238017E+00
          2   -1    0    0  501    0  0.00000000000E+00  0.00000000000E+00  0.57032242889E+03  0.57032242889E+03  0.00000000000E+00 0. -1.
         -2   -1    0    0    0  501 -0.00000000000E+00 -0.00000000000E+00 -0.53709085213E+02  0.53709085213E+02  0.00000000000E+00 0.  1.
         25    2    1    2    0    0  0.26217945500E+02 -0.73857856608E+02  0.49317748686E+03  0.51479508762E+03  0.12509030753E+03 0.  0.
          5    1    3    3  502    0 -0.18254769789E+01  0.34735881381E+02  0.13294025576E+03  0.13747908141E+03  0.41800000000E+01 0. -1.
         -5    1    3    3    0  502  0.28043422479E+02 -0.10859373799E+03  0.36023723110E+03  0.37731600621E+03  0.41800000000E+01 0. -1.
        -11    1    1    2    0    0  0.13625179947E+02  0.51578029679E+02 -0.78123047253E+01  0.53916331286E+02  0.00000000000E+00 0. -1.
         11    1    1    2    0    0 -0.39843125447E+02  0.22279826929E+02  0.31248161545E+02  0.55320095204E+02  0.00000000000E+00 0.  1.
</event>
<event>
 7    1  0.2480409E-009  0.2730199E+03  0.7561462E-02  0.1099564E+00
          1   -1    0    0  501    0  0.00000000000E+00  0.00000000000E+00  0.82065754135E+03  0.82065754135E+03  0.00000000000E+00 0. -1.
         -1   -1    0    0    0  501 -0.00000000000E+00 -0.00000000000E+00 -0.12059371023E+03  0.12059371023E+03  0.00000000000E+00 0.  1.
         25    2    1    2    0    0 -0.86975971696E+02  0.24739700832E+03  0.55914843542E+03  0.63013096168E+03  0.12509179293E+03 0.  0.
          5    1    3    3  502    0 -0.10034914587E+03  0.13416631866E+03  0.25359754297E+03  0.30397325267E+03  0.41800000000E+01 0.  1.
         -5    1    3    3    0  502  0.13373174175E+02  0.11323068966E+03  0.30555089245E+03  0.32615770901E+03  0.41800000000E+01 0.  1.
        -11    1    1    2    0    0  0.53758409022E+02 -0.10303183402E+03  0.15928757508E+02  0.11729983238E+03  0.00000000000E+00 0.  1.
         11    1    1    2    0    0  0.33217562675E+02 -0.14436517430E+03  0.12498663819E+03  0.19382045750E+03  0.00000000000E+00 0. -1.
</event>
<event>
 7    1  0.2480409E-009  0.1441682E+03  0.7561462E-02  0.1207828E+00
          1   -1    0    0  501    0  0.00000000000E+00  0.00000000000E+00  0.22595729896E+04  0.22595729896E+04  0.00000000000E+00 0. -1.
         -1   -1    0    0    0  501 -0.00000000000E+00 -0.00000000000E+00 -0.11863606545E+02  0.11863606545E+02  0.00000000000E+00 0.  1.
         25    2    1    2    0    0 -0.15489440536E+02 -0.96447952317E+02  0.17089804456E+04  0.17163343038E+04  0.12508856366E+03 0.  0.
          5    1    3    3  502    0  0.54267007916E+02 -0.50166768667E+02  0.71232558187E+03  0.71616116889E+03  0.41800000000E+01 0. -1.
         -5    1    3    3    0  502 -0.69756448452E+02 -0.46281183650E+02  0.99665486373E+03  0.10001731349E+04  0.41800000000E+01 0. -1.
        -11    1    1    2    0    0 -0.28110203387E+02  0.41427465222E+01  0.73409870657E+02  0.78716929520E+02  0.00000000000E+00 0.  1.
         11    1    1    2    0    0  0.43599643922E+02  0.92305205795E+02  0.46531906679E+03  0.47638536279E+03  0.00000000000E+00 0. -1.
</event>
<event>
 7    1  0.2480409E-009  0.1617009E+03  0.7561462E-02  0.1186790E+00
          2   -1    0    0  501    0  0.00000000000E+00  0.00000000000E+00  0.43641796830E+03  0.43641796830E+03  0.00000000000E+00 0.  1.
         -2   -1    0    0    0  501 -0.00000000000E+00 -0.00000000000E+00 -0.81263465491E+02  0.81263465491E+02  0.00000000000E+00 0. -1.
         25    2    1    2    0    0  0.11669305766E+03  0.96527285831E+02  0.24495644659E+03  0.31398346478E+03  0.12508864381E+03 0.  0.
          5    1    3    3  502    0  0.10401336868E+03  0.10724653466E+03  0.25393226033E+03  0.29465176955E+03  0.41800000000E+01 0.  1.
         -5    1    3    3    0  502  0.12679688980E+02 -0.10719248831E+02 -0.89758137396E+01  0.19331695229E+02  0.41800000000E+01 0.  1.
        -11    1    1    2    0    0 -0.87229976811E+02 -0.92400109626E+02  0.11749412061E+03  0.17306564503E+03  0.00000000000E+00 0.  1.
         11    1    1    2    0    0 -0.29463080849E+02 -0.41271762046E+01 -0.72960643955E+01  0.30632323976E+02  0.00000000000E+00 0. -1.
</event>
<event>
 7    1  0.2480409E-009  0.2252208E+03  0.7561462E-02  0.1130050E+00
         -1   -1    0    0    0  501 -0.00000000000E+00  0.00000000000E+00  0.34597214940E+03  0.34597214940E+03  0.00000000000E+00 0.  1.
          1   -1    0    0  501    0  0.00000000000E+00 -0.00000000000E+00 -0.16538887042E+03  0.16538887042E+03  0.00000000000E+00 0. -1.
         25    2    1    2    0    0  0.62325943869E+02 -0.20363135297E+03  0.89177160231E+02  0.26257978774E+03  0.12508128489E+03 0.  0.
          5    1    3    3  502    0  0.77781165226E+02 -0.19812610725E+03  0.10677128173E+03  0.23816263989E+03  0.41800000000E+01 0.  1.
         -5    1    3    3    0  502 -0.15455221358E+02 -0.55052457240E+01 -0.17594121502E+02  0.24417147850E+02  0.41800000000E+01 0.  1.
        -11    1    1    2    0    0 -0.49316279944E+02  0.66060489535E+02  0.71587423408E+02  0.10918261279E+03  0.00000000000E+00 0.  1.
         11    1    1    2    0    0 -0.13009663925E+02  0.13757086344E+03  0.19818695350E+02  0.13959861929E+03  0.00000000000E+00 0. -1.
</event>
<event>
 7    1  0.2480409E-009  0.1079042E+03  0.7561462E-02  0.1264501E+00
         -1   -1    0    0    0  501 -0.00000000000E+00  0.00000000000E+00  0.22084663582E+03  0.22084663582E+03  0.00000000000E+00 0.  1.
          1   -1    0    0  501    0  0.00000000000E+00 -0.00000000000E+00 -0.56824757862E+02  0.56824757862E+02  0.00000000000E+00 0. -1.
         25    2    1    2    0    0  0.16871472189E+02  0.44986593239E+00  0.12320279617E+03  0.17638188037E+03  0.12508712878E+03 0.  0.
          5    1    3    3  502    0  0.62717436410E+02 -0.28989089896E+02  0.51731284187E+02  0.86414364121E+02  0.41800000000E+01 0. -1.
         -5    1    3    3    0  502 -0.45845964221E+02  0.29438955828E+02  0.71471511980E+02  0.89967516251E+02  0.41800000000E+01 0. -1.
        -11    1    1    2    0    0 -0.42282028111E+02  0.30327093271E+02  0.16659955569E+02  0.54635671561E+02  0.00000000000E+00 0. -1.
         11    1    1    2    0    0  0.25410555922E+02 -0.30776959203E+02  0.24159126221E+02  0.46653841747E+02  0.00000000000E+00 0.  1.
</event>
<event>
 7    1  0.2480409E-009  0.1177010E+03  0.7561462E-02  0.1246939E+00
          4   -1    0    0  501    0  0.00000000000E+00  0.00000000000E+00  0.66689771133E+03  0.66689771133E+03  0.00000000000E+00 0.  1.
         -4   -1    0    0    0  501 -0.00000000000E+00 -0.00000000000E+00 -0.21967220174E+02  0.21967220174E+02  0.00000000000E+00 0. -1.
         25    2    1    2    0    0  0.41636975511E+01 -0.48147363372E+02  0.29334559048E+03  0.32254153236E+03  0.12508357073E+03 0.  0.
          5    1    3    3  502    0  0.60998631814E+01 -0.90792046176E+02  0.19327573007E+03  0.21366652572E+03  0.41800000000E+01 0.  1.
         -5    1    3    3    0  502 -0.19361656303E+01  0.42644682803E+02  0.10006986041E+03  0.10887500664E+03  0.41800000000E+01 0.  1.
        -11    1    1    2    0    0 -0.46618977805E+02  0.28450268605E+02  0.21948110252E+03  0.22617405077E+03  0.00000000000E+00 0.  1.
         11    1    1    2    0    0  0.42455280254E+02  0.19697094768E+02  0.13210379816E+03  0.14014934838E+03  0.00000000000E+00 0. -1.
</event>
<event>
 7    1  0.2480409E-009  0.8780700E+02  0.7561462E-02  0.1308251E+00
         -3   -1    0    0    0  501 -0.00000000000E+00  0.00000000000E+00  0.32835066921E+03  0.32835066921E+03  0.00000000000E+00 0.  1.
          3   -1    0    0  501    0  0.00000000000E+00 -0.00000000000E+00 -0.59575452883E+02  0.59575452883E+02  0.00000000000E+00 0. -1.
         25    2    1    2    0    0  0.38545449482E+01 -0.35768258858E+02  0.36592474399E+02  0.13520506184E+03  0.12508866338E+03 0.  0.
          5    1    3    3  502    0  0.38333299736E+02 -0.26684506915E+02 -0.32697567891E+02  0.57167369399E+02  0.41800000000E+01 0.  1.
         -5    1    3    3    0  502 -0.34478754788E+02 -0.90837519425E+01  0.69290042290E+02  0.78037692442E+02  0.41800000000E+01 0.  1.
        -11    1    1    2    0    0  0.10697901951E+02  0.61950066071E+02  0.19551411815E+03  0.20537289546E+03  0.00000000000E+00 0.  1.
         11    1    1    2    0    0 -0.14552446899E+02 -0.26181807214E+02  0.36668623776E+02  0.47348164794E+02  0.00000000000E+00 0. -1.
</event>
<event>
 7    1  0.2480409E-009  0.8976525E+02  0.7561462E-02  0.1303421E+00
         -1   -1    0    0    0  501 -0.00000000000E+00  0.00000000000E+00  0.18012952490E+02  0.18012952490E+02  0.00000000000E+00 0.  1.
          1   -1    0    0  501    0  0.00000000000E+00 -0.00000000000E+00 -0.97913204701E+03  0.97913204701E+03  0.00000000000E+00 0. -1.
         25    2    1    2    0    0 -0.10669874224E+01 -0.68488339065E+02 -0.65243546764E+03  0.66784081041E+03  0.12509003785E+03 0.  0.
          5    1    3    3  502    0  0.46550763051E+01 -0.16595358089E+02 -0.56934420777E+03  0.56962037794E+03  0.41800000000E+01 0. -1.
         -5    1    3    3    0  502 -0.57220637275E+01 -0.51892980976E+02 -0.83091259867E+02  0.98220432468E+02  0.41800000000E+01 0. -1.
        -11    1    1    2    0    0 -0.38508004678E+02  0.11782332349E+02 -0.69487540446E+02  0.80313187318E+02  0.00000000000E+00 0.  1.
         11    1    1    2    0    0  0.39574992100E+02  0.56706006716E+02 -0.23919608643E+03  0.24899100177E+03  0.00000000000E+00 0. -1.
</event>
<event>
 7    1  0.2480409E-009  0.1239036E+03  0.7561462E-02  0.1236793E+00
          2   -1    0    0  501    0  0.00000000000E+00  0.00000000000E+00  0.50587066230E+03  0.50587066230E+03  0.00000000000E+00 0. -1.
         -2   -1    0    0    0  501 -0.00000000000E+00 -0.00000000000E+00 -0.37400787868E+02  0.37400787868E+02  0.00000000000E+00 0.  1.
         25    2    1    2    0    0 -0.82077839019E+02 -0.17006146982E+02  0.32476722418E+03  0.35797765540E+03  0.12509305006E+03 0.  0.
          5    1    3    3  502    0  0.15302410947E+02 -0.45886753414E+02  0.11698449940E+03  0.12665939925E+03  0.41800000000E+01 0. -1.
         -5    1    3    3    0  502 -0.97380249966E+02  0.28880606432E+02  0.20778272478E+03  0.23131825615E+03  0.41800000000E+01 0. -1.
        -11    1    1    2    0    0  0.82478977126E+02  0.19153716539E+01  0.14813581078E+03  0.16956022161E+03  0.00000000000E+00 0. -1.
         11    1    1    2    0    0 -0.40113810715E+00  0.15090775328E+02 -0.44331605319E+01  0.15733573150E+02  0.00000000000E+00 0.  1.
</event>
<event>
 7    1  0.2877002E-009  0.1742883E+03  0.7561462E-02  0.1173448E+00
         -2   -1    0    0    0  501 -0.00000000000E+00  0.00000000000E+00  0.31092908901E+02  0.31092908901E+02  0.00000000000E+00 0.  1.
          2   -1    0    0  501    0  0.00000000000E+00 -0.00000000000E+00 -0.11751130740E+04  0.11751130740E+04  0.00000000000E+00 0. -1.
         25    2    1    2    0    0  0.13327544691E+03  0.80154425665E+02 -0.53490582158E+03  0.57092825117E+03  0.12509098020E+03 0.  0.
          5    1    3    3  502    0  0.14431826638E+03  0.73424940467E+02 -0.53316523144E+03  0.55722672254E+03  0.41800000000E+01 0. -1.
         -5    1    3    3    0  502 -0.11042819470E+02  0.67294851981E+01 -0.17405901364E+01  0.13701528634E+02  0.41800000000E+01 0. -1.
        -11    1    1    2    0    0 -0.21552342413E+02 -0.54176089913E+02 -0.12760373075E+03  0.14029349337E+03  0.00000000000E+00 0.  1.
         11    1    1    2    0    0 -0.11172310450E+03 -0.25978335752E+02 -0.48151061275E+03  0.49498423833E+03  0.00000000000E+00 0. -1.
</event>
<event>
 7    1  0.2480409E-009  0.1099884E+03  0.7561462E-02  0.1260591E+00
          2   -1    0    0  501    0  0.00000000000E+00  0.00000000000E+00  0.25395142854E+03  0.25395142854E+03  0.00000000000E+00 0. -1.
         -2   -1    0    0    0  501 -0.00000000000E+00 -0.00000000000E+00 -0.64122873209E+02  0.64122873209E+02  0.00000000000E+00 0.  1.
         25    2    1    2    0    0  0.27144686624E+02  0.26124816252E+02  0.17606456559E+03  0.21923053619E+03  0.12507580383E+03 0.  0.
          5    1    3    3  502    0 -0.20487335599E+01 -0.44971384827E+02  0.30403565886E+02  0.54483685457E+02  0.41800000000E+01 0.  1.
         -5    1    3    3    0  502  0.29193420184E+02  0.71096201079E+02  0.14566099971E+03  0.16474685073E+03  0.41800000000E+01 0.  1.
        -11    1    1    2    0    0  0.32368154177E+02  0.10190970048E+01  0.26145779393E+01  0.32489567269E+02  0.00000000000E+00 0.  1.
         11    1    1    2    0    0 -0.59512840801E+02 -0.27143913257E+02  0.11149411796E+02  0.66354198289E+02  0.00000000000E+00 0. -1.
</event>
<event>
 7    1  0.2480409E-009  0.1238810E+03  0.7561462E-02  0.1236829E+00
         -2   -1    0    0    0  501 -0.00000000000E+00  0.00000000000E+00  0.63838564734E+02  0.63838564734E+02  0.00000000000E+00 0.  1.
          2   -1    0    0  501    0  0.00000000000E+00 -0.00000000000E+00 -0.50747943448E+03  0.50747943448E+03  0.00000000000E+00 0. -1.
         25    2    1    2    0    0 -0.52809276067E+02  0.54463488463E+02 -0.42660972781E+03  0.45099705957E+03  0.12508955456E+03 0.  0.
          5    1    3    3  502    0 -0.83808711304E+02  0.48546629303E+02 -0.20105412507E+03  0.22320597867E+03  0.41800000000E+01 0. -1.
         -5    1    3    3    0  502  0.30999435237E+02  0.59168591598E+01 -0.22555560274E+03  0.22779108090E+03  0.41800000000E+01 0. -1.
        -11    1    1    2    0    0 -0.20770821590E+02  0.82048325168E+01 -0.10443477680E+01  0.22357033980E+02  0.00000000000E+00 0. -1.
         11    1    1    2    0    0  0.73580097657E+02 -0.62668320980E+02 -0.15986794167E+02  0.97963905666E+02  0.00000000000E+00 0.  1.
</event>
<event>
 7    1  0.2480409E-009  0.1439250E+03  0.7561462E-02  0.1208143E+00
          2   -1    0    0  501    0  0.00000000000E+00  0.00000000000E+00  0.41925965021E+02  0.41925965021E+02  0.00000000000E+00 0.  1.
         -2   -1    0    0    0  501 -0.00000000000E+00 -0.00000000000E+00 -0.56854836453E+03  0.56854836453E+03  0.00000000000E+00 0. -1.
         25    2    1    2    0    0  0.63357391616E+02  0.78528405028E+02 -0.37389033190E+03  0.40696721282E+03  0.12508981793E+03 0.  0.
          5    1    3    3  502    0 -0.33159942109E+02  0.32182588804E+02 -0.17504820397E+03  0.18109292337E+03  0.41800000000E+01 0. -1.
         -5    1    3    3    0  502  0.96517333724E+02  0.46345816224E+02 -0.19884212794E+03  0.22587428945E+03  0.41800000000E+01 0. -1.
        -11    1    1    2    0    0  0.25589008428E+01 -0.67405850884E+02 -0.71312195473E+02  0.98160714800E+02  0.00000000000E+00 0.  1.
         11    1    1    2    0    0 -0.65916292459E+02 -0.11122554144E+02 -0.81419872135E+02  0.10534640194E+03  0.00000000000E+00 0. -1.
</event>
<event>
 7    1  0.2480409E-009  0.1149815E+03  0.7561462E-02  0.1251613E+00
         -2   -1    0    0    0  501 -0.00000000000E+00  0.00000000000E+00  0.13620207509E+03  0.13620207509E+03  0.00000000000E+00 0.  1.
          2   -1    0    0  501    0  0.00000000000E+00 -0.00000000000E+00 -0.12807118482E+03  0.12807118482E+03  0.00000000000E+00 0. -1.
         25    2    1    2    0    0  0.70850719407E+02 -0.23585601875E+02 -0.42328221464E+01  0.14574275157E+03  0.12508768043E+03 0.  0.
          5    1    3    3  502    0  0.51410089164E+02  0.27447023486E+02 -0.48013755132E+02  0.75624926102E+02  0.41800000000E+01 0. -1.
         -5    1    3    3    0  502  0.19440630242E+02 -0.51032625361E+02  0.43780932985E+02  0.70117825469E+02  0.41800000000E+01 0. -1.
        -11    1    1    2    0    0 -0.13872486603E+02 -0.33408768661E+02 -0.36702125784E+01  0.36360172831E+02  0.00000000000E+00 0. -1.
         11    1    1    2    0    0 -0.56978232804E+02  0.56994370536E+02  0.16033924994E+02  0.82170335505E+02  0.00000000000E+00 0.  1.
</event>
<event>
 7    1  0.2480409E-009  0.1125331E+03  0.7561462E-02  0.1255950E+00
          1   -1    0    0  501    0  0.00000000000E+00  0.00000000000E+00  0.16848164199E+03  0.16848164199E+03  0.00000000000E+00 0. -1.
         -1   -1    0    0    0  501 -0.00000000000E+00 -0.00000000000E+00 -0.90904754129E+02  0.90904754129E+02  0.00000000000E+00 0.  1.
         25    2    1    2    0    0  0.28842576769E+02  0.17934530779E+02 -0.61238910420E+01  0.12976684466E+03  0.12509352622E+03 0.  0.
          5    1    3    3  502    0 -0.30410910538E+02  0.50128525548E+02 -0.17324832321E+02  0.61280623107E+02  0.41800000000E+01 0.  1.
         -5    1    3    3    0  502  0.59253487307E+02 -0.32193994769E+02  0.11200941279E+02  0.68486221554E+02  0.41800000000E+01 0.  1.
        -11    1    1    2    0    0  0.20054817874E+02  0.26102482082E+02  0.32323672340E+02  0.46134098933E+02  0.00000000000E+00 0.  1.
         11    1    1    2    0    0 -0.48897394644E+02 -0.44037012861E+02  0.51377106563E+02  0.83485452526E+02  0.00000000000E+00 0. -1.
</event>
<event>
 7    1  0.2480409E-009  0.9804373E+02  0.7561462E-02  0.1284464E+00
          1   -1    0    0  501    0  0.00000000000E+00  0.00000000000E+00  0.31506429344E+02  0.31506429344E+02  0.00000000000E+00 0. -1.
         -1   -1    0    0    0  501 -0.00000000000E+00 -0.00000000000E+00 -0.37005179188E+03  0.37005179188E+03  0.00000000000E+00 0.  1.
         25    2    1    2    0    0  0.44245010306E+00 -0.12239352539E+02 -0.17597695829E+03  0.21625307792E+03  0.12508999299E+03 0.  0.
          5    1    3    3  502    0 -0.49633852256E+02 -0.39084509263E+02 -0.12355902015E+03  0.13883595361E+03  0.41800000000E+01 0. -1.
         -5    1    3    3    0  502  0.50076302359E+02  0.26845156723E+02 -0.52417938144E+02  0.77417124312E+02  0.41800000000E+01 0. -1.
        -11    1    1    2    0    0 -0.11732387347E+02  0.42191881358E+02 -0.42432833662E+02  0.60978267751E+02  0.00000000000E+00 0. -1.
         11    1    1    2    0    0  0.11289937244E+02 -0.29952528818E+02 -0.12013557059E+03  0.12432687556E+03  0.00000000000E+00 0.  1.
</event>
<event>
 7    1  0.3374746E-009  0.1298452E+03  0.7561462E-02  0.1227686E+00
          1   -1    0    0  501    0  0.00000000000E+00  0.00000000000E+00  0.60290559653E+03  0.60290559653E+03  0.00000000000E+00 0. -1.
         -1   -1    0    0    0  501 -0.00000000000E+00 -0.00000000000E+00 -0.38033347354E+02  0.38033347354E+02  0.00000000000E+00 0.  1.
         25    2    1    2    0    0  0.27246023010E+02 -0.98857988185E+02  0.35343346201E+03  0.38868736529E+03  0.12508960095E+03 0.  0.
          5    1    3    3  502    0  0.38805712460E+02 -0.12354005919E+03  0.32074034996E+03  0.34591888361E+03  0.41800000000E+01 0. -1.
         -5    1    3    3    0  502 -0.11559689450E+02  0.24682071006E+02  0.32693112055E+02  0.42768481680E+02  0.41800000000E+01 0. -1.
        -11    1    1    2    0    0 -0.47218942323E+01  0.14841949995E+02 -0.70415038823E+01  0.17092762847E+02  0.00000000000E+00 0.  1.
         11    1    1    2    0    0 -0.22524128778E+02  0.84016038189E+02  0.21848029104E+03  0.23515881575E+03  0.00000000000E+00 0. -1.
</event>
<event>
 7    1  0.2480409E-009  0.1368048E+03  0.7561462E-02  0.1217694E+00
         -2   -1    0    0    0  501 -0.00000000000E+00  0.00000000000E+00  0.77780460491E+02  0.77780460491E+02  0.00000000000E+00 0. -1.
          2   -1    0    0  501    0  0.00000000000E+00 -0.00000000000E+00 -0.29409270541E+03  0.29409270541E+03  0.00000000000E+00 0.  1.
         25    2    1    2    0    0  0.50597568274E+02  0.78287230630E+02 -0.17801660710E+03  0.23669839334E+03  0.12508881888E+03 0.  0.
          5    1    3    3  502    0  0.87160427779E+02  0.39970488029E+02 -0.78922106543E+02  0.12426081999E+03  0.41800000000E+01 0. -1.
         -5    1    3    3    0  502 -0.36562859505E+02  0.38316742600E+02 -0.99094500558E+02  0.11243757334E+03  0.41800000000E+01 0. -1.
        -11    1    1    2    0    0 -0.45725834229E+01 -0.78344806168E+02 -0.41983164597E+02  0.89002265602E+02  0.00000000000E+00 0. -1.
         11    1    1    2    0    0 -0.46024984851E+02  0.57575538488E-01  0.36875267783E+01  0.46172506963E+02  0.00000000000E+00 0.  1.
</event>
<event>
 7    1  0.2480409E-009  0.8823670E+02  0.7561462E-02  0.1307179E+00
          2   -1    0    0  501    0  0.00000000000E+00  0.00000000000E+00  0.19865932352E+03  0.19865932352E+03  0.00000000000E+00 0. -1.
         -2   -1    0    0    0  501 -0.00000000000E+00 -0.00000000000E+00 -0.12098312227E+03  0.12098312227E+03  0.00000000000E+00 0.  1.
         25    2    1    2    0    0 -0.34005487862E+02 -0.20731970982E+02  0.15348944934E+03  0.20197491820E+03  0.12509463898E+03 0.  0.
          5    1    3    3  502    0 -0.70266924409E+02  0.45436102046E+01  0.42299433316E+02  0.82248401312E+02  0.41800000000E+01 0. -1.
         -5    1    3    3    0  502  0.36261436546E+02 -0.25275581187E+02  0.11119001602E+03  0.11972651689E+03  0.41800000000E+01 0. -1.
        -11    1    1    2    0    0  0.29684717557E+02 -0.93687880080E+01 -0.81039692339E+02  0.86812374576E+02  0.00000000000E+00 0.  1.
         11    1    1    2    0    0  0.43207703053E+01  0.30100758990E+02  0.52264442463E+01  0.30855153010E+02  0.00000000000E+00 0. -1.
</event>
<event>
 7    1  0.2480409E-009  0.1048731E+03  0.7561462E-02  0.1270370E+00
          2   -1    0    0  501    0  0.00000000000E+00  0.00000000000E+00  0.32090140875E+03  0.32090140875E+03  0.00000000000E+00 0. -1.
         -2   -1    0    0    0  501 -0.00000000000E+00 -0.00000000000E+00 -0.47198530682E+02  0.47198530682E+02  0.00000000000E+00 0.  1.
         25    2    1    2    0    0  0.58575843749E+02  0.78079349748E+01  0.17033514327E+03  0.21943335014E+03  0.12507933802E+03 0.  0.
          5    1    3    3  502    0  0.10839675772E+02  0.54009641076E+02  0.27201192899E+02  0.61578544925E+02  0.41800000000E+01 0.  1.
         -5    1    3    3    0  502  0.47736167977E+02 -0.46201706101E+02  0.14313395037E+03  0.15785480521E+03  0.41800000000E+01 0.  1.
        -11    1    1    2    0    0 -0.10405891050E+02  0.26717062094E+02 -0.95191380215E+00  0.28687804297E+02  0.00000000000E+00 0.  1.
         11    1    1    2    0    0 -0.48169952698E+02 -0.34524997069E+02  0.10431964860E+03  0.11997878500E+03  0.00000000000E+00 0. -1.
</event>
<event>
 7    1  0.2480409E-009  0.1625133E+03  0.7561462E-02  0.1185888E+00
          2   -1    0    0  501    0  0.00000000000E+00  0.00000000000E+00  0.59556239013E+03  0.59556239013E+03  0.00000000000E+00 0. -1.
         -2   -1    0    0    0  501 -0.00000000000E+00 -0.00000000000E+00 -0.70874329075E+02  0.70874329075E+02  0.00000000000E+00 0.  1.
         25    2    1    2    0    0 -0.11861927936E+03  0.56507345233E+02  0.89912162233E+02  0.20247303694E+03  0.12509004864E+03 0.  0.
          5    1    3    3  502    0 -0.66046869971E+02 -0.28488108318E+02  0.67048939695E+01  0.72361518445E+02  0.41800000000E+01 0. -1.
         -5    1    3    3    0  502 -0.52572409391E+02  0.84995453551E+02  0.83207268264E+02  0.13011151850E+03  0.41800000000E+01 0. -1.
        -11    1    1    2    0    0  0.12726167850E+03 -0.38472420338E+02  0.41524812438E+03  0.43601223233E+03  0.00000000000E+00 0. -1.
         11    1    1    2    0    0 -0.86423991336E+01 -0.18034924895E+02  0.19527774441E+02  0.27951449933E+02  0.00000000000E+00 0.  1.
</event>
<event>
 7    1  0.2480409E-009  0.2086145E+03  0.7561462E-02  0.1142668E+00
         -1   -1    0    0    0  501 -0.00000000000E+00  0.00000000000E+00  0.14497430194E+04  0.14497430194E+04  0.00000000000E+00 0.  1.
          1   -1    0    0  501    0  0.00000000000E+00 -0.00000000000E+00 -0.35503095926E+02  0.35503095926E+02  0.00000000000E+00 0. -1.
         25    2    1    2    0    0 -0.73633009700E+02  0.17286677235E+03  0.94655786840E+03  0.97310000391E+03  0.12508828193E+03 0.  0.
          5    1    3    3  502    0 -0.10011969587E+03  0.12439684522E+03  0.81242050840E+03  0.82797529158E+03  0.41800000000E+01 0. -1.
         -5    1    3    3    0  502  0.26486686169E+02  0.48469927130E+02  0.13413736001E+03  0.14512471233E+03  0.41800000000E+01 0. -1.
        -11    1    1    2    0    0  0.87298402101E+02 -0.12604848342E+03  0.40266551742E+03  0.43086976002E+03  0.00000000000E+00 0.  1.
         11    1    1    2    0    0 -0.13665392401E+02 -0.46818288932E+02  0.65016537663E+02  0.81276351405E+02  0.00000000000E+00 0. -1.
</event>
<event>
 7    1  0.2480409E-009  0.3435024E+03  0.7561462E-02  0.1065314E+00
         -2   -1    0    0    0  501 -0.00000000000E+00  0.00000000000E+00  0.77536976429E+02  0.77536976429E+02  0.00000000000E+00 0.  1.
          2   -1    0    0  501    0  0.00000000000E+00 -0.00000000000E+00 -0.19581680692E+04  0.19581680692E+04  0.00000000000E+00 0. -1.
         25    2    1    2    0    0 -0.32657365924E+02 -0.32822647288E+03 -0.14123212235E+04  0.14557105835E+04  0.12507175298E+03 0.  0.
          5    1    3    3  502    0 -0.17032348985E+02 -0.33476132033E+03 -0.13346427970E+04  0.13760974204E+04  0.41800000000E+01 0. -1.
         -5    1    3    3    0  502 -0.15625016939E+02  0.65348474488E+01 -0.77678426509E+02  0.79613163048E+02  0.41800000000E+01 0. -1.
        -11    1    1    2    0    0  0.78581140681E+01  0.28000341612E+03 -0.33886971493E+03  0.43965480402E+03  0.00000000000E+00 0.  1.
         11    1    1    2    0    0  0.24799251856E+02  0.48223056760E+02 -0.12944015433E+03  0.14033965815E+03  0.00000000000E+00 0. -1.
</event>
<event>
 7    1  0.2480409E-009  0.9522089E+02  0.7561462E-02  0.1290679E+00
         -2   -1    0    0    0  501 -0.00000000000E+00  0.00000000000E+00  0.80245506724E+02  0.80245506724E+02  0.00000000000E+00 0.  1.
          2   -1    0    0  501    0  0.00000000000E+00 -0.00000000000E+00 -0.26567355429E+03  0.26567355429E+03  0.00000000000E+00 0. -1.
         25    2    1    2    0    0 -0.44466463204E+02  0.21191941973E+02 -0.10134927030E+01  0.13445979029E+03  0.12510812636E+03 0.  0.
          5    1    3    3  502    0  0.48649810642E+01 -0.21053925174E+02 -0.48922213297E+02  0.53645047860E+02  0.41800000000E+01 0. -1.
         -5    1    3    3    0  502 -0.49331444268E+02  0.42245867147E+02  0.47908720594E+02  0.80814742427E+02  0.41800000000E+01 0. -1.
        -11    1    1    2    0    0 -0.15178397688E+02 -0.38384347338E+02 -0.68676957574E+02  0.80126564750E+02  0.00000000000E+00 0.  1.
         11    1    1    2    0    0  0.59644860892E+02  0.17192405365E+02 -0.11573759729E+03  0.13133270598E+03  0.00000000000E+00 0. -1.
</event>
<event>
 7    1  0.2480409E-009  0.1742338E+03  0.7561462E-02  0.1173503E+00
         -1   -1    0    0    0  501 -0.00000000000E+00  0.00000000000E+00  0.11142494745E+03  0.11142494745E+03  0.00000000000E+00 0.  1.
          1   -1    0    0  501    0  0.00000000000E+00 -0.00000000000E+00 -0.45747865753E+03  0.45747865753E+03  0.00000000000E+00 0. -1.
         25    2    1    2    0    0  0.15009900069E+03  0.34230127435E+02 -0.33541625386E+03  0.38968477154E+03  0.12509494865E+03 0.  0.
          5    1    3    3  502    0  0.13050219223E+03 -0.23624075263E+02 -0.26506801827E+03  0.29642443526E+03  0.41800000000E+01 0.  1.
         -5    1    3    3    0  502  0.19596808466E+02  0.57854202698E+02 -0.70348235591E+02  0.93260336278E+02  0.41800000000E+01 0.  1.
        -11    1    1    2    0    0 -0.72671091815E+02 -0.23549480887E+02  0.39858831035E+02  0.86164911925E+02  0.00000000000E+00 0.  1.
         11    1    1    2    0    0 -0.77427908878E+02 -0.10680646548E+02 -0.50496287243E+02  0.93053921515E+02  0.00000000000E+00 0. -1.
</event>
<event>
 7    1  0.2480409E-009  0.8138624E+02  0.7561462E-02  0.1325163E+00
         -2   -1    0    0    0  501 -0.00000000000E+00  0.00000000000E+00  0.18110402554E+02  0.18110402554E+02  0.00000000000E+00 0.  1.
          2   -1    0    0  501    0  0.00000000000E+00 -0.00000000000E+00 -0.99788960667E+03  0.99788960667E+03  0.00000000000E+00 0. -1.
         25    2    1    2    0    0  0.38436525738E+02  0.18726308052E+02 -0.77400641316E+03  0.78521418781E+03  0.12508937609E+03 0.  0.
          5    1    3    3  502    0  0.38722106370E+02 -0.26236852265E+02 -0.67224288894E+03  0.67388110826E+03  0.41800000000E+01 0.  1.
         -5    1    3    3    0  502 -0.28558063217E+00  0.44963160317E+02 -0.10176352422E+03  0.11133307955E+03  0.41800000000E+01 0.  1.
        -11    1    1    2    0    0 -0.33747783728E+02  0.14765133020E+02 -0.19912618035E+02  0.41874030337E+02  0.00000000000E+00 0.  1.
         11    1    1    2    0    0 -0.46887420095E+01 -0.33491441072E+02 -0.18586017292E+03  0.18891179107E+03  0.00000000000E+00 0. -1.
</event>
<event>
 7    1  0.2480409E-009  0.1088679E+03  0.7561462E-02  0.1262681E+00
          3   -1    0    0  501    0  0.00000000000E+00  0.00000000000E+00  0.84382746104E+02  0.84382746104E+02  0.00000000000E+00 0. -1.
         -3   -1    0    0    0  501 -0.00000000000E+00 -0.00000000000E+00 -0.14471238426E+03  0.14471238426E+03  0.00000000000E+00 0.  1.
         25    2    1    2    0    0 -0.17445392789E+02  0.68161368790E+01 -0.30525443236E+02  0.13011769903E+03  0.12509201200E+03 0.  0.
          5    1    3    3  502    0  0.11547724671E+02 -0.54814835403E+02 -0.21497431816E+01  0.56214854986E+02  0.41800000000E+01 0. -1.
         -5    1    3    3    0  502 -0.28993117460E+02  0.61630972282E+02 -0.28375700054E+02  0.73902844046E+02  0.41800000000E+01 0. -1.
        -11    1    1    2    0    0  0.15643359667E+02  0.41822263713E+02 -0.68867682312E+01  0.45180128601E+02  0.00000000000E+00 0. -1.
         11    1    1    2    0    0  0.18020331223E+01 -0.48638400592E+02 -0.22917426694E+02  0.53797302737E+02  0.00000000000E+00 0.  1.
</event>
<event>
 7    1  0.2480409E-009  0.2547496E+03  0.7561462E-02  0.1110339E+00
         -1   -1    0    0    0  501 -0.00000000000E+00  0.00000000000E+00  0.12882146210E+03  0.12882146210E+03  0.00000000000E+00 0.  1.
          1   -1    0    0  501    0  0.00000000000E+00 -0.00000000000E+00 -0.57021138724E+03  0.57021138724E+03  0.00000000000E+00 0. -1.
         25    2    1    2    0    0 -0.23957724460E+03 -0.65172905508E+02 -0.22981297610E+03  0.36070477891E+03  0.12509664184E+03 0.  0.
          5    1    3    3  502    0 -0.48650441512E+02  0.12101689298E+02 -0.11343958991E+03  0.12409403411E+03  0.41800000000E+01 0.  1.
         -5    1    3    3    0  502 -0.19092680308E+03 -0.77274594807E+02 -0.11637338620E+03  0.23661074480E+03  0.41800000000E+01 0.  1.
        -11    1    1    2    0    0  0.41210907133E+02 -0.75586227639E+01 -0.39154305198E+01  0.42080901142E+02  0.00000000000E+00 0.  1.
         11    1    1    2    0    0  0.19836633746E+03  0.72731528272E+02 -0.20766151852E+03  0.29624716930E+03  0.00000000000E+00 0. -1.
</event>
<event>
 7    1  0.2480409E-009  0.1915140E+03  0.7561462E-02  0.1157103E+00
         -1   -1    0    0    0  501 -0.00000000000E+00  0.00000000000E+00  0.77176805395E+02  0.77176805395E+02  0.00000000000E+00 0.  1.
          1   -1    0    0  501    0  0.00000000000E+00 -0.00000000000E+00 -0.48900672044E+03  0.48900672044E+03  0.00000000000E+00 0. -1.
         25    2    1    2    0    0  0.11313001316E+03 -0.11441821250E+03 -0.23174286485E+03  0.30861008452E+03  0.12508197963E+03 0.  0.
          5    1    3    3  502    0  0.92125264371E+02 -0.10521178553E+02 -0.14208282615E+03  0.16971376320E+03  0.41800000000E+01 0. -1.
         -5    1    3    3    0  502  0.21004748787E+02 -0.10389703395E+03 -0.89660038694E+02  0.13889632131E+03  0.41800000000E+01 0. -1.
        -11    1    1    2    0    0 -0.13964646890E+02 -0.15386604012E+02 -0.21706342515E+02  0.30048697995E+02  0.00000000000E+00 0.  1.
         11    1    1    2    0    0 -0.99165366267E+02  0.12980481652E+03 -0.15838070768E+03  0.22752474332E+03  0.00000000000E+00 0. -1.
</event>
<event>
 7    1  0.2480409E-009  0.1834457E+03  0.7561462E-02  0.1164509E+00
         -2   -1    0    0    0  501 -0.00000000000E+00  0.00000000000E+00  0.56981983431E+02  0.56981983431E+02  0.00000000000E+00 0. -1.
          2   -1    0    0  501    0  0.00000000000E+00 -0.00000000000E+00 -0.78918168464E+03  0.78918168464E+03  0.00000000000E+00 0.  1.
         25    2    1    2    0    0  0.10890173015E+03  0.14041272159E+03 -0.45021088125E+03  0.49991249401E+03  0.12508934752E+03 0.  0.
          5    1    3    3  502    0  0.37327059728E+02  0.31734886214E+02 -0.24894833808E+02  0.55114766999E+02  0.41800000000E+01 0.  1.
         -5    1    3    3    0  502  0.71574670422E+02  0.10867783537E+03 -0.42531604744E+03  0.44479772701E+03  0.41800000000E+01 0.  1.
        -11    1    1    2    0    0 -0.10183673969E+03 -0.87867771964E+02 -0.13752450599E+03  0.19236542478E+03  0.00000000000E+00 0. -1.
         11    1    1    2    0    0 -0.70649904559E+01 -0.52544949625E+02 -0.14446431398E+03  0.15388574929E+03  0.00000000000E+00 0.  1.
</event>
<event>
 7    1  0.2885236E-009  0.1067318E+03  0.7561462E-02  0.1266745E+00
         -1   -1    0    0    0  501 -0.00000000000E+00  0.00000000000E+00  0.14215655683E+02  0.14215655683E+02  0.00000000000E+00 0.  1.
          1   -1    0    0  501    0  0.00000000000E+00 -0.00000000000E+00 -0.11588134219E+04  0.11588134219E+04  0.00000000000E+00 0. -1.
         25    2    1    2    0    0  0.25565228401E+02  0.21465246744E+02 -0.90826325517E+03  0.91744450249E+03  0.12509171335E+03 0.  0.
          5    1    3    3  502    0 -0.37355114643E+02  0.47376243898E+02 -0.47868933578E+03  0.48249442035E+03  0.41800000000E+01 0. -1.
         -5    1    3    3    0  502  0.62920343044E+02 -0.25910997155E+02 -0.42957391939E+03  0.43495008215E+03  0.41800000000E+01 0. -1.
        -11    1    1    2    0    0 -0.19914729614E+02 -0.50995662743E+02 -0.83680666186E+02  0.99998039819E+02  0.00000000000E+00 0.  1.
         11    1    1    2    0    0 -0.56504987869E+01  0.29530415999E+02 -0.15265384487E+03  0.15558653528E+03  0.00000000000E+00 0. -1.
</event>
<event>
 7    1  0.2480409E-009  0.9344580E+02  0.7561462E-02  0.1294715E+00
          1   -1    0    0  501    0  0.00000000000E+00  0.00000000000E+00  0.15610070955E+03  0.15610070955E+03  0.00000000000E+00 0. -1.
         -1   -1    0    0    0  501 -0.00000000000E+00 -0.00000000000E+00 -0.95580645150E+02  0.95580645150E+02  0.00000000000E+00 0.  1.
         25    2    1    2    0    0  0.25766156221E+01  0.52819584468E+02  0.22204056755E+02  0.13760989048E+03  0.12508762676E+03 0.  0.
          5    1    3    3  502    0 -0.13144979553E+02  0.62352608699E+02  0.64829809213E+02  0.91000081657E+02  0.41800000000E+01 0. -1.
         -5    1    3    3    0  502  0.15721595175E+02 -0.95330242310E+01 -0.42625752457E+02  0.46609808821E+02  0.41800000000E+01 0. -1.
        -11    1    1    2    0    0 -0.46166262409E+02 -0.28664760401E+02  0.59903605653E+01  0.54670620019E+02  0.00000000000E+00 0.  1.
         11    1    1    2    0    0  0.43589646787E+02 -0.24154824068E+02  0.32325647076E+02  0.59400844199E+02  0.00000000000E+00 0. -1.
</event>
<event>
 7    1  0.2480409E-009  0.9367178E+02  0.7561462E-02  0.1294196E+00
          1   -1    0    0  501    0  0.00000000000E+00  0.00000000000E+00  0.14658598400E+03  0.14658598400E+03  0.00000000000E+00 0. -1.
         -1   -1    0    0    0  501 -0.00000000000E+00 -0.00000000000E+00 -0.11979597340E+03  0.11979597340E+03  0.00000000000E+00 0.  1.
         25    2    1    2    0    0  0.55981896724E+02 -0.10832235331E+02  0.57238233306E+02  0.14891402226E+03  0.12509140894E+03 0.  0.
          5    1    3    3  502    0  0.42030601339E+02  0.19311298580E+02 -0.30123875449E+02  0.55357185385E+02  0.41800000000E+01 0. -1.
         -5    1    3    3    0  502  0.13951295385E+02 -0.30143533910E+02  0.87362108755E+02  0.93556836873E+02  0.41800000000E+01 0. -1.
        -11    1    1    2    0    0 -0.38093372142E+02 -0.38975909904E+02 -0.34316326177E+02  0.64403701728E+02  0.00000000000E+00 0.  1.
         11    1    1    2    0    0 -0.17888524582E+02  0.49808145234E+02  0.38681034622E+01  0.53064233414E+02  0.00000000000E+00 0. -1.
</event>
<event>
 7    1  0.2480409E-009  0.1240605E+03  0.7561462E-02  0.1236545E+00
          2   -1    0    0  501    0  0.00000000000E+00  0.00000000000E+00  0.48935452311E+02  0.48935452311E+02  0.00000000000E+00 0. -1.
         -2   -1    0    0    0  501 -0.00000000000E+00 -0.00000000000E+00 -0.43072075108E+03  0.43072075108E+03  0.00000000000E+00 0.  1.
         25    2    1    2    0    0 -0.70782544627E+02 -0.10051799261E+02 -0.10021910725E+03  0.17550628011E+03  0.12508947841E+03 0.  0.
          5    1    3    3  502    0 -0.98557886694E+02 -0.29388042183E+02 -0.96692589051E+02  0.14122408870E+03  0.41800000000E+01 0. -1.
         -5    1    3    3    0  502  0.27775342067E+02  0.19336242922E+02 -0.35265181943E+01  0.34282191410E+02  0.41800000000E+01 0. -1.
        -11    1    1    2    0    0  0.42314628664E+02 -0.36924966112E+02 -0.10286645587E+03  0.11719850112E+03  0.00000000000E+00 0.  1.
         11    1    1    2    0    0  0.28467915963E+02  0.46976765373E+02 -0.17869973565E+03  0.18695142215E+03  0.00000000000E+00 0. -1.
</event>
<event>
 7    1  0.2480409E-009  0.1014882E+03  0.7561462E-02  0.1277197E+00
         -1   -1    0    0    0  501 -0.00000000000E+00  0.00000000000E+00  0.36243165096E+02  0.36243165096E+02  0.00000000000E+00 0.  1.
          1   -1    0    0  501    0  0.00000000000E+00 -0.00000000000E+00 -0.11814884994E+04  0.11814884994E+04  0.00000000000E+00 0. -1.
         25    2    1    2    0    0  0.17619239713E+02 -0.21587397479E+02 -0.11088780060E+04  0.11162594257E+04  0.12509284549E+03 0.  0.
          5    1    3    3  502    0 -0.32981072215E+02  0.34922438159E+02 -0.30346153171E+03  0.30726812630E+03  0.41800000000E+01 0. -1.
         -5    1    3    3    0  502  0.50600311928E+02 -0.56509835638E+02 -0.80541647431E+03  0.80899129945E+03  0.41800000000E+01 0. -1.
        -11    1    1    2    0    0  0.39125661625E+01 -0.26140459793E+02 -0.41135707968E+02  0.48895585508E+02  0.00000000000E+00 0. -1.
         11    1    1    2    0    0 -0.21531805876E+02  0.47727857272E+02  0.47683796610E+01  0.52576653266E+02  0.00000000000E+00 0.  1.
</event>
<event>
 7    1  0.2480409E-009  0.1272041E+03  0.7561462E-02  0.1231664E+00
          4   -1    0    0  501    0  0.00000000000E+00  0.00000000000E+00  0.22020980853E+03  0.22020980853E+03  0.00000000000E+00 0. -1.
         -4   -1    0    0    0  501 -0.00000000000E+00 -0.00000000000E+00 -0.12495426693E+03  0.12495426693E+03  0.00000000000E+00 0.  1.
         25    2    1    2    0    0 -0.30132174195E+02  0.93963426100E+02 -0.27263711941E+02  0.16164179896E+03  0.12509071834E+03 0.  0.
          5    1    3    3  502    0 -0.40434112392E+02  0.16281803920E+02  0.39225058291E+02  0.58788537843E+02  0.41800000000E+01 0. -1.
         -5    1    3    3    0  502  0.10301938196E+02  0.77681622180E+02 -0.66488770231E+02  0.10285326111E+03  0.41800000000E+01 0. -1.
        -11    1    1    2    0    0 -0.32113872465E+01  0.16474334820E+02  0.23602887035E+01  0.16949562784E+02  0.00000000000E+00 0.  1.
         11    1    1    2    0    0  0.33343561442E+02 -0.11043776092E+03  0.12015896483E+03  0.16657271372E+03  0.00000000000E+00 0. -1.
</event>
<event>
 7    1  0.2480409E-009  0.9263130E+02  0.7561462E-02  0.1296602E+00
          2   -1    0    0  501    0  0.00000000000E+00  0.00000000000E+00  0.34133126739E+02  0.34133126739E+02  0.00000000000E+00 0.  1.
         -2   -1    0    0    0  501 -0.00000000000E+00 -0.00000000000E+00 -0.55548307877E+03  0.55548307877E+03  0.00000000000E+00 0. -1.
         25    2    1    2    0    0  0.27274846649E+02  0.21233052150E+01 -0.11442705788E+03  0.17172624074E+03  0.12509166438E+03 0.  0.
          5    1    3    3  502    0  0.51075433671E+02 -0.23018712820E+02 -0.44519283328E+01  0.56354708148E+02  0.41800000000E+01 0. -1.
         -5    1    3    3    0  502 -0.23800587022E+02  0.25142018035E+02 -0.10997512954E+03  0.11537153259E+03  0.41800000000E+01 0. -1.
        -11    1    1    2    0    0 -0.44302816579E+01 -0.45219152366E+02 -0.22499952017E+03  0.22954124512E+03  0.00000000000E+00 0. -1.
         11    1    1    2    0    0 -0.22844564991E+02  0.43095847151E+02 -0.18192337398E+03  0.18834871965E+03  0.00000000000E+00 0.  1.
</event>
<event>
 7    1  0.2480409E-009  0.9909390E+02  0.7561462E-02  0.1282213E+00
          1   -1    0    0  501    0  0.00000000000E+00  0.00000000000E+00  0.13981805765E+03  0.13981805765E+03  0.00000000000E+00 0. -1.
         -1   -1    0    0    0  501 -0.00000000000E+00 -0.00000000000E+00 -0.12291478535E+03  0.12291478535E+03  0.00000000000E+00 0.  1.
         25    2    1    2    0    0  0.17047684076E+02 -0.65655186309E+02  0.29913453563E+02  0.14541213015E+03  0.12509454772E+03 0.  0.
          5    1    3    3  502    0  0.40589540765E+02 -0.77455192277E+02  0.59294578217E+02  0.10573616711E+03  0.41800000000E+01 0. -1.
         -5    1    3    3    0  502 -0.23541856689E+02  0.11800005968E+02 -0.29381124653E+02  0.39675963039E+02  0.41800000000E+01 0. -1.
        -11    1    1    2    0    0 -0.34381663292E+02  0.37163728623E+02 -0.47443897832E+02  0.69384183625E+02  0.00000000000E+00 0.  1.
         11    1    1    2    0    0  0.17333979216E+02  0.28491457685E+02  0.34433716576E+02  0.47936529221E+02  0.00000000000E+00 0. -1.
</event>
<event>
 7    1  0.3089219E-009  0.1421702E+03  0.7561462E-02  0.1210438E+00
          2   -1    0    0  501    0  0.00000000000E+00  0.00000000000E+00  0.52374131125E+03  0.52374131125E+03  0.00000000000E+00 0. -1.
         -2   -1    0    0    0  501 -0.00000000000E+00 -0.00000000000E+00 -0.41560887044E+02  0.41560887044E+02  0.00000000000E+00 0.  1.
         25    2    1    2    0    0  0.67319427399E+02  0.71678721688E+02  0.22802035323E+03  0.27804696439E+03  0.12508832269E+03 0.  0.
          5    1    3    3  502    0 -0.21225885574E+01 -0.30198367236E+02  0.78285355092E+02  0.84038776691E+02  0.41800000000E+01 0.  1.
         -5    1    3    3    0  502  0.69442015956E+02  0.10187708892E+03  0.14973499814E+03  0.19400818770E+03  0.41800000000E+01 0.  1.
        -11    1    1    2    0    0  0.22358649064E+01 -0.59815051960E+02  0.84921130620E+02  0.10389628462E+03  0.00000000000E+00 0.  1.
         11    1    1    2    0    0 -0.69555292305E+02 -0.11863669728E+02  0.16923894035E+03  0.18335894927E+03  0.00000000000E+00 0. -1.
</event>
<event>
 7    1  0.2480409E-009  0.1228105E+03  0.7561462E-02  0.1238531E+00
          2   -1    0    0  501    0  0.00000000000E+00  0.00000000000E+00  0.10722054084E+04  0.10722054084E+04  0.00000000000E+00 0. -1.
         -2   -1    0    0    0  501 -0.00000000000E+00 -0.00000000000E+00 -0.19631927928E+02  0.19631927928E+02  0.00000000000E+00 0.  1.
         25    2    1    2    0    0 -0.67050864099E+02  0.60206484311E+02  0.66400783861E+03  0.68167054685E+03  0.12509070943E+03 0.  0.
          5    1    3    3  502    0 -0.53378361612E+02  0.82491731938E+02  0.28032577417E+03  0.29707599598E+03  0.41800000000E+01 0. -1.
         -5    1    3    3    0  502 -0.13672502487E+02 -0.22285247627E+02  0.38368206444E+03  0.38459455087E+03  0.41800000000E+01 0. -1.
        -11    1    1    2    0    0 -0.13426626380E+02 -0.33362683841E+02  0.20256053794E+03  0.20572825402E+03  0.00000000000E+00 0. -1.
         11    1    1    2    0    0  0.80477490479E+02 -0.26843800471E+02  0.18600510397E+03  0.20443853550E+03  0.00000000000E+00 0.  1.
</event>
<event>
 7    1  0.2480409E-009  0.9335013E+02  0.7561462E-02  0.1294936E+00
          2   -1    0    0  501    0  0.00000000000E+00  0.00000000000E+00  0.72936570303E+03  0.72936570303E+03  0.00000000000E+00 0.  1.
         -2   -1    0    0    0  501 -0.00000000000E+00 -0.00000000000E+00 -0.23466789407E+02  0.23466789407E+02  0.00000000000E+00 0. -1.
         25    2    1    2    0    0  0.54870799477E+02  0.26822393305E+02  0.52226034807E+03  0.54049385379E+03  0.12508992523E+03 0.  0.
          5    1    3    3  502    0  0.44271033801E+02 -0.80085374557E+01  0.48875402610E+03  0.49083809096E+03  0.41800000000E+01 0.  1.
         -5    1    3    3    0  502  0.10599765676E+02  0.34830930761E+02  0.33506321971E+02  0.49655762828E+02  0.41800000000E+01 0.  1.
        -11    1    1    2    0    0 -0.63950523711E+02  0.11942114402E+02  0.94672226223E+02  0.11486998736E+03  0.00000000000E+00 0.  1.
         11    1    1    2    0    0  0.90797242338E+01 -0.38764507707E+02  0.88966339328E+02  0.97468651285E+02  0.00000000000E+00 0. -1.
</event>
<event>
 7    1  0.2480409E-009  0.1397398E+03  0.7561462E-02  0.1213680E+00
         -2   -1    0    0    0  501 -0.00000000000E+00  0.00000000000E+00  0.29812423087E+02  0.29812423087E+02  0.00000000000E+00 0.  1.
          2   -1    0    0  501    0  0.00000000000E+00 -0.00000000000E+00 -0.10355783259E+04  0.10355783259E+04  0.00000000000E+00 0. -1.
         25    2    1    2    0    0  0.11223728452E+03 -0.55963668080E+02 -0.35719851295E+03  0.39870887855E+03  0.12509537163E+03 0.  0.
          5    1    3    3  502    0  0.54137330790E+02 -0.31635353268E+02 -0.31855336167E+03  0.32469272057E+03  0.41800000000E+01 0.  1.
         -5    1    3    3    0  502  0.58099953731E+02 -0.24328314812E+02 -0.38645151283E+02  0.74016157985E+02  0.41800000000E+01 0.  1.
        -11    1    1    2    0    0 -0.24745496363E+02  0.61047169154E+02 -0.31323483149E+03  0.32008616982E+03  0.00000000000E+00 0. -1.
         11    1    1    2    0    0 -0.87491788158E+02 -0.50835010736E+01 -0.33533255842E+03  0.34659570066E+03  0.00000000000E+00 0.  1.
</event>
<event>
 7    1  0.2480409E-009  0.1885943E+03  0.7561462E-02  0.1159735E+00
         -1   -1    0    0    0  501 -0.00000000000E+00  0.00000000000E+00  0.17667078605E+03  0.17667078605E+03  0.00000000000E+00 0.  1.
          1   -1    0    0  501    0  0.00000000000E+00 -0.00000000000E+00 -0.25090619582E+03  0.25090619582E+03  0.00000000000E+00 0. -1.
         25    2    1    2    0    0  0.16869426843E+03  0.74986039135E+01  0.24859670473E+02  0.21161230672E+03  0.12509108632E+03 0.  0.
          5    1    3    3  502    0  0.18625730996E+03  0.12176695675E+02  0.86490320087E+01  0.18690194109E+03  0.41800000000E+01 0. -1.
         -5    1    3    3    0  502 -0.17563041523E+02 -0.46780917615E+01  0.16210638464E+02  0.24710365629E+02  0.41800000000E+01 0. -1.
        -11    1    1    2    0    0 -0.11903426262E+03 -0.19815507968E+02 -0.11041324148E+03  0.16356311909E+03  0.00000000000E+00 0.  1.
         11    1    1    2    0    0 -0.49660005816E+02  0.12316904055E+02  0.11318161237E+02  0.52401556054E+02  0.00000000000E+00 0. -1.
</event>
<event>
 7    1  0.2480409E-009  0.1051051E+03  0.7561462E-02  0.1269913E+00
          4   -1    0    0  501    0  0.00000000000E+00  0.00000000000E+00  0.13556975282E+03  0.13556975282E+03  0.00000000000E+00 0. -1.
         -4   -1    0    0    0  501 -0.00000000000E+00 -0.00000000000E+00 -0.98935430643E+02  0.98935430643E+02  0.00000000000E+00 0.  1.
         25    2    1    2    0    0 -0.70225646499E+01 -0.30629708443E+02  0.56760178917E+02  0.14091568345E+03  0.12509203203E+03 0.  0.
          5    1    3    3  502    0 -0.58736563198E+02 -0.38107746777E+02  0.10341841720E+02  0.70898591741E+02  0.41800000000E+01 0.  1.
         -5    1    3    3    0  502  0.51713998548E+02  0.74780383340E+01  0.46418337197E+02  0.70017091708E+02  0.41800000000E+01 0.  1.
        -11    1    1    2    0    0  0.22485565349E+02  0.54643731702E+02 -0.78336167774E+00  0.59094430523E+02  0.00000000000E+00 0. -1.
         11    1    1    2    0    0 -0.15463000699E+02 -0.24014023259E+02 -0.19342495064E+02  0.34495069489E+02  0.00000000000E+00 0.  1.
</event>
<event>
 7    1  0.2480409E-009  0.9199061E+02  0.7561462E-02  0.1298102E+00
          2   -1    0    0  501    0  0.00000000000E+00  0.00000000000E+00  0.56038888963E+03  0.56038888963E+03  0.00000000000E+00 0. -1.
         -2   -1    0    0    0  501 -0.00000000000E+00 -0.00000000000E+00 -0.22242893246E+02  0.22242893246E+02  0.00000000000E+00 0.  1.
         25    2    1    2    0    0 -0.37427491384E+02 -0.49844570868E+01  0.36516685019E+03  0.38784543172E+03  0.12510630881E+03 0.  0.
          5    1    3    3  502    0 -0.23720343543E+02 -0.49190822931E+02  0.31393513221E+03  0.31867715857E+03  0.41800000000E+01 0.  1.
         -5    1    3    3    0  502 -0.13707147841E+02  0.44206365845E+02  0.51231717978E+02  0.69168273147E+02  0.41800000000E+01 0.  1.
        -11    1    1    2    0    0 -0.53755845817E+01  0.31786022086E+02  0.33710086942E+02  0.46643521214E+02  0.00000000000E+00 0.  1.
         11    1    1    2    0    0  0.42803075966E+02 -0.26801564999E+02  0.13926905925E+03  0.14814282994E+03  0.00000000000E+00 0. -1.
</event>
<event>
 7    1  0.2480409E-009  0.1470477E+03  0.7561462E-02  0.1204148E+00
          1   -1    0    0  501    0  0.00000000000E+00  0.00000000000E+00  0.15007353091E+03  0.15007353091E+03  0.00000000000E+00 0. -1.
         -1   -1    0    0    0  501 -0.00000000000E+00 -0.00000000000E+00 -0.22596909602E+03  0.22596909602E+03  0.00000000000E+00 0.  1.
         25    2    1    2    0    0 -0.88626263962E+01 -0.12955843553E+03 -0.11307063874E+03  0.21282907749E+03  0.12508921823E+03 0.  0.
          5    1    3    3  502    0 -0.42912872319E+02 -0.10844936803E+03 -0.29988008101E+02  0.12049702514E+03  0.41800000000E+01 0.  1.
         -5    1    3    3    0  502  0.34050245923E+02 -0.21109067492E+02 -0.83082630638E+02  0.92332052352E+02  0.41800000000E+01 0.  1.
        -11    1    1    2    0    0  0.26860119116E+02  0.79368282065E+02 -0.18836592884E+02  0.85881356698E+02  0.00000000000E+00 0.  1.
         11    1    1    2    0    0 -0.17997492719E+02  0.50190153461E+02  0.56011666511E+02  0.77332192740E+02  0.00000000000E+00 0. -1.
</event>
<event>
 7    1  0.2480409E-009  0.1195198E+03  0.7561462E-02  0.1243891E+00
          2   -1    0    0  501    0  0.00000000000E+00  0.00000000000E+00  0.50282791519E+03  0.50282791519E+03  0.00000000000E+00 0.  1.
         -2   -1    0    0    0  501 -0.00000000000E+00 -0.00000000000E+00 -0.62156917892E+02  0.62156917892E+02  0.00000000000E+00 0. -1.
         25    2    1    2    0    0 -0.53763068336E+02  0.74709681387E+02  0.39752202754E+03  0.42678314726E+03  0.12509231949E+03 0.  0.
          5    1    3    3  502    0  0.15957896666E+02  0.49347763210E+02  0.29838998240E+03  0.30289257204E+03  0.41800000000E+01 0.  1.
         -5    1    3    3    0  502 -0.69720965002E+02  0.25361918177E+02  0.99132045141E+02  0.12389057522E+03  0.41800000000E+01 0.  1.
        -11    1    1    2    0    0  0.67880975566E+02 -0.70725291265E+02  0.60720252005E+02  0.11531193638E+03  0.00000000000E+00 0.  1.
         11    1    1    2    0    0 -0.14117907231E+02 -0.39843901224E+01 -0.17571282255E+02  0.22889749437E+02  0.00000000000E+00 0. -1.
</event>
<event>
 7    1  0.2480409E-009  0.1098627E+03  0.7561462E-02  0.1260824E+00
         -1   -1    0    0    0  501 -0.00000000000E+00  0.00000000000E+00  0.18629814213E+03  0.18629814213E+03  0.00000000000E+00 0.  1.
          1   -1    0    0  501    0  0.00000000000E+00 -0.00000000000E+00 -0.93524075832E+02  0.93524075832E+02  0.00000000000E+00 0. -1.
         25    2    1    2    0    0  0.45017519290E+02 -0.57093740032E+02  0.72032634115E+02  0.16162578895E+03  0.12509165872E+03 0.  0.
          5    1    3    3  502    0 -0.10254412943E+02  0.34361251525E+02  0.29173374331E+02  0.46415587478E+02  0.41800000000E+01 0.  1.
         -5    1    3    3    0  502  0.55271932233E+02 -0.91454991557E+02  0.42859259785E+02  0.11521020147E+03  0.41800000000E+01 0.  1.
        -11    1    1    2    0    0 -0.92521803754E+01  0.31158695328E+02  0.53911129046E+02  0.62951385777E+02  0.00000000000E+00 0.  1.
         11    1    1    2    0    0 -0.35765338915E+02  0.25935044704E+02 -0.33169696867E+02  0.55245043232E+02  0.00000000000E+00 0. -1.
</event>
<event>
 7    1  0.2480409E-009  0.1098828E+03  0.7561462E-02  0.1260787E+00
          2   -1    0    0  501    0  0.00000000000E+00  0.00000000000E+00  0.19205360074E+03  0.19205360074E+03  0.00000000000E+00 0. -1.
         -2   -1    0    0    0  501 -0.00000000000E+00 -0.00000000000E+00 -0.93137107857E+02  0.93137107857E+02  0.00000000000E+00 0.  1.
         25    2    1    2    0    0 -0.67793316906E+02  0.34707197117E+02  0.41976480832E+02  0.15235175689E+03  0.12509400280E+03 0.  0.
          5    1    3    3  502    0  0.35007538742E+02  0.17063027194E+02  0.25330100701E+02  0.46645054049E+02  0.41800000000E+01 0. -1.
         -5    1    3    3    0  502 -0.10280085565E+03  0.17644169924E+02  0.16646380131E+02  0.10570670284E+03  0.41800000000E+01 0. -1.
        -11    1    1    2    0    0  0.33005546033E+02 -0.15372154843E+02  0.79249168830E+02  0.87212957602E+02  0.00000000000E+00 0. -1.
         11    1    1    2    0    0  0.34787770872E+02 -0.19335042275E+02 -0.22309156777E+02  0.45625994106E+02  0.00000000000E+00 0.  1.
</event>
<event>
 7    1  0.2480409E-009  0.1384952E+03  0.7561462E-02  0.1215368E+00
         -2   -1    0    0    0  501 -0.00000000000E+00  0.00000000000E+00  0.39858160801E+02  0.39858160801E+02  0.00000000000E+00 0. -1.
          2   -1    0    0  501    0  0.00000000000E+00 -0.00000000000E+00 -0.60776197743E+03  0.60776197743E+03  0.00000000000E+00 0.  1.
         25    2    1    2    0    0  0.10498731476E+03 -0.38337271815E+02 -0.28235301988E+03  0.32842549914E+03  0.12509195808E+03 0.  0.
          5    1    3    3  502    0  0.12291061658E+03 -0.28328984496E+02 -0.15748920333E+03  0.20181643292E+03  0.41800000000E+01 0. -1.
         -5    1    3    3    0  502 -0.17923301827E+02 -0.10008287319E+02 -0.12486381656E+03  0.12660906622E+03  0.41800000000E+01 0. -1.
        -11    1    1    2    0    0 -0.10020943627E+03  0.95568198812E+01 -0.26509305996E+03  0.28356232889E+03  0.00000000000E+00 0.  1.
         11    1    1    2    0    0 -0.47778784858E+01  0.28780451934E+02 -0.20457736782E+02  0.35632310206E+02  0.00000000000E+00 0. -1.
</event>
<event>
 7    1  0.2480409E-009  0.1334778E+03  0.7561462E-02  0.1222385E+00
          1   -1    0    0  501    0  0.00000000000E+00  0.00000000000E+00  0.22915785460E+03  0.22915785460E+03  0.00000000000E+00 0. -1.
         -1   -1    0    0    0  501 -0.00000000000E+00 -0.00000000000E+00 -0.92598710665E+02  0.92598710665E+02  0.00000000000E+00 0.  1.
         25    2    1    2    0    0 -0.91117714963E+01  0.96351445221E+02  0.68054338149E+02  0.17217840473E+03  0.12508950691E+03 0.  0.
          5    1    3    3  502    0 -0.60113597902E+02  0.21910225632E+02  0.10247853151E+02  0.64932222618E+02  0.41800000000E+01 0. -1.
         -5    1    3    3    0  502  0.51001826405E+02  0.74441219589E+02  0.57806484998E+02  0.10724618212E+03  0.41800000000E+01 0. -1.
        -11    1    1    2    0    0  0.33477946462E+02 -0.50683554105E+02 -0.35648183460E+01  0.60846556894E+02  0.00000000000E+00 0.  1.
         11    1    1    2    0    0 -0.24366174965E+02 -0.45667891116E+02  0.72069624134E+02  0.88731603638E+02  0.00000000000E+00 0. -1.
</event>
<event>
 7    1  0.2480409E-009  0.7448881E+02  0.7561462E-02  0.1345461E+00
         -2   -1    0    0    0  501 -0.00000000000E+00  0.00000000000E+00  0.53352950757E+02  0.53352950757E+02  0.00000000000E+00 0.  1.
          2   -1    0    0  501    0  0.00000000000E+00 -0.00000000000E+00 -0.74190901557E+03  0.74190901557E+03  0.00000000000E+00 0. -1.
         25    2    1    2    0    0  0.63832855577E+02 -0.92105694824E+01 -0.66740085993E+03  0.68207803531E+03  0.12508825033E+03 0.  0.
          5    1    3    3  502    0  0.58097243981E+02 -0.64541111759E+01 -0.11010203970E+03  0.12472720976E+03  0.41800000000E+01 0.  1.
         -5    1    3    3    0  502  0.57356115958E+01 -0.27564583065E+01 -0.55729882023E+03  0.55735082555E+03  0.41800000000E+01 0.  1.
        -11    1    1    2    0    0 -0.79864947996E+01  0.23746006441E+02  0.27861643940E+02  0.37469028866E+02  0.00000000000E+00 0.  1.
         11    1    1    2    0    0 -0.55846360777E+02 -0.14535436958E+02 -0.49016848819E+02  0.75714902151E+02  0.00000000000E+00 0. -1.
</event>
<event>
 7    1  0.2480409E-009  0.1009247E+03  0.7561462E-02  0.1278363E+00
          1   -1    0    0  501    0  0.00000000000E+00  0.00000000000E+00  0.55901463082E+02  0.55901463082E+02  0.00000000000E+00 0. -1.
         -1   -1    0    0    0  501 -0.00000000000E+00 -0.00000000000E+00 -0.28887855476E+03  0.28887855476E+03  0.00000000000E+00 0.  1.
         25    2    1    2    0    0 -0.96411370401E+01  0.24867684256E+02 -0.44758719099E+02  0.13551246818E+03  0.12509569478E+03 0.  0.
          5    1    3    3  502    0 -0.59957501466E+02 -0.61024263672E+01  0.13859557815E+01  0.60427931150E+02  0.41800000000E+01 0.  1.
         -5    1    3    3    0  502  0.50316364426E+02  0.30970110624E+02 -0.46144674881E+02  0.75084537030E+02  0.41800000000E+01 0.  1.
        -11    1    1    2    0    0 -0.15627460328E+02 -0.46429054298E+02 -0.63494916138E+02  0.80196502260E+02  0.00000000000E+00 0. -1.
         11    1    1    2    0    0  0.25268597369E+02  0.21561370042E+02 -0.12472345644E+03  0.12907104740E+03  0.00000000000E+00 0.  1.
</event>
<event>
 7    1  0.2480409E-009  0.1058739E+03  0.7561462E-02  0.1268407E+00
          2   -1    0    0  501    0  0.00000000000E+00  0.00000000000E+00  0.14189242373E+03  0.14189242373E+03  0.00000000000E+00 0. -1.
         -2   -1    0    0    0  501 -0.00000000000E+00 -0.00000000000E+00 -0.88562446181E+02  0.88562446181E+02  0.00000000000E+00 0.  1.
         25    2    1    2    0    0 -0.25948619713E+01  0.24286574852E+02  0.15393826873E+02  0.12836200067E+03  0.12507302780E+03 0.  0.
          5    1    3    3  502    0  0.49559234178E+02  0.39606749030E+02 -0.15851073964E+02  0.65525118900E+02  0.41800000000E+01 0.  1.
         -5    1    3    3    0  502 -0.52154096149E+02 -0.15320174178E+02  0.31244900836E+02  0.62836881768E+02  0.41800000000E+01 0.  1.
        -11    1    1    2    0    0 -0.13188105668E+02  0.32308264884E+02  0.21863913568E+02  0.41179859488E+02  0.00000000000E+00 0. -1.
         11    1    1    2    0    0  0.15782967639E+02 -0.56594839736E+02  0.16072237112E+02  0.60913009760E+02  0.00000000000E+00 0.  1.
</event>
<event>
 7    1  0.2480409E-009  0.9417321E+02  0.7561462E-02  0.1293049E+00
          2   -1    0    0  501    0  0.00000000000E+00  0.00000000000E+00  0.22490370867E+03  0.22490370867E+03  0.00000000000E+00 0. -1.
         -2   -1    0    0    0  501 -0.00000000000E+00 -0.00000000000E+00 -0.61667094101E+02  0.61667094101E+02  0.00000000000E+00 0.  1.
         25    2    1    2    0    0  0.26087962912E+02 -0.36306088733E+01  0.49610971423E+02  0.13712379525E+03  0.12509166083E+03 0.  0.
          5    1    3    3  502    0 -0.44783187497E+02  0.11603820657E+02 -0.43560304319E+01  0.46654366755E+02  0.41800000000E+01 0.  1.
         -5    1    3    3    0  502  0.70871150409E+02 -0.15234429530E+02  0.53967001855E+02  0.90469428497E+02  0.41800000000E+01 0.  1.
        -11    1    1    2    0    0 -0.29929052845E+02  0.30153924086E+02  0.11714362317E+02  0.44070779735E+02  0.00000000000E+00 0.  1.
         11    1    1    2    0    0  0.38410899326E+01 -0.26523315213E+02  0.10191128083E+03  0.10537622779E+03  0.00000000000E+00 0. -1.
</event>
<event>
 7    1  0.2763782E-009  0.1256143E+03  0.7561462E-02  0.1234112E+00
         -2   -1    0    0    0  501 -0.00000000000E+00  0.00000000000E+00  0.22636638379E+02  0.22636638379E+02  0.00000000000E+00 0.  1.
          2   -1    0    0  501    0  0.00000000000E+00 -0.00000000000E+00 -0.75084603890E+03  0.75084603890E+03  0.00000000000E+00 0. -1.
         25    2    1    2    0    0  0.17301880707E+02 -0.68852188360E+02 -0.42939841915E+03  0.45284826571E+03  0.12509424635E+03 0.  0.
          5    1    3    3  502    0  0.65324058982E+02 -0.92531704326E+01 -0.22662069569E+03  0.23606623214E+03  0.41800000000E+01 0.  1.
         -5    1    3    3    0  502 -0.48022178275E+02 -0.59599017928E+02 -0.20277772346E+03  0.21678203357E+03  0.41800000000E+01 0.  1.
        -11    1    1    2    0    0  0.24443996333E+02  0.61366511526E+02 -0.12122104436E+03  0.13805035056E+03  0.00000000000E+00 0.  1.
         11    1    1    2    0    0 -0.41745877041E+02  0.74856768344E+01 -0.17758993701E+03  0.18258406101E+03  0.00000000000E+00 0. -1.
</event>
<event>
 7    1  0.2480409E-009  0.1984638E+03  0.7561462E-02  0.1151042E+00
         -1   -1    0    0    0  501 -0.00000000000E+00  0.00000000000E+00  0.29007115565E+02  0.29007115565E+02  0.00000000000E+00 0.  1.
          1   -1    0    0  501    0  0.00000000000E+00 -0.00000000000E+00 -0.14129774932E+04  0.14129774932E+04  0.00000000000E+00 0. -1.
         25    2    1    2    0    0 -0.12996183272E+03  0.10589048769E+03 -0.59371644669E+03  0.62948370383E+03  0.12509053108E+03 0.  0.
          5    1    3    3  502    0  0.24283421477E+02  0.10970491568E+02 -0.57988496962E+02  0.63954471492E+02  0.41800000000E+01 0.  1.
         -5    1    3    3    0  502 -0.15424525420E+03  0.94919996122E+02 -0.53572794973E+03  0.56552923234E+03  0.41800000000E+01 0.  1.
        -11    1    1    2    0    0  0.29847451704E+02 -0.80001400290E+02 -0.34979587148E+03  0.36006700227E+03  0.00000000000E+00 0.  1.
         11    1    1    2    0    0  0.10011438102E+03 -0.25889087400E+02 -0.44045805947E+03  0.45243390267E+03  0.00000000000E+00 0. -1.
</event>
<event>
 7    1  0.2480409E-009  0.1177787E+03  0.7561462E-02  0.1246807E+00
         -1   -1    0    0    0  501 -0.00000000000E+00  0.00000000000E+00  0.65514113885E+02  0.65514113885E+02  0.00000000000E+00 0.  1.
          1   -1    0    0  501    0  0.00000000000E+00 -0.00000000000E+00 -0.25909521218E+03  0.25909521218E+03  0.00000000000E+00 0. -1.
         25    2    1    2    0    0 -0.49127925766E+02 -0.31624762379E+02 -0.15773759718E+03  0.20962717105E+03  0.12509485439E+03 0.  0.
          5    1    3    3  502    0 -0.66942652376E+02  0.30163936316E+02 -0.87665088898E+02  0.11442823940E+03  0.41800000000E+01 0.  1.
         -5    1    3    3    0  502  0.17814726610E+02 -0.61788698695E+02 -0.70072508278E+02  0.95198931648E+02  0.41800000000E+01 0.  1.
        -11    1    1    2    0    0  0.74329051748E+01 -0.25663192908E+02  0.12203673591E+02  0.29373069276E+02  0.00000000000E+00 0.  1.
         11    1    1    2    0    0  0.41695020591E+02  0.57287955287E+02 -0.48047174704E+02  0.85609085734E+02  0.00000000000E+00 0. -1.
</event>
<event>
 7    1  0.2480409E-009  0.1128593E+03  0.7561462E-02  0.1255365E+00
         -1   -1    0    0    0  501 -0.00000000000E+00  0.00000000000E+00  0.48171494244E+02  0.48171494244E+02  0.00000000000E+00 0.  1.
          1   -1    0    0  501    0  0.00000000000E+00 -0.00000000000E+00 -0.28850496175E+03  0.28850496175E+03  0.00000000000E+00 0. -1.
         25    2    1    2    0    0  0.15376580368E+02  0.34724728794E+02 -0.10421891571E+03  0.16717304643E+03  0.12507197547E+03 0.  0.
          5    1    3    3  502    0 -0.16019840958E+02  0.73125396505E+02 -0.37219848009E+02  0.83706322367E+02  0.41800000000E+01 0.  1.
         -5    1    3    3    0  502  0.31396421325E+02 -0.38400667711E+02 -0.66999067706E+02  0.83466724065E+02  0.41800000000E+01 0.  1.
        -11    1    1    2    0    0  0.13721671552E+02 -0.60533925304E+02 -0.86292550459E+02  0.10629696443E+03  0.00000000000E+00 0.  1.
         11    1    1    2    0    0 -0.29098251920E+02  0.25809196509E+02 -0.49822001338E+02  0.63206445135E+02  0.00000000000E+00 0. -1.
</event>
<event>
 7    1  0.2480409E-009  0.1061357E+03  0.7561462E-02  0.1267898E+00
         -1   -1    0    0    0  501 -0.00000000000E+00  0.00000000000E+00  0.92919273139E+02  0.92919273139E+02  0.00000000000E+00 0.  1.
          1   -1    0    0  501    0  0.00000000000E+00 -0.00000000000E+00 -0.14396699765E+03  0.14396699765E+03  0.00000000000E+00 0. -1.
         25    2    1    2    0    0 -0.61481231469E+01  0.35956763849E+01  0.12659790055E+02  0.12593267403E+03  0.12509212524E+03 0.  0.
          5    1    3    3  502    0  0.52084745782E+02 -0.24645763708E+02  0.18882119034E+02  0.60780270081E+02  0.41800000000E+01 0.  1.
         -5    1    3    3    0  502 -0.58232868929E+02  0.28241440093E+02 -0.62223289787E+01  0.65152403947E+02  0.41800000000E+01 0.  1.
        -11    1    1    2    0    0  0.12444678591E+02 -0.45550201421E+02 -0.42476191423E+02  0.63513130237E+02  0.00000000000E+00 0. -1.
         11    1    1    2    0    0 -0.62965554438E+01  0.41954525036E+02 -0.21231323140E+02  0.47440466521E+02  0.00000000000E+00 0.  1.
</event>
<event>
 7    1  0.2480409E-009  0.7843026E+02  0.7561462E-02  0.1333566E+00
          4   -1    0    0  501    0  0.00000000000E+00  0.00000000000E+00  0.11144878060E+03  0.11144878060E+03  0.00000000000E+00 0. -1.
         -4   -1    0    0    0  501 -0.00000000000E+00 -0.00000000000E+00 -0.10688947269E+03  0.10688947269E+03  0.00000000000E+00 0.  1.
         25    2    1    2    0    0  0.58498751014E+01 -0.15600102905E+02  0.59084052334E+01  0.12632910287E+03  0.12508616522E+03 0.  0.
          5    1    3    3  502    0  0.26674239650E+02  0.45760890844E+02  0.24897398607E+02  0.58676460775E+02  0.41800000000E+01 0.  1.
         -5    1    3    3    0  502 -0.20824364548E+02 -0.61360993749E+02 -0.18988993373E+02  0.67652642092E+02  0.41800000000E+01 0.  1.
        -11    1    1    2    0    0  0.14783478909E+02  0.79792530377E+01 -0.42306087603E+02  0.45519498855E+02  0.00000000000E+00 0.  1.
         11    1    1    2    0    0 -0.20633354011E+02  0.76208498669E+01  0.40956990275E+02  0.46489651567E+02  0.00000000000E+00 0. -1.
</event>
<event>
 7    1  0.2480409E-009  0.1039243E+03  0.7561462E-02  0.1272254E+00
          2   -1    0    0  501    0  0.00000000000E+00  0.00000000000E+00  0.67012377667E+03  0.67012377667E+03  0.00000000000E+00 0. -1.
         -2   -1    0    0    0  501 -0.00000000000E+00 -0.00000000000E+00 -0.21727217987E+02  0.21727217987E+02  0.00000000000E+00 0.  1.
         25    2    1    2    0    0 -0.15758305679E+02  0.59229556461E+01  0.50915469171E+03  0.52456971584E+03  0.12510587946E+03 0.  0.
          5    1    3    3  502    0  0.42158030057E+02  0.37509492146E+02  0.29748893329E+03  0.30282238908E+03  0.41800000000E+01 0.  1.
         -5    1    3    3    0  502 -0.57916335735E+02 -0.31586536500E+02  0.21166575843E+03  0.22174732676E+03  0.41800000000E+01 0.  1.
        -11    1    1    2    0    0  0.37185262823E+02 -0.33630048311E+02  0.11265450996E+03  0.12330759318E+03  0.00000000000E+00 0. -1.
         11    1    1    2    0    0 -0.21426957144E+02  0.27707092665E+02  0.26587357004E+02  0.43973685641E+02  0.00000000000E+00 0.  1.
</event>
<event>
 7    1  0.2480409E-009  0.1331579E+03  0.7561462E-02  0.1222844E+00
         -1   -1    0    0    0  501 -0.00000000000E+00  0.00000000000E+00  0.29211219065E+02  0.29211219065E+02  0.00000000000E+00 0.  1.
          1   -1    0    0  501    0  0.00000000000E+00 -0.00000000000E+00 -0.65477898392E+03  0.65477898392E+03  0.00000000000E+00 0. -1.
         25    2    1    2    0    0  0.74949188625E+02 -0.14913813274E+02 -0.42487091698E+03  0.44944616519E+03  0.12508699617E+03 0.  0.
          5    1    3    3  502    0 -0.31325255559E+02  0.14240324317E+02 -0.13278836862E+03  0.13723804761E+03  0.41800000000E+01 0.  1.
         -5    1    3    3    0  502  0.10627444418E+03 -0.29154137591E+02 -0.29208254836E+03  0.31220811758E+03  0.41800000000E+01 0.  1.
        -11    1    1    2    0    0 -0.84096087726E+02 -0.19026328479E+02 -0.14204021342E+03  0.16616129325E+03  0.00000000000E+00 0.  1.
         11    1    1    2    0    0  0.91468991012E+01  0.33940141753E+02 -0.58656634455E+02  0.68382744541E+02  0.00000000000E+00 0. -1.
</event>
<event>
 7    1  0.2480409E-009  0.1976714E+03  0.7561462E-02  0.1151719E+00
          1   -1    0    0  501    0  0.00000000000E+00  0.00000000000E+00  0.28585827451E+03  0.28585827451E+03  0.00000000000E+00 0. -1.
         -1   -1    0    0    0  501 -0.00000000000E+00 -0.00000000000E+00 -0.16192567829E+03  0.16192567829E+03  0.00000000000E+00 0.  1.
         25    2    1    2    0    0 -0.17047365069E+03 -0.67728800075E+02  0.88987849123E+02  0.23919592249E+03  0.12508955234E+03 0.  0.
          5    1    3    3  502    0 -0.10198990876E+03 -0.69776141508E+02  0.11196951078E+03  0.16680915789E+03  0.41800000000E+01 0.  1.
         -5    1    3    3    0  502 -0.68483741936E+02  0.20473414338E+01 -0.22981661660E+02  0.72386764600E+02  0.41800000000E+01 0.  1.
        -11    1    1    2    0    0  0.16046409762E+03  0.29011413079E+02  0.41002220212E+02  0.16814152009E+03  0.00000000000E+00 0. -1.
         11    1    1    2    0    0  0.10009553072E+02  0.38717386996E+02 -0.60574731094E+01  0.40446510220E+02  0.00000000000E+00 0.  1.
</event>
<event>
 7    1  0.2480409E-009  0.1690792E+03  0.7561462E-02  0.1178811E+00
          1   -1    0    0  501    0  0.00000000000E+00  0.00000000000E+00  0.13196833293E+04  0.13196833293E+04  0.00000000000E+00 0. -1.
         -1   -1    0    0    0  501 -0.00000000000E+00 -0.00000000000E+00 -0.42379376807E+02  0.42379376807E+02  0.00000000000E+00 0.  1.
         25    2    1    2    0    0  0.64392413759E+02 -0.13203204937E+03  0.10885361503E+04  0.11055030163E+04  0.12508846350E+03 0.  0.
          5    1    3    3  502    0  0.99383596720E+02 -0.82423694280E+02  0.64473815561E+03  0.65755267954E+03  0.41800000000E+01 0.  1.
         -5    1    3    3    0  502 -0.34991182961E+02 -0.49608355095E+02  0.44379799466E+03  0.44795033680E+03  0.41800000000E+01 0.  1.
        -11    1    1    2    0    0 -0.15236650605E+02  0.52146071397E+02  0.10804303006E+02  0.55390443646E+02  0.00000000000E+00 0.  1.
         11    1    1    2    0    0 -0.49155763155E+02  0.79885977977E+02  0.17796349925E+03  0.20116924614E+03  0.00000000000E+00 0. -1.
</event>
<event>
 7    1  0.2480409E-009  0.1296611E+03  0.7561462E-02  0.1227959E+00
          2   -1    0    0  501    0  0.00000000000E+00  0.00000000000E+00  0.58236482786E+03  0.58236482786E+03  0.00000000000E+00 0. -1.
         -2   -1    0    0    0  501 -0.00000000000E+00 -0.00000000000E+00 -0.34120079273E+02  0.34120079273E+02  0.00000000000E+00 0.  1.
         25    2    1    2    0    0  0.65973925488E+02 -0.33694523752E+02  0.41244936081E+03  0.43732148093E+03  0.12509085768E+03 0.  0.
          5    1    3    3  502    0  0.19501603648E+02  0.45981416415E+02  0.10577472968E+03  0.11704857555E+03  0.41800000000E+01 0.  1.
         -5    1    3    3    0  502  0.46472321840E+02 -0.79675940167E+02  0.30667463113E+03  0.32027290538E+03  0.41800000000E+01 0.  1.
        -11    1    1    2    0    0 -0.86935424911E+02  0.38944046325E+02  0.11012121559E+03  0.14560593728E+03  0.00000000000E+00 0.  1.
         11    1    1    2    0    0  0.20961499424E+02 -0.52495225724E+01  0.25674172190E+02  0.33557488926E+02  0.00000000000E+00 0. -1.
</event>
<event>
 7    1  0.2480409E-009  0.8664213E+02  0.7561462E-02  0.1311193E+00
          1   -1    0    0  501    0  0.00000000000E+00  0.00000000000E+00  0.14191957553E+03  0.14191957553E+03  0.00000000000E+00 0. -1.
         -1   -1    0    0    0  501 -0.00000000000E+00 -0.00000000000E+00 -0.11056400022E+03  0.11056400022E+03  0.00000000000E+00 0.  1.
         25    2    1    2    0    0 -0.56293358794E+01  0.31688369042E+02  0.74135997434E+02  0.14892785098E+03  0.12509003369E+03 0.  0.
          5    1    3    3  502    0 -0.48863744425E+02  0.22723792324E+02 -0.89102385580E+01  0.54780480173E+02  0.41800000000E+01 0.  1.
         -5    1    3    3    0  502  0.43234408546E+02  0.89645767173E+01  0.83046235992E+02  0.94147370810E+02  0.41800000000E+01 0.  1.
        -11    1    1    2    0    0 -0.25425037007E+02 -0.35423753565E+02  0.75946497027E+01  0.44260066962E+02  0.00000000000E+00 0. -1.
         11    1    1    2    0    0  0.31054372886E+02  0.37353845229E+01 -0.50375071824E+02  0.59295657802E+02  0.00000000000E+00 0.  1.
</event>
<event>
 7    1  0.2480409E-009  0.2657556E+03  0.7561462E-02  0.1103734E+00
         -1   -1    0    0    0  501 -0.00000000000E+00  0.00000000000E+00  0.19675341296E+03  0.19675341296E+03  0.00000000000E+00 0.  1.
          1   -1    0    0  501    0  0.00000000000E+00 -0.00000000000E+00 -0.62280666767E+03  0.62280666767E+03  0.00000000000E+00 0. -1.
         25    2    1    2    0    0  0.19814775675E+03 -0.16032264963E+03  0.33625850801E+02  0.28590968226E+03  0.12509101917E+03 0.  0.
          5    1    3    3  502    0  0.11019814238E+03 -0.12331775060E+03  0.75225927974E+02  0.18173417630E+03  0.41800000000E+01 0.  1.
         -5    1    3    3    0  502  0.87949614372E+02 -0.37004899036E+02 -0.41600077173E+02  0.10417550596E+03  0.41800000000E+01 0.  1.
        -11    1    1    2    0    0 -0.11288656578E+03  0.14529220348E+03 -0.32739969559E+03  0.37555793401E+03  0.00000000000E+00 0.  1.
         11    1    1    2    0    0 -0.85261190972E+02  0.15030446151E+02 -0.13227940992E+03  0.15809246436E+03  0.00000000000E+00 0. -1.
</event>
<event>
 7    1  0.2480409E-009  0.1404989E+03  0.7561462E-02  0.1212659E+00
          3   -1    0    0  501    0  0.00000000000E+00  0.00000000000E+00  0.40975746822E+03  0.40975746822E+03  0.00000000000E+00 0. -1.
         -3   -1    0    0    0  501 -0.00000000000E+00 -0.00000000000E+00 -0.12898310294E+03  0.12898310294E+03  0.00000000000E+00 0.  1.
         25    2    1    2    0    0 -0.11956056465E+03  0.39357033513E+01  0.33753474465E+03  0.37932022959E+03  0.12507563452E+03 0.  0.
          5    1    3    3  502    0 -0.12561853195E+03 -0.22864914376E+02  0.18847032192E+03  0.22768696608E+03  0.41800000000E+01 0.  1.
         -5    1    3    3    0  502  0.60579673031E+01  0.26800617728E+02  0.14906442272E+03  0.15163326350E+03  0.41800000000E+01 0.  1.
        -11    1    1    2    0    0  0.24981679716E+02  0.14800991179E+02  0.20767785965E+02  0.35699504131E+02  0.00000000000E+00 0. -1.
         11    1    1    2    0    0  0.94578884930E+02 -0.18736694530E+02 -0.77528165335E+02  0.12372083744E+03  0.00000000000E+00 0.  1.
</event>
<event>
 7    1  0.2480409E-009  0.1011387E+03  0.7561462E-02  0.1277919E+00
         -2   -1    0    0    0  501 -0.00000000000E+00  0.00000000000E+00  0.22237061919E+02  0.22237061919E+02  0.00000000000E+00 0.  1.
          2   -1    0    0  501    0  0.00000000000E+00 -0.00000000000E+00 -0.58089419740E+03  0.58089419740E+03  0.00000000000E+00 0. -1.
         25    2    1    2    0    0  0.64936334583E+01  0.87839410499E+00 -0.41269959469E+03  0.43128685873E+03  0.12507781659E+03 0.  0.
          5    1    3    3  502    0 -0.57024369978E+02 -0.13797965069E+02 -0.22427137670E+03  0.23185617400E+03  0.41800000000E+01 0.  1.
         -5    1    3    3    0  502  0.63518003437E+02  0.14676359174E+02 -0.18842821799E+03  0.19943068473E+03  0.41800000000E+01 0.  1.
        -11    1    1    2    0    0  0.32004843850E+02  0.16369064619E+02 -0.11219055647E+03  0.11780907125E+03  0.00000000000E+00 0. -1.
         11    1    1    2    0    0 -0.38498477309E+02 -0.17247458724E+02 -0.33766984320E+02  0.54035329347E+02  0.00000000000E+00 0.  1.
</event>
<event>
 7    1  0.2480409E-009  0.8437403E+02  0.7561462E-02  0.1317078E+00
         -2   -1    0    0    0  501 -0.00000000000E+00  0.00000000000E+00  0.49058927826E+02  0.49058927826E+02  0.00000000000E+00 0. -1.
          2   -1    0    0  501    0  0.00000000000E+00 -0.00000000000E+00 -0.30572740744E+03  0.30572740744E+03  0.00000000000E+00 0.  1.
         25    2    1    2    0    0  0.38259516621E+02  0.43346916672E+02 -0.13700191805E+03  0.19431622424E+03  0.12508606500E+03 0.  0.
          5    1    3    3  502    0  0.15879240392E+02  0.69071341822E+02 -0.14280256494E+03  0.15947741373E+03  0.41800000000E+01 0. -1.
         -5    1    3    3    0  502  0.22380276229E+02 -0.25724425150E+02  0.58006468924E+01  0.34838810510E+02  0.41800000000E+01 0. -1.
        -11    1    1    2    0    0 -0.64448500494E+01 -0.26750527256E+02  0.73512076566E+01  0.28480994622E+02  0.00000000000E+00 0. -1.
         11    1    1    2    0    0 -0.31814666572E+02 -0.16596389416E+02 -0.12701776922E+03  0.13198911640E+03  0.00000000000E+00 0.  1.
</event>
<event>
 7    1  0.2480409E-009  0.9500463E+02  0.7561462E-02  0.1291166E+00
         -2   -1    0    0    0  501 -0.00000000000E+00  0.00000000000E+00  0.78650142354E+02  0.78650142354E+02  0.00000000000E+00 0.  1.
          2   -1    0    0  501    0  0.00000000000E+00 -0.00000000000E+00 -0.21135578320E+03  0.21135578320E+03  0.00000000000E+00 0. -1.
         25    2    1    2    0    0 -0.24755419263E+02 -0.29056580970E+02 -0.14086358441E+03  0.19221129037E+03  0.12508203328E+03 0.  0.
          5    1    3    3  502    0 -0.62208279449E+02 -0.33372526064E+02 -0.33320888763E+02  0.78175121080E+02  0.41800000000E+01 0. -1.
         -5    1    3    3    0  502  0.37452860185E+02  0.43159450937E+01 -0.10754269565E+03  0.11403616929E+03  0.41800000000E+01 0. -1.
        -11    1    1    2    0    0 -0.82714436694E+00  0.48947069538E+02 -0.21868703632E+02  0.53616601745E+02  0.00000000000E+00 0. -1.
         11    1    1    2    0    0  0.25582563630E+02 -0.19890488568E+02  0.30026647195E+02  0.44178033446E+02  0.00000000000E+00 0.  1.
</event>
<event>
 7    1  0.2480409E-009  0.1330146E+03  0.7561462E-02  0.1223050E+00
          1   -1    0    0  501    0  0.00000000000E+00  0.00000000000E+00  0.58962681337E+03  0.58962681337E+03  0.00000000000E+00 0. -1.
         -1   -1    0    0    0  501 -0.00000000000E+00 -0.00000000000E+00 -0.39916542668E+02  0.39916542668E+02  0.00000000000E+00 0.  1.
         25    2    1    2    0    0 -0.86257605487E+02  0.31993948977E+02  0.41523501839E+03  0.44331905655E+03  0.12509067960E+03 0.  0.
          5    1    3    3  502    0 -0.11486695713E+03  0.25974485237E+02  0.37711187014E+03  0.39509483257E+03  0.41800000000E+01 0. -1.
         -5    1    3    3    0  502  0.28609351646E+02  0.60194637405E+01  0.38123148257E+02  0.48224223979E+02  0.41800000000E+01 0. -1.
        -11    1    1    2    0    0  0.71864040807E+02  0.11556749765E+02  0.44718264006E+02  0.85426705203E+02  0.00000000000E+00 0.  1.
         11    1    1    2    0    0  0.14393564680E+02 -0.43550698742E+02  0.89756988298E+02  0.10079759428E+03  0.00000000000E+00 0. -1.
</event>
<event>
 7    1  0.2480409E-009  0.2383452E+03  0.7561462E-02  0.1120900E+00
         -4   -1    0    0    0  501 -0.00000000000E+00  0.00000000000E+00  0.33176740282E+02  0.33176740282E+02  0.00000000000E+00 0.  1.
          4   -1    0    0  501    0  0.00000000000E+00 -0.00000000000E+00 -0.17618452810E+04  0.17618452810E+04  0.00000000000E+00 0. -1.
         25    2    1    2    0    0 -0.15020031272E+03  0.15284676916E+03 -0.81696579402E+03  0.85381661940E+03  0.12508973658E+03 0.  0.
          5    1    3    3  502    0 -0.88495199035E+02  0.10703151669E+02 -0.22939119546E+03  0.24613766608E+03  0.41800000000E+01 0. -1.
         -5    1    3    3    0  502 -0.61705113685E+02  0.14214361749E+03 -0.58757459855E+03  0.60767895332E+03  0.41800000000E+01 0. -1.
        -11    1    1    2    0    0  0.70690481575E+02 -0.13450069084E+02 -0.33136273785E+03  0.33908599585E+03  0.00000000000E+00 0. -1.
         11    1    1    2    0    0  0.79509831146E+02 -0.13939670008E+03 -0.58034000881E+03  0.60211940599E+03  0.00000000000E+00 0.  1.
</event>
<event>
 7    1  0.2480409E-009  0.1330321E+03  0.7561462E-02  0.1223025E+00
          3   -1    0    0  501    0  0.00000000000E+00  0.00000000000E+00  0.77329657278E+02  0.77329657278E+02  0.00000000000E+00 0.  1.
         -3   -1    0    0    0  501 -0.00000000000E+00 -0.00000000000E+00 -0.25159158574E+03  0.25159158574E+03  0.00000000000E+00 0. -1.
         25    2    1    2    0    0 -0.38878699866E+02  0.75379278114E+02 -0.68292357233E+02  0.16584856215E+03  0.12509320780E+03 0.  0.
          5    1    3    3  502    0 -0.21608514351E+02 -0.29724053489E+02 -0.42186377722E+02  0.56103565961E+02  0.41800000000E+01 0.  1.
         -5    1    3    3    0  502 -0.17270185515E+02  0.10510333160E+03 -0.26105979511E+02  0.10974499619E+03  0.41800000000E+01 0.  1.
        -11    1    1    2    0    0 -0.24509513126E+02 -0.47054931262E+02 -0.58453997461E+02  0.78941450512E+02  0.00000000000E+00 0. -1.
         11    1    1    2    0    0  0.63388212991E+02 -0.28324346852E+02 -0.47515573764E+02  0.84131230354E+02  0.00000000000E+00 0.  1.
</event>
<event>
 7    1  0.2480409E-009  0.8124055E+02  0.7561462E-02  0.1325567E+00
         -1   -1    0    0    0  501 -0.00000000000E+00  0.00000000000E+00  0.66758823699E+03  0.66758823699E+03  0.00000000000E+00 0.  1.
          1   -1    0    0  501    0  0.00000000000E+00 -0.00000000000E+00 -0.20617046491E+02  0.20617046491E+02  0.00000000000E+00 0. -1.
         25    2    1    2    0    0  0.16975325645E+02  0.35070244022E+02  0.30482439783E+03  0.33178877103E+03  0.12509113225E+03 0.  0.
          5    1    3    3  502    0  0.30894704011E+02  0.37925766310E+02  0.32089475791E+02  0.58651967935E+02  0.41800000000E+01 0.  1.
         -5    1    3    3    0  502 -0.13919378366E+02 -0.28555222874E+01  0.27273492204E+03  0.27313680309E+03  0.41800000000E+01 0.  1.
        -11    1    1    2    0    0  0.22287707657E+02  0.20668128713E+02  0.80963701301E+02  0.86481410635E+02  0.00000000000E+00 0. -1.
         11    1    1    2    0    0 -0.39263033302E+02 -0.55738372735E+02  0.26118309136E+03  0.26993510182E+03  0.00000000000E+00 0.  1.
</event>
<event>
 7    1  0.2480409E-009  0.1086104E+03  0.7561462E-02  0.1263165E+00
          4   -1    0    0  501    0  0.00000000000E+00  0.00000000000E+00  0.43263179218E+03  0.43263179218E+03  0.00000000000E+00 0. -1.
         -4   -1    0    0    0  501 -0.00000000000E+00 -0.00000000000E+00 -0.57639327752E+02  0.57639327752E+02  0.00000000000E+00 0.  1.
         25    2    1    2    0    0 -0.19020151982E+02 -0.78617074207E+02  0.31775506027E+03  0.35094153755E+03  0.12509705797E+03 0.  0.
          5    1    3    3  502    0  0.39227438060E+02 -0.52743442295E+02  0.74498910506E+02  0.99439542781E+02  0.41800000000E+01 0.  1.
         -5    1    3    3    0  502 -0.58247590042E+02 -0.25873631911E+02  0.24325614977E+03  0.25150199477E+03  0.41800000000E+01 0.  1.
        -11    1    1    2    0    0 -0.16423189968E+01  0.58901113631E+02  0.82376782336E+02  0.10128165020E+03  0.00000000000E+00 0. -1.
         11    1    1    2    0    0  0.20662470979E+02  0.19715960576E+02 -0.25139378179E+02  0.38047932186E+02  0.00000000000E+00 0.  1.
</event>
<event>
 7    1  0.2480409E-009  0.1239282E+03  0.7561462E-02  0.1236754E+00
          2   -1    0    0  501    0  0.00000000000E+00  0.00000000000E+00  0.77770817256E+03  0.77770817256E+03  0.00000000000E+00 0. -1.
         -2   -1    0    0    0  501 -0.00000000000E+00 -0.00000000000E+00 -0.24393330639E+02  0.24393330639E+02  0.00000000000E+00 0.  1.
         25    2    1    2    0    0 -0.78156694308E+02 -0.28663357573E+02  0.42848359997E+03  0.45406754290E+03  0.12509628749E+03 0.  0.
          5    1    3    3  502    0 -0.83299943968E+02  0.31774438407E+02  0.26656605736E+03  0.28111106513E+03  0.41800000000E+01 0.  1.
         -5    1    3    3    0  502  0.51432496597E+01 -0.60437795980E+02  0.16191754260E+03  0.17295647777E+03  0.41800000000E+01 0.  1.
        -11    1    1    2    0    0  0.29313238136E+02 -0.14425736253E+02  0.24807809743E+02  0.41021887093E+02  0.00000000000E+00 0.  1.
         11    1    1    2    0    0  0.48843456171E+02  0.43089093825E+02  0.30002343221E+03  0.30701207320E+03  0.00000000000E+00 0. -1.
</event>
<event>
 7    1  0.3271051E-009  0.1112770E+03  0.7561462E-02  0.1258223E+00
         -2   -1    0    0    0  501 -0.00000000000E+00  0.00000000000E+00  0.74996499601E+02  0.74996499601E+02  0.00000000000E+00 0.  1.
          2   -1    0    0  501    0  0.00000000000E+00 -0.00000000000E+00 -0.21636871454E+03  0.21636871454E+03  0.00000000000E+00 0. -1.
         25    2    1    2    0    0 -0.25779588060E+02 -0.60303991920E+02 -0.69621958534E+02  0.15746555377E+03  0.12508806862E+03 0.  0.
          5    1    3    3  502    0 -0.40094178234E+02  0.68484014143E+01  0.19158101098E+02  0.45154722542E+02  0.41800000000E+01 0. -1.
         -5    1    3    3    0  502  0.14314590174E+02 -0.67152393334E+02 -0.88780059632E+02  0.11231083123E+03  0.41800000000E+01 0. -1.
        -11    1    1    2    0    0 -0.28817373635E+02  0.49415919246E+02 -0.32622052300E+02  0.65852656699E+02  0.00000000000E+00 0. -1.
         11    1    1    2    0    0  0.54596961694E+02  0.10888072674E+02 -0.39128204110E+02  0.68047003679E+02  0.00000000000E+00 0.  1.
</event>
<event>
 7    1  0.2480409E-009  0.1340313E+03  0.7561462E-02  0.1221594E+00
         -2   -1    0    0    0  501 -0.00000000000E+00  0.00000000000E+00  0.42711736193E+02  0.42711736193E+02  0.00000000000E+00 0.  1.
          2   -1    0    0  501    0  0.00000000000E+00 -0.00000000000E+00 -0.61950440787E+03  0.61950440787E+03  0.00000000000E+00 0. -1.
         25    2    1    2    0    0  0.89389174288E+02  0.77271318380E+02 -0.24137377931E+03  0.29643047302E+03  0.12509373634E+03 0.  0.
          5    1    3    3  502    0  0.84465670180E+02  0.56521069785E+02 -0.25235331247E+03  0.27208224397E+03  0.41800000000E+01 0.  1.
         -5    1    3    3    0  502  0.49235041074E+01  0.20750248594E+02  0.10979533159E+02  0.24348229049E+02  0.41800000000E+01 0.  1.
        -11    1    1    2    0    0 -0.96764415764E+02 -0.36881652953E+02 -0.21679806265E+03  0.24026029313E+03  0.00000000000E+00 0.  1.
         11    1    1    2    0    0  0.73752414759E+01 -0.40389665426E+02 -0.11862082971E+03  0.12552537792E+03  0.00000000000E+00 0. -1.
</event>
<event>
 7    1  0.2480409E-009  0.9307324E+02  0.7561462E-02  0.1295576E+00
         -4   -1    0    0    0  501 -0.00000000000E+00  0.00000000000E+00  0.24088587463E+03  0.24088587463E+03  0.00000000000E+00 0.  1.
          4   -1    0    0  501    0  0.00000000000E+00 -0.00000000000E+00 -0.48261376783E+02  0.48261376783E+02  0.00000000000E+00 0. -1.
         25    2    1    2    0    0  0.80348909773E+01  0.41265376859E+02  0.11666317601E+03  0.17613856094E+03  0.12508838960E+03 0.  0.
          5    1    3    3  502    0 -0.21017018637E+02 -0.30121818826E+02  0.85038114946E+02  0.92725360260E+02  0.41800000000E+01 0.  1.
         -5    1    3    3    0  502  0.29051909614E+02  0.71387195686E+02  0.31625061067E+02  0.83413200679E+02  0.41800000000E+01 0.  1.
        -11    1    1    2    0    0  0.17443270831E+02 -0.43054296366E+02  0.74026182163E+02  0.87394598108E+02  0.00000000000E+00 0.  1.
         11    1    1    2    0    0 -0.25478161809E+02  0.17889195072E+01  0.19351396716E+01  0.25614092365E+02  0.00000000000E+00 0. -1.
</event>
<event>
 7    1  0.2480409E-009  0.1311928E+03  0.7561462E-02  0.1225696E+00
         -1   -1    0    0    0  501 -0.00000000000E+00  0.00000000000E+00  0.39922071518E+02  0.39922071518E+02  0.00000000000E+00 0.  1.
          1   -1    0    0  501    0  0.00000000000E+00 -0.00000000000E+00 -0.44836781833E+03  0.44836781833E+03  0.00000000000E+00 0. -1.
         25    2    1    2    0    0 -0.55390457953E+02 -0.50277673881E+02 -0.25511713106E+03  0.29381617671E+03  0.12508895959E+03 0.  0.
          5    1    3    3  502    0 -0.48173223110E+02  0.34704979638E+02 -0.12054664466E+03  0.13443980428E+03  0.41800000000E+01 0.  1.
         -5    1    3    3    0  502 -0.72172348427E+01 -0.84982653519E+02 -0.13457048640E+03  0.15937637243E+03  0.41800000000E+01 0.  1.
        -11    1    1    2    0    0  0.37875693989E+02  0.76834501280E+02 -0.12694516304E+03  0.15314432148E+03  0.00000000000E+00 0.  1.
         11    1    1    2    0    0  0.17514763964E+02 -0.26556827399E+02 -0.26383452713E+02  0.41329391663E+02  0.00000000000E+00 0. -1.
</event>
<event>
 7    1  0.2480409E-009  0.1398557E+03  0.7561462E-02  0.1213523E+00
          2   -1    0    0  501    0  0.00000000000E+00  0.00000000000E+00  0.11642483075E+03  0.11642483075E+03  0.00000000000E+00 0. -1.
         -2   -1    0    0    0  501 -0.00000000000E+00 -0.00000000000E+00 -0.23491352066E+03  0.23491352066E+03  0.00000000000E+00 0.  1.
         25    2    1    2    0    0 -0.86639245104E+02 -0.47276568775E+02 -0.14560962808E+03  0.21584435194E+03  0.12508072484E+03 0.  0.
          5    1    3    3  502    0 -0.42324226360E+02  0.39099205411E+02 -0.30920652423E+02  0.65525927288E+02  0.41800000000E+01 0. -1.
         -5    1    3    3    0  502 -0.44315018745E+02 -0.86375774186E+02 -0.11468897566E+03  0.15031842465E+03  0.41800000000E+01 0. -1.
        -11    1    1    2    0    0 -0.13740792380E+02 -0.16802011107E+00 -0.11522702808E+02  0.17933496201E+02  0.00000000000E+00 0.  1.
         11    1    1    2    0    0  0.10038003748E+03  0.47444588886E+02  0.38643640981E+02  0.11756050327E+03  0.00000000000E+00 0. -1.
</event>
<event>
 7    1  0.2480409E-009  0.1811556E+03  0.7561462E-02  0.1166689E+00
          1   -1    0    0  501    0  0.00000000000E+00  0.00000000000E+00  0.68515978133E+02  0.68515978133E+02  0.00000000000E+00 0. -1.
         -1   -1    0    0    0  501 -0.00000000000E+00 -0.00000000000E+00 -0.49308469414E+03  0.49308469414E+03  0.00000000000E+00 0.  1.
         25    2    1    2    0    0  0.75500658134E+02  0.12396018678E+03 -0.18021563171E+03  0.26304367544E+03  0.12509126265E+03 0.  0.
          5    1    3    3  502    0  0.89235355378E+02  0.14198021254E+03 -0.16585082295E+03  0.23589255451E+03  0.41800000000E+01 0.  1.
         -5    1    3    3    0  502 -0.13734697244E+02 -0.18020025760E+02 -0.14364808759E+02  0.27151120924E+02  0.41800000000E+01 0.  1.
        -11    1    1    2    0    0 -0.76678606617E+02 -0.38038306858E+02 -0.12424133720E+03  0.15087223526E+03  0.00000000000E+00 0.  1.
         11    1    1    2    0    0  0.11779484834E+01 -0.85921879921E+02 -0.12011174709E+03  0.14768476158E+03  0.00000000000E+00 0. -1.
</event>
<event>
 7    1  0.2480409E-009  0.1314906E+03  0.7561462E-02  0.1225261E+00
          1   -1    0    0  501    0  0.00000000000E+00  0.00000000000E+00  0.47383438888E+03  0.47383438888E+03  0.00000000000E+00 0. -1.
         -1   -1    0    0    0  501 -0.00000000000E+00 -0.00000000000E+00 -0.38384433118E+02  0.38384433118E+02  0.00000000000E+00 0.  1.
         25    2    1    2    0    0 -0.73517701432E+02  0.42421654558E+00  0.23995161188E+03  0.28040763702E+03  0.12508650796E+03 0.  0.
          5    1    3    3  502    0 -0.59836930753E+02  0.58308136592E+02  0.11780038436E+03  0.14448079467E+03  0.41800000000E+01 0. -1.
         -5    1    3    3    0  502 -0.13680770680E+02 -0.57883920046E+02  0.12215122752E+03  0.13592684235E+03  0.41800000000E+01 0. -1.
        -11    1    1    2    0    0 -0.19183102669E+02 -0.16880791362E+02  0.19251771871E+02  0.31993487856E+02  0.00000000000E+00 0.  1.
         11    1    1    2    0    0  0.92700804102E+02  0.16456574817E+02  0.17624657202E+03  0.19981769712E+03  0.00000000000E+00 0. -1.
</event>
<event>
 7    1  0.2480409E-009  0.1080990E+03  0.7561462E-02  0.1264131E+00
         -2   -1    0    0    0  501 -0.00000000000E+00  0.00000000000E+00  0.37269508510E+03  0.37269508510E+03  0.00000000000E+00 0.  1.
          2   -1    0    0  501    0  0.00000000000E+00 -0.00000000000E+00 -0.35350279205E+02  0.35350279205E+02  0.00000000000E+00 0. -1.
         25    2    1    2    0    0 -0.81529801097E+01 -0.19859318726E+02  0.25090806652E+03  0.28118161770E+03  0.12508949062E+03 0.  0.
          5    1    3    3  502    0 -0.33623919050E+02 -0.65553354732E+02  0.13244970631E+03  0.15161862468E+03  0.41800000000E+01 0. -1.
         -5    1    3    3    0  502  0.25470938940E+02  0.45694036006E+02  0.11845836021E+03  0.12956299302E+03  0.41800000000E+01 0. -1.
        -11    1    1    2    0    0  0.24775024655E+02  0.49832779499E+02  0.68250220373E+02  0.88063615303E+02  0.00000000000E+00 0. -1.
         11    1    1    2    0    0 -0.16622044546E+02 -0.29973460773E+02  0.18186519007E+02  0.38800131304E+02  0.00000000000E+00 0.  1.
</event>
<event>
 7    1  0.2480409E-009  0.6353549E+02  0.7561462E-02  0.1383567E+00
         -1   -1    0    0    0  501 -0.00000000000E+00  0.00000000000E+00  0.91244771098E+03  0.91244771098E+03  0.00000000000E+00 0.  1.
          1   -1    0    0  501    0  0.00000000000E+00 -0.00000000000E+00 -0.16781858174E+02  0.16781858174E+02  0.00000000000E+00 0. -1.
         25    2    1    2    0    0 -0.27018253457E+00 -0.21267360225E+02  0.71283861019E+03  0.72404167488E+03  0.12508033088E+03 0.  0.
          5    1    3    3  502    0 -0.26726782907E+02 -0.21594147036E+02  0.50858417898E+02  0.61519746276E+02  0.41800000000E+01 0. -1.
         -5    1    3    3    0  502  0.26456600372E+02  0.32678681073E+00  0.66198019229E+03  0.66252192860E+03  0.41800000000E+01 0. -1.
        -11    1    1    2    0    0 -0.87463871318E+01  0.42084985878E+02  0.17646719708E+03  0.18162686192E+03  0.00000000000E+00 0.  1.
         11    1    1    2    0    0  0.90165696663E+01 -0.20817625653E+02  0.63600455293E+01  0.23561032353E+02  0.00000000000E+00 0. -1.
</event>
<event>
 7    1  0.2480409E-009  0.1478531E+03  0.7561462E-02  0.1203136E+00
          1   -1    0    0  501    0  0.00000000000E+00  0.00000000000E+00  0.11457382901E+03  0.11457382901E+03  0.00000000000E+00 0. -1.
         -1   -1    0    0    0  501 -0.00000000000E+00 -0.00000000000E+00 -0.20905525808E+03  0.20905525808E+03  0.00000000000E+00 0.  1.
         25    2    1    2    0    0 -0.10416336956E+03  0.58198760985E+02 -0.60234884214E+02  0.18306151836E+03  0.12508467088E+03 0.  0.
          5    1    3    3  502    0  0.17884316874E+02  0.46333283299E+02 -0.12301197628E+02  0.51336281463E+02  0.41800000000E+01 0. -1.
         -5    1    3    3    0  502 -0.12204768644E+03  0.11865477686E+02 -0.47933686586E+02  0.13172523689E+03  0.41800000000E+01 0. -1.
        -11    1    1    2    0    0  0.25449314016E+02 -0.30506707303E+02 -0.40699783952E+02  0.56875295059E+02  0.00000000000E+00 0.  1.
         11    1    1    2    0    0  0.78714055544E+02 -0.27692053682E+02  0.64532391004E+01  0.83692273671E+02  0.00000000000E+00 0. -1.
</event>
<event>
 7    1  0.2480409E-009  0.1201656E+03  0.7561462E-02  0.1242824E+00
          2   -1    0    0  501    0  0.00000000000E+00  0.00000000000E+00  0.12866174842E+04  0.12866174842E+04  0.00000000000E+00 0. -1.
         -2   -1    0    0    0  501 -0.00000000000E+00 -0.00000000000E+00 -0.19825536768E+02  0.19825536768E+02  0.00000000000E+00 0.  1.
         25    2    1    2    0    0  0.87806532390E+02 -0.14771788689E+00  0.99873538575E+03  0.10103615117E+04  0.12509198474E+03 0.  0.
          5    1    3    3  502    0  0.82877703536E+02  0.26585401401E+02  0.95312941725E+03  0.95710430766E+03  0.41800000000E+01 0. -1.
         -5    1    3    3    0  502  0.49288288539E+01 -0.26733119288E+02  0.45605968506E+02  0.53257204058E+02  0.41800000000E+01 0. -1.
        -11    1    1    2    0    0 -0.28864320369E+02 -0.43598844315E+02  0.11552835494E+03  0.12681012977E+03  0.00000000000E+00 0.  1.
         11    1    1    2    0    0 -0.58942212022E+02  0.43746562202E+02  0.15252820673E+03  0.16927137948E+03  0.00000000000E+00 0. -1.
</event>
<event>
 7    1  0.2480409E-009  0.1928077E+03  0.7561462E-02  0.1155953E+00
          2   -1    0    0  501    0  0.00000000000E+00  0.00000000000E+00  0.38112448625E+03  0.38112448625E+03  0.00000000000E+00 0. -1.
         -2   -1    0    0    0  501 -0.00000000000E+00 -0.00000000000E+00 -0.13126431612E+03  0.13126431612E+03  0.00000000000E+00 0.  1.
         25    2    1    2    0    0  0.43611859233E+02  0.17417425298E+03  0.88131768896E+02  0.23590412846E+03  0.12507951259E+03 0.  0.
          5    1    3    3  502    0 -0.29252699456E+02  0.86122544321E+02 -0.75967970467E+00  0.91054173869E+02  0.41800000000E+01 0. -1.
         -5    1    3    3    0  502  0.72864558690E+02  0.88051708656E+02  0.88891448601E+02  0.14484995459E+03  0.41800000000E+01 0. -1.
        -11    1    1    2    0    0 -0.77289787660E+01 -0.60560164059E+02 -0.15445725340E+02  0.62974923699E+02  0.00000000000E+00 0.  1.
         11    1    1    2    0    0 -0.35882880467E+02 -0.11361408892E+03  0.17717412657E+03  0.21350975021E+03  0.00000000000E+00 0. -1.
</event>
<event>
 7    1  0.2480409E-009  0.7616096E+02  0.7561462E-02  0.1340313E+00
         -1   -1    0    0    0  501 -0.00000000000E+00  0.00000000000E+00  0.37530644039E+02  0.37530644039E+02  0.00000000000E+00 0.  1.
          1   -1    0    0  501    0  0.00000000000E+00 -0.00000000000E+00 -0.37534622281E+03  0.37534622281E+03  0.00000000000E+00 0. -1.
         25    2    1    2    0    0 -0.31031218368E+02  0.44508086129E+02 -0.20527006125E+03  0.24643014600E+03  0.12509241610E+03 0.  0.
          5    1    3    3  502    0 -0.40250968159E+02  0.42400744103E+02 -0.22042450211E+03  0.22808418856E+03  0.41800000000E+01 0. -1.
         -5    1    3    3    0  502  0.92197497917E+01  0.21073420254E+01  0.15154440860E+02  0.18345957441E+02  0.41800000000E+01 0. -1.
        -11    1    1    2    0    0  0.48121330789E+02 -0.17099630058E+02 -0.30664719728E+02  0.59568320952E+02  0.00000000000E+00 0.  1.
         11    1    1    2    0    0 -0.17090112421E+02 -0.27408456070E+02 -0.10188079779E+03  0.10687839990E+03  0.00000000000E+00 0. -1.
</event>
<event>
 7    1  0.2480409E-009  0.9745667E+02  0.7561462E-02  0.1285737E+00
          1   -1    0    0  501    0  0.00000000000E+00  0.00000000000E+00  0.47104312274E+02  0.47104312274E+02  0.00000000000E+00 0. -1.
         -1   -1    0    0    0  501 -0.00000000000E+00 -0.00000000000E+00 -0.36769076629E+03  0.36769076629E+03  0.00000000000E+00 0.  1.
         25    2    1    2    0    0 -0.67225074327E+02 -0.16157315028E+02 -0.13346489115E+03  0.19555262397E+03  0.12509069560E+03 0.  0.
          5    1    3    3  502    0 -0.60992577619E+02 -0.42938152441E+02 -0.14679409576E+03  0.16471113627E+03  0.41800000000E+01 0. -1.
         -5    1    3    3    0  502 -0.62324967090E+01  0.26780837413E+02  0.13329204618E+02  0.30841487700E+02  0.41800000000E+01 0. -1.
        -11    1    1    2    0    0  0.28548626056E+02 -0.23516134253E+02 -0.14500010640E+03  0.14964312037E+03  0.00000000000E+00 0.  1.
         11    1    1    2    0    0  0.38676448272E+02  0.39673449281E+02 -0.42121456471E+02  0.69599334221E+02  0.00000000000E+00 0. -1.
</event>
<event>
 7    1  0.2480409E-009  0.1270385E+03  0.7561462E-02  0.1231917E+00
         -1   -1    0    0    0  501 -0.00000000000E+00  0.00000000000E+00  0.14947096726E+03  0.14947096726E+03  0.00000000000E+00 0.  1.
          1   -1    0    0  501    0  0.00000000000E+00 -0.00000000000E+00 -0.13006913088E+03  0.13006913088E+03  0.00000000000E+00 0. -1.
         25    2    1    2    0    0 -0.81487912399E+02 -0.31776739602E+02  0.28823589744E+01  0.15266577145E+03  0.12509391964E+03 0.  0.
          5    1    3    3  502    0 -0.29930027155E+02 -0.77562308502E+02 -0.33218478693E+01  0.83308014614E+02  0.41800000000E+01 0.  1.
         -5    1    3    3    0  502 -0.51557885243E+02  0.45785568900E+02  0.62042068437E+01  0.69357756832E+02  0.41800000000E+01 0.  1.
        -11    1    1    2    0    0  0.48190830919E+02 -0.90907769100E+01  0.45345927454E+02  0.66792600983E+02  0.00000000000E+00 0.  1.
         11    1    1    2    0    0  0.33297081480E+02  0.40867516512E+02 -0.28826450052E+02  0.60081725704E+02  0.00000000000E+00 0. -1.
</event>
<event>
 7    1  0.2480409E-009  0.2853372E+03  0.7561462E-02  0.1092809E+00
          2   -1    0    0  501    0  0.00000000000E+00  0.00000000000E+00  0.85468809274E+03  0.85468809274E+03  0.00000000000E+00 0. -1.
         -2   -1    0    0    0  501 -0.00000000000E+00 -0.00000000000E+00 -0.15338677794E+03  0.15338677794E+03  0.00000000000E+00 0.  1.
         25    2    1    2    0    0 -0.10301916625E+03  0.25847218538E+03  0.70903122196E+02  0.31320287221E+03  0.12509183502E+03 0.  0.
          5    1    3    3  502    0 -0.16523058278E+02  0.18505802361E+01 -0.21079230735E+02  0.27170617778E+02  0.41800000000E+01 0. -1.
         -5    1    3    3    0  502 -0.86496107976E+02  0.25662160515E+03  0.91982352930E+02  0.28603225443E+03  0.41800000000E+01 0. -1.
        -11    1    1    2    0    0  0.25644764140E+02 -0.13169144634E+03  0.21193677083E+03  0.25083358188E+03  0.00000000000E+00 0. -1.
         11    1    1    2    0    0  0.77374402114E+02 -0.12678073904E+03  0.41846142178E+03  0.44403841659E+03  0.00000000000E+00 0.  1.
</event>
<event>
 7    1  0.2480409E-009  0.6879620E+02  0.7561462E-02  0.1364235E+00
          3   -1    0    0  501    0  0.00000000000E+00  0.00000000000E+00  0.28872916267E+03  0.28872916267E+03  0.00000000000E+00 0. -1.
         -3   -1    0    0    0  501 -0.00000000000E+00 -0.00000000000E+00 -0.53626743609E+02  0.53626743609E+02  0.00000000000E+00 0.  1.
         25    2    1    2    0    0 -0.61088097089E+01 -0.42247020699E+02  0.74843607548E+02  0.15188185559E+03  0.12507759252E+03 0.  0.
          5    1    3    3  502    0 -0.36408319375E+00  0.24552332422E+02 -0.22529009365E+02  0.33585387402E+02  0.41800000000E+01 0.  1.
         -5    1    3    3    0  502 -0.57447265152E+01 -0.66799353121E+02  0.97372616914E+02  0.11829646818E+03  0.41800000000E+01 0.  1.
        -11    1    1    2    0    0 -0.21591394192E+01  0.33130231505E+02  0.17096665488E+03  0.17416047544E+03  0.00000000000E+00 0. -1.
         11    1    1    2    0    0  0.82679491281E+01  0.91167891931E+01 -0.10707843370E+02  0.16313575256E+02  0.00000000000E+00 0.  1.
</event>
<event>
 7    1  0.2480409E-009  0.1113887E+03  0.7561462E-02  0.1258020E+00
         -1   -1    0    0    0  501 -0.00000000000E+00  0.00000000000E+00  0.43477389909E+02  0.43477389909E+02  0.00000000000E+00 0.  1.
          1   -1    0    0  501    0  0.00000000000E+00 -0.00000000000E+00 -0.30696393412E+03  0.30696393412E+03  0.00000000000E+00 0. -1.
         25    2    1    2    0    0  0.18965322101E+00  0.35519861472E+02 -0.12530029520E+03  0.18058214902E+03  0.12509217417E+03 0.  0.
          5    1    3    3  502    0  0.47070308518E+02 -0.19965728878E+02 -0.79477170517E+02  0.94595651628E+02  0.41800000000E+01 0.  1.
         -5    1    3    3    0  502 -0.46880655297E+02  0.55485590350E+02 -0.45823124685E+02  0.85986497390E+02  0.41800000000E+01 0.  1.
        -11    1    1    2    0    0 -0.40216998460E+02 -0.42022019304E+02 -0.78537853923E+02  0.97731528027E+02  0.00000000000E+00 0.  1.
         11    1    1    2    0    0  0.40027345239E+02  0.65021578324E+01 -0.59648395086E+02  0.72127646986E+02  0.00000000000E+00 0. -1.
</event>
<event>
 7    1  0.2480409E-009  0.1229429E+03  0.7561462E-02  0.1238320E+00
          2   -1    0    0  501    0  0.00000000000E+00  0.00000000000E+00  0.52158117216E+03  0.52158117216E+03  0.00000000000E+00 0. -1.
         -2   -1    0    0    0  501 -0.00000000000E+00 -0.00000000000E+00 -0.34436712914E+02  0.34436712914E+02  0.00000000000E+00 0.  1.
         25    2    1    2    0    0  0.65262296342E+02  0.39806806934E+02  0.27944734004E+03  0.31556684922E+03  0.12509145163E+03 0.  0.
          5    1    3    3  502    0 -0.26111991236E+02  0.22604343307E+02  0.20451327911E+02  0.40354945619E+02  0.41800000000E+01 0. -1.
         -5    1    3    3    0  502  0.91374287578E+02  0.17202463627E+02  0.25899601213E+03  0.27521190360E+03  0.41800000000E+01 0. -1.
        -11    1    1    2    0    0 -0.84810356622E+02 -0.47276089917E+02  0.14633036030E+03  0.17561434911E+03  0.00000000000E+00 0. -1.
         11    1    1    2    0    0  0.19548060279E+02  0.74692829832E+01  0.61366758910E+02  0.64836686745E+02  0.00000000000E+00 0.  1.
</event>
<event>
 7    1  0.2506255E-009  0.9128435E+02  0.7561462E-02  0.1299771E+00
          2   -1    0    0  501    0  0.00000000000E+00  0.00000000000E+00  0.20570041223E+03  0.20570041223E+03  0.00000000000E+00 0. -1.
         -2   -1    0    0    0  501 -0.00000000000E+00 -0.00000000000E+00 -0.78103091299E+02  0.78103091299E+02  0.00000000000E+00 0.  1.
         25    2    1    2    0    0  0.62859478837E+02 -0.12793389005E+02  0.57789669197E+02  0.15198476155E+03  0.12507892307E+03 0.  0.
          5    1    3    3  502    0  0.12523073732E+02  0.11604097855E+02  0.86988683624E+02  0.88746751723E+02  0.41800000000E+01 0.  1.
         -5    1    3    3    0  502  0.50336405104E+02 -0.24397486860E+02 -0.29199014427E+02  0.63238009832E+02  0.41800000000E+01 0.  1.
        -11    1    1    2    0    0 -0.34529542343E+02 -0.37623650410E+02  0.17913672836E+02  0.54117723890E+02  0.00000000000E+00 0.  1.
         11    1    1    2    0    0 -0.28329936494E+02  0.50417039415E+02  0.51893978895E+02  0.77701018081E+02  0.00000000000E+00 0. -1.
</event>
<event>
 7    1  0.2480409E-009  0.1308174E+03  0.7561462E-02  0.1226248E+00
         -4   -1    0    0    0  501 -0.00000000000E+00  0.00000000000E+00  0.23747352780E+03  0.23747352780E+03  0.00000000000E+00 0.  1.
          4   -1    0    0  501    0  0.00000000000E+00 -0.00000000000E+00 -0.11902684724E+03  0.11902684724E+03  0.00000000000E+00 0. -1.
         25    2    1    2    0    0 -0.59961111350E+02  0.47837356603E+02  0.17105123458E+03  0.22536480155E+03  0.12508805446E+03 0.  0.
          5    1    3    3  502    0 -0.76748445400E+02 -0.13932500570E+02  0.12090140617E+03  0.14394117151E+03  0.41800000000E+01 0.  1.
         -5    1    3    3    0  502  0.16787334050E+02  0.61769857173E+02  0.50149828407E+02  0.81423630040E+02  0.41800000000E+01 0.  1.
        -11    1    1    2    0    0  0.58535771705E+02  0.11804805405E+02 -0.19005572110E+02  0.62665794266E+02  0.00000000000E+00 0. -1.
         11    1    1    2    0    0  0.14253396451E+01 -0.59642162008E+02 -0.33598981900E+02  0.68469779223E+02  0.00000000000E+00 0.  1.
</event>
<event>
 7    1  0.2480409E-009  0.1276963E+03  0.7561462E-02  0.1230915E+00
          2   -1    0    0  501    0  0.00000000000E+00  0.00000000000E+00  0.20885058799E+02  0.20885058799E+02  0.00000000000E+00 0. -1.
         -2   -1    0    0    0  501 -0.00000000000E+00 -0.00000000000E+00 -0.99071275472E+03  0.99071275472E+03  0.00000000000E+00 0.  1.
         25    2    1    2    0    0 -0.61137884646E+02  0.68861285243E+02 -0.58439953507E+03  0.60468946522E+03  0.12508723041E+03 0.  0.
          5    1    3    3  502    0 -0.70197132168E+02  0.88782341358E+02 -0.32184786697E+03  0.34119417254E+03  0.41800000000E+01 0. -1.
         -5    1    3    3    0  502  0.90592475220E+01 -0.19921056115E+02 -0.26255166810E+03  0.26349529268E+03  0.41800000000E+01 0. -1.
        -11    1    1    2    0    0  0.19112480120E+02 -0.74987672937E+02 -0.31751594323E+03  0.32681005523E+03  0.00000000000E+00 0.  1.
         11    1    1    2    0    0  0.42025404526E+02  0.61263876940E+01 -0.67912217615E+02  0.80098293073E+02  0.00000000000E+00 0. -1.
</event>
<event>
 7    1  0.2617357E-009  0.1332416E+03  0.7561462E-02  0.1222724E+00
         -1   -1    0    0    0  501 -0.00000000000E+00  0.00000000000E+00  0.74788068745E+02  0.74788068745E+02  0.00000000000E+00 0.  1.
          1   -1    0    0  501    0  0.00000000000E+00 -0.00000000000E+00 -0.30631611009E+03  0.30631611009E+03  0.00000000000E+00 0. -1.
         25    2    1    2    0    0  0.56791160497E+02 -0.72379192525E+02 -0.60764421353E+02  0.16674242888E+03  0.12508692684E+03 0.  0.
          5    1    3    3  502    0  0.69905786893E+02  0.10597623748E+02 -0.33263132187E+02  0.78249837273E+02  0.41800000000E+01 0. -1.
         -5    1    3    3    0  502 -0.13114626396E+02 -0.82976816273E+02 -0.27501289166E+02  0.88492591612E+02  0.41800000000E+01 0. -1.
        -11    1    1    2    0    0 -0.39808674593E+02  0.82622011671E+02 -0.80769182751E+02  0.12220797137E+03  0.00000000000E+00 0.  1.
         11    1    1    2    0    0 -0.16982485904E+02 -0.10242819146E+02 -0.89994437242E+02  0.92153778577E+02  0.00000000000E+00 0. -1.
</event>
<event>
 7    1  0.2480409E-009  0.9136243E+02  0.7561462E-02  0.1299586E+00
         -2   -1    0    0    0  501 -0.00000000000E+00  0.00000000000E+00  0.22682331369E+02  0.22682331369E+02  0.00000000000E+00 0. -1.
          2   -1    0    0  501    0  0.00000000000E+00 -0.00000000000E+00 -0.67322924283E+03  0.67322924283E+03  0.00000000000E+00 0.  1.
         25    2    1    2    0    0 -0.46728541354E+02 -0.67670668731E+01 -0.52527993645E+03  0.54202924505E+03  0.12508933238E+03 0.  0.
          5    1    3    3  502    0 -0.21364579822E+02  0.36927133976E+02 -0.58606030217E+02  0.72609900650E+02  0.41800000000E+01 0.  1.
         -5    1    3    3    0  502 -0.25363961532E+02 -0.43694200849E+02 -0.46667390624E+03  0.46941934440E+03  0.41800000000E+01 0.  1.
        -11    1    1    2    0    0 -0.11673731217E+02 -0.21359265202E+02 -0.29610403786E+02  0.38331060810E+02  0.00000000000E+00 0. -1.
         11    1    1    2    0    0  0.58402272570E+02  0.28126332075E+02 -0.95656571225E+02  0.11555126834E+03  0.00000000000E+00 0.  1.
</event>
<event>
 7    1  0.2480409E-009  0.1174481E+03  0.7561462E-02  0.1247367E+00
         -1   -1    0    0    0  501 -0.00000000000E+00  0.00000000000E+00  0.14061715638E+04  0.14061715638E+04  0.00000000000E+00 0.  1.
          1   -1    0    0  501    0  0.00000000000E+00 -0.00000000000E+00 -0.20404571911E+02  0.20404571911E+02  0.00000000000E+00 0. -1.
         25    2    1    2    0    0 -0.11470117671E+02  0.96609149213E+02  0.10824151832E+04  0.10939534584E+04  0.12508656658E+03 0.  0.
          5    1    3    3  502    0 -0.46567677091E+02  0.86719334270E+02  0.98395184883E+03  0.98887183431E+03  0.41800000000E+01 0. -1.
         -5    1    3    3    0  502  0.35097559420E+02  0.98898149423E+01  0.98463334342E+02  0.10508162412E+03  0.41800000000E+01 0. -1.
        -11    1    1    2    0    0 -0.39497012618E+01 -0.57468832614E+02  0.51461014531E+02  0.77243141305E+02  0.00000000000E+00 0. -1.
         11    1    1    2    0    0  0.15419818933E+02 -0.39140316598E+02  0.25189079420E+03  0.25537953599E+03  0.00000000000E+00 0.  1.
</event>
<event>
 7    1  0.2480409E-009  0.1061367E+03  0.7561462E-02  0.1267896E+00
         -1   -1    0    0    0  501 -0.00000000000E+00  0.00000000000E+00  0.18424266710E+03  0.18424266710E+03  0.00000000000E+00 0.  1.
          1   -1    0    0  501    0  0.00000000000E+00 -0.00000000000E+00 -0.10057691459E+03  0.10057691459E+03  0.00000000000E+00 0. -1.
         25    2    1    2    0    0  0.33764062235E+02 -0.75187981976E+02  0.57652676058E+02  0.16051428530E+03  0.12509100766E+03 0.  0.
          5    1    3    3  502    0  0.42907142903E+02 -0.80067428118E+02 -0.10419813804E+02  0.91530655396E+02  0.41800000000E+01 0.  1.
         -5    1    3    3    0  502 -0.91430806680E+01  0.48794461419E+01  0.68072489862E+02  0.68983629904E+02  0.41800000000E+01 0.  1.
        -11    1    1    2    0    0 -0.54327850331E+02  0.33898558003E+02  0.40725036170E+02  0.75889104142E+02  0.00000000000E+00 0.  1.
         11    1    1    2    0    0  0.20563788096E+02  0.41289423973E+02 -0.14711959725E+02  0.48416192248E+02  0.00000000000E+00 0. -1.
</event>
<event>
 7    1  0.2480409E-009  0.7231923E+02  0.7561462E-02  0.1352379E+00
         -1   -1    0    0    0  501 -0.00000000000E+00  0.00000000000E+00  0.16146879046E+03  0.16146879046E+03  0.00000000000E+00 0.  1.
          1   -1    0    0  501    0  0.00000000000E+00 -0.00000000000E+00 -0.75860328995E+02  0.75860328995E+02  0.00000000000E+00 0. -1.
         25    2    1    2    0    0 -0.10818855988E+01 -0.14596123898E+02  0.65056314677E+02  0.14175645896E+03  0.12509337420E+03 0.  0.
          5    1    3    3  502    0  0.17522149483E+02 -0.27217560193E+02  0.97072579212E+02  0.10241278895E+03  0.41800000000E+01 0.  1.
         -5    1    3    3    0  502 -0.18604035081E+02  0.12621436296E+02 -0.32016264535E+02  0.39343670015E+02  0.41800000000E+01 0.  1.
        -11    1    1    2    0    0 -0.41368316461E+02  0.20679496369E+02  0.24800280518E+02  0.52478882331E+02  0.00000000000E+00 0.  1.
         11    1    1    2    0    0  0.42450202060E+02 -0.60833724717E+01 -0.42481337338E+01  0.43093778156E+02  0.00000000000E+00 0. -1.
</event>
<event>
 7    1  0.2480409E-009  0.1095240E+03  0.7561462E-02  0.1261454E+00
          2   -1    0    0  501    0  0.00000000000E+00  0.00000000000E+00  0.38710275706E+03  0.38710275706E+03  0.00000000000E+00 0. -1.
         -2   -1    0    0    0  501 -0.00000000000E+00 -0.00000000000E+00 -0.60376936091E+02  0.60376936091E+02  0.00000000000E+00 0.  1.
         25    2    1    2    0    0 -0.14843924856E+02 -0.93487926323E+02  0.24537523657E+03  0.29123423166E+03  0.12509211204E+03 0.  0.
          5    1    3    3  502    0  0.30296433349E+02 -0.42035985124E+02  0.20536277610E+03  0.21184012870E+03  0.41800000000E+01 0.  1.
         -5    1    3    3    0  502 -0.45140358206E+02 -0.51451941199E+02  0.40012460473E+02  0.79394102962E+02  0.41800000000E+01 0.  1.
        -11    1    1    2    0    0 -0.79737690920E+01  0.29337698289E+02  0.82734968126E+02  0.88143953197E+02  0.00000000000E+00 0.  1.
         11    1    1    2    0    0  0.22817693948E+02  0.64150228034E+02 -0.13843837267E+01  0.68101508297E+02  0.00000000000E+00 0. -1.
</event>
<event>
 7    1  0.2480409E-009  0.8428392E+02  0.7561462E-02  0.1317316E+00
          1   -1    0    0  501    0  0.00000000000E+00  0.00000000000E+00  0.62893684396E+02  0.62893684396E+02  0.00000000000E+00 0. -1.
         -1   -1    0    0    0  501 -0.00000000000E+00 -0.00000000000E+00 -0.20934696045E+03  0.20934696045E+03  0.00000000000E+00 0.  1.
         25    2    1    2    0    0 -0.23570800135E+02 -0.16493077211E+02 -0.10719182117E+03  0.16723113474E+03  0.12509421124E+03 0.  0.
          5    1    3    3  502    0  0.13530162381E+02 -0.50811873601E+02 -0.10376578549E+03  0.11640327500E+03  0.41800000000E+01 0. -1.
         -5    1    3    3    0  502 -0.37100962516E+02  0.34318796390E+02 -0.34260356846E+01  0.50827859740E+02  0.41800000000E+01 0. -1.
        -11    1    1    2    0    0  0.41874318383E+02  0.20105086433E+02 -0.60800557445E+02  0.76513925700E+02  0.00000000000E+00 0.  1.
         11    1    1    2    0    0 -0.18303518248E+02 -0.36120092218E+01  0.21539102568E+02  0.28495584400E+02  0.00000000000E+00 0. -1.
</event>
<event>
 7    1  0.2480409E-009  0.1385574E+03  0.7561462E-02  0.1215283E+00
          2   -1    0    0  501    0  0.00000000000E+00  0.00000000000E+00  0.85230115156E+03  0.85230115156E+03  0.00000000000E+00 0. -1.
         -2   -1    0    0    0  501 -0.00000000000E+00 -0.00000000000E+00 -0.29030426300E+02  0.29030426300E+02  0.00000000000E+00 0.  1.
         25    2    1    2    0    0  0.56776839696E+02 -0.98691106878E+02  0.45778265301E+03  0.48803219609E+03  0.12508766092E+03 0.  0.
          5    1    3    3  502    0  0.75412488360E+02 -0.10156370080E+03  0.25857133172E+03  0.28788684358E+03  0.41800000000E+01 0. -1.
         -5    1    3    3    0  502 -0.18635648664E+02  0.28725939252E+01  0.19921132130E+03  0.20014535251E+03  0.41800000000E+01 0. -1.
        -11    1    1    2    0    0 -0.13416983662E+02  0.84574968191E+02  0.30930466765E+03  0.32093974221E+03  0.00000000000E+00 0. -1.
         11    1    1    2    0    0 -0.43359856034E+02  0.14116138687E+02  0.56183404595E+02  0.72359639570E+02  0.00000000000E+00 0.  1.
</event>
<event>
 7    1  0.2597409E-009  0.1160403E+03  0.7561462E-02  0.1249776E+00
          2   -1    0    0  501    0  0.00000000000E+00  0.00000000000E+00  0.40332855455E+03  0.40332855455E+03  0.00000000000E+00 0. -1.
         -2   -1    0    0    0  501 -0.00000000000E+00 -0.00000000000E+00 -0.59147112164E+02  0.59147112164E+02  0.00000000000E+00 0.  1.
         25    2    1    2    0    0 -0.54869605499E+02 -0.88458474957E+02  0.23706854566E+03  0.28755031355E+03  0.12509241417E+03 0.  0.
          5    1    3    3  502    0 -0.51459554335E+02 -0.47462083779E+02  0.23598626791E+03  0.24618636471E+03  0.41800000000E+01 0.  1.
         -5    1    3    3    0  502 -0.34100511634E+01 -0.40996391177E+02  0.10822777512E+01  0.41363948840E+02  0.41800000000E+01 0.  1.
        -11    1    1    2    0    0  0.55041042056E+02  0.31055631216E+02  0.98281318734E+02  0.11684684914E+03  0.00000000000E+00 0. -1.
         11    1    1    2    0    0 -0.17143655740E+00  0.57402843741E+02  0.88315779915E+01  0.58078504025E+02  0.00000000000E+00 0.  1.
</event>
<event>
 7    1  0.2480409E-009  0.1055422E+03  0.7561462E-02  0.1269055E+00
         -4   -1    0    0    0  501 -0.00000000000E+00  0.00000000000E+00  0.11590622490E+03  0.11590622490E+03  0.00000000000E+00 0.  1.
          4   -1    0    0  501    0  0.00000000000E+00 -0.00000000000E+00 -0.11095615290E+03  0.11095615290E+03  0.00000000000E+00 0. -1.
         25    2    1    2    0    0  0.22418281477E+01  0.32613957041E+02  0.13128326321E+02  0.12995434331E+03  0.12508829844E+03 0.  0.
          5    1    3    3  502    0  0.20106381750E+01 -0.47939119582E+02 -0.40749263298E+00  0.48164720516E+02  0.41800000000E+01 0. -1.
         -5    1    3    3    0  502  0.23118997276E+00  0.80553076623E+02  0.13535818954E+02  0.81789622795E+02  0.41800000000E+01 0. -1.
        -11    1    1    2    0    0  0.33257352790E+02 -0.32869410013E+02  0.20708694647E+02  0.51140000617E+02  0.00000000000E+00 0.  1.
         11    1    1    2    0    0 -0.35499180937E+02  0.25545297240E+00 -0.28886948972E+02  0.45768033870E+02  0.00000000000E+00 0. -1.
</event>
<event>
 7    1  0.2480409E-009  0.3049407E+03  0.7561462E-02  0.1082797E+00
          2   -1    0    0  501    0  0.00000000000E+00  0.00000000000E+00  0.27116575751E+03  0.27116575751E+03  0.00000000000E+00 0. -1.
         -2   -1    0    0    0  501 -0.00000000000E+00 -0.00000000000E+00 -0.48280167331E+03  0.48280167331E+03  0.00000000000E+00 0.  1.
         25    2    1    2    0    0 -0.18172029510E+03 -0.23122548569E+03  0.74387314834E+02  0.32813319518E+03  0.12510167977E+03 0.  0.
          5    1    3    3  502    0 -0.13465859288E+03 -0.14451162760E+03  0.10630369135E+03  0.22435350308E+03  0.41800000000E+01 0. -1.
         -5    1    3    3    0  502 -0.47061702223E+02 -0.86713858096E+02 -0.31916376521E+02  0.10377969210E+03  0.41800000000E+01 0. -1.
        -11    1    1    2    0    0  0.18018108102E+03  0.15602986442E+03 -0.19646369485E+03  0.30888270256E+03  0.00000000000E+00 0.  1.
         11    1    1    2    0    0  0.15392140844E+01  0.75195621277E+02 -0.89559535791E+02  0.11695153308E+03  0.00000000000E+00 0. -1.
</event>
<event>
 7    1  0.2480409E-009  0.8233736E+02  0.7561462E-02  0.1322546E+00
         -2   -1    0    0    0  501 -0.00000000000E+00  0.00000000000E+00  0.21053922312E+03  0.21053922312E+03  0.00000000000E+00 0.  1.
          2   -1    0    0  501    0  0.00000000000E+00 -0.00000000000E+00 -0.68090437806E+02  0.68090437806E+02  0.00000000000E+00 0. -1.
         25    2    1    2    0    0  0.13162835811E+02  0.10518702463E+02  0.14091021116E+03  0.18917441196E+03  0.12508943674E+03 0.  0.
          5    1    3    3  502    0 -0.20918374635E+02  0.30347307090E+02 -0.54909941512E+01  0.37498811471E+02  0.41800000000E+01 0.  1.
         -5    1    3    3    0  502  0.34081210446E+02 -0.19828604627E+02  0.14640120531E+03  0.15167560049E+03  0.41800000000E+01 0.  1.
        -11    1    1    2    0    0  0.29288354438E+01  0.37331364641E+02  0.87624987096E+01  0.38457642240E+02  0.00000000000E+00 0.  1.
         11    1    1    2    0    0 -0.16091671255E+02 -0.47850067104E+02 -0.72239245579E+01  0.50997606724E+02  0.00000000000E+00 0. -1.
</event>
<event>
 7    1  0.2480409E-009  0.1413183E+03  0.7561462E-02  0.1211566E+00
         -2   -1    0    0    0  501 -0.00000000000E+00  0.00000000000E+00  0.12627927272E+03  0.12627927272E+03  0.00000000000E+00 0.  1.
          2   -1    0    0  501    0  0.00000000000E+00 -0.00000000000E+00 -0.22641015221E+03  0.22641015221E+03  0.00000000000E+00 0. -1.
         25    2    1    2    0    0 -0.96269950939E+02  0.40597976545E+02  0.26104877981E+02  0.16505945369E+03  0.12508820665E+03 0.  0.
          5    1    3    3  502    0 -0.48164689788E+02 -0.44048773351E+02  0.13692699138E+02  0.66821360251E+02  0.41800000000E+01 0.  1.
         -5    1    3    3    0  502 -0.48105261151E+02  0.84646749896E+02  0.12412178844E+02  0.98238093436E+02  0.41800000000E+01 0.  1.
        -11    1    1    2    0    0  0.63707002233E+02 -0.55012084261E+02 -0.37754156005E+02  0.92251221368E+02  0.00000000000E+00 0.  1.
         11    1    1    2    0    0  0.32562948706E+02  0.14414107716E+02 -0.88481601468E+02  0.95378749876E+02  0.00000000000E+00 0. -1.
</event>
<event>
 7    1  0.2480409E-009  0.1041557E+03  0.7561462E-02  0.1271792E+00
         -1   -1    0    0    0  501 -0.00000000000E+00  0.00000000000E+00  0.61308894695E+02  0.61308894695E+02  0.00000000000E+00 0.  1.
          1   -1    0    0  501    0  0.00000000000E+00 -0.00000000000E+00 -0.34166149693E+03  0.34166149693E+03  0.00000000000E+00 0. -1.
         25    2    1    2    0    0 -0.53084027919E+01  0.43458887208E+02 -0.27024448856E+03  0.30099135603E+03  0.12508740460E+03 0.  0.
          5    1    3    3  502    0  0.45445477217E+02  0.29270441765E+02 -0.47571160228E+02  0.72128620159E+02  0.41800000000E+01 0. -1.
         -5    1    3    3    0  502 -0.50753880009E+02  0.14188445443E+02 -0.22267332833E+03  0.22886273587E+03  0.41800000000E+01 0. -1.
        -11    1    1    2    0    0 -0.40877769602E+02 -0.51077251532E+01 -0.61677138894E+00  0.41200258626E+02  0.00000000000E+00 0.  1.
         11    1    1    2    0    0  0.46186172394E+02 -0.38351162055E+02 -0.94913422867E+01  0.60778776969E+02  0.00000000000E+00 0. -1.
</event>
<event>
 7    1  0.2984910E-009  0.1060450E+03  0.7561462E-02  0.1268074E+00
          2   -1    0    0  501    0  0.00000000000E+00  0.00000000000E+00  0.46803780472E+03  0.46803780472E+03  0.00000000000E+00 0. -1.
         -2   -1    0    0    0  501 -0.00000000000E+00 -0.00000000000E+00 -0.27638967115E+02  0.27638967115E+02  0.00000000000E+00 0.  1.
         25    2    1    2    0    0 -0.32432830895E+02  0.18828453151E+00  0.27590623144E+03  0.30467110252E+03  0.12509319802E+03 0.  0.
          5    1    3    3  502    0  0.15237197552E+02 -0.48805413347E+02  0.17760593200E+03  0.18486611383E+03  0.41800000000E+01 0.  1.
         -5    1    3    3    0  502 -0.47670028447E+02  0.48993697879E+02  0.98300299435E+02  0.11980498868E+03  0.41800000000E+01 0.  1.
        -11    1    1    2    0    0 -0.27248484358E+02 -0.14592969286E+02  0.85789835097E+02  0.91188433797E+02  0.00000000000E+00 0. -1.
         11    1    1    2    0    0  0.59681315253E+02  0.14404684754E+02  0.78702771069E+02  0.99817235522E+02  0.00000000000E+00 0.  1.
</event>
<event>
 7    1  0.2480409E-009  0.9455410E+02  0.7561462E-02  0.1292184E+00
          2   -1    0    0  501    0  0.00000000000E+00  0.00000000000E+00  0.66391470047E+03  0.66391470047E+03  0.00000000000E+00 0. -1.
         -2   -1    0    0    0  501 -0.00000000000E+00 -0.00000000000E+00 -0.39229254123E+02  0.39229254123E+02  0.00000000000E+00 0.  1.
         25    2    1    2    0    0  0.78228993554E+01 -0.14734250073E+02  0.59122350256E+03  0.60454186701E+03  0.12508934054E+03 0.  0.
          5    1    3    3  502    0  0.50886780629E+02  0.22551639943E+02  0.15799761512E+03  0.16756717963E+03  0.41800000000E+01 0.  1.
         -5    1    3    3    0  502 -0.43063881273E+02 -0.37285890016E+02  0.43322588744E+03  0.43697468738E+03  0.41800000000E+01 0.  1.
        -11    1    1    2    0    0 -0.33252934107E+02  0.31429037321E+02  0.46742118771E+02  0.65409232382E+02  0.00000000000E+00 0. -1.
         11    1    1    2    0    0  0.25430034751E+02 -0.16694787248E+02 -0.13280174980E+02  0.33192855198E+02  0.00000000000E+00 0.  1.
</event>
<event>
 7    1  0.2480409E-009  0.1867764E+03  0.7561462E-02  0.1161401E+00
          1   -1    0    0  501    0  0.00000000000E+00  0.00000000000E+00  0.39408990380E+03  0.39408990380E+03  0.00000000000E+00 0. -1.
         -1   -1    0    0    0  501 -0.00000000000E+00 -0.00000000000E+00 -0.11029061728E+03  0.11029061728E+03  0.00000000000E+00 0.  1.
         25    2    1    2    0    0 -0.37264728750E+01  0.16196213670E+03  0.23420789370E+03  0.31104056189E+03  0.12508906165E+03 0.  0.
          5    1    3    3  502    0 -0.17842896435E+02 -0.67435293324E+01 -0.28223897422E+01  0.19730241380E+02  0.41800000000E+01 0. -1.
         -5    1    3    3    0  502  0.14116423560E+02  0.16870566604E+03  0.23703028344E+03  0.29131032051E+03  0.41800000000E+01 0. -1.
        -11    1    1    2    0    0  0.43041483523E+02 -0.49783280700E+02  0.31997099671E+02  0.73176216959E+02  0.00000000000E+00 0. -1.
         11    1    1    2    0    0 -0.39315010648E+02 -0.11217885600E+03  0.17594293149E+02  0.12016374224E+03  0.00000000000E+00 0.  1.
</event>
<event>
 7    1  0.2480409E-009  0.6772630E+02  0.7561462E-02  0.1368000E+00
         -1   -1    0    0    0  501 -0.00000000000E+00  0.00000000000E+00  0.20361720518E+03  0.20361720518E+03  0.00000000000E+00 0.  1.
          1   -1    0    0  501    0  0.00000000000E+00 -0.00000000000E+00 -0.58866536450E+02  0.58866536450E+02  0.00000000000E+00 0. -1.
         25    2    1    2    0    0 -0.12056181281E+02 -0.18370589599E+02  0.61779141957E+02  0.14123409465E+03  0.12509027557E+03 0.  0.
          5    1    3    3  502    0  0.34461374956E+02 -0.11063332165E+02  0.82067216130E+02  0.89791336140E+02  0.41800000000E+01 0. -1.
         -5    1    3    3    0  502 -0.46517556237E+02 -0.73072574335E+01 -0.20288074173E+02  0.51442758510E+02  0.41800000000E+01 0. -1.
        -11    1    1    2    0    0  0.16638091487E+02  0.32706285286E+02  0.95091523361E+02  0.10192607616E+03  0.00000000000E+00 0.  1.
         11    1    1    2    0    0 -0.45819102063E+01 -0.14335695687E+02 -0.12119996590E+02  0.19323570822E+02  0.00000000000E+00 0. -1.
</event>
<event>
 7    1  0.2480409E-009  0.3013309E+03  0.7561462E-02  0.1084577E+00
          2   -1    0    0  501    0  0.00000000000E+00  0.00000000000E+00  0.28326832097E+04  0.28326832097E+04  0.00000000000E+00 0. -1.
         -2   -1    0    0    0  501 -0.00000000000E+00 -0.00000000000E+00 -0.45772518103E+02  0.45772518103E+02  0.00000000000E+00 0.  1.
         25    2    1    2    0    0 -0.28951623052E+03  0.12672888270E+02  0.21471146547E+04  0.21701912896E+04  0.12509453637E+03 0.  0.
          5    1    3    3  502    0 -0.93639810504E+02 -0.49345340257E+02  0.90700446483E+03  0.91316917837E+03  0.41800000000E+01 0. -1.
         -5    1    3    3    0  502 -0.19587642001E+03  0.62018228528E+02  0.12401101899E+04  0.12570221112E+04  0.41800000000E+01 0. -1.
        -11    1    1    2    0    0  0.14789787337E+03 -0.20931545324E+02  0.22667045663E+03  0.27146161136E+03  0.00000000000E+00 0.  1.
         11    1    1    2    0    0  0.14161835715E+03  0.82586570533E+01  0.41312558030E+03  0.43680282691E+03  0.00000000000E+00 0. -1.
</event>
<event>
 7    1  0.2480409E-009  0.1706441E+03  0.7561462E-02  0.1177178E+00
         -2   -1    0    0    0  501 -0.00000000000E+00  0.00000000000E+00  0.52786030112E+02  0.52786030112E+02  0.00000000000E+00 0.  1.
          2   -1    0    0  501    0  0.00000000000E+00 -0.00000000000E+00 -0.66418488032E+03  0.66418488032E+03  0.00000000000E+00 0. -1.
         25    2    1    2    0    0 -0.11170488945E+03 -0.73734078770E+02 -0.45952339043E+03  0.49469652418E+03  0.12509279749E+03 0.  0.
          5    1    3    3  502    0 -0.28569046747E+01 -0.74090723214E+02 -0.18381521608E+03  0.19825010273E+03  0.41800000000E+01 0.  1.
         -5    1    3    3    0  502 -0.10884798478E+03  0.35664444363E+00 -0.27570817435E+03  0.29644642145E+03  0.41800000000E+01 0.  1.
        -11    1    1    2    0    0  0.10268738361E+03  0.21275810437E+02 -0.12328746032E+03  0.16185535745E+03  0.00000000000E+00 0. -1.
         11    1    1    2    0    0  0.90175058395E+01  0.52458268334E+02 -0.28587999457E+02  0.60419028800E+02  0.00000000000E+00 0.  1.
</event>
<event>
 7    1  0.2480409E-009  0.1149150E+03  0.7561462E-02  0.1251729E+00
          2   -1    0    0  501    0  0.00000000000E+00  0.00000000000E+00  0.78635780781E+03  0.78635780781E+03  0.00000000000E+00 0. -1.
         -2   -1    0    0    0  501 -0.00000000000E+00 -0.00000000000E+00 -0.26323107765E+02  0.26323107765E+02  0.00000000000E+00 0.  1.
         25    2    1    2    0    0 -0.12644665893E+02  0.61900905926E+02  0.60386707939E+03  0.61991510956E+03  0.12509070212E+03 0.  0.
          5    1    3    3  502    0 -0.32977950273E+02  0.86786535631E+02  0.54360554967E+03  0.55149244238E+03  0.41800000000E+01 0. -1.
         -5    1    3    3    0  502  0.20333284380E+02 -0.24885629705E+02  0.60261529721E+02  0.68422667178E+02  0.41800000000E+01 0. -1.
        -11    1    1    2    0    0 -0.62971433164E+01  0.19718494022E+02  0.73203325369E+01  0.21955871399E+02  0.00000000000E+00 0.  1.
         11    1    1    2    0    0  0.18941809209E+02 -0.81619399948E+02  0.14884728812E+03  0.17080993462E+03  0.00000000000E+00 0. -1.
</event>
<event>
 7    1  0.2480409E-009  0.1673486E+03  0.7561462E-02  0.1180641E+00
         -1   -1    0    0    0  501 -0.00000000000E+00  0.00000000000E+00  0.39087815804E+02  0.39087815804E+02  0.00000000000E+00 0.  1.
          1   -1    0    0  501    0  0.00000000000E+00 -0.00000000000E+00 -0.82163582285E+03  0.82163582285E+03  0.00000000000E+00 0. -1.
         25    2    1    2    0    0 -0.11638558002E+03  0.82613143108E+02 -0.38349500644E+03  0.42788818648E+03  0.12509734415E+03 0.  0.
          5    1    3    3  502    0 -0.98984058598E+01  0.69542735764E+02 -0.23032909437E+03  0.24083839945E+03  0.41800000000E+01 0.  1.
         -5    1    3    3    0  502 -0.10648717416E+03  0.13070407344E+02 -0.15316591208E+03  0.18704978704E+03  0.41800000000E+01 0.  1.
        -11    1    1    2    0    0  0.10190617957E+03 -0.35882353611E+02 -0.33652865587E+03  0.35344582181E+03  0.00000000000E+00 0. -1.
         11    1    1    2    0    0  0.14479400445E+02 -0.46730789497E+02 -0.62524344739E+02  0.79389630364E+02  0.00000000000E+00 0.  1.
</event>
<event>
 7    1  0.2480409E-009  0.1130025E+03  0.7561462E-02  0.1255109E+00
         -2   -1    0    0    0  501 -0.00000000000E+00  0.00000000000E+00  0.15047748569E+02  0.15047748569E+02  0.00000000000E+00 0.  1.
          2   -1    0    0  501    0  0.00000000000E+00 -0.00000000000E+00 -0.88678557477E+03  0.88678557477E+03  0.00000000000E+00 0. -1.
         25    2    1    2    0    0 -0.29853802896E+02  0.28768003150E+02 -0.47582957781E+03  0.49374122030E+03  0.12509099869E+03 0.  0.
          5    1    3    3  502    0  0.17942537765E+02 -0.41222688401E+02 -0.12870841803E+03  0.13639858493E+03  0.41800000000E+01 0. -1.
         -5    1    3    3    0  502 -0.47796340661E+02  0.69990691551E+02 -0.34712115979E+03  0.35734263537E+03  0.41800000000E+01 0. -1.
        -11    1    1    2    0    0 -0.22412679769E+02  0.15706539880E+02 -0.16306822220E+03  0.16534893015E+03  0.00000000000E+00 0. -1.
         11    1    1    2    0    0  0.52266482665E+02 -0.44474543030E+02 -0.23284002619E+03  0.24274317289E+03  0.00000000000E+00 0.  1.
</event>
<event>
 7    1  0.2480409E-009  0.1542251E+03  0.7561462E-02  0.1195375E+00
         -2   -1    0    0    0  501 -0.00000000000E+00  0.00000000000E+00  0.46905516889E+03  0.46905516889E+03  0.00000000000E+00 0.  1.
          2   -1    0    0  501    0  0.00000000000E+00 -0.00000000000E+00 -0.82545026668E+02  0.82545026668E+02  0.00000000000E+00 0. -1.
         25    2    1    2    0    0  0.99440623526E+02  0.78484314955E+02  0.56742331957E+02  0.18685875277E+03  0.12509306915E+03 0.  0.
          5    1    3    3  502    0 -0.73576967895E+01 -0.23575853042E+02 -0.68600350436E+01  0.25970926620E+02  0.41800000000E+01 0.  1.
         -5    1    3    3    0  502  0.10679832032E+03  0.10206016800E+03  0.63602367001E+02  0.16088782615E+03  0.41800000000E+01 0.  1.
        -11    1    1    2    0    0 -0.88741795980E+02 -0.43103019119E+02  0.30419765437E+03  0.31979554333E+03  0.00000000000E+00 0.  1.
         11    1    1    2    0    0 -0.10698827546E+02 -0.35381295836E+02  0.25570155896E+02  0.44945899461E+02  0.00000000000E+00 0. -1.
</event>
<event>
 7    1  0.2480409E-009  0.2504059E+03  0.7561462E-02  0.1113049E+00
         -1   -1    0    0    0  501 -0.00000000000E+00  0.00000000000E+00  0.10458531947E+04  0.10458531947E+04  0.00000000000E+00 0.  1.
          1   -1    0    0  501    0  0.00000000000E+00 -0.00000000000E+00 -0.75914194464E+02  0.75914194464E+02  0.00000000000E+00 0. -1.
         25    2    1    2    0    0 -0.16264721330E+03 -0.17767818285E+03  0.30297525001E+03  0.40677391958E+03  0.12508943551E+03 0.  0.
          5    1    3    3  502    0 -0.37010915508E+02 -0.20710156230E+02  0.14474316454E+03  0.15088662803E+03  0.41800000000E+01 0.  1.
         -5    1    3    3    0  502 -0.12563629779E+03 -0.15696802662E+03  0.15823208547E+03  0.25588729155E+03  0.41800000000E+01 0.  1.
        -11    1    1    2    0    0  0.49735776380E+02  0.12086186829E+03  0.36211288983E+03  0.38497660142E+03  0.00000000000E+00 0. -1.
         11    1    1    2    0    0  0.11291143692E+03  0.56816314553E+02  0.30485086037E+03  0.33001686814E+03  0.00000000000E+00 0.  1.
</event>
<event>
 7    1  0.2480409E-009  0.9293403E+02  0.7561462E-02  0.1295898E+00
          2   -1    0    0  501    0  0.00000000000E+00  0.00000000000E+00  0.40656699611E+03  0.40656699611E+03  0.00000000000E+00 0. -1.
         -2   -1    0    0    0  501 -0.00000000000E+00 -0.00000000000E+00 -0.33610273571E+02  0.33610273571E+02  0.00000000000E+00 0.  1.
         25    2    1    2    0    0  0.84441252884E+01  0.24347132409E+02  0.14023624672E+03  0.18967829123E+03  0.12509022008E+03 0.  0.
          5    1    3    3  502    0 -0.47657717197E+01  0.69264663494E+02  0.11957322075E+03  0.13833124633E+03  0.41800000000E+01 0. -1.
         -5    1    3    3    0  502  0.13209897008E+02 -0.44917531085E+02  0.20663025969E+02  0.51347044900E+02  0.41800000000E+01 0. -1.
        -11    1    1    2    0    0  0.22683413339E+01  0.21808171477E+02  0.12499685238E+02  0.25238538917E+02  0.00000000000E+00 0.  1.
         11    1    1    2    0    0 -0.10712466622E+02 -0.46155303887E+02  0.22022079058E+03  0.22526043954E+03  0.00000000000E+00 0. -1.
</event>
<event>
 7    1  0.2480409E-009  0.1470586E+03  0.7561462E-02  0.1204135E+00
         -2   -1    0    0    0  501 -0.00000000000E+00  0.00000000000E+00  0.34368503439E+02  0.34368503439E+02  0.00000000000E+00 0.  1.
          2   -1    0    0  501    0  0.00000000000E+00 -0.00000000000E+00 -0.91163260886E+03  0.91163260886E+03  0.00000000000E+00 0. -1.
         25    2    1    2    0    0 -0.12622607877E+03 -0.16306796658E+02 -0.61133139711E+03  0.63684564342E+03  0.12508941552E+03 0.  0.
          5    1    3    3  502    0 -0.59007876409E+01  0.34988448079E+02 -0.25009289684E+03  0.25263202537E+03  0.41800000000E+01 0. -1.
         -5    1    3    3    0  502 -0.12032529113E+03 -0.51295244737E+02 -0.36123850027E+03  0.38421361805E+03  0.41800000000E+01 0. -1.
        -11    1    1    2    0    0  0.94496145720E+02  0.87362803946E+01 -0.25895606753E+03  0.27579718828E+03  0.00000000000E+00 0. -1.
         11    1    1    2    0    0  0.31729933053E+02  0.75705162634E+01 -0.69766407820E+01  0.33358280600E+02  0.00000000000E+00 0.  1.
</event>
<event>
 7    1  0.2480409E-009  0.1999186E+03  0.7561462E-02  0.1149808E+00
         -2   -1    0    0    0  501 -0.00000000000E+00  0.00000000000E+00  0.49616118142E+02  0.49616118142E+02  0.00000000000E+00 0.  1.
          2   -1    0    0  501    0  0.00000000000E+00 -0.00000000000E+00 -0.96025742319E+03  0.96025742319E+03  0.00000000000E+00 0. -1.
         25    2    1    2    0    0  0.61753370160E+02 -0.17294594892E+03 -0.57124173623E+03  0.61293833952E+03  0.12510997910E+03 0.  0.
          5    1    3    3  502    0  0.31248587129E+02 -0.17941191037E+03 -0.40984297552E+03  0.44850177789E+03  0.41800000000E+01 0. -1.
         -5    1    3    3    0  502  0.30504783031E+02  0.64659614491E+01 -0.16139876070E+03  0.16443656163E+03  0.41800000000E+01 0. -1.
        -11    1    1    2    0    0 -0.61474956703E+02  0.13578354260E+03 -0.32412738657E+03  0.35675608399E+03  0.00000000000E+00 0. -1.
         11    1    1    2    0    0 -0.27841345685E+00  0.37162406325E+02 -0.15272182253E+02  0.40179117819E+02  0.00000000000E+00 0.  1.
</event>
<event>
 7    1  0.2480409E-009  0.1282773E+03  0.7561462E-02  0.1230035E+00
         -1   -1    0    0    0  501 -0.00000000000E+00  0.00000000000E+00  0.85893453086E+02  0.85893453086E+02  0.00000000000E+00 0.  1.
          1   -1    0    0  501    0  0.00000000000E+00 -0.00000000000E+00 -0.24231822981E+03  0.24231822981E+03  0.00000000000E+00 0. -1.
         25    2    1    2    0    0  0.81490477945E+02 -0.37062865061E+02 -0.12060328712E+03  0.19546708733E+03  0.12509146814E+03 0.  0.
          5    1    3    3  502    0  0.10720352854E+03 -0.23909609532E+01 -0.10274063271E+03  0.14856454232E+03  0.41800000000E+01 0.  1.
         -5    1    3    3    0  502 -0.25713050595E+02 -0.34671904108E+02 -0.17862654416E+02  0.46902545007E+02  0.41800000000E+01 0.  1.
        -11    1    1    2    0    0  0.34297530190E+01  0.18674385177E+02  0.21475486588E+02  0.28665177336E+02  0.00000000000E+00 0.  1.
         11    1    1    2    0    0 -0.84920230964E+02  0.18388479884E+02 -0.57296976192E+02  0.10407941824E+03  0.00000000000E+00 0. -1.
</event>
<event>
 7    1  0.2480409E-009  0.1272121E+03  0.7561462E-02  0.1231652E+00
          2   -1    0    0  501    0  0.00000000000E+00  0.00000000000E+00  0.33481520473E+02  0.33481520473E+02  0.00000000000E+00 0. -1.
         -2   -1    0    0    0  501 -0.00000000000E+00 -0.00000000000E+00 -0.74235535325E+03  0.74235535325E+03  0.00000000000E+00 0.  1.
         25    2    1    2    0    0  0.92076757933E+02  0.29329910116E+02 -0.23397849449E+03  0.28236898120E+03  0.12509169710E+03 0.  0.
          5    1    3    3  502    0  0.10480804612E+03  0.32700988083E+02 -0.24243464604E+03  0.26616932798E+03  0.41800000000E+01 0.  1.
         -5    1    3    3    0  502 -0.12731288191E+02 -0.33710779665E+01  0.84561515513E+01  0.16199653228E+02  0.41800000000E+01 0.  1.
        -11    1    1    2    0    0 -0.42291023695E+02  0.31059020781E+02 -0.24687981062E+03  0.25239420427E+03  0.00000000000E+00 0. -1.
         11    1    1    2    0    0 -0.49785734238E+02 -0.60388930897E+02 -0.22801552766E+03  0.24107368824E+03  0.00000000000E+00 0.  1.
</event>
<event>
 7    1  0.2480409E-009  0.8228687E+02  0.7561462E-02  0.1322684E+00
          2   -1    0    0  501    0  0.00000000000E+00  0.00000000000E+00  0.26944253530E+03  0.26944253530E+03  0.00000000000E+00 0. -1.
         -2   -1    0    0    0  501 -0.00000000000E+00 -0.00000000000E+00 -0.65789140245E+02  0.65789140245E+02  0.00000000000E+00 0.  1.
         25    2    1    2    0    0  0.20013803659E+02  0.24626375158E+02  0.28364334114E+02  0.13213153432E+03  0.12508875338E+03 0.  0.
          5    1    3    3  502    0 -0.14750338266E+02  0.22501557342E+02 -0.43982748915E+02  0.51728591358E+02  0.41800000000E+01 0.  1.
         -5    1    3    3    0  502  0.34764141925E+02  0.21248178159E+01  0.72347083029E+02  0.80402942965E+02  0.41800000000E+01 0.  1.
        -11    1    1    2    0    0 -0.23785493937E+02  0.35111738537E+02  0.64924239911E+02  0.77548312895E+02  0.00000000000E+00 0. -1.
         11    1    1    2    0    0  0.37716902773E+01 -0.59738113695E+02  0.11036482103E+03  0.12555182833E+03  0.00000000000E+00 0.  1.
</event>
<event>
 7    1  0.2480409E-009  0.1070119E+03  0.7561462E-02  0.1266206E+00
         -1   -1    0    0    0  501 -0.00000000000E+00  0.00000000000E+00  0.22085033406E+03  0.22085033406E+03  0.00000000000E+00 0.  1.
          1   -1    0    0  501    0  0.00000000000E+00 -0.00000000000E+00 -0.54112522622E+02  0.54112522622E+02  0.00000000000E+00 0. -1.
         25    2    1    2    0    0  0.70255050858E+01  0.12837424657E+02  0.77991500885E+02  0.14813476283E+03  0.12508827505E+03 0.  0.
          5    1    3    3  502    0  0.58863329203E+02 -0.19584772815E+02  0.24640560101E+02  0.66881121800E+02  0.41800000000E+01 0. -1.
         -5    1    3    3    0  502 -0.51837824117E+02  0.32422197472E+02  0.53350940784E+02  0.81253641030E+02  0.41800000000E+01 0. -1.
        -11    1    1    2    0    0  0.33144111492E+02  0.19972194974E+02  0.35979247650E+02  0.52838688100E+02  0.00000000000E+00 0. -1.
         11    1    1    2    0    0 -0.40169616577E+02 -0.32809619631E+02  0.52767062904E+02  0.73989405754E+02  0.00000000000E+00 0.  1.
</event>
<event>
 7    1  0.2480409E-009  0.1581066E+03  0.7561462E-02  0.1190851E+00
         -1   -1    0    0    0  501 -0.00000000000E+00  0.00000000000E+00  0.99955718631E+03  0.99955718631E+03  0.00000000000E+00 0.  1.
          1   -1    0    0  501    0  0.00000000000E+00 -0.00000000000E+00 -0.26560920311E+02  0.26560920311E+02  0.00000000000E+00 0. -1.
         25    2    1    2    0    0 -0.28930760962E+02  0.11716054875E+03  0.45708212811E+03  0.48901466211E+03  0.12509070632E+03 0.  0.
          5    1    3    3  502    0  0.35558007954E+02  0.90611613815E+02  0.32892634611E+03  0.34305225557E+03  0.41800000000E+01 0. -1.
         -5    1    3    3    0  502 -0.64488768916E+02  0.26548934931E+02  0.12815578200E+03  0.14596240654E+03  0.41800000000E+01 0. -1.
        -11    1    1    2    0    0 -0.15474821708E+02 -0.10019603041E+03  0.37019402547E+03  0.38382591250E+03  0.00000000000E+00 0. -1.
         11    1    1    2    0    0  0.44405582670E+02 -0.16964518340E+02  0.14572011242E+03  0.15327753201E+03  0.00000000000E+00 0.  1.
</event>
<event>
 7    1  0.2480409E-009  0.1393046E+03  0.7561462E-02  0.1214268E+00
          1   -1    0    0  501    0  0.00000000000E+00  0.00000000000E+00  0.14215377718E+03  0.14215377718E+03  0.00000000000E+00 0. -1.
         -1   -1    0    0    0  501 -0.00000000000E+00 -0.00000000000E+00 -0.14400121999E+03  0.14400121999E+03  0.00000000000E+00 0.  1.
         25    2    1    2    0    0 -0.54675654870E+02  0.73394541182E+02  0.23713624894E+02  0.15679886301E+03  0.12508941412E+03 0.  0.
          5    1    3    3  502    0 -0.93654716291E+02  0.63454473041E+02  0.82639471229E+01  0.11350524770E+03  0.41800000000E+01 0.  1.
         -5    1    3    3    0  502  0.38979061422E+02  0.99400681410E+01  0.15449677772E+02  0.43293615317E+02  0.41800000000E+01 0.  1.
        -11    1    1    2    0    0  0.24199253316E+02 -0.87928410207E+02 -0.86885538718E+01  0.91610589732E+02  0.00000000000E+00 0.  1.
         11    1    1    2    0    0  0.30476401554E+02  0.14533869025E+02 -0.16872513833E+02  0.37745544420E+02  0.00000000000E+00 0. -1.
</event>
<event>
 7    1  0.3246946E-009  0.9969931E+02  0.7561462E-02  0.1280930E+00
         -2   -1    0    0    0  501 -0.00000000000E+00  0.00000000000E+00  0.35788210758E+02  0.35788210758E+02  0.00000000000E+00 0.  1.
          2   -1    0    0  501    0  0.00000000000E+00 -0.00000000000E+00 -0.41875131476E+03  0.41875131476E+03  0.00000000000E+00 0. -1.
         25    2    1    2    0    0 -0.21957859928E+02 -0.51712028351E+02 -0.19645417025E+03  0.23958041975E+03  0.12509298554E+03 0.  0.
          5    1    3    3  502    0 -0.65846325854E+02 -0.27593679284E+02 -0.57331273428E+02  0.91659680764E+02  0.41800000000E+01 0. -1.
         -5    1    3    3    0  502  0.43888465926E+02 -0.24118349068E+02 -0.13912289682E+03  0.14792073899E+03  0.41800000000E+01 0. -1.
        -11    1    1    2    0    0  0.21076807663E+02 -0.43824786423E+01 -0.14421636340E+01  0.21575860962E+02  0.00000000000E+00 0.  1.
         11    1    1    2    0    0  0.88105226484E+00  0.56094506994E+02 -0.18506677012E+03  0.19338324480E+03  0.00000000000E+00 0. -1.
</event>
<event>
 7    1  0.2480409E-009  0.1273275E+03  0.7561462E-02  0.1231476E+00
          1   -1    0    0  501    0  0.00000000000E+00  0.00000000000E+00  0.35683345694E+03  0.35683345694E+03  0.00000000000E+00 0. -1.
         -1   -1    0    0    0  501 -0.00000000000E+00 -0.00000000000E+00 -0.60454699162E+02  0.60454699162E+02  0.00000000000E+00 0.  1.
         25    2    1    2    0    0 -0.84282737333E+02 -0.43074818953E+02  0.24367116986E+03  0.28979529519E+03  0.12508658702E+03 0.  0.
          5    1    3    3  502    0 -0.35957367870E+02  0.39459711131E+02  0.47794495583E+02  0.71775952203E+02  0.41800000000E+01 0. -1.
         -5    1    3    3    0  502 -0.48325369463E+02 -0.82534530084E+02  0.19587667428E+03  0.21801934299E+03  0.41800000000E+01 0. -1.
        -11    1    1    2    0    0  0.27914159348E+02 -0.82827863729E+01 -0.78038716712E+01  0.30144738434E+02  0.00000000000E+00 0.  1.
         11    1    1    2    0    0  0.56368577985E+02  0.51357605326E+02  0.60511459592E+02  0.97348122482E+02  0.00000000000E+00 0. -1.
</event>
<event>
 7    1  0.2480409E-009  0.1267228E+03  0.7561462E-02  0.1232401E+00
          1   -1    0    0  501    0  0.00000000000E+00  0.00000000000E+00  0.18460380061E+03  0.18460380061E+03  0.00000000000E+00 0. -1.
         -1   -1    0    0    0  501 -0.00000000000E+00 -0.00000000000E+00 -0.98301047842E+02  0.98301047842E+02  0.00000000000E+00 0.  1.
         25    2    1    2    0    0  0.73383832466E+02  0.28103263148E+02  0.47599011058E+02  0.15521948396E+03  0.12510972016E+03 0.  0.
          5    1    3    3  502    0  0.74897022934E+01 -0.37632401027E+02 -0.16659071525E+02  0.42039152128E+02  0.41800000000E+01 0.  1.
         -5    1    3    3    0  502  0.65894130173E+02  0.65735664176E+02  0.64258082583E+02  0.11318033183E+03  0.41800000000E+01 0.  1.
        -11    1    1    2    0    0 -0.61225084277E+02 -0.61109356427E+02  0.27624355503E+02  0.90807320215E+02  0.00000000000E+00 0.  1.
         11    1    1    2    0    0 -0.12158748189E+02  0.33006093278E+02  0.11079386204E+02  0.36878044277E+02  0.00000000000E+00 0. -1.
</event>
<event>
 7    1  0.2480409E-009  0.8979675E+02  0.7561462E-02  0.1303345E+00
         -2   -1    0    0    0  501 -0.00000000000E+00  0.00000000000E+00  0.89592627858E+02  0.89592627858E+02  0.00000000000E+00 0.  1.
          2   -1    0    0  501    0  0.00000000000E+00 -0.00000000000E+00 -0.13285653435E+03  0.13285653435E+03  0.00000000000E+00 0. -1.
         25    2    1    2    0    0  0.12061517828E+02 -0.12287039777E+02 -0.57933544094E+02  0.13892467960E+03  0.12508924619E+03 0.  0.
          5    1    3    3  502    0  0.10079365438E+02 -0.58210131116E+02  0.65930335848E+01  0.59589877195E+02  0.41800000000E+01 0. -1.
         -5    1    3    3    0  502  0.19821523896E+01  0.45923091340E+02 -0.64526577679E+02  0.79334802409E+02  0.41800000000E+01 0. -1.
        -11    1    1    2    0    0  0.15524416520E+02 -0.24029618638E+02  0.23559360135E+02  0.37060403804E+02  0.00000000000E+00 0.  1.
         11    1    1    2    0    0 -0.27585934347E+02  0.36316658415E+02 -0.88897225366E+01  0.46464078803E+02  0.00000000000E+00 0. -1.
</event>
<event>
 7    1  0.2480409E-009  0.9357695E+02  0.7561462E-02  0.1294414E+00
         -1   -1    0    0    0  501 -0.00000000000E+00  0.00000000000E+00  0.35317403228E+02  0.35317403228E+02  0.00000000000E+00 0.  1.
          1   -1    0    0  501    0  0.00000000000E+00 -0.00000000000E+00 -0.49114347175E+03  0.49114347175E+03  0.00000000000E+00 0. -1.
         25    2    1    2    0    0 -0.13882474921E+02  0.58497224908E+02 -0.16366803337E+03  0.21460209983E+03  0.12510870342E+03 0.  0.
          5    1    3    3  502    0 -0.40964789765E+02  0.36818655718E+02 -0.17030245930E+03  0.17903666511E+03  0.41800000000E+01 0.  1.
         -5    1    3    3    0  502  0.27082314844E+02  0.21678569190E+02  0.66344259317E+01  0.35565434721E+02  0.41800000000E+01 0.  1.
        -11    1    1    2    0    0  0.45404352883E+02 -0.39426569111E+02 -0.24356581089E+03  0.25087908212E+03  0.00000000000E+00 0. -1.
         11    1    1    2    0    0 -0.31521877962E+02 -0.19070655797E+02 -0.48592224270E+02  0.60979693032E+02  0.00000000000E+00 0.  1.
</event>
<event>
 7    1  0.2480409E-009  0.1036456E+03  0.7561462E-02  0.1272811E+00
         -3   -1    0    0    0  501 -0.00000000000E+00  0.00000000000E+00  0.28595889103E+03  0.28595889103E+03  0.00000000000E+00 0.  1.
          3   -1    0    0  501    0  0.00000000000E+00 -0.00000000000E+00 -0.54902048955E+02  0.54902048955E+02  0.00000000000E+00 0. -1.
         25    2    1    2    0    0  0.57212387778E+02  0.16991488921E+02  0.10424802510E+03  0.17342762266E+03  0.12509005378E+03 0.  0.
          5    1    3    3  502    0 -0.34364882206E+02 -0.16990187678E+02  0.44346080064E+02  0.58767838342E+02  0.41800000000E+01 0.  1.
         -5    1    3    3    0  502  0.91577269985E+02  0.33981676599E+02  0.59901945031E+02  0.11465978432E+03  0.41800000000E+01 0.  1.
        -11    1    1    2    0    0 -0.17532398407E+02  0.12490436326E+02  0.11447880421E+03  0.11648516046E+03  0.00000000000E+00 0.  1.
         11    1    1    2    0    0 -0.39679989371E+02 -0.29481925247E+02  0.12330012770E+02  0.50948156862E+02  0.00000000000E+00 0. -1.
</event>
<event>
 7    1  0.2480409E-009  0.1077929E+03  0.7561462E-02  0.1264712E+00
         -1   -1    0    0    0  501 -0.00000000000E+00  0.00000000000E+00  0.36214797117E+03  0.36214797117E+03  0.00000000000E+00 0.  1.
          1   -1    0    0  501    0  0.00000000000E+00 -0.00000000000E+00 -0.54620880381E+02  0.54620880381E+02  0.00000000000E+00 0. -1.
         25    2    1    2    0    0 -0.10187918598E+02  0.85041497315E+02  0.13147585934E+03  0.20067222878E+03  0.12509033482E+03 0.  0.
          5    1    3    3  502    0  0.13910540486E+02  0.30798594395E+02 -0.18904782480E+02  0.38947654023E+02  0.41800000000E+01 0.  1.
         -5    1    3    3    0  502 -0.24098459083E+02  0.54242902920E+02  0.15038064182E+03  0.16172457476E+03  0.41800000000E+01 0.  1.
        -11    1    1    2    0    0 -0.37554366225E+02 -0.24124415500E+02  0.41901794438E+02  0.61221550315E+02  0.00000000000E+00 0.  1.
         11    1    1    2    0    0  0.47742284823E+02 -0.60917081815E+02  0.13414943702E+03  0.15487507246E+03  0.00000000000E+00 0. -1.
</event>
<event>
 7    1  0.2480409E-009  0.1631625E+03  0.7561462E-02  0.1185172E+00
         -2   -1    0    0    0  501 -0.00000000000E+00  0.00000000000E+00  0.25253441426E+03  0.25253441426E+03  0.00000000000E+00 0.  1.
          2   -1    0    0  501    0  0.00000000000E+00 -0.00000000000E+00 -0.16461042832E+03  0.16461042832E+03  0.00000000000E+00 0. -1.
         25    2    1    2    0    0  0.13172672139E+03 -0.36306388950E+02  0.15350641334E+03  0.24059032908E+03  0.12509757994E+03 0.  0.
          5    1    3    3  502    0  0.31719028591E+02 -0.72040528687E+02  0.70135599480E+02  0.10551023298E+03  0.41800000000E+01 0.  1.
         -5    1    3    3    0  502  0.10000769280E+03  0.35734139737E+02  0.83370813858E+02  0.13508009611E+03  0.41800000000E+01 0.  1.
        -11    1    1    2    0    0 -0.78315341747E+01 -0.64566634151E+01  0.18311756763E+02  0.20936615432E+02  0.00000000000E+00 0.  1.
         11    1    1    2    0    0 -0.12389518721E+03  0.42763052365E+02 -0.83894184165E+02  0.15561789807E+03  0.00000000000E+00 0. -1.
</event>
<event>
 7    1  0.2480409E-009  0.8784879E+02  0.7561462E-02  0.1308146E+00
          2   -1    0    0  501    0  0.00000000000E+00  0.00000000000E+00  0.15340994196E+03  0.15340994196E+03  0.00000000000E+00 0. -1.
         -2   -1    0    0    0  501 -0.00000000000E+00 -0.00000000000E+00 -0.72150202081E+02  0.72150202081E+02  0.00000000000E+00 0.  1.
         25    2    1    2    0    0  0.15662540819E+02 -0.59395690626E+01  0.51263747748E+02  0.13621412859E+03  0.12508286585E+03 0.  0.
          5    1    3    3  502    0 -0.60965185224E+01 -0.56085004627E+02  0.57952091925E+02  0.80985261872E+02  0.41800000000E+01 0. -1.
         -5    1    3    3    0  502  0.21759059342E+02  0.50145435564E+02 -0.66883441773E+01  0.55228866720E+02  0.41800000000E+01 0. -1.
        -11    1    1    2    0    0 -0.36242614066E+02 -0.10755520503E+02 -0.12021075770E+02  0.39670071317E+02  0.00000000000E+00 0.  1.
         11    1    1    2    0    0  0.20580073246E+02  0.16695089566E+02  0.42017067905E+02  0.49675944136E+02  0.00000000000E+00 0. -1.
</event>
<event>
 7    1  0.2480409E-009  0.1469551E+03  0.7561462E-02  0.1204265E+00
          2   -1    0    0  501    0  0.00000000000E+00  0.00000000000E+00  0.21846517522E+03  0.21846517522E+03  0.00000000000E+00 0. -1.
         -2   -1    0    0    0  501 -0.00000000000E+00 -0.00000000000E+00 -0.13698495011E+03  0.13698495011E+03  0.00000000000E+00 0.  1.
         25    2    1    2    0    0  0.13218104524E+03  0.29897039932E+02  0.70898757196E+02  0.19758542722E+03  0.12509078926E+03 0.  0.
          5    1    3    3  502    0  0.67417968676E+02 -0.26338854001E+02  0.83732157329E+02  0.11075858568E+03  0.41800000000E+01 0. -1.
         -5    1    3    3    0  502  0.64763076568E+02  0.56235893933E+02 -0.12833400133E+02  0.86826841541E+02  0.41800000000E+01 0. -1.
        -11    1    1    2    0    0 -0.67824798743E+02 -0.14270910945E+02 -0.34825412144E+02  0.77567206697E+02  0.00000000000E+00 0.  1.
         11    1    1    2    0    0 -0.64356246502E+02 -0.15626128988E+02  0.45406880052E+02  0.80297491412E+02  0.00000000000E+00 0. -1.
</event>
<event>
 7    1  0.2480409E-009  0.9150988E+02  0.7561462E-02  0.1299236E+00
         -2   -1    0    0    0  501 -0.00000000000E+00  0.00000000000E+00  0.13237447167E+02  0.13237447167E+02  0.00000000000E+00 0. -1.
          2   -1    0    0  501    0  0.00000000000E+00 -0.00000000000E+00 -0.10040956679E+04  0.10040956679E+04  0.00000000000E+00 0.  1.
         25    2    1    2    0    0  0.13907957711E+02  0.56071214806E+02 -0.60846979306E+03  0.62387526197E+03  0.12508973186E+03 0.  0.
          5    1    3    3  502    0 -0.24570616464E+02  0.46742178797E+02 -0.94246440889E+02  0.10811295247E+03  0.41800000000E+01 0. -1.
         -5    1    3    3    0  502  0.38478574175E+02  0.93290360089E+01 -0.51422335217E+03  0.51576230950E+03  0.41800000000E+01 0. -1.
        -11    1    1    2    0    0  0.28386206483E+02 -0.23525293040E+02 -0.11393870312E+03  0.11975493393E+03  0.00000000000E+00 0. -1.
         11    1    1    2    0    0 -0.42294164194E+02 -0.32545921766E+02 -0.26844972457E+03  0.27370291919E+03  0.00000000000E+00 0.  1.
</event>
<event>
 7    1  0.2480409E-009  0.1163595E+03  0.7561462E-02  0.1249226E+00
         -1   -1    0    0    0  501 -0.00000000000E+00  0.00000000000E+00  0.44570836948E+02  0.44570836948E+02  0.00000000000E+00 0.  1.
          1   -1    0    0  501    0  0.00000000000E+00 -0.00000000000E+00 -0.38753231348E+03  0.38753231348E+03  0.00000000000E+00 0. -1.
         25    2    1    2    0    0 -0.22163540760E+02 -0.69404962269E+02 -0.16481748008E+03  0.21936511590E+03  0.12509189025E+03 0.  0.
          5    1    3    3  502    0  0.14742911341E+02  0.22202931180E+02 -0.93920647141E+02  0.97718391038E+02  0.41800000000E+01 0. -1.
         -5    1    3    3    0  502 -0.36906452101E+02 -0.91607893449E+02 -0.70896832940E+02  0.12164672486E+03  0.41800000000E+01 0. -1.
        -11    1    1    2    0    0 -0.12653858673E+02  0.70919734435E+02 -0.15494220239E+03  0.17087075512E+03  0.00000000000E+00 0. -1.
         11    1    1    2    0    0  0.34817399433E+02 -0.15147721661E+01 -0.23201794063E+02  0.41867279417E+02  0.00000000000E+00 0.  1.
</event>
<event>
 7    1  0.3080701E-009  0.1406039E+03  0.7561462E-02  0.1212519E+00
         -2   -1    0    0    0  501 -0.00000000000E+00  0.00000000000E+00  0.41806949015E+02  0.41806949015E+02  0.00000000000E+00 0.  1.
          2   -1    0    0  501    0  0.00000000000E+00 -0.00000000000E+00 -0.73826516592E+03  0.73826516592E+03  0.00000000000E+00 0. -1.
         25    2    1    2    0    0  0.12442006404E+03  0.16946018117E+02 -0.24413850788E+03  0.30169256722E+03  0.12508906514E+03 0.  0.
          5    1    3    3  502    0  0.74948500650E+02  0.15452236964E+02 -0.30713937482E+02  0.82564324817E+02  0.41800000000E+01 0. -1.
         -5    1    3    3    0  502  0.49471563385E+02  0.14937811527E+01 -0.21342457040E+03  0.21912824240E+03  0.41800000000E+01 0. -1.
        -11    1    1    2    0    0 -0.14433004587E+02 -0.39997496099E+02 -0.14740949140E+03  0.15341991223E+03  0.00000000000E+00 0.  1.
         11    1    1    2    0    0 -0.10998705945E+03  0.23051477982E+02 -0.30491021762E+03  0.32495963549E+03  0.00000000000E+00 0. -1.
</event>
<event>
 7    1  0.2480409E-009  0.1742957E+03  0.7561462E-02  0.1173441E+00
         -2   -1    0    0    0  501 -0.00000000000E+00  0.00000000000E+00  0.19618665893E+03  0.19618665893E+03  0.00000000000E+00 0. -1.
          2   -1    0    0  501    0  0.00000000000E+00 -0.00000000000E+00 -0.18233902648E+03  0.18233902648E+03  0.00000000000E+00 0.  1.
         25    2    1    2    0    0 -0.97038264256E+02 -0.97509669782E+02 -0.65879149759E+02  0.19726076964E+03  0.12508872225E+03 0.  0.
          5    1    3    3  502    0  0.16727938667E+01 -0.86386840254E+02 -0.31508236761E+02  0.92063705075E+02  0.41800000000E+01 0.  1.
         -5    1    3    3    0  502 -0.98711058123E+02 -0.11122829528E+02 -0.34370912998E+02  0.10519706456E+03  0.41800000000E+01 0.  1.
        -11    1    1    2    0    0  0.78691314950E+02  0.11364566303E+03  0.65154223381E+02  0.15281600897E+03  0.00000000000E+00 0.  1.
         11    1    1    2    0    0  0.18346949306E+02 -0.16135993249E+02  0.14572558830E+02  0.28448906795E+02  0.00000000000E+00 0. -1.
</event>
<event>
 7    1  0.2480409E-009  0.1056186E+03  0.7561462E-02  0.1268906E+00
         -2   -1    0    0    0  501 -0.00000000000E+00  0.00000000000E+00  0.84895771478E+02  0.84895771478E+02  0.00000000000E+00 0.  1.
          2   -1    0    0  501    0  0.00000000000E+00 -0.00000000000E+00 -0.15301919016E+03  0.15301919016E+03  0.00000000000E+00 0. -1.
         25    2    1    2    0    0  0.18978112748E+02 -0.29528511588E+02 -0.47571896502E+02  0.13835632336E+03  0.12508910870E+03 0.  0.
          5    1    3    3  502    0 -0.33230409482E+02 -0.59079308240E+02 -0.36867060388E+02  0.77274040389E+02  0.41800000000E+01 0. -1.
         -5    1    3    3    0  502  0.52208522229E+02  0.29550796652E+02 -0.10704836114E+02  0.61082282966E+02  0.41800000000E+01 0. -1.
        -11    1    1    2    0    0 -0.30502606518E+02 -0.17228208129E+02  0.16572606420E+02  0.38753986160E+02  0.00000000000E+00 0.  1.
         11    1    1    2    0    0  0.11524493770E+02  0.46756719717E+02 -0.37124128599E+02  0.60804652121E+02  0.00000000000E+00 0. -1.
</event>
<event>
 7    1  0.2934394E-009  0.2547087E+03  0.7561462E-02  0.1110365E+00
         -1   -1    0    0    0  501 -0.00000000000E+00  0.00000000000E+00  0.38306747112E+02  0.38306747112E+02  0.00000000000E+00 0.  1.
          1   -1    0    0  501    0  0.00000000000E+00 -0.00000000000E+00 -0.17096198886E+04  0.17096198886E+04  0.00000000000E+00 0. -1.
         25    2    1    2    0    0 -0.78749164288E+01  0.23049524807E+03 -0.92944585367E+03  0.96576792313E+03  0.12509201715E+03 0.  0.
          5    1    3    3  502    0 -0.48161450051E+02  0.21259865653E+03 -0.76440555135E+03  0.79489057949E+03  0.41800000000E+01 0.  1.
         -5    1    3    3    0  502  0.40286533623E+02  0.17896591542E+02 -0.16504030232E+03  0.17087734364E+03  0.41800000000E+01 0.  1.
        -11    1    1    2    0    0 -0.39635097454E+02 -0.13081586428E+03 -0.43913092459E+03  0.45991270936E+03  0.00000000000E+00 0.  1.
         11    1    1    2    0    0  0.47510013883E+02 -0.99679383795E+02 -0.30273636326E+03  0.32224600325E+03  0.00000000000E+00 0. -1.
</event>
<event>
 7    1  0.2480409E-009  0.1261382E+03  0.7561462E-02  0.1233301E+00
         -2   -1    0    0    0  501 -0.00000000000E+00  0.00000000000E+00  0.24117334711E+02  0.24117334711E+02  0.00000000000E+00 0.  1.
          2   -1    0    0  501    0  0.00000000000E+00 -0.00000000000E+00 -0.81515407800E+03  0.81515407800E+03  0.00000000000E+00 0. -1.
         25    2    1    2    0    0  0.81407958809E+02  0.37611524311E+02 -0.44037136568E+03  0.46649408068E+03  0.12509158675E+03 0.  0.
          5    1    3    3  502    0  0.26605193403E+02  0.78567528413E+02 -0.28076600175E+03  0.29279295240E+03  0.41800000000E+01 0.  1.
         -5    1    3    3    0  502  0.54802765405E+02 -0.40956004103E+02 -0.15960536394E+03  0.17370112828E+03  0.41800000000E+01 0.  1.
        -11    1    1    2    0    0 -0.58702644498E+02 -0.23641094364E+01 -0.30571228445E+03  0.31130626455E+03  0.00000000000E+00 0. -1.
         11    1    1    2    0    0 -0.22705314310E+02 -0.35247414874E+02 -0.44953093153E+02  0.61471067481E+02  0.00000000000E+00 0.  1.
</event>
<event>
 7    1  0.2480409E-009  0.6744352E+02  0.7561462E-02  0.1369009E+00
          2   -1    0    0  501    0  0.00000000000E+00  0.00000000000E+00  0.22805486853E+03  0.22805486853E+03  0.00000000000E+00 0. -1.
         -2   -1    0    0    0  501 -0.00000000000E+00 -0.00000000000E+00 -0.55786845815E+02  0.55786845815E+02  0.00000000000E+00 0.  1.
         25    2    1    2    0    0  0.14005265720E+02  0.18461682763E+02  0.12344447692E+03  0.17726621034E+03  0.12509112378E+03 0.  0.
          5    1    3    3  502    0 -0.31201558492E+02  0.19617834836E+01 -0.11782740687E+02  0.33670331523E+02  0.41800000000E+01 0. -1.
         -5    1    3    3    0  502  0.45206824211E+02  0.16499899279E+02  0.13522721760E+03  0.14359587881E+03  0.41800000000E+01 0. -1.
        -11    1    1    2    0    0 -0.29132448893E+02  0.24453618769E+01 -0.18417505313E+02  0.34552624721E+02  0.00000000000E+00 0.  1.
         11    1    1    2    0    0  0.15127183173E+02 -0.20907044640E+02  0.67241051116E+02  0.72022879292E+02  0.00000000000E+00 0. -1.
</event>
<event>
 7    1  0.2480409E-009  0.1746145E+03  0.7561462E-02  0.1173119E+00
         -3   -1    0    0    0  501 -0.00000000000E+00  0.00000000000E+00  0.31190936260E+02  0.31190936260E+02  0.00000000000E+00 0.  1.
          3   -1    0    0  501    0  0.00000000000E+00 -0.00000000000E+00 -0.12776360380E+04  0.12776360380E+04  0.00000000000E+00 0. -1.
         25    2    1    2    0    0  0.93496156205E+02  0.10837542305E+03 -0.93858144958E+03  0.95763715330E+03  0.12508803438E+03 0.  0.
          5    1    3    3  502    0  0.10557155959E+03  0.40218670576E+02 -0.70406192043E+03  0.71308032918E+03  0.41800000000E+01 0. -1.
         -5    1    3    3    0  502 -0.12075403382E+02  0.68156752478E+02 -0.23451952915E+03  0.24455682413E+03  0.41800000000E+01 0. -1.
        -11    1    1    2    0    0  0.45376474757E+01 -0.55048371200E+02 -0.12953553156E+03  0.14082033714E+03  0.00000000000E+00 0.  1.
         11    1    1    2    0    0 -0.98033803681E+02 -0.53327051853E+02 -0.17832812061E+03  0.21036948382E+03  0.00000000000E+00 0. -1.
</event>
<event>
 7    1  0.2480409E-009  0.1122861E+03  0.7561462E-02  0.1256394E+00
         -3   -1    0    0    0  501 -0.00000000000E+00  0.00000000000E+00  0.95928254785E+03  0.95928254785E+03  0.00000000000E+00 0.  1.
          3   -1    0    0  501    0  0.00000000000E+00 -0.00000000000E+00 -0.31839040161E+02  0.31839040161E+02  0.00000000000E+00 0. -1.
         25    2    1    2    0    0  0.78988230587E+02  0.44866266190E+02  0.78437488302E+03  0.79946527196E+03  0.12509453043E+03 0.  0.
          5    1    3    3  502    0  0.44742365461E+02  0.40238565851E+01  0.71211997928E+02  0.84301196538E+02  0.41800000000E+01 0.  1.
         -5    1    3    3    0  502  0.34245865126E+02  0.40842409604E+02  0.71316288509E+03  0.71516407542E+03  0.41800000000E+01 0.  1.
        -11    1    1    2    0    0 -0.41447890511E+02  0.23755260237E+02  0.40258841551E+02  0.62474109356E+02  0.00000000000E+00 0.  1.
         11    1    1    2    0    0 -0.37540340076E+02 -0.68621526426E+02  0.10280978312E+03  0.12918220670E+03  0.00000000000E+00 0. -1.
</event>
<event>
 7    1  0.2480409E-009  0.1047187E+03  0.7561462E-02  0.1270675E+00
         -2   -1    0    0    0  501 -0.00000000000E+00  0.00000000000E+00  0.16765228131E+03  0.16765228131E+03  0.00000000000E+00 0.  1.
          2   -1    0    0  501    0  0.00000000000E+00 -0.00000000000E+00 -0.11596724536E+03  0.11596724536E+03  0.00000000000E+00 0. -1.
         25    2    1    2    0    0  0.22919472601E+02 -0.12687102476E+02 -0.59813511652E+02  0.14111054098E+03  0.12509302061E+03 0.  0.
          5    1    3    3  502    0  0.74041417195E+02 -0.17720884037E+02 -0.36926071073E+02  0.84718169930E+02  0.41800000000E+01 0.  1.
         -5    1    3    3    0  502 -0.51121944594E+02  0.50337815605E+01 -0.22887440579E+02  0.56392371046E+02  0.41800000000E+01 0.  1.
        -11    1    1    2    0    0 -0.43423457816E+02  0.31641265896E+02  0.97382484870E+02  0.11122101760E+03  0.00000000000E+00 0.  1.
         11    1    1    2    0    0  0.20503985215E+02 -0.18954163420E+02  0.14116062732E+02  0.31287968098E+02  0.00000000000E+00 0. -1.
</event>
<event>
 7    1  0.2480409E-009  0.1083355E+03  0.7561462E-02  0.1263684E+00
         -4   -1    0    0    0  501 -0.00000000000E+00  0.00000000000E+00  0.68335857123E+02  0.68335857123E+02  0.00000000000E+00 0.  1.
          4   -1    0    0  501    0  0.00000000000E+00 -0.00000000000E+00 -0.32347263927E+03  0.32347263927E+03  0.00000000000E+00 0. -1.
         25    2    1    2    0    0 -0.75313231833E+02 -0.59840767219E+02 -0.18806692045E+03  0.24550092941E+03  0.12509412242E+03 0.  0.
          5    1    3    3  502    0 -0.49593326454E+02 -0.68577335256E+02 -0.19871557708E+03  0.21602708606E+03  0.41800000000E+01 0. -1.
         -5    1    3    3    0  502 -0.25719905379E+02  0.87365680379E+01  0.10648656626E+02  0.29473843349E+02  0.41800000000E+01 0. -1.
        -11    1    1    2    0    0  0.26774425369E+02  0.47250341470E+02 -0.77942394108E+02  0.94997270604E+02  0.00000000000E+00 0. -1.
         11    1    1    2    0    0  0.48538806465E+02  0.12590425748E+02  0.10872532410E+02  0.51310296379E+02  0.00000000000E+00 0.  1.
</event>
<event>
 7    1  0.2480409E-009  0.1118785E+03  0.7561462E-02  0.1257130E+00
         -2   -1    0    0    0  501 -0.00000000000E+00  0.00000000000E+00  0.92934855289E+02  0.92934855289E+02  0.00000000000E+00 0. -1.
          2   -1    0    0  501    0  0.00000000000E+00 -0.00000000000E+00 -0.15560784258E+03  0.15560784258E+03  0.00000000000E+00 0.  1.
         25    2    1    2    0    0  0.59249954018E+02  0.50037881791E+02 -0.21352046135E+02  0.14871979196E+03  0.12508924806E+03 0.  0.
          5    1    3    3  502    0 -0.30990339783E+02 -0.12738243053E+02 -0.18877505358E+02  0.38684578381E+02  0.41800000000E+01 0.  1.
         -5    1    3    3    0  502  0.90240293800E+02  0.62776124844E+02 -0.24745407770E+01  0.11003521358E+03  0.41800000000E+01 0.  1.
        -11    1    1    2    0    0 -0.33107472401E+02 -0.15205244137E+02  0.43788142307E+01  0.36694389110E+02  0.00000000000E+00 0. -1.
         11    1    1    2    0    0 -0.26142481616E+02 -0.34832637654E+02 -0.45699755391E+02  0.63128516803E+02  0.00000000000E+00 0.  1.
</event>
<event>
 7    1  0.2480409E-009  0.1224841E+03  0.7561462E-02  0.1239054E+00
          2   -1    0    0  501    0  0.00000000000E+00  0.00000000000E+00  0.72461579123E+03  0.72461579123E+03  0.00000000000E+00 0.  1.
         -2   -1    0    0    0  501 -0.00000000000E+00 -0.00000000000E+00 -0.29059712229E+02  0.29059712229E+02  0.00000000000E+00 0. -1.
         25    2    1    2    0    0  0.64644785844E+02 -0.34856870857E+02  0.53366159194E+03  0.55302412278E+03  0.12508811247E+03 0.  0.
          5    1    3    3  502    0  0.37165525125E+02  0.40001021667E+02  0.12253933793E+03  0.13421892464E+03  0.41800000000E+01 0.  1.
         -5    1    3    3    0  502  0.27479260719E+02 -0.74857892524E+02  0.41112225401E+03  0.41880519813E+03  0.41800000000E+01 0.  1.
        -11    1    1    2    0    0 -0.22412556792E+02 -0.27229104192E+02  0.90130783102E+02  0.96784838067E+02  0.00000000000E+00 0.  1.
         11    1    1    2    0    0 -0.42232229052E+02  0.62085975049E+02  0.71763703959E+02  0.10386654261E+03  0.00000000000E+00 0. -1.
</event>
<event>
 7    1  0.2480409E-009  0.1033649E+03  0.7561462E-02  0.1273375E+00
          2   -1    0    0  501    0  0.00000000000E+00  0.00000000000E+00  0.15592917305E+03  0.15592917305E+03  0.00000000000E+00 0. -1.
         -2   -1    0    0    0  501 -0.00000000000E+00 -0.00000000000E+00 -0.87792218076E+02  0.87792218076E+02  0.00000000000E+00 0.  1.
         25    2    1    2    0    0  0.65484023434E+01  0.28269832656E+02  0.72337857018E+02  0.14738427290E+03  0.12508914152E+03 0.  0.
          5    1    3    3  502    0 -0.36954070432E+02 -0.34339843759E+02  0.18227539063E+02  0.53800964408E+02  0.41800000000E+01 0. -1.
         -5    1    3    3    0  502  0.43502472775E+02  0.62609676415E+02  0.54110317955E+02  0.93583308488E+02  0.41800000000E+01 0. -1.
        -11    1    1    2    0    0  0.16043604759E+02 -0.47470188629E+02 -0.28815186452E+02  0.57802517527E+02  0.00000000000E+00 0.  1.
         11    1    1    2    0    0 -0.22592007103E+02  0.19200355973E+02  0.24614284407E+02  0.38534600702E+02  0.00000000000E+00 0. -1.
</event>
<event>
 7    1  0.2480409E-009  0.9617543E+02  0.7561462E-02  0.1288550E+00
          2   -1    0    0  501    0  0.00000000000E+00  0.00000000000E+00  0.31638658889E+03  0.31638658889E+03  0.00000000000E+00 0. -1.
         -2   -1    0    0    0  501 -0.00000000000E+00 -0.00000000000E+00 -0.50716985773E+02  0.50716985773E+02  0.00000000000E+00 0.  1.
         25    2    1    2    0    0  0.44049991846E+02 -0.90476708372E+01  0.77424081521E+02  0.15383693980E+03  0.12509617707E+03 0.  0.
          5    1    3    3  502    0 -0.26416443269E+02 -0.45242537705E+02  0.21534367778E+02  0.56797157399E+02  0.41800000000E+01 0.  1.
         -5    1    3    3    0  502  0.70466435115E+02  0.36194866868E+02  0.55889713743E+02  0.97039782397E+02  0.41800000000E+01 0.  1.
        -11    1    1    2    0    0 -0.10060872535E+02  0.21921543609E+02  0.27873061176E+01  0.24280533473E+02  0.00000000000E+00 0.  1.
         11    1    1    2    0    0 -0.33989119311E+02 -0.12873872772E+02  0.18545821548E+03  0.18898610140E+03  0.00000000000E+00 0. -1.
</event>
<event>
 7    1  0.2480409E-009  0.1124560E+03  0.7561462E-02  0.1256088E+00
          2   -1    0    0  501    0  0.00000000000E+00  0.00000000000E+00  0.77581629763E+03  0.77581629763E+03  0.00000000000E+00 0. -1.
         -2   -1    0    0    0  501 -0.00000000000E+00 -0.00000000000E+00 -0.34586235309E+02  0.34586235309E+02  0.00000000000E+00 0.  1.
         25    2    1    2    0    0 -0.89886621216E+02 -0.58269606483E+02  0.53764370933E+03  0.56230152793E+03  0.12508916188E+03 0.  0.
          5    1    3    3  502    0 -0.74009698101E+00 -0.11268057869E+02  0.34177908753E+03  0.34199113138E+03  0.41800000000E+01 0.  1.
         -5    1    3    3    0  502 -0.89146524235E+02 -0.47001548615E+02  0.19586462180E+03  0.22031039655E+03  0.41800000000E+01 0.  1.
        -11    1    1    2    0    0  0.76791555064E+02  0.33075228297E+02  0.20317180868E+03  0.21970365836E+03  0.00000000000E+00 0. -1.
         11    1    1    2    0    0  0.13095066152E+02  0.25194378187E+02  0.41454432009E+00  0.28397346650E+02  0.00000000000E+00 0.  1.
</event>
<event>
 7    1  0.2480409E-009  0.1186090E+03  0.7561462E-02  0.1245410E+00
          2   -1    0    0  501    0  0.00000000000E+00  0.00000000000E+00  0.30794005362E+03  0.30794005362E+03  0.00000000000E+00 0. -1.
         -2   -1    0    0    0  501 -0.00000000000E+00 -0.00000000000E+00 -0.50043071877E+02  0.50043071877E+02  0.00000000000E+00 0.  1.
         25    2    1    2    0    0 -0.20345029492E+02  0.54275630132E+02  0.15634392153E+03  0.20845060217E+03  0.12509383476E+03 0.  0.
          5    1    3    3  502    0  0.45775494914E+02  0.37770430220E+02  0.11263262136E+03  0.12737967314E+03  0.41800000000E+01 0. -1.
         -5    1    3    3    0  502 -0.66120524406E+02  0.16505199912E+02  0.43711300162E+02  0.81070929030E+02  0.41800000000E+01 0. -1.
        -11    1    1    2    0    0  0.57537160243E+02 -0.28602071918E+02  0.65114199832E+02  0.91479300100E+02  0.00000000000E+00 0.  1.
         11    1    1    2    0    0 -0.37192130751E+02 -0.25673558213E+02  0.36438860387E+02  0.58053223231E+02  0.00000000000E+00 0. -1.
</event>
<event>
 7    1  0.2480409E-009  0.9312365E+02  0.7561462E-02  0.1295459E+00
          2   -1    0    0  501    0  0.00000000000E+00  0.00000000000E+00  0.28810369733E+02  0.28810369733E+02  0.00000000000E+00 0.  1.
         -2   -1    0    0    0  501 -0.00000000000E+00 -0.00000000000E+00 -0.75412333722E+03  0.75412333722E+03  0.00000000000E+00 0. -1.
         25    2    1    2    0    0  0.33003995911E+02 -0.90876502703E+01 -0.63924096681E+03  0.65226658569E+03  0.12510330143E+03 0.  0.
          5    1    3    3  502    0 -0.29063014278E+02 -0.44014218432E+00 -0.39363046531E+02  0.49109819346E+02  0.41800000000E+01 0.  1.
         -5    1    3    3    0  502  0.62067010189E+02 -0.86475080860E+01 -0.59987792028E+03  0.60315676634E+03  0.41800000000E+01 0.  1.
        -11    1    1    2    0    0  0.39982752720E+01  0.43417584645E+02 -0.21229569493E+02  0.48495025337E+02  0.00000000000E+00 0.  1.
         11    1    1    2    0    0 -0.37002271183E+02 -0.34329934375E+02 -0.64842431190E+02  0.82172095930E+02  0.00000000000E+00 0. -1.
</event>
<event>
 7    1  0.2480409E-009  0.1200213E+03  0.7561462E-02  0.1243062E+00
         -2   -1    0    0    0  501 -0.00000000000E+00  0.00000000000E+00  0.14594326143E+02  0.14594326143E+02  0.00000000000E+00 0. -1.
          2   -1    0    0  501    0  0.00000000000E+00 -0.00000000000E+00 -0.11803048349E+04  0.11803048349E+04  0.00000000000E+00 0.  1.
         25    2    1    2    0    0 -0.79260447211E+02  0.10437763670E+02 -0.68146163445E+03  0.69744375302E+03  0.12508662596E+03 0.  0.
          5    1    3    3  502    0 -0.93551610431E+02  0.38186122520E+02 -0.34515203505E+03  0.35966301376E+03  0.41800000000E+01 0.  1.
         -5    1    3    3    0  502  0.14291163220E+02 -0.27748358850E+02 -0.33630959940E+03  0.33778073926E+03  0.41800000000E+01 0.  1.
        -11    1    1    2    0    0 -0.11173578923E+02  0.96708529706E+01 -0.25735569624E+02  0.29676485759E+02  0.00000000000E+00 0. -1.
         11    1    1    2    0    0  0.90434026135E+02 -0.20108616641E+02 -0.45851330470E+03  0.46777892229E+03  0.00000000000E+00 0.  1.
</event>
<event>
 7    1  0.2649427E-009  0.1805925E+03  0.7561462E-02  0.1167231E+00
         -1   -1    0    0    0  501 -0.00000000000E+00  0.00000000000E+00  0.10023511683E+03  0.10023511683E+03  0.00000000000E+00 0.  1.
          1   -1    0    0  501    0  0.00000000000E+00 -0.00000000000E+00 -0.36590299477E+03  0.36590299477E+03  0.00000000000E+00 0. -1.
         25    2    1    2    0    0  0.15572949995E+03  0.17105475366E+02 -0.12144848280E+03  0.23439633109E+03  0.12509049370E+03 0.  0.
          5    1    3    3  502    0  0.71646447810E+02  0.52316403351E+02 -0.85403806639E+01  0.89222362922E+02  0.41800000000E+01 0.  1.
         -5    1    3    3    0  502  0.84083052142E+02 -0.35210927985E+02 -0.11290810213E+03  0.14517396817E+03  0.41800000000E+01 0.  1.
        -11    1    1    2    0    0 -0.11684900285E+03 -0.52904226285E+02 -0.10788359672E+03  0.16760494345E+03  0.00000000000E+00 0.  1.
         11    1    1    2    0    0 -0.38880497104E+02  0.35798750919E+02 -0.36335798420E+02  0.64136837069E+02  0.00000000000E+00 0. -1.
</event>
<event>
 7    1  0.2480409E-009  0.1547222E+03  0.7561462E-02  0.1194788E+00
          2   -1    0    0  501    0  0.00000000000E+00  0.00000000000E+00  0.29130759900E+03  0.29130759900E+03  0.00000000000E+00 0. -1.
         -2   -1    0    0    0  501 -0.00000000000E+00 -0.00000000000E+00 -0.10916691127E+03  0.10916691127E+03  0.00000000000E+00 0.  1.
         25    2    1    2    0    0 -0.11878515160E+03 -0.58701065612E+02  0.59207540918E+02  0.19159406240E+03  0.12508806697E+03 0.  0.
          5    1    3    3  502    0 -0.83147917317E+02  0.22896948562E+02  0.33685473969E+01  0.86409871654E+02  0.41800000000E+01 0. -1.
         -5    1    3    3    0  502 -0.35637234283E+02 -0.81598014174E+02  0.55838993521E+02  0.10518419074E+03  0.41800000000E+01 0. -1.
        -11    1    1    2    0    0  0.52562584016E+02  0.36979482167E+02  0.12345851411E+03  0.13918445332E+03  0.00000000000E+00 0. -1.
         11    1    1    2    0    0  0.66222567585E+02  0.21721583445E+02 -0.52536729808E+00  0.69695994545E+02  0.00000000000E+00 0.  1.
</event>
<event>
 7    1  0.2480409E-009  0.1685332E+03  0.7561462E-02  0.1179386E+00
         -3   -1    0    0    0  501 -0.00000000000E+00  0.00000000000E+00  0.57792970957E+02  0.57792970957E+02  0.00000000000E+00 0.  1.
          3   -1    0    0  501    0  0.00000000000E+00 -0.00000000000E+00 -0.51467435618E+03  0.51467435618E+03  0.00000000000E+00 0. -1.
         25    2    1    2    0    0  0.10374698537E+03  0.84648489279E+02 -0.26869412344E+03  0.32522295417E+03  0.12507851229E+03 0.  0.
          5    1    3    3  502    0  0.29303955740E+02 -0.28702771390E+02 -0.31196800140E+02  0.51703806886E+02  0.41800000000E+01 0.  1.
         -5    1    3    3    0  502  0.74443029630E+02  0.11335126067E+03 -0.23749732330E+03  0.27351914728E+03  0.41800000000E+01 0.  1.
        -11    1    1    2    0    0 -0.11913595783E+03 -0.81784798476E+02 -0.16592835250E+03  0.22003260639E+03  0.00000000000E+00 0. -1.
         11    1    1    2    0    0  0.15388972455E+02 -0.28636908024E+01 -0.22258909284E+02  0.27211766587E+02  0.00000000000E+00 0.  1.
</event>
<event>
 7    1  0.2480409E-009  0.1371514E+03  0.7561462E-02  0.1217214E+00
         -2   -1    0    0    0  501 -0.00000000000E+00  0.00000000000E+00  0.68656914919E+02  0.68656914919E+02  0.00000000000E+00 0.  1.
          2   -1    0    0  501    0  0.00000000000E+00 -0.00000000000E+00 -0.33654507593E+03  0.33654507593E+03  0.00000000000E+00 0. -1.
         25    2    1    2    0    0 -0.85326327243E+02  0.49736227018E+02 -0.91418160232E+02  0.18373520423E+03  0.12508825226E+03 0.  0.
          5    1    3    3  502    0 -0.10609976432E+03  0.26400814354E+02 -0.28038962796E+02  0.11295051492E+03  0.41800000000E+01 0.  1.
         -5    1    3    3    0  502  0.20773437074E+02  0.23335412664E+02 -0.63379197435E+02  0.70784689302E+02  0.41800000000E+01 0.  1.
        -11    1    1    2    0    0  0.10299485594E+03 -0.30875060473E+02 -0.13476176191E+03  0.17240052837E+03  0.00000000000E+00 0. -1.
         11    1    1    2    0    0 -0.17668528693E+02 -0.18861166545E+02 -0.41708238870E+02  0.49066258256E+02  0.00000000000E+00 0.  1.
</event>
<event>
 7    1  0.2480409E-009  0.8985893E+02  0.7561462E-02  0.1303194E+00
         -2   -1    0    0    0  501 -0.00000000000E+00  0.00000000000E+00  0.45394898522E+02  0.45394898522E+02  0.00000000000E+00 0.  1.
          2   -1    0    0  501    0  0.00000000000E+00 -0.00000000000E+00 -0.32424046747E+03  0.32424046747E+03  0.00000000000E+00 0. -1.
         25    2    1    2    0    0  0.14267481804E+02 -0.85616437031E+01 -0.22745503142E+03  0.26012019347E+03  0.12509940428E+03 0.  0.
          5    1    3    3  502    0  0.36544588868E+02 -0.33196545750E+02 -0.22041094445E+03  0.22591143057E+03  0.41800000000E+01 0. -1.
         -5    1    3    3    0  502 -0.22277107064E+02  0.24634902047E+02 -0.70440869676E+01  0.34208762901E+02  0.41800000000E+01 0. -1.
        -11    1    1    2    0    0 -0.38847056386E+02  0.40680620519E+02 -0.30827240915E+02  0.64143007866E+02  0.00000000000E+00 0. -1.
         11    1    1    2    0    0  0.24579574582E+02 -0.32118976816E+02 -0.20563296613E+02  0.45372164660E+02  0.00000000000E+00 0.  1.
</event>
<event>
 7    1  0.2480409E-009  0.1366266E+03  0.7561462E-02  0.1217942E+00
         -4   -1    0    0    0  501 -0.00000000000E+00  0.00000000000E+00  0.11189985108E+04  0.11189985108E+04  0.00000000000E+00 0.  1.
          4   -1    0    0  501    0  0.00000000000E+00 -0.00000000000E+00 -0.17702279083E+02  0.17702279083E+02  0.00000000000E+00 0. -1.
         25    2    1    2    0    0 -0.70714246822E+02 -0.49650095432E+02  0.70270736495E+03  0.71896615288E+03  0.12509616921E+03 0.  0.
          5    1    3    3  502    0 -0.42916181728E+02 -0.91264777015E+02  0.50424681943E+03  0.51425031403E+03  0.41800000000E+01 0.  1.
         -5    1    3    3    0  502 -0.27798065095E+02  0.41614681583E+02  0.19846054552E+03  0.20471583885E+03  0.41800000000E+01 0.  1.
        -11    1    1    2    0    0  0.38246898596E+02  0.72789588361E+02  0.30747146884E+03  0.31827637923E+03  0.00000000000E+00 0.  1.
         11    1    1    2    0    0  0.32467348226E+02 -0.23139492929E+02  0.91117397906E+02  0.99458257752E+02  0.00000000000E+00 0. -1.
</event>
<event>
 7    1  0.2480409E-009  0.1493721E+03  0.7561462E-02  0.1201247E+00
          1   -1    0    0  501    0  0.00000000000E+00  0.00000000000E+00  0.76863514956E+03  0.76863514956E+03  0.00000000000E+00 0. -1.
         -1   -1    0    0    0  501 -0.00000000000E+00 -0.00000000000E+00 -0.34053438070E+02  0.34053438070E+02  0.00000000000E+00 0.  1.
         25    2    1    2    0    0  0.12019072682E+03  0.46239394460E+01  0.38199493584E+03  0.41956507653E+03  0.12509009076E+03 0.  0.
          5    1    3    3  502    0  0.10506613309E+03  0.52610511306E+02  0.31071235571E+03  0.33221438652E+03  0.41800000000E+01 0.  1.
         -5    1    3    3    0  502  0.15124593733E+02 -0.47986571860E+02  0.71282580130E+02  0.87350690006E+02  0.41800000000E+01 0.  1.
        -11    1    1    2    0    0 -0.48908308044E+02 -0.27130825838E+02  0.25006829491E+03  0.25624647592E+03  0.00000000000E+00 0. -1.
         11    1    1    2    0    0 -0.71282418776E+02  0.22506886392E+02  0.10251848075E+03  0.12687703518E+03  0.00000000000E+00 0.  1.
</event>
<event>
 7    1  0.2480409E-009  0.6805299E+02  0.7561462E-02  0.1366842E+00
         -1   -1    0    0    0  501 -0.00000000000E+00  0.00000000000E+00  0.31979529269E+03  0.31979529269E+03  0.00000000000E+00 0.  1.
          1   -1    0    0  501    0  0.00000000000E+00 -0.00000000000E+00 -0.62737902356E+02  0.62737902356E+02  0.00000000000E+00 0. -1.
         25    2    1    2    0    0  0.11079309504E+02 -0.29310068463E+01  0.14078065751E+02  0.12639359317E+03  0.12508319854E+03 0.  0.
          5    1    3    3  502    0 -0.79007500593E+01  0.27364415427E+02  0.60885108619E+02  0.67347620112E+02  0.41800000000E+01 0.  1.
         -5    1    3    3    0  502  0.18980059564E+02 -0.30295422273E+02 -0.46807042869E+02  0.59045973054E+02  0.41800000000E+01 0.  1.
        -11    1    1    2    0    0 -0.26317145439E+02 -0.27021604331E+02  0.18765517840E+03  0.19140852966E+03  0.00000000000E+00 0.  1.
         11    1    1    2    0    0  0.15237835935E+02  0.29952611177E+02  0.55324146179E+02  0.64731072220E+02  0.00000000000E+00 0. -1.
</event>
<event>
 7    1  0.2480409E-009  0.1433429E+03  0.7561462E-02  0.1208900E+00
          2   -1    0    0  501    0  0.00000000000E+00  0.00000000000E+00  0.54392588076E+02  0.54392588076E+02  0.00000000000E+00 0. -1.
         -2   -1    0    0    0  501 -0.00000000000E+00 -0.00000000000E+00 -0.43187716277E+03  0.43187716277E+03  0.00000000000E+00 0.  1.
         25    2    1    2    0    0 -0.26123738773E+02  0.92611331310E+02 -0.12737205315E+03  0.20280406837E+03  0.12508613757E+03 0.  0.
          5    1    3    3  502    0 -0.73787991793E+02  0.67373257945E+02 -0.10270073257E+03  0.14334830480E+03  0.41800000000E+01 0. -1.
         -5    1    3    3    0  502  0.47664253020E+02  0.25238073365E+02 -0.24671320582E+02  0.59455763576E+02  0.41800000000E+01 0. -1.
        -11    1    1    2    0    0  0.56576569469E+02 -0.32622034264E+02 -0.13890738430E+03  0.15349386550E+03  0.00000000000E+00 0.  1.
         11    1    1    2    0    0 -0.30452830696E+02 -0.59989297046E+02 -0.11120513724E+03  0.12997181697E+03  0.00000000000E+00 0. -1.
</event>
<event>
 7    1  0.2480409E-009  0.1335848E+03  0.7561462E-02  0.1222231E+00
          1   -1    0    0  501    0  0.00000000000E+00  0.00000000000E+00  0.13516562400E+03  0.13516562400E+03  0.00000000000E+00 0. -1.
         -1   -1    0    0    0  501 -0.00000000000E+00 -0.00000000000E+00 -0.18028256281E+03  0.18028256281E+03  0.00000000000E+00 0.  1.
         25    2    1    2    0    0  0.83350518692E+02  0.75445301812E+02 -0.10122166301E+02  0.16849046220E+03  0.12508906854E+03 0.  0.
          5    1    3    3  502    0  0.60852748336E+02  0.97545229536E+02 -0.42926946487E+02  0.12279382688E+03  0.41800000000E+01 0. -1.
         -5    1    3    3    0  502  0.22497770356E+02 -0.22099927723E+02  0.32804780185E+02  0.45696635318E+02  0.41800000000E+01 0. -1.
        -11    1    1    2    0    0 -0.27126008865E+02 -0.53446307672E+02 -0.56985593609E+02  0.82702394402E+02  0.00000000000E+00 0.  1.
         11    1    1    2    0    0 -0.56224509827E+02 -0.21998994140E+02  0.21990821096E+02  0.64255330214E+02  0.00000000000E+00 0. -1.
</event>
<event>
 7    1  0.2480409E-009  0.1314661E+03  0.7561462E-02  0.1225296E+00
          1   -1    0    0  501    0  0.00000000000E+00  0.00000000000E+00  0.30138427475E+03  0.30138427475E+03  0.00000000000E+00 0. -1.
         -1   -1    0    0    0  501 -0.00000000000E+00 -0.00000000000E+00 -0.78040764852E+02  0.78040764852E+02  0.00000000000E+00 0.  1.
         25    2    1    2    0    0 -0.10600578196E+03  0.29712776254E+01  0.88734898763E+02  0.18646853030E+03  0.12510226311E+03 0.  0.
          5    1    3    3  502    0  0.11301983210E+02  0.31649917815E+02  0.48415293545E+02  0.59084390251E+02  0.41800000000E+01 0.  1.
         -5    1    3    3    0  502 -0.11730776517E+03 -0.28678640190E+02  0.40319605218E+02  0.12738414005E+03  0.41800000000E+01 0.  1.
        -11    1    1    2    0    0  0.67687404389E+02  0.85327199362E+01  0.13682160089E+03  0.15288735229E+03  0.00000000000E+00 0. -1.
         11    1    1    2    0    0  0.38318377569E+02 -0.11503997562E+02 -0.22129897511E+01  0.40069157005E+02  0.00000000000E+00 0.  1.
</event>
<event>
 7    1  0.2480409E-009  0.1366167E+03  0.7561462E-02  0.1217955E+00
         -2   -1    0    0    0  501 -0.00000000000E+00  0.00000000000E+00  0.24350916938E+03  0.24350916938E+03  0.00000000000E+00 0.  1.
          2   -1    0    0  501    0  0.00000000000E+00 -0.00000000000E+00 -0.11563154342E+03  0.11563154342E+03  0.00000000000E+00 0. -1.
         25    2    1    2    0    0  0.11220122898E+02 -0.12276605119E+03  0.49602955263E+02  0.18249281216E+03  0.12508308774E+03 0.  0.
          5    1    3    3  502    0 -0.35121205008E+02 -0.47814768829E+02  0.70092748579E+02  0.91925061669E+02  0.41800000000E+01 0. -1.
         -5    1    3    3    0  502  0.46341327906E+02 -0.74951282358E+02 -0.20489793316E+02  0.90567750493E+02  0.41800000000E+01 0. -1.
        -11    1    1    2    0    0 -0.14582641742E+02  0.37931085149E+02  0.82156554749E+02  0.91657624609E+02  0.00000000000E+00 0.  1.
         11    1    1    2    0    0  0.33625188441E+01  0.84834966037E+02 -0.38818840450E+01  0.84990276028E+02  0.00000000000E+00 0. -1.
</event>
<event>
 7    1  0.2480409E-009  0.4548616E+03  0.7561462E-02  0.1026282E+00
          1   -1    0    0  501    0  0.00000000000E+00  0.00000000000E+00  0.14509622031E+04  0.14509622031E+04  0.00000000000E+00 0. -1.
         -1   -1    0    0    0  501 -0.00000000000E+00 -0.00000000000E+00 -0.14841997005E+03  0.14841997005E+03  0.00000000000E+00 0.  1.
         25    2    1    2    0    0 -0.33391080678E+03  0.30096958661E+03  0.72344517048E+03  0.86087084160E+03  0.12508625938E+03 0.  0.
          5    1    3    3  502    0 -0.24016661733E+03  0.15760097590E+03  0.37331977902E+03  0.47106602668E+03  0.41800000000E+01 0.  1.
         -5    1    3    3    0  502 -0.93744189444E+02  0.14336861071E+03  0.35012539146E+03  0.38980481493E+03  0.41800000000E+01 0.  1.
        -11    1    1    2    0    0  0.27974116503E+03 -0.26949315684E+03  0.44620497761E+03  0.59159155085E+03  0.00000000000E+00 0.  1.
         11    1    1    2    0    0  0.54169641743E+02 -0.31476429766E+02  0.13289208500E+03  0.14691978074E+03  0.00000000000E+00 0. -1.
</event>
<event>
 7    1  0.2480409E-009  0.6938150E+02  0.7561462E-02  0.1362209E+00
          1   -1    0    0  501    0  0.00000000000E+00  0.00000000000E+00  0.17926243574E+04  0.17926243574E+04  0.00000000000E+00 0. -1.
         -1   -1    0    0    0  501 -0.00000000000E+00 -0.00000000000E+00 -0.20992540468E+02  0.20992540468E+02  0.00000000000E+00 0.  1.
         25    2    1    2    0    0 -0.24280529701E+02 -0.38566064725E+02  0.16490541552E+04  0.16544193555E+04  0.12508761542E+03 0.  0.
          5    1    3    3  502    0 -0.53818423859E+01  0.18485638742E+02  0.13037629095E+04  0.13039117607E+04  0.41800000000E+01 0. -1.
         -5    1    3    3    0  502 -0.18898687315E+02 -0.57051703467E+02  0.34529124569E+03  0.35050759478E+03  0.41800000000E+01 0. -1.
        -11    1    1    2    0    0  0.34115281172E+02  0.33240097941E+02  0.13459882161E+03  0.14277814714E+03  0.00000000000E+00 0. -1.
         11    1    1    2    0    0 -0.98347514712E+01  0.53259667837E+01 -0.12021159825E+02  0.16419395306E+02  0.00000000000E+00 0.  1.
</event>
<event>
 7    1  0.2480409E-009  0.1009037E+03  0.7561462E-02  0.1278407E+00
         -2   -1    0    0    0  501 -0.00000000000E+00  0.00000000000E+00  0.15735804354E+03  0.15735804354E+03  0.00000000000E+00 0.  1.
          2   -1    0    0  501    0  0.00000000000E+00 -0.00000000000E+00 -0.94388117683E+02  0.94388117683E+02  0.00000000000E+00 0. -1.
         25    2    1    2    0    0  0.40261403281E+02 -0.28549410656E+02  0.97833680952E+01  0.13483048340E+03  0.12508994972E+03 0.  0.
          5    1    3    3  502    0 -0.61272809401E+01  0.34648755114E+02  0.37482617993E+02  0.51580023791E+02  0.41800000000E+01 0.  1.
         -5    1    3    3    0  502  0.46388684221E+02 -0.63198165770E+02 -0.27699249898E+02  0.83250459610E+02  0.41800000000E+01 0.  1.
        -11    1    1    2    0    0  0.44325619272E+01 -0.20811178583E+02  0.45062449198E+02  0.49833493625E+02  0.00000000000E+00 0.  1.
         11    1    1    2    0    0 -0.44693965208E+02  0.49360589239E+02  0.81241085595E+01  0.67082184192E+02  0.00000000000E+00 0. -1.
</event>
<event>
 7    1  0.2480409E-009  0.9649743E+02  0.7561462E-02  0.1287839E+00
         -1   -1    0    0    0  501 -0.00000000000E+00  0.00000000000E+00  0.20148660991E+03  0.20148660991E+03  0.00000000000E+00 0.  1.
          1   -1    0    0  501    0  0.00000000000E+00 -0.00000000000E+00 -0.89208600385E+02  0.89208600385E+02  0.00000000000E+00 0. -1.
         25    2    1    2    0    0  0.68727323236E+02  0.60729543965E+02  0.10459381383E+03  0.18708047062E+03  0.12509082351E+03 0.  0.
          5    1    3    3  502    0  0.52342338612E+02  0.47065158039E+02  0.13345983190E+03  0.15094319675E+03  0.41800000000E+01 0. -1.
         -5    1    3    3    0  502  0.16384984624E+02  0.13664385926E+02 -0.28866018068E+02  0.36137273873E+02  0.41800000000E+01 0. -1.
        -11    1    1    2    0    0 -0.50970526286E+02 -0.17310435860E+02 -0.74076606748E+01  0.54337088404E+02  0.00000000000E+00 0.  1.
         11    1    1    2    0    0 -0.17756796949E+02 -0.43419108105E+02  0.15091856370E+02  0.49277651275E+02  0.00000000000E+00 0. -1.
</event>
<event>
 7    1  0.2480409E-009  0.7077658E+02  0.7561462E-02  0.1357472E+00
         -3   -1    0    0    0  501 -0.00000000000E+00  0.00000000000E+00  0.29175901540E+02  0.29175901540E+02  0.00000000000E+00 0.  1.
          3   -1    0    0  501    0  0.00000000000E+00 -0.00000000000E+00 -0.50892050607E+03  0.50892050607E+03  0.00000000000E+00 0. -1.
         25    2    1    2    0    0 -0.37505908127E+02 -0.40252700812E+02 -0.24354957607E+03  0.27927059233E+03  0.12509474278E+03 0.  0.
          5    1    3    3  502    0 -0.23243104073E+02 -0.16539914519E+02 -0.24908048592E+03  0.25074363706E+03  0.41800000000E+01 0. -1.
         -5    1    3    3    0  502 -0.14262804054E+02 -0.23712786293E+02  0.55309098516E+01  0.28526955271E+02  0.41800000000E+01 0. -1.
        -11    1    1    2    0    0  0.40531978170E+02 -0.36800400066E+01 -0.19262487793E+03  0.19687744296E+03  0.00000000000E+00 0. -1.
         11    1    1    2    0    0 -0.30260700429E+01  0.43932740818E+02 -0.43570150529E+02  0.61948372318E+02  0.00000000000E+00 0.  1.
</event>
<event>
 7    1  0.2480409E-009  0.7539112E+02  0.7561462E-02  0.1342664E+00
          1   -1    0    0  501    0  0.00000000000E+00  0.00000000000E+00  0.54234446540E+03  0.54234446540E+03  0.00000000000E+00 0. -1.
         -1   -1    0    0    0  501 -0.00000000000E+00 -0.00000000000E+00 -0.24417138640E+02  0.24417138640E+02  0.00000000000E+00 0.  1.
         25    2    1    2    0    0 -0.37183581974E+02  0.62148061084E+01  0.30849876990E+03  0.33502272931E+03  0.12508994979E+03 0.  0.
          5    1    3    3  502    0 -0.17785186126E+02 -0.14386757924E+02 -0.18785908779E+01  0.23330091144E+02  0.41800000000E+01 0.  1.
         -5    1    3    3    0  502 -0.19398395848E+02  0.20601564032E+02  0.31037736078E+03  0.31169263816E+03  0.41800000000E+01 0.  1.
        -11    1    1    2    0    0  0.67882609551E+02 -0.17786474751E+01  0.15169821836E+03  0.16620337458E+03  0.00000000000E+00 0. -1.
         11    1    1    2    0    0 -0.30699027577E+02 -0.44361586333E+01  0.57730338495E+02  0.65535500153E+02  0.00000000000E+00 0.  1.
</event>
<event>
 7    1  0.2480409E-009  0.1092117E+03  0.7561462E-02  0.1262037E+00
          2   -1    0    0  501    0  0.00000000000E+00  0.00000000000E+00  0.22864822008E+03  0.22864822008E+03  0.00000000000E+00 0. -1.
         -2   -1    0    0    0  501 -0.00000000000E+00 -0.00000000000E+00 -0.79431525396E+02  0.79431525396E+02  0.00000000000E+00 0.  1.
         25    2    1    2    0    0 -0.58998714647E+02  0.51257171270E+02  0.61697717490E+02  0.15988107056E+03  0.12508877825E+03 0.  0.
          5    1    3    3  502    0 -0.74373979832E+02  0.27328128607E+02  0.89693940358E+02  0.11975304099E+03  0.41800000000E+01 0.  1.
         -5    1    3    3    0  502  0.15375265186E+02  0.23929042663E+02 -0.27996222868E+02  0.40128029570E+02  0.41800000000E+01 0.  1.
        -11    1    1    2    0    0 -0.29525992082E+01  0.17518270769E+02  0.40828234216E+02  0.44525861721E+02  0.00000000000E+00 0. -1.
         11    1    1    2    0    0  0.61951313855E+02 -0.68775442038E+02  0.46690742978E+02  0.10367281319E+03  0.00000000000E+00 0.  1.
</event>
<event>
 7    1  0.2480409E-009  0.1327198E+03  0.7561462E-02  0.1223475E+00
          2   -1    0    0  501    0  0.00000000000E+00  0.00000000000E+00  0.16959849227E+03  0.16959849227E+03  0.00000000000E+00 0. -1.
         -2   -1    0    0    0  501 -0.00000000000E+00 -0.00000000000E+00 -0.14206936136E+03  0.14206936136E+03  0.00000000000E+00 0.  1.
         25    2    1    2    0    0  0.13016256306E+02  0.10329365539E+03 -0.15865348437E+02  0.16351068444E+03  0.12508010422E+03 0.  0.
          5    1    3    3  502    0 -0.35960714431E+02  0.21782555253E+02  0.35647704881E+02  0.55280050281E+02  0.41800000000E+01 0. -1.
         -5    1    3    3    0  502  0.48976970738E+02  0.81511100134E+02 -0.51513053318E+02  0.10823063416E+03  0.41800000000E+01 0. -1.
        -11    1    1    2    0    0 -0.42333675546E+02 -0.80183080937E+02 -0.31862784125E+00  0.90672862961E+02  0.00000000000E+00 0.  1.
         11    1    1    2    0    0  0.29317419240E+02 -0.23110574450E+02  0.43713107186E+02  0.57484306225E+02  0.00000000000E+00 0. -1.
</event>
<event>
 7    1  0.2480409E-009  0.1299344E+03  0.7561462E-02  0.1227553E+00
          2   -1    0    0  501    0  0.00000000000E+00  0.00000000000E+00  0.11367293254E+03  0.11367293254E+03  0.00000000000E+00 0.  1.
         -2   -1    0    0    0  501 -0.00000000000E+00 -0.00000000000E+00 -0.15623600400E+03  0.15623600400E+03  0.00000000000E+00 0. -1.
         25    2    1    2    0    0 -0.54649784955E+02  0.57580667831E+02 -0.22726216093E+02  0.14987154999E+03  0.12507145275E+03 0.  0.
          5    1    3    3  502    0 -0.92576836765E+02  0.31807408737E+02 -0.31662520562E+02  0.10296683721E+03  0.41800000000E+01 0.  1.
         -5    1    3    3    0  502  0.37927051810E+02  0.25773259095E+02  0.89363044686E+01  0.46904712779E+02  0.41800000000E+01 0.  1.
        -11    1    1    2    0    0  0.72455953371E+02 -0.64241684344E+02 -0.25619783123E+02  0.10016602455E+03  0.00000000000E+00 0. -1.
         11    1    1    2    0    0 -0.17806168416E+02  0.66610165125E+01  0.57829277547E+01  0.19871362008E+02  0.00000000000E+00 0.  1.
</event>
<event>
 7    1  0.2480409E-009  0.1100364E+03  0.7561462E-02  0.1260502E+00
          4   -1    0    0  501    0  0.00000000000E+00  0.00000000000E+00  0.64844162974E+03  0.64844162974E+03  0.00000000000E+00 0. -1.
         -4   -1    0    0    0  501 -0.00000000000E+00 -0.00000000000E+00 -0.20138168355E+02  0.20138168355E+02  0.00000000000E+00 0.  1.
         25    2    1    2    0    0 -0.67720431752E+01  0.43050156625E+02  0.34616348263E+03  0.37064388578E+03  0.12509419171E+03 0.  0.
          5    1    3    3  502    0 -0.39874145854E+02 -0.29074112299E+02  0.93906590471E+02  0.10616577437E+03  0.41800000000E+01 0. -1.
         -5    1    3    3    0  502  0.33102102679E+02  0.72124268924E+02  0.25225689216E+03  0.26447811141E+03  0.41800000000E+01 0. -1.
        -11    1    1    2    0    0  0.41999897914E+02 -0.10910175918E+02  0.89266735260E+02  0.99255092501E+02  0.00000000000E+00 0.  1.
         11    1    1    2    0    0 -0.35227854739E+02 -0.32139980706E+02  0.19287324349E+03  0.19868081982E+03  0.00000000000E+00 0. -1.
</event>
<event>
 7    1  0.2480409E-009  0.6133956E+02  0.7561462E-02  0.1392295E+00
         -2   -1    0    0    0  501 -0.00000000000E+00  0.00000000000E+00  0.34031035019E+02  0.34031035019E+02  0.00000000000E+00 0.  1.
          2   -1    0    0  501    0  0.00000000000E+00 -0.00000000000E+00 -0.42926694516E+03  0.42926694516E+03  0.00000000000E+00 0. -1.
         25    2    1    2    0    0  0.10897789945E+02 -0.24368290173E+01 -0.29679622760E+03  0.32227151817E+03  0.12508489414E+03 0.  0.
          5    1    3    3  502    0 -0.50177310019E+01  0.57465477433E+01  0.10945629864E+02  0.13981403667E+02  0.41800000000E+01 0.  1.
         -5    1    3    3    0  502  0.15915520947E+02 -0.81833767605E+01 -0.30774185747E+03  0.30829011450E+03  0.41800000000E+01 0.  1.
        -11    1    1    2    0    0 -0.46756054853E+02 -0.22537187940E+02 -0.75646273041E+02  0.91741005721E+02  0.00000000000E+00 0.  1.
         11    1    1    2    0    0  0.35858264908E+02  0.24974016957E+02 -0.22793409497E+02  0.49285456290E+02  0.00000000000E+00 0. -1.
</event>
<event>
 7    1  0.2480409E-009  0.1459361E+03  0.7561462E-02  0.1205558E+00
          1   -1    0    0  501    0  0.00000000000E+00  0.00000000000E+00  0.14495141382E+03  0.14495141382E+03  0.00000000000E+00 0. -1.
         -1   -1    0    0    0  501 -0.00000000000E+00 -0.00000000000E+00 -0.19694004515E+03  0.19694004515E+03  0.00000000000E+00 0.  1.
         25    2    1    2    0    0 -0.13094025755E+02  0.95894276889E+02 -0.11278157927E+03  0.19425389579E+03  0.12509086921E+03 0.  0.
          5    1    3    3  502    0 -0.46480193769E+02  0.11122000215E+03 -0.79087070808E+02  0.14423083741E+03  0.41800000000E+01 0. -1.
         -5    1    3    3    0  502  0.33386168014E+02 -0.15325725264E+02 -0.33694508458E+02  0.50023058380E+02  0.41800000000E+01 0. -1.
        -11    1    1    2    0    0  0.30219515821E+01 -0.11374709375E+03  0.48160303451E+02  0.12355949318E+03  0.00000000000E+00 0.  1.
         11    1    1    2    0    0  0.10072074173E+02  0.17852816856E+02  0.12632644490E+02  0.24078069994E+02  0.00000000000E+00 0. -1.
</event>
<event>
 7    1  0.2480409E-009  0.1464480E+03  0.7561462E-02  0.1204907E+00
          1   -1    0    0  501    0  0.00000000000E+00  0.00000000000E+00  0.11521285480E+04  0.11521285480E+04  0.00000000000E+00 0. -1.
         -1   -1    0    0    0  501 -0.00000000000E+00 -0.00000000000E+00 -0.28607570377E+02  0.28607570377E+02  0.00000000000E+00 0.  1.
         25    2    1    2    0    0  0.13423582574E+03 -0.17216743491E+02  0.41567105313E+03  0.45469227138E+03  0.12508782543E+03 0.  0.
          5    1    3    3  502    0  0.10563433665E+03 -0.22013943199E+02  0.41108941254E+03  0.42503553296E+03  0.41800000000E+01 0.  1.
         -5    1    3    3    0  502  0.28601489096E+02  0.47971997071E+01  0.45816405959E+01  0.29656738426E+02  0.41800000000E+01 0.  1.
        -11    1    1    2    0    0 -0.67760879791E+02  0.47308852784E+02  0.47145357578E+03  0.47864197318E+03  0.00000000000E+00 0. -1.
         11    1    1    2    0    0 -0.66474945950E+02 -0.30092109292E+02  0.23639634874E+03  0.24740187384E+03  0.00000000000E+00 0.  1.
</event>
<event>
 7    1  0.2480409E-009  0.1787943E+03  0.7561462E-02  0.1168975E+00
         -2   -1    0    0    0  501 -0.00000000000E+00  0.00000000000E+00  0.38092657018E+02  0.38092657018E+02  0.00000000000E+00 0.  1.
          2   -1    0    0  501    0  0.00000000000E+00 -0.00000000000E+00 -0.10057115312E+04  0.10057115312E+04  0.00000000000E+00 0. -1.
         25    2    1    2    0    0 -0.12615072291E+03  0.10173841056E+03 -0.47016761548E+03  0.51280659524E+03  0.12509319885E+03 0.  0.
          5    1    3    3  502    0 -0.14538171381E+02  0.43173420977E+02 -0.29465967655E+02  0.54415240106E+02  0.41800000000E+01 0.  1.
         -5    1    3    3    0  502 -0.11161255153E+03  0.58564989578E+02 -0.44070164783E+03  0.45839135513E+03  0.41800000000E+01 0.  1.
        -11    1    1    2    0    0  0.15936923092E+02  0.17286560839E+02 -0.65301331186E+02  0.69405147921E+02  0.00000000000E+00 0.  1.
         11    1    1    2    0    0  0.11021379982E+03 -0.11902497139E+03 -0.43214992754E+03  0.46159244509E+03  0.00000000000E+00 0. -1.
</event>
<event>
 7    1  0.2480409E-009  0.5635529E+02  0.7561462E-02  0.1413796E+00
          2   -1    0    0  501    0  0.00000000000E+00  0.00000000000E+00  0.10542415299E+04  0.10542415299E+04  0.00000000000E+00 0. -1.
         -2   -1    0    0    0  501 -0.00000000000E+00 -0.00000000000E+00 -0.11917308907E+02  0.11917308907E+02  0.00000000000E+00 0.  1.
         25    2    1    2    0    0 -0.11392200546E+02  0.15063863874E+02  0.69518162172E+03  0.70659880987E+03  0.12509072191E+03 0.  0.
          5    1    3    3  502    0  0.13299074829E+01  0.10320617608E+02  0.69193532219E+03  0.69202618902E+03  0.41800000000E+01 0.  1.
         -5    1    3    3    0  502 -0.12722108029E+02  0.47432462658E+01  0.32462995343E+01  0.14572620853E+02  0.41800000000E+01 0.  1.
        -11    1    1    2    0    0  0.30288572093E+02 -0.43585704651E+02  0.14222765389E+03  0.15180848718E+03  0.00000000000E+00 0.  1.
         11    1    1    2    0    0 -0.18896371547E+02  0.28521840777E+02  0.20491494536E+03  0.20775154173E+03  0.00000000000E+00 0. -1.
</event>
<event>
 7    1  0.2480409E-009  0.1479393E+03  0.7561462E-02  0.1203028E+00
          1   -1    0    0  501    0  0.00000000000E+00  0.00000000000E+00  0.14678089948E+04  0.14678089948E+04  0.00000000000E+00 0. -1.
         -1   -1    0    0    0  501 -0.00000000000E+00 -0.00000000000E+00 -0.74163731344E+02  0.74163731344E+02  0.00000000000E+00 0.  1.
         25    2    1    2    0    0 -0.10240435626E+03  0.74762424550E+02  0.13788093400E+04  0.13902657115E+04  0.12508988816E+03 0.  0.
          5    1    3    3  502    0 -0.11665622376E+03  0.75962693599E+02  0.13552664029E+04  0.13624035748E+04  0.41800000000E+01 0.  1.
         -5    1    3    3    0  502  0.14251867499E+02 -0.12002690484E+01  0.23542937046E+02  0.27862136633E+02  0.41800000000E+01 0.  1.
        -11    1    1    2    0    0  0.39634519912E+02 -0.67822622408E+02 -0.17909228817E+02  0.80570117015E+02  0.00000000000E+00 0.  1.
         11    1    1    2    0    0  0.62769836351E+02 -0.69398021418E+01  0.32745152254E+02  0.71136897637E+02  0.00000000000E+00 0. -1.
</event>
<event>
 7    1  0.2480409E-009  0.1306691E+03  0.7561462E-02  0.1226466E+00
         -1   -1    0    0    0  501 -0.00000000000E+00  0.00000000000E+00  0.42341926494E+03  0.42341926494E+03  0.00000000000E+00 0.  1.
          1   -1    0    0  501    0  0.00000000000E+00 -0.00000000000E+00 -0.48667971202E+02  0.48667971202E+02  0.00000000000E+00 0. -1.
         25    2    1    2    0    0 -0.57853560291E+02 -0.62001262834E+02  0.26896105177E+03  0.30850817285E+03  0.12508418890E+03 0.  0.
          5    1    3    3  502    0  0.24049389884E+02  0.16259434506E+02  0.21649462163E+02  0.36454272399E+02  0.41800000000E+01 0. -1.
         -5    1    3    3    0  502 -0.81902950175E+02 -0.78260697340E+02  0.24731158961E+03  0.27205390045E+03  0.41800000000E+01 0. -1.
        -11    1    1    2    0    0 -0.81671791737E+00 -0.18787167186E+02  0.99024263327E+00  0.18830965443E+02  0.00000000000E+00 0. -1.
         11    1    1    2    0    0  0.58670278208E+02  0.80788430020E+02  0.10479999933E+03  0.14474809784E+03  0.00000000000E+00 0.  1.
</event>
<event>
 7    1  0.2480409E-009  0.2639267E+03  0.7561462E-02  0.1104807E+00
         -2   -1    0    0    0  501 -0.00000000000E+00  0.00000000000E+00  0.49233350592E+02  0.49233350592E+02  0.00000000000E+00 0.  1.
          2   -1    0    0  501    0  0.00000000000E+00 -0.00000000000E+00 -0.14477382149E+04  0.14477382149E+04  0.00000000000E+00 0. -1.
         25    2    1    2    0    0 -0.32631530041E+02 -0.24180197496E+03 -0.70466393037E+03  0.75612987002E+03  0.12509242069E+03 0.  0.
          5    1    3    3  502    0 -0.14177330307E+02  0.11965532736E+02 -0.64414825088E+02  0.67163328978E+02  0.41800000000E+01 0.  1.
         -5    1    3    3    0  502 -0.18454199735E+02 -0.25376750770E+03 -0.64024910529E+03  0.68896654104E+03  0.41800000000E+01 0.  1.
        -11    1    1    2    0    0 -0.12822609364E+02  0.16214535697E+03 -0.36805871778E+03  0.40239626717E+03  0.00000000000E+00 0.  1.
         11    1    1    2    0    0  0.45454139405E+02  0.79656617998E+02 -0.32578221620E+03  0.33844542835E+03  0.00000000000E+00 0. -1.
</event>
<event>
 7    1  0.2480409E-009  0.1315702E+03  0.7561462E-02  0.1225144E+00
          1   -1    0    0  501    0  0.00000000000E+00  0.00000000000E+00  0.34970417734E+03  0.34970417734E+03  0.00000000000E+00 0. -1.
         -1   -1    0    0    0  501 -0.00000000000E+00 -0.00000000000E+00 -0.61585441631E+02  0.61585441631E+02  0.00000000000E+00 0.  1.
         25    2    1    2    0    0  0.96499078813E+02 -0.18685681508E+02  0.13747466808E+03  0.21025680835E+03  0.12508962462E+03 0.  0.
          5    1    3    3  502    0 -0.15865420529E+02  0.43487967247E+01  0.80211917042E+02  0.81988094484E+02  0.41800000000E+01 0.  1.
         -5    1    3    3    0  502  0.11236449934E+03 -0.23034478233E+02  0.57262751041E+02  0.12826871386E+03  0.41800000000E+01 0.  1.
        -11    1    1    2    0    0 -0.79619357057E+02 -0.25891700831E+02  0.79915555945E+02  0.11574160130E+03  0.00000000000E+00 0.  1.
         11    1    1    2    0    0 -0.16879721756E+02  0.44577382339E+02  0.70728511680E+02  0.85291209320E+02  0.00000000000E+00 0. -1.
</event>
<event>
 7    1  0.2480409E-009  0.7381069E+02  0.7561462E-02  0.1347594E+00
         -2   -1    0    0    0  501 -0.00000000000E+00  0.00000000000E+00  0.48047931917E+02  0.48047931917E+02  0.00000000000E+00 0.  1.
          2   -1    0    0  501    0  0.00000000000E+00 -0.00000000000E+00 -0.33311898410E+03  0.33311898410E+03  0.00000000000E+00 0. -1.
         25    2    1    2    0    0 -0.92198481358E+00 -0.29932622627E+00 -0.59389308953E+02  0.13847961803E+03  0.12509426422E+03 0.  0.
          5    1    3    3  502    0  0.25024686086E+02  0.25490111638E+02  0.26735788803E+02  0.44813563884E+02  0.41800000000E+01 0. -1.
         -5    1    3    3    0  502 -0.25946670900E+02 -0.25789437865E+02 -0.86125097757E+02  0.93666054149E+02  0.41800000000E+01 0. -1.
        -11    1    1    2    0    0 -0.86792952070E+01  0.36430698407E+02 -0.46795151658E+02  0.59935900514E+02  0.00000000000E+00 0. -1.
         11    1    1    2    0    0  0.96012800206E+01 -0.36131372181E+02 -0.17888659157E+03  0.18275139747E+03  0.00000000000E+00 0.  1.
</event>
<event>
 7    1  0.2480409E-009  0.1632356E+03  0.7561462E-02  0.1185091E+00
         -1   -1    0    0    0  501 -0.00000000000E+00  0.00000000000E+00  0.58684063437E+03  0.58684063437E+03  0.00000000000E+00 0.  1.
          1   -1    0    0  501    0  0.00000000000E+00 -0.00000000000E+00 -0.50422508532E+02  0.50422508532E+02  0.00000000000E+00 0. -1.
         25    2    1    2    0    0 -0.21643868810E+01 -0.13302710570E+03  0.29246022096E+03  0.34479192823E+03  0.12509035738E+03 0.  0.
          5    1    3    3  502    0  0.39622857348E+02 -0.19928150193E+02  0.15791427103E+03  0.16407769925E+03  0.41800000000E+01 0.  1.
         -5    1    3    3    0  502 -0.41787244229E+02 -0.11309895550E+03  0.13454594992E+03  0.18071422898E+03  0.41800000000E+01 0.  1.
        -11    1    1    2    0    0  0.45915214405E+02  0.82715491256E+02  0.13985120083E+03  0.16884435964E+03  0.00000000000E+00 0.  1.
         11    1    1    2    0    0 -0.43750827524E+02  0.50311614442E+02  0.10410670405E+03  0.12362685504E+03  0.00000000000E+00 0. -1.
</event>
<event>
 7    1  0.2480409E-009  0.1507243E+03  0.7561462E-02  0.1199586E+00
         -2   -1    0    0    0  501 -0.00000000000E+00  0.00000000000E+00  0.17303664166E+03  0.17303664166E+03  0.00000000000E+00 0. -1.
          2   -1    0    0  501    0  0.00000000000E+00 -0.00000000000E+00 -0.24513756717E+03  0.24513756717E+03  0.00000000000E+00 0.  1.
         25    2    1    2    0    0 -0.20022227528E+02  0.13313575653E+03  0.72116100606E+02  0.19742008375E+03  0.12509171931E+03 0.  0.
          5    1    3    3  502    0 -0.17532240790E+02  0.14906381373E+03  0.88307067361E+02  0.17419245269E+03  0.41800000000E+01 0. -1.
         -5    1    3    3    0  502 -0.24899867379E+01 -0.15928057196E+02 -0.16190966755E+02  0.23227631056E+02  0.41800000000E+01 0. -1.
        -11    1    1    2    0    0  0.10721661783E+02 -0.77168012964E+02 -0.14602054504E+02  0.79265858047E+02  0.00000000000E+00 0. -1.
         11    1    1    2    0    0  0.93005657452E+01 -0.55967743567E+02 -0.12961497161E+03  0.14148826704E+03  0.00000000000E+00 0.  1.
</event>
<event>
 7    1  0.2962596E-009  0.7514344E+02  0.7561462E-02  0.1343427E+00
         -2   -1    0    0    0  501 -0.00000000000E+00  0.00000000000E+00  0.60447360301E+02  0.60447360301E+02  0.00000000000E+00 0.  1.
          2   -1    0    0  501    0  0.00000000000E+00 -0.00000000000E+00 -0.25384873079E+03  0.25384873079E+03  0.00000000000E+00 0. -1.
         25    2    1    2    0    0 -0.57211702449E+02 -0.13240466208E+02 -0.12173960656E+03  0.18415345200E+03  0.12507387112E+03 0.  0.
          5    1    3    3  502    0 -0.14974405582E+02 -0.18861311399E+02  0.22787922678E+02  0.33417715514E+02  0.41800000000E+01 0.  1.
         -5    1    3    3    0  502 -0.42237296867E+02  0.56208451908E+01 -0.14452752924E+03  0.15073573649E+03  0.41800000000E+01 0.  1.
        -11    1    1    2    0    0 -0.10292964614E+02  0.11595822798E+02 -0.59556149554E+02  0.61541394010E+02  0.00000000000E+00 0. -1.
         11    1    1    2    0    0  0.67504667063E+02  0.16446434102E+01 -0.12105614377E+02  0.68601245081E+02  0.00000000000E+00 0.  1.
</event>
<event>
 7    1  0.2964704E-009  0.1381475E+03  0.7561462E-02  0.1215844E+00
         -3   -1    0    0    0  501 -0.00000000000E+00  0.00000000000E+00  0.24784662415E+02  0.24784662415E+02  0.00000000000E+00 0.  1.
          3   -1    0    0  501    0  0.00000000000E+00 -0.00000000000E+00 -0.83404295751E+03  0.83404295751E+03  0.00000000000E+00 0. -1.
         25    2    1    2    0    0 -0.43853268840E+02 -0.83228739579E+02 -0.44877750478E+03  0.47528809970E+03  0.12508955449E+03 0.  0.
          5    1    3    3  502    0  0.29050201023E+02 -0.77949757947E+02 -0.23600793768E+03  0.25027444534E+03  0.41800000000E+01 0.  1.
         -5    1    3    3    0  502 -0.72903469863E+02 -0.52789816318E+01 -0.21276956709E+03  0.22501365436E+03  0.41800000000E+01 0.  1.
        -11    1    1    2    0    0  0.57317685757E+02  0.29626099010E+02 -0.11451471917E+03  0.13144064725E+03  0.00000000000E+00 0.  1.
         11    1    1    2    0    0 -0.13464416918E+02  0.53602640568E+02 -0.24596607115E+03  0.25209887297E+03  0.00000000000E+00 0. -1.
</event>
<event>
 7    1  0.2480409E-009  0.1003023E+03  0.7561462E-02  0.1279661E+00
          1   -1    0    0  501    0  0.00000000000E+00  0.00000000000E+00  0.49617126998E+03  0.49617126998E+03  0.00000000000E+00 0. -1.
         -1   -1    0    0    0  501 -0.00000000000E+00 -0.00000000000E+00 -0.30774735511E+02  0.30774735511E+02  0.00000000000E+00 0.  1.
         25    2    1    2    0    0 -0.38778588905E+02  0.33436721192E+02  0.33809160003E+03  0.36410982280E+03  0.12509292453E+03 0.  0.
          5    1    3    3  502    0  0.18979452644E+02  0.36213090172E+02  0.30700209322E+02  0.51298954910E+02  0.41800000000E+01 0. -1.
         -5    1    3    3    0  502 -0.57758041549E+02 -0.27763689801E+01  0.30739139071E+03  0.31281086789E+03  0.41800000000E+01 0. -1.
        -11    1    1    2    0    0 -0.20413245492E+02 -0.36972297644E+02  0.53571255724E+02  0.68216792833E+02  0.00000000000E+00 0.  1.
         11    1    1    2    0    0  0.59191834397E+02  0.35355764522E+01  0.73733678713E+02  0.94619389856E+02  0.00000000000E+00 0. -1.
</event>
<event>
 7    1  0.2480409E-009  0.1388629E+03  0.7561462E-02  0.1214867E+00
         -1   -1    0    0    0  501 -0.00000000000E+00  0.00000000000E+00  0.90010775059E+02  0.90010775059E+02  0.00000000000E+00 0.  1.
          1   -1    0    0  501    0  0.00000000000E+00 -0.00000000000E+00 -0.24922173851E+03  0.24922173851E+03  0.00000000000E+00 0. -1.
         25    2    1    2    0    0 -0.92226380132E+02  0.19586721278E+02 -0.42520330245E+02  0.16231093854E+03  0.12509003734E+03 0.  0.
          5    1    3    3  502    0 -0.10638057142E+03 -0.21754277578E+02 -0.46583797172E+02  0.11822688835E+03  0.41800000000E+01 0. -1.
         -5    1    3    3    0  502  0.14154191292E+02  0.41340998856E+02  0.40634669275E+01  0.44084050188E+02  0.41800000000E+01 0. -1.
        -11    1    1    2    0    0  0.10186754643E+03 -0.34377006994E+02 -0.11747938764E+03  0.15924880579E+03  0.00000000000E+00 0. -1.
         11    1    1    2    0    0 -0.96411662994E+01  0.14790285716E+02  0.78875443142E+00  0.17672769244E+02  0.00000000000E+00 0.  1.
</event>
<event>
 7    1  0.2480409E-009  0.9945021E+02  0.7561462E-02  0.1281456E+00
          1   -1    0    0  501    0  0.00000000000E+00  0.00000000000E+00  0.20998470716E+03  0.20998470716E+03  0.00000000000E+00 0.  1.
         -1   -1    0    0    0  501 -0.00000000000E+00 -0.00000000000E+00 -0.57283285826E+02  0.57283285826E+02  0.00000000000E+00 0. -1.
         25    2    1    2    0    0 -0.81588263293E+01  0.12974953861E+02  0.92303247533E+02  0.15621334088E+03  0.12509117670E+03 0.  0.
          5    1    3    3  502    0 -0.25743014393E+02 -0.43782125040E+02  0.59478088122E+01  0.51307173891E+02  0.41800000000E+01 0.  1.
         -5    1    3    3    0  502  0.17584188064E+02  0.56757078901E+02  0.86355438720E+02  0.10490616699E+03  0.41800000000E+01 0.  1.
        -11    1    1    2    0    0 -0.15526425980E+02 -0.45535525789E+02  0.50174927652E+02  0.69513145357E+02  0.00000000000E+00 0.  1.
         11    1    1    2    0    0  0.23685252309E+02  0.32560571927E+02  0.10223246146E+02  0.41541506748E+02  0.00000000000E+00 0. -1.
</event>
<event>
 7    1  0.2480409E-009  0.7101902E+02  0.7561462E-02  0.1356662E+00
          1   -1    0    0  501    0  0.00000000000E+00  0.00000000000E+00  0.42389310431E+03  0.42389310431E+03  0.00000000000E+00 0. -1.
         -1   -1    0    0    0  501 -0.00000000000E+00 -0.00000000000E+00 -0.43188644560E+02  0.43188644560E+02  0.00000000000E+00 0.  1.
         25    2    1    2    0    0  0.31768560544E+02  0.20498979983E+02  0.33377054602E+03  0.35843978120E+03  0.12508736841E+03 0.  0.
          5    1    3    3  502    0  0.31492991391E+02  0.31263613757E+02  0.34159336689E+03  0.34448907495E+03  0.41800000000E+01 0. -1.
         -5    1    3    3    0  502  0.27556915324E+00 -0.10764633774E+02 -0.78228208702E+01  0.13950706255E+02  0.41800000000E+01 0. -1.
        -11    1    1    2    0    0  0.12469938448E+02  0.21538912603E+02 -0.83967776851E+01  0.26266518546E+02  0.00000000000E+00 0.  1.
         11    1    1    2    0    0 -0.44238498992E+02 -0.42037892587E+02  0.55330691415E+02  0.82375449125E+02  0.00000000000E+00 0. -1.
</event>
<event>
 7    1  0.2480409E-009  0.1169518E+03  0.7561462E-02  0.1248212E+00
          1   -1    0    0  501    0  0.00000000000E+00  0.00000000000E+00  0.17494739826E+03  0.17494739826E+03  0.00000000000E+00 0. -1.
         -1   -1    0    0    0  501 -0.00000000000E+00 -0.00000000000E+00 -0.12506627512E+03  0.12506627512E+03  0.00000000000E+00 0.  1.
         25    2    1    2    0    0 -0.85965945734E+02  0.67809440665E+01  0.78020017440E+02  0.17079667357E+03  0.12509298763E+03 0.  0.
          5    1    3    3  502    0 -0.93682039795E+02  0.37858834445E+02  0.90950182230E+02  0.13601111709E+03  0.41800000000E+01 0. -1.
         -5    1    3    3    0  502  0.77160940617E+01 -0.31077890378E+02 -0.12930164789E+02  0.34785556477E+02  0.41800000000E+01 0. -1.
        -11    1    1    2    0    0  0.56489704897E+02  0.20718434878E+02 -0.54391953178E+02  0.81109955454E+02  0.00000000000E+00 0.  1.
         11    1    1    2    0    0  0.29476240837E+02 -0.27499378944E+02  0.26253058884E+02  0.48107044359E+02  0.00000000000E+00 0. -1.
</event>
<event>
 7    1  0.2480409E-009  0.1511237E+03  0.7561462E-02  0.1199099E+00
         -2   -1    0    0    0  501 -0.00000000000E+00  0.00000000000E+00  0.31568803727E+02  0.31568803727E+02  0.00000000000E+00 0.  1.
          2   -1    0    0  501    0  0.00000000000E+00 -0.00000000000E+00 -0.11028002099E+04  0.11028002099E+04  0.00000000000E+00 0. -1.
         25    2    1    2    0    0 -0.13495050678E+03  0.54693945040E+02 -0.68584207228E+03  0.71220076163E+03  0.12509000698E+03 0.  0.
          5    1    3    3  502    0 -0.72812653129E+02  0.18285235890E+02 -0.57535879651E+03  0.58025102277E+03  0.41800000000E+01 0. -1.
         -5    1    3    3    0  502 -0.62137853650E+02  0.36408709151E+02 -0.11048327577E+03  0.13194973885E+03  0.41800000000E+01 0. -1.
        -11    1    1    2    0    0  0.96255387487E+02 -0.63394860280E+02 -0.35178572050E+03  0.37018536043E+03  0.00000000000E+00 0.  1.
         11    1    1    2    0    0  0.38695119292E+02  0.87009152393E+01 -0.33603613395E+02  0.51982891573E+02  0.00000000000E+00 0. -1.
</event>
<event>
 7    1  0.2480409E-009  0.6251595E+02  0.7561462E-02  0.1387567E+00
          1   -1    0    0  501    0  0.00000000000E+00  0.00000000000E+00  0.18356463066E+03  0.18356463066E+03  0.00000000000E+00 0. -1.
         -1   -1    0    0    0  501 -0.00000000000E+00 -0.00000000000E+00 -0.66476001307E+02  0.66476001307E+02  0.00000000000E+00 0.  1.
         25    2    1    2    0    0  0.61913168323E+01 -0.19786544694E+02  0.60893634080E+02  0.14066396742E+03  0.12509387397E+03 0.  0.
          5    1    3    3  502    0  0.23375472407E+02 -0.32534891478E+02  0.93290575104E+02  0.10161464302E+03  0.41800000000E+01 0.  1.
         -5    1    3    3    0  502 -0.17184155574E+02  0.12748346783E+02 -0.32396941023E+02  0.39049324401E+02  0.41800000000E+01 0.  1.
        -11    1    1    2    0    0  0.26784734828E+02  0.87390385323E+01  0.67226428095E+02  0.72891600673E+02  0.00000000000E+00 0. -1.
         11    1    1    2    0    0 -0.32976051660E+02  0.11047506162E+02 -0.11031432822E+02  0.36485063870E+02  0.00000000000E+00 0.  1.
</event>
<event>
 7    1  0.2480409E-009  0.1342542E+03  0.7561462E-02  0.1221276E+00
         -1   -1    0    0    0  501 -0.00000000000E+00  0.00000000000E+00  0.31055342172E+02  0.31055342172E+02  0.00000000000E+00 0.  1.
          1   -1    0    0  501    0  0.00000000000E+00 -0.00000000000E+00 -0.61721514797E+03  0.61721514797E+03  0.00000000000E+00 0. -1.
         25    2    1    2    0    0 -0.52112890923E+02  0.69173391562E+02 -0.32756286051E+03  0.36117101623E+03  0.12508542632E+03 0.  0.
          5    1    3    3  502    0  0.33283924009E+02 -0.45024137717E+01 -0.12262229346E+03  0.12720766714E+03  0.41800000000E+01 0.  1.
         -5    1    3    3    0  502 -0.85396814932E+02  0.73675805334E+02 -0.20494056705E+03  0.23396334908E+03  0.41800000000E+01 0.  1.
        -11    1    1    2    0    0  0.49269283110E+02  0.31964782275E+01 -0.13628559166E+03  0.14495324152E+03  0.00000000000E+00 0.  1.
         11    1    1    2    0    0  0.28436078131E+01 -0.72369869790E+02 -0.12231135362E+03  0.14214623239E+03  0.00000000000E+00 0. -1.
</event>
<event>
 7    1  0.2480409E-009  0.1100877E+03  0.7561462E-02  0.1260408E+00
          2   -1    0    0  501    0  0.00000000000E+00  0.00000000000E+00  0.98560066815E+02  0.98560066815E+02  0.00000000000E+00 0. -1.
         -2   -1    0    0    0  501 -0.00000000000E+00 -0.00000000000E+00 -0.21971420831E+03  0.21971420831E+03  0.00000000000E+00 0.  1.
         25    2    1    2    0    0 -0.22421260556E+02  0.87592573955E+02 -0.10985315681E+03  0.18944810820E+03  0.12509075786E+03 0.  0.
          5    1    3    3  502    0 -0.11377694841E+02  0.10632793357E+03 -0.12351478720E+03  0.16342722066E+03  0.41800000000E+01 0. -1.
         -5    1    3    3    0  502 -0.11043565716E+02 -0.18735359611E+02  0.13661630389E+02  0.26020887539E+02  0.41800000000E+01 0. -1.
        -11    1    1    2    0    0  0.20523989295E+02 -0.61153626186E+02  0.36537448541E+02  0.74134912681E+02  0.00000000000E+00 0. -1.
         11    1    1    2    0    0  0.18972712612E+01 -0.26438947769E+02 -0.47838433227E+02  0.54691254246E+02  0.00000000000E+00 0.  1.
</event>
<event>
 7    1  0.2480409E-009  0.1168458E+03  0.7561462E-02  0.1248393E+00
         -2   -1    0    0    0  501 -0.00000000000E+00  0.00000000000E+00  0.46792525840E+02  0.46792525840E+02  0.00000000000E+00 0.  1.
          2   -1    0    0  501    0  0.00000000000E+00 -0.00000000000E+00 -0.60023044274E+03  0.60023044274E+03  0.00000000000E+00 0. -1.
         25    2    1    2    0    0  0.63431476738E+02 -0.74451028689E+02 -0.45384462243E+03  0.48082208093E+03  0.12509366206E+03 0.  0.
          5    1    3    3  502    0  0.12972714487E+02 -0.52141986599E+02 -0.51012303839E+02  0.74207854238E+02  0.41800000000E+01 0. -1.
         -5    1    3    3    0  502  0.50458762251E+02 -0.22309042090E+02 -0.40283231859E+03  0.40661422669E+03  0.41800000000E+01 0. -1.
        -11    1    1    2    0    0 -0.63538130844E+02  0.89312332850E+02 -0.10358766786E+03  0.15081177608E+03  0.00000000000E+00 0. -1.
         11    1    1    2    0    0  0.10665410545E+00 -0.14861304161E+02  0.39943733866E+01  0.15389111580E+02  0.00000000000E+00 0.  1.
</event>
<event>
 7    1  0.2480409E-009  0.1177117E+03  0.7561462E-02  0.1246920E+00
         -1   -1    0    0    0  501 -0.00000000000E+00  0.00000000000E+00  0.17506563397E+02  0.17506563397E+02  0.00000000000E+00 0.  1.
          1   -1    0    0  501    0  0.00000000000E+00 -0.00000000000E+00 -0.84669200418E+03  0.84669200418E+03  0.00000000000E+00 0. -1.
         25    2    1    2    0    0 -0.39256661243E+02 -0.40329250083E+02 -0.39082442958E+03  0.41419628807E+03  0.12508915392E+03 0.  0.
          5    1    3    3  502    0  0.43195168900E+02 -0.40065111618E+01 -0.17368658470E+03  0.17907087104E+03  0.41800000000E+01 0.  1.
         -5    1    3    3    0  502 -0.82451830143E+02 -0.36322738921E+02 -0.21713784488E+03  0.23512541704E+03  0.41800000000E+01 0.  1.
        -11    1    1    2    0    0  0.20144423903E+02  0.66361861217E+02 -0.29264558739E+03  0.30075095055E+03  0.00000000000E+00 0.  1.
         11    1    1    2    0    0  0.19112237340E+02 -0.26032611134E+02 -0.14571542381E+03  0.14925132896E+03  0.00000000000E+00 0. -1.
</event>
<event>
 7    1  0.2480409E-009  0.9688693E+02  0.7561462E-02  0.1286982E+00
         -2   -1    0    0    0  501 -0.00000000000E+00  0.00000000000E+00  0.88597223032E+03  0.88597223032E+03  0.00000000000E+00 0.  1.
          2   -1    0    0  501    0  0.00000000000E+00 -0.00000000000E+00 -0.20230336054E+02  0.20230336054E+02  0.00000000000E+00 0. -1.
         25    2    1    2    0    0 -0.37281928149E+02  0.64126318378E+02  0.53262832098E+03  0.55212678513E+03  0.12509569006E+03 0.  0.
          5    1    3    3  502    0 -0.23664447273E+02  0.15542179715E+02  0.47316342321E+03  0.47402812456E+03  0.41800000000E+01 0. -1.
         -5    1    3    3    0  502 -0.13617480876E+02  0.48584138663E+02  0.59464897772E+02  0.78098660565E+02  0.41800000000E+01 0. -1.
        -11    1    1    2    0    0  0.61793236226E+02 -0.65407697213E+02  0.29759992428E+03  0.31090558989E+03  0.00000000000E+00 0.  1.
         11    1    1    2    0    0 -0.24511308077E+02  0.12813788350E+01  0.35513649005E+02  0.43170191348E+02  0.00000000000E+00 0. -1.
</event>
<event>
 7    1  0.2480409E-009  0.1388719E+03  0.7561462E-02  0.1214855E+00
         -3   -1    0    0    0  501 -0.00000000000E+00  0.00000000000E+00  0.59394257634E+02  0.59394257634E+02  0.00000000000E+00 0.  1.
          3   -1    0    0  501    0  0.00000000000E+00 -0.00000000000E+00 -0.41905280911E+03  0.41905280911E+03  0.00000000000E+00 0. -1.
         25    2    1    2    0    0 -0.10406613188E+02  0.79802089130E+02 -0.77303879651E+02  0.16763336332E+03  0.12509349968E+03 0.  0.
          5    1    3    3  502    0  0.56296005692E+02  0.24421780284E+02 -0.25745034956E+02  0.66677903641E+02  0.41800000000E+01 0. -1.
         -5    1    3    3    0  502 -0.66702618879E+02  0.55380308846E+02 -0.51558844696E+02  0.10095545968E+03  0.41800000000E+01 0. -1.
        -11    1    1    2    0    0  0.17660510726E+02  0.21530988339E+02 -0.72416259677E+02  0.77586028147E+02  0.00000000000E+00 0.  1.
         11    1    1    2    0    0 -0.72538975384E+01 -0.10133307747E+03 -0.20993841214E+03  0.23322767527E+03  0.00000000000E+00 0. -1.
</event>
<event>
 7    1  0.2480409E-009  0.1081170E+03  0.7561462E-02  0.1264097E+00
         -1   -1    0    0    0  501 -0.00000000000E+00  0.00000000000E+00  0.20327825577E+03  0.20327825577E+03  0.00000000000E+00 0.  1.
          1   -1    0    0  501    0  0.00000000000E+00 -0.00000000000E+00 -0.79130861175E+02  0.79130861175E+02  0.00000000000E+00 0. -1.
         25    2    1    2    0    0 -0.50275430584E+02 -0.12871579748E+02  0.11479112655E+03  0.17753895408E+03  0.12509908471E+03 0.  0.
          5    1    3    3  502    0  0.30934822232E+02  0.12965456046E+02  0.77250451987E+02  0.84321829968E+02  0.41800000000E+01 0.  1.
         -5    1    3    3    0  502 -0.81210252816E+02 -0.25837035794E+02  0.37540674566E+02  0.93217124113E+02  0.41800000000E+01 0.  1.
        -11    1    1    2    0    0  0.54068328470E+02  0.41544619854E+02 -0.11583501953E+02  0.69162974920E+02  0.00000000000E+00 0.  1.
         11    1    1    2    0    0 -0.37928978853E+01 -0.28673040106E+02  0.20939769993E+02  0.35707187940E+02  0.00000000000E+00 0. -1.
</event>
<event>
 7    1  0.2480409E-009  0.2553368E+03  0.7561462E-02  0.1109978E+00
          2   -1    0    0  501    0  0.00000000000E+00  0.00000000000E+00  0.14785733430E+04  0.14785733430E+04  0.00000000000E+00 0. -1.
         -2   -1    0    0    0  501 -0.00000000000E+00 -0.00000000000E+00 -0.50122663179E+02  0.50122663179E+02  0.00000000000E+00 0.  1.
         25    2    1    2    0    0 -0.80592502136E+02 -0.23030419786E+03  0.58975574128E+03  0.65037848169E+03  0.12508061450E+03 0.  0.
          5    1    3    3  502    0  0.22583576650E+02 -0.59381787698E+02  0.23293501661E+03  0.24147962442E+03  0.41800000000E+01 0.  1.
         -5    1    3    3    0  502 -0.10317607879E+03 -0.17092241016E+03  0.35682072467E+03  0.40889885728E+03  0.41800000000E+01 0.  1.
        -11    1    1    2    0    0  0.31288010513E+01  0.61533606427E+02  0.35293162745E+03  0.35826932296E+03  0.00000000000E+00 0. -1.
         11    1    1    2    0    0  0.77463701084E+02  0.16877059143E+03  0.48576331113E+03  0.52004820157E+03  0.00000000000E+00 0.  1.
</event>
<event>
 7    1  0.2480409E-009  0.6052986E+02  0.7561462E-02  0.1395622E+00
          1   -1    0    0  501    0  0.00000000000E+00  0.00000000000E+00  0.79730865612E+02  0.79730865612E+02  0.00000000000E+00 0.  1.
         -1   -1    0    0    0  501 -0.00000000000E+00 -0.00000000000E+00 -0.16491519206E+03  0.16491519206E+03  0.00000000000E+00 0. -1.
         25    2    1    2    0    0  0.30027144860E+02 -0.26370708144E+02 -0.41491850128E+02  0.13772027833E+03  0.12509299645E+03 0.  0.
          5    1    3    3  502    0 -0.99680402056E+01 -0.14352714206E+01 -0.77498324839E+02  0.78261641833E+02  0.41800000000E+01 0. -1.
         -5    1    3    3    0  502  0.39995185066E+02 -0.24935436723E+02  0.36006474711E+02  0.59458636498E+02  0.41800000000E+01 0. -1.
        -11    1    1    2    0    0 -0.60698119438E+01 -0.14357227557E+02 -0.55974195101E+02  0.58104071436E+02  0.00000000000E+00 0. -1.
         11    1    1    2    0    0 -0.23957332916E+02  0.40727935701E+02  0.12281718778E+02  0.48821707908E+02  0.00000000000E+00 0.  1.
</event>
<event>
 7    1  0.2480409E-009  0.9988507E+02  0.7561462E-02  0.1280538E+00
         -1   -1    0    0    0  501 -0.00000000000E+00  0.00000000000E+00  0.29228130366E+03  0.29228130366E+03  0.00000000000E+00 0.  1.
          1   -1    0    0  501    0  0.00000000000E+00 -0.00000000000E+00 -0.58270606197E+02  0.58270606197E+02  0.00000000000E+00 0. -1.
         25    2    1    2    0    0 -0.12071282155E+02  0.69505443776E+02  0.16742551535E+03  0.22058032652E+03  0.12509058594E+03 0.  0.
          5    1    3    3  502    0  0.20014805239E+02 -0.23118387657E+02  0.91367515628E+02  0.96439346683E+02  0.41800000000E+01 0. -1.
         -5    1    3    3    0  502 -0.32086087394E+02  0.92623831433E+02  0.76057999721E+02  0.12414097984E+03  0.41800000000E+01 0. -1.
        -11    1    1    2    0    0  0.82040240686E+01 -0.59575024198E+02  0.87689406805E+02  0.10632930727E+03  0.00000000000E+00 0.  1.
         11    1    1    2    0    0  0.38672580867E+01 -0.99304195781E+01 -0.21104224687E+02  0.23642276069E+02  0.00000000000E+00 0. -1.
</event>
<event>
 7    1  0.2480409E-009  0.1005499E+03  0.7561462E-02  0.1279144E+00
          1   -1    0    0  501    0  0.00000000000E+00  0.00000000000E+00  0.85476541141E+02  0.85476541141E+02  0.00000000000E+00 0. -1.
         -1   -1    0    0    0  501 -0.00000000000E+00 -0.00000000000E+00 -0.24971996009E+03  0.24971996009E+03  0.00000000000E+00 0.  1.
         25    2    1    2    0    0 -0.73936819395E+02 -0.46193065629E+02 -0.39921257260E+02  0.15760972016E+03  0.12508662811E+03 0.  0.
          5    1    3    3  502    0 -0.69185807963E+02 -0.44173265994E+02  0.29909078941E+02  0.87464157546E+02  0.41800000000E+01 0.  1.
         -5    1    3    3    0  502 -0.47510114316E+01 -0.20197996352E+01 -0.69830336201E+02  0.70145562612E+02  0.41800000000E+01 0.  1.
        -11    1    1    2    0    0  0.13230676129E+02  0.49726955140E+02 -0.99281000915E+02  0.11182369159E+03  0.00000000000E+00 0.  1.
         11    1    1    2    0    0  0.60706143265E+02 -0.35338895108E+01 -0.25041160771E+02  0.65763089480E+02  0.00000000000E+00 0. -1.
</event>
<event>
 7    1  0.2480409E-009  0.1495992E+03  0.7561462E-02  0.1200966E+00
         -2   -1    0    0    0  501 -0.00000000000E+00  0.00000000000E+00  0.23977836919E+03  0.23977836919E+03  0.00000000000E+00 0.  1.
          2   -1    0    0  501    0  0.00000000000E+00 -0.00000000000E+00 -0.15639359788E+03  0.15639359788E+03  0.00000000000E+00 0. -1.
         25    2    1    2    0    0 -0.87059006173E+02 -0.79180071714E+02 -0.67058285756E+02  0.18437177252E+03  0.12508949797E+03 0.  0.
          5    1    3    3  502    0 -0.20095940718E+02  0.21524217309E+02  0.19524597025E+02  0.35578379011E+02  0.41800000000E+01 0.  1.
         -5    1    3    3    0  502 -0.66963065456E+02 -0.10070428902E+03 -0.86582882780E+02  0.14879339351E+03  0.41800000000E+01 0.  1.
        -11    1    1    2    0    0  0.49665883240E+02  0.95504814247E+02  0.10006844406E+03  0.14697470190E+03  0.00000000000E+00 0. -1.
         11    1    1    2    0    0  0.37393122933E+02 -0.16324742533E+02  0.50374612999E+02  0.64825492642E+02  0.00000000000E+00 0.  1.
</event>
<event>
 7    1  0.2480409E-009  0.1651097E+03  0.7561462E-02  0.1183046E+00
          2   -1    0    0  501    0  0.00000000000E+00  0.00000000000E+00  0.59330200664E+03  0.59330200664E+03  0.00000000000E+00 0. -1.
         -2   -1    0    0    0  501 -0.00000000000E+00 -0.00000000000E+00 -0.54992818942E+02  0.54992818942E+02  0.00000000000E+00 0.  1.
         25    2    1    2    0    0  0.75905801204E+02  0.11680360683E+03  0.35378128853E+03  0.40026478797E+03  0.12508368058E+03 0.  0.
          5    1    3    3  502    0 -0.32791423111E+01 -0.21299934277E+02  0.85552621307E+02  0.88324194800E+02  0.41800000000E+01 0.  1.
         -5    1    3    3    0  502  0.79184943515E+02  0.13810354111E+03  0.26822866723E+03  0.31194059317E+03  0.41800000000E+01 0.  1.
        -11    1    1    2    0    0 -0.47276108921E+02 -0.10979780201E+03  0.18291150706E+03  0.21851134345E+03  0.00000000000E+00 0. -1.
         11    1    1    2    0    0 -0.28629692283E+02 -0.70058048202E+01  0.16163921023E+01  0.29518694158E+02  0.00000000000E+00 0.  1.
</event>
<event>
 7    1  0.2480409E-009  0.2063684E+03  0.7561462E-02  0.1144475E+00
         -2   -1    0    0    0  501 -0.00000000000E+00  0.00000000000E+00  0.29514625318E+03  0.29514625318E+03  0.00000000000E+00 0.  1.
          2   -1    0    0  501    0  0.00000000000E+00 -0.00000000000E+00 -0.17055555468E+03  0.17055555468E+03  0.00000000000E+00 0. -1.
         25    2    1    2    0    0 -0.17891554494E+03  0.76107302390E+02  0.34521226541E+02  0.23375700795E+03  0.12509008747E+03 0.  0.
          5    1    3    3  502    0 -0.68307810156E+02 -0.20301768277E+02 -0.24612007581E+02  0.75507231710E+02  0.41800000000E+01 0. -1.
         -5    1    3    3    0  502 -0.11060773479E+03  0.96409070666E+02  0.59133234122E+02  0.15824977624E+03  0.41800000000E+01 0. -1.
        -11    1    1    2    0    0  0.11520250934E+03 -0.52783012829E+02  0.10247889738E+03  0.16297112938E+03  0.00000000000E+00 0.  1.
         11    1    1    2    0    0  0.63713035597E+02 -0.23324289561E+02 -0.12409425423E+02  0.68973670541E+02  0.00000000000E+00 0. -1.
</event>
<event>
 7    1  0.2480409E-009  0.1379962E+03  0.7561462E-02  0.1216051E+00
         -4   -1    0    0    0  501 -0.00000000000E+00  0.00000000000E+00  0.86647190177E+02  0.86647190177E+02  0.00000000000E+00 0. -1.
          4   -1    0    0  501    0  0.00000000000E+00 -0.00000000000E+00 -0.29984170070E+03  0.29984170070E+03  0.00000000000E+00 0.  1.
         25    2    1    2    0    0  0.69605251748E+02 -0.77444927828E+02 -0.18418802792E+03  0.24579581660E+03  0.12509095056E+03 0.  0.
          5    1    3    3  502    0  0.82135799165E+02 -0.10246085124E+03 -0.16774954491E+03  0.21307721079E+03  0.41800000000E+01 0. -1.
         -5    1    3    3    0  502 -0.12530547416E+02  0.25015923408E+02 -0.16438483004E+02  0.32718605808E+02  0.41800000000E+01 0. -1.
        -11    1    1    2    0    0 -0.45832572993E+02  0.80214166525E+02 -0.53244697546E+02  0.10662989766E+03  0.00000000000E+00 0.  1.
         11    1    1    2    0    0 -0.23772678755E+02 -0.27692386973E+01  0.24238214936E+02  0.34063176620E+02  0.00000000000E+00 0. -1.
</event>
<event>
 7    1  0.4030247E-009  0.1229330E+03  0.7561462E-02  0.1238335E+00
         -1   -1    0    0    0  501 -0.00000000000E+00  0.00000000000E+00  0.36727373368E+02  0.36727373368E+02  0.00000000000E+00 0.  1.
          1   -1    0    0  501    0  0.00000000000E+00 -0.00000000000E+00 -0.49927161244E+03  0.49927161244E+03  0.00000000000E+00 0. -1.
         25    2    1    2    0    0  0.36327792389E+02  0.63186509770E+02 -0.32299728984E+03  0.35395738115E+03  0.12508531054E+03 0.  0.
          5    1    3    3  502    0  0.73187367965E+02  0.75796475689E+02 -0.24235849280E+03  0.26430400676E+03  0.41800000000E+01 0.  1.
         -5    1    3    3    0  502 -0.36859575576E+02 -0.12609965920E+02 -0.80638797038E+02  0.89653374391E+02  0.41800000000E+01 0.  1.
        -11    1    1    2    0    0 -0.56730294786E+02 -0.35776633092E+02 -0.43108138219E+02  0.79728322462E+02  0.00000000000E+00 0.  1.
         11    1    1    2    0    0  0.20402502396E+02 -0.27409876678E+02 -0.96438811012E+02  0.10231328219E+03  0.00000000000E+00 0. -1.
</event>
<event>
 7    1  0.2480409E-009  0.9671245E+02  0.7561462E-02  0.1287365E+00
         -2   -1    0    0    0  501 -0.00000000000E+00  0.00000000000E+00  0.12963030135E+02  0.12963030135E+02  0.00000000000E+00 0. -1.
          2   -1    0    0  501    0  0.00000000000E+00 -0.00000000000E+00 -0.19089577828E+04  0.19089577828E+04  0.00000000000E+00 0.  1.
         25    2    1    2    0    0  0.25261815285E+01 -0.66696811542E+02 -0.15817622265E+04  0.15881047616E+04  0.12510054445E+03 0.  0.
          5    1    3    3  502    0 -0.35979699878E+02 -0.21369804886E+02 -0.12698021369E+04  0.12704983852E+04  0.41800000000E+01 0. -1.
         -5    1    3    3    0  502  0.38505881406E+02 -0.45327006656E+02 -0.31196008958E+03  0.31760637640E+03  0.41800000000E+01 0. -1.
        -11    1    1    2    0    0  0.16958199658E+02 -0.48154913589E+01 -0.91554250759E+01  0.19864322314E+02  0.00000000000E+00 0. -1.
         11    1    1    2    0    0 -0.19484381186E+02  0.71512302900E+02 -0.30507710108E+03  0.31395172906E+03  0.00000000000E+00 0.  1.
</event>
<event>
 7    1  0.2480409E-009  0.1326282E+03  0.7561462E-02  0.1223607E+00
          2   -1    0    0  501    0  0.00000000000E+00  0.00000000000E+00  0.41211638274E+03  0.41211638274E+03  0.00000000000E+00 0. -1.
         -2   -1    0    0    0  501 -0.00000000000E+00 -0.00000000000E+00 -0.58139226062E+02  0.58139226062E+02  0.00000000000E+00 0.  1.
         25    2    1    2    0    0  0.17854062684E+02 -0.99047965032E+02  0.26960554071E+03  0.31378894147E+03  0.12508830991E+03 0.  0.
          5    1    3    3  502    0 -0.14196815273E+02 -0.11370698571E+03  0.24528693112E+03  0.27076554275E+03  0.41800000000E+01 0. -1.
         -5    1    3    3    0  502  0.32050877957E+02  0.14659020676E+02  0.24318609591E+02  0.43023398720E+02  0.41800000000E+01 0. -1.
        -11    1    1    2    0    0  0.20003690775E+02  0.43479902298E+02 -0.90655061512E+00  0.47869315667E+02  0.00000000000E+00 0.  1.
         11    1    1    2    0    0 -0.37857753459E+02  0.55568062734E+02  0.85278166582E+02  0.10859735166E+03  0.00000000000E+00 0. -1.
</event>
<event>
 7    1  0.2480409E-009  0.1529157E+03  0.7561462E-02  0.1196935E+00
          2   -1    0    0  501    0  0.00000000000E+00  0.00000000000E+00  0.52653110523E+03  0.52653110523E+03  0.00000000000E+00 0. -1.
         -2   -1    0    0    0  501 -0.00000000000E+00 -0.00000000000E+00 -0.47908793828E+02  0.47908793828E+02  0.00000000000E+00 0.  1.
         25    2    1    2    0    0  0.10573371834E+03  0.44386470259E+02  0.22109788552E+03  0.27870877797E+03  0.12507809561E+03 0.  0.
          5    1    3    3  502    0 -0.26826053068E+02 -0.56924468792E+01  0.31549162333E+02  0.42010273965E+02  0.41800000000E+01 0. -1.
         -5    1    3    3    0  502  0.13255977141E+03  0.50078917138E+02  0.18954872319E+03  0.23669850401E+03  0.41800000000E+01 0. -1.
        -11    1    1    2    0    0 -0.66441529772E+02 -0.64138421510E+02  0.12046698607E+03  0.15179100344E+03  0.00000000000E+00 0.  1.
         11    1    1    2    0    0 -0.39292188567E+02  0.19751951251E+02  0.13705743982E+03  0.14394011765E+03  0.00000000000E+00 0. -1.
</event>
<event>
 7    1  0.2480409E-009  0.1036950E+03  0.7561462E-02  0.1272712E+00
         -1   -1    0    0    0  501 -0.00000000000E+00  0.00000000000E+00  0.48090405293E+02  0.48090405293E+02  0.00000000000E+00 0.  1.
          1   -1    0    0  501    0  0.00000000000E+00 -0.00000000000E+00 -0.34370572730E+03  0.34370572730E+03  0.00000000000E+00 0. -1.
         25    2    1    2    0    0 -0.60685488506E+02  0.34495565487E+02 -0.15696623691E+03  0.21250367584E+03  0.12508693042E+03 0.  0.
          5    1    3    3  502    0 -0.29933351583E+02  0.59026041258E+02 -0.15962886675E+03  0.17285521856E+03  0.41800000000E+01 0. -1.
         -5    1    3    3    0  502 -0.30752136923E+02 -0.24530475771E+02  0.26626298408E+01  0.39648457278E+02  0.41800000000E+01 0. -1.
        -11    1    1    2    0    0  0.67642901172E+02 -0.13575146926E+01 -0.12624525246E+03  0.14323152130E+03  0.00000000000E+00 0. -1.
         11    1    1    2    0    0 -0.69574126661E+01 -0.33138050795E+02 -0.12403832632E+02  0.36060935449E+02  0.00000000000E+00 0.  1.
</event>
<event>
 7    1  0.2480409E-009  0.1060433E+03  0.7561462E-02  0.1268078E+00
         -1   -1    0    0    0  501 -0.00000000000E+00  0.00000000000E+00  0.27034669922E+02  0.27034669922E+02  0.00000000000E+00 0.  1.
          1   -1    0    0  501    0  0.00000000000E+00 -0.00000000000E+00 -0.70053915758E+03  0.70053915758E+03  0.00000000000E+00 0. -1.
         25    2    1    2    0    0 -0.77210064848E+02 -0.33469044284E+02 -0.32180049762E+03  0.35536925454E+03  0.12510066252E+03 0.  0.
          5    1    3    3  502    0 -0.67300376277E+02  0.20410041334E+02 -0.27280165582E+03  0.28175188775E+03  0.41800000000E+01 0. -1.
         -5    1    3    3    0  502 -0.99096885718E+01 -0.53879085618E+02 -0.48998841801E+02  0.73617366786E+02  0.41800000000E+01 0. -1.
        -11    1    1    2    0    0  0.47436081580E+02  0.31317621465E+02 -0.33107377067E+03  0.33591787221E+03  0.00000000000E+00 0. -1.
         11    1    1    2    0    0  0.29773983269E+02  0.21514228184E+01 -0.20630219365E+02  0.36286700744E+02  0.00000000000E+00 0.  1.
</event>
<event>
 7    1  0.2480409E-009  0.2194768E+03  0.7561462E-02  0.1134274E+00
         -1   -1    0    0    0  501 -0.00000000000E+00  0.00000000000E+00  0.36965933750E+02  0.36965933750E+02  0.00000000000E+00 0.  1.
          1   -1    0    0  501    0  0.00000000000E+00 -0.00000000000E+00 -0.15350595310E+04  0.15350595310E+04  0.00000000000E+00 0. -1.
         25    2    1    2    0    0  0.20899883224E+03  0.10605977309E+02 -0.89217074009E+03  0.92488253575E+03  0.12508427888E+03 0.  0.
          5    1    3    3  502    0  0.13148155228E+03 -0.34150505608E+02 -0.69696309384E+03  0.71009061548E+03  0.41800000000E+01 0. -1.
         -5    1    3    3    0  502  0.77517279962E+02  0.44756482917E+02 -0.19520764625E+03  0.21479192027E+03  0.41800000000E+01 0. -1.
        -11    1    1    2    0    0 -0.72549951383E+02 -0.23795251927E+02 -0.33404747093E+03  0.34266225688E+03  0.00000000000E+00 0. -1.
         11    1    1    2    0    0 -0.13644888086E+03  0.13189274618E+02 -0.27187538620E+03  0.30448067208E+03  0.00000000000E+00 0.  1.
</event>
<event>
 7    1  0.2480409E-009  0.1111037E+03  0.7561462E-02  0.1258540E+00
          1   -1    0    0  501    0  0.00000000000E+00  0.00000000000E+00  0.12188255739E+04  0.12188255739E+04  0.00000000000E+00 0. -1.
         -1   -1    0    0    0  501 -0.00000000000E+00 -0.00000000000E+00 -0.11491876321E+02  0.11491876321E+02  0.00000000000E+00 0.  1.
         25    2    1    2    0    0  0.17779535826E+02 -0.42665938144E+02  0.77655068676E+03  0.78791795612E+03  0.12508893751E+03 0.  0.
          5    1    3    3  502    0  0.49225435018E+02  0.20834741193E+02  0.20182628869E+03  0.20882661013E+03  0.41800000000E+01 0.  1.
         -5    1    3    3    0  502 -0.31445899191E+02 -0.63500679337E+02  0.57472439807E+03  0.57909134598E+03  0.41800000000E+01 0.  1.
        -11    1    1    2    0    0 -0.51431382300E+02  0.13746759577E+02  0.28807036403E+03  0.29294828062E+03  0.00000000000E+00 0.  1.
         11    1    1    2    0    0  0.33651846474E+02  0.28919178567E+02  0.14271264679E+03  0.14945121349E+03  0.00000000000E+00 0. -1.
</event>
<event>
 7    1  0.2480409E-009  0.1469760E+03  0.7561462E-02  0.1204239E+00
          1   -1    0    0  501    0  0.00000000000E+00  0.00000000000E+00  0.27283727998E+03  0.27283727998E+03  0.00000000000E+00 0. -1.
         -1   -1    0    0    0  501 -0.00000000000E+00 -0.00000000000E+00 -0.86827984973E+02  0.86827984973E+02  0.00000000000E+00 0.  1.
         25    2    1    2    0    0 -0.95904948623E+02 -0.24634395449E+02  0.60618720773E+02  0.17066779996E+03  0.12509298951E+03 0.  0.
          5    1    3    3  502    0 -0.61855520068E+02  0.47510691388E+02  0.18125417132E+02  0.80183379233E+02  0.41800000000E+01 0.  1.
         -5    1    3    3    0  502 -0.34049428556E+02 -0.72145086836E+02  0.42493303640E+02  0.90484420725E+02  0.41800000000E+01 0.  1.
        -11    1    1    2    0    0  0.90432771663E+02 -0.18644493374E+02  0.10785805010E+03  0.14198261265E+03  0.00000000000E+00 0.  1.
         11    1    1    2    0    0  0.54721769609E+01  0.43278888822E+02  0.17532524132E+02  0.47014852343E+02  0.00000000000E+00 0. -1.
</event>
<event>
 7    1  0.2480409E-009  0.1387993E+03  0.7561462E-02  0.1214954E+00
         -2   -1    0    0    0  501 -0.00000000000E+00  0.00000000000E+00  0.17011155840E+02  0.17011155840E+02  0.00000000000E+00 0.  1.
          2   -1    0    0  501    0  0.00000000000E+00 -0.00000000000E+00 -0.14681224643E+04  0.14681224643E+04  0.00000000000E+00 0. -1.
         25    2    1    2    0    0 -0.10463834719E+03  0.19740679885E+02 -0.99416119213E+03  0.10076424475E+04  0.12509175799E+03 0.  0.
          5    1    3    3  502    0 -0.11838547237E+03 -0.14393781857E+02 -0.60042136798E+03  0.61216467765E+03  0.41800000000E+01 0. -1.
         -5    1    3    3    0  502  0.13747125179E+02  0.34134461741E+02 -0.39373982415E+03  0.39547776986E+03  0.41800000000E+01 0. -1.
        -11    1    1    2    0    0  0.38014610663E+02 -0.36320986731E+02 -0.90491987818E+02  0.10465717634E+03  0.00000000000E+00 0.  1.
         11    1    1    2    0    0  0.66623736525E+02  0.16580306847E+02 -0.36645812849E+03  0.37283399628E+03  0.00000000000E+00 0. -1.
</event>
<event>
 7    1  0.2480409E-009  0.1284304E+03  0.7561462E-02  0.1229803E+00
         -2   -1    0    0    0  501 -0.00000000000E+00  0.00000000000E+00  0.25599507429E+02  0.25599507429E+02  0.00000000000E+00 0. -1.
          2   -1    0    0  501    0  0.00000000000E+00 -0.00000000000E+00 -0.80508393002E+03  0.80508393002E+03  0.00000000000E+00 0.  1.
         25    2    1    2    0    0  0.26273370959E+02 -0.86366563597E+02 -0.51724794891E+03  0.53976112808E+03  0.12508861425E+03 0.  0.
          5    1    3    3  502    0 -0.18156194816E+02 -0.84825159690E+02 -0.45464377671E+03  0.46286433350E+03  0.41800000000E+01 0.  1.
         -5    1    3    3    0  502  0.44429565774E+02 -0.15414039076E+01 -0.62604172193E+02  0.76896794581E+02  0.41800000000E+01 0.  1.
        -11    1    1    2    0    0  0.10281365630E+02 -0.14670697327E+02 -0.48400633807E+02  0.51609661810E+02  0.00000000000E+00 0.  1.
         11    1    1    2    0    0 -0.36554736589E+02  0.10103726092E+03 -0.21383583988E+03  0.23931264755E+03  0.00000000000E+00 0. -1.
</event>
<event>
 7    1  0.2480409E-009  0.2477550E+03  0.7561462E-02  0.1114732E+00
         -2   -1    0    0    0  501 -0.00000000000E+00  0.00000000000E+00  0.47977286885E+02  0.47977286885E+02  0.00000000000E+00 0.  1.
          2   -1    0    0  501    0  0.00000000000E+00 -0.00000000000E+00 -0.13181259985E+04  0.13181259985E+04  0.00000000000E+00 0. -1.
         25    2    1    2    0    0 -0.21202419434E+03 -0.74062153683E+02 -0.69403905005E+03  0.74011968478E+03  0.12508990052E+03 0.  0.
          5    1    3    3  502    0 -0.22172073352E+03 -0.54350767053E+02 -0.56906956989E+03  0.61316534257E+03  0.41800000000E+01 0.  1.
         -5    1    3    3    0  502  0.96965391826E+01 -0.19711386630E+02 -0.12496948016E+03  0.12695434221E+03  0.41800000000E+01 0.  1.
        -11    1    1    2    0    0  0.19987387680E+03  0.33726713141E+02 -0.47335805474E+03  0.51493194287E+03  0.00000000000E+00 0. -1.
         11    1    1    2    0    0  0.12150317544E+02  0.40335440542E+02 -0.10275160686E+03  0.11105165776E+03  0.00000000000E+00 0.  1.
</event>
<event>
 7    1  0.2480409E-009  0.2110225E+03  0.7561462E-02  0.1140759E+00
          2   -1    0    0  501    0  0.00000000000E+00  0.00000000000E+00  0.99449693110E+03  0.99449693110E+03  0.00000000000E+00 0. -1.
         -2   -1    0    0    0  501 -0.00000000000E+00 -0.00000000000E+00 -0.51447492270E+02  0.51447492270E+02  0.00000000000E+00 0.  1.
         25    2    1    2    0    0  0.83087406523E+02 -0.17987709511E+03  0.46886966257E+03  0.52416179044E+03  0.12509010996E+03 0.  0.
          5    1    3    3  502    0  0.83187890588E+02 -0.68005995130E+02  0.13851263549E+03  0.17535182664E+03  0.41800000000E+01 0. -1.
         -5    1    3    3    0  502 -0.10048406476E+00 -0.11187109998E+03  0.33035702707E+03  0.34880996380E+03  0.41800000000E+01 0. -1.
        -11    1    1    2    0    0 -0.22314407799E+01  0.46788554449E+02  0.43930082867E+02  0.64218380049E+02  0.00000000000E+00 0.  1.
         11    1    1    2    0    0 -0.80855965743E+02  0.13308854066E+03  0.43024969339E+03  0.45756425288E+03  0.00000000000E+00 0. -1.
</event>
<event>
 7    1  0.2480409E-009  0.1108685E+03  0.7561462E-02  0.1258970E+00
         -2   -1    0    0    0  501 -0.00000000000E+00  0.00000000000E+00  0.29034565104E+02  0.29034565104E+02  0.00000000000E+00 0.  1.
          2   -1    0    0  501    0  0.00000000000E+00 -0.00000000000E+00 -0.10491163198E+04  0.10491163198E+04  0.00000000000E+00 0. -1.
         25    2    1    2    0    0 -0.71328994968E+02  0.54055264775E+02 -0.85711138438E+03  0.87080278312E+03  0.12509102558E+03 0.  0.
          5    1    3    3  502    0 -0.60103351851E+02  0.25892292224E+01 -0.73844226323E+03  0.74090050988E+03  0.41800000000E+01 0. -1.
         -5    1    3    3    0  502 -0.11225643116E+02  0.51466035552E+02 -0.11866912116E+03  0.12990227325E+03  0.41800000000E+01 0. -1.
        -11    1    1    2    0    0 -0.52574182700E+01 -0.26782707799E+02 -0.10237929817E+03  0.10595505924E+03  0.00000000000E+00 0. -1.
         11    1    1    2    0    0  0.76586413238E+02 -0.27272556976E+02 -0.60591072180E+02  0.10139304258E+03  0.00000000000E+00 0.  1.
</event>
<event>
 7    1  0.2480409E-009  0.1054615E+03  0.7561462E-02  0.1269213E+00
          1   -1    0    0  501    0  0.00000000000E+00  0.00000000000E+00  0.13539896243E+04  0.13539896243E+04  0.00000000000E+00 0. -1.
         -1   -1    0    0    0  501 -0.00000000000E+00 -0.00000000000E+00 -0.19007379299E+02  0.19007379299E+02  0.00000000000E+00 0.  1.
         25    2    1    2    0    0  0.31304748213E+02 -0.51715734480E+01  0.12051214903E+04  0.12120115741E+04  0.12509003553E+03 0.  0.
          5    1    3    3  502    0  0.53552158455E+01  0.56090771564E+02  0.37688017088E+03  0.38109183748E+03  0.41800000000E+01 0.  1.
         -5    1    3    3    0  502  0.25949532367E+02 -0.61262345012E+02  0.82824131937E+03  0.83091973659E+03  0.41800000000E+01 0.  1.
        -11    1    1    2    0    0 -0.17708419341E+02  0.43566699940E+02  0.37869232573E+02  0.60379833015E+02  0.00000000000E+00 0.  1.
         11    1    1    2    0    0 -0.13596328872E+02 -0.38395126492E+02  0.91991522186E+02  0.10060559652E+03  0.00000000000E+00 0. -1.
</event>
<event>
 7    1  0.2480409E-009  0.1354023E+03  0.7561462E-02  0.1219653E+00
         -1   -1    0    0    0  501 -0.00000000000E+00  0.00000000000E+00  0.11957822423E+04  0.11957822423E+04  0.00000000000E+00 0.  1.
          1   -1    0    0  501    0  0.00000000000E+00 -0.00000000000E+00 -0.18038316100E+02  0.18038316100E+02  0.00000000000E+00 0. -1.
         25    2    1    2    0    0  0.91425582770E+02  0.44563457150E+00  0.79678450662E+03  0.81170896591E+03  0.12508820713E+03 0.  0.
          5    1    3    3  502    0  0.95901577790E+02 -0.45428195832E+02  0.48361060038E+03  0.49513383928E+03  0.41800000000E+01 0. -1.
         -5    1    3    3    0  502 -0.44759950201E+01  0.45873830403E+02  0.31317390624E+03  0.31657512663E+03  0.41800000000E+01 0. -1.
        -11    1    1    2    0    0 -0.66454998217E+02 -0.35455563772E+02  0.31101087596E+03  0.32000176368E+03  0.00000000000E+00 0.  1.
         11    1    1    2    0    0 -0.24970584553E+02  0.35009929200E+02  0.69948543664E+02  0.82109828865E+02  0.00000000000E+00 0. -1.
</event>
<event>
 7    1  0.2480409E-009  0.1394499E+03  0.7561462E-02  0.1214071E+00
         -3   -1    0    0    0  501 -0.00000000000E+00  0.00000000000E+00  0.16424496981E+03  0.16424496981E+03  0.00000000000E+00 0.  1.
          3   -1    0    0  501    0  0.00000000000E+00 -0.00000000000E+00 -0.15355718055E+03  0.15355718055E+03  0.00000000000E+00 0. -1.
         25    2    1    2    0    0 -0.30999042881E+02 -0.10283040149E+03 -0.36940575638E+02  0.16895848259E+03  0.12508929043E+03 0.  0.
          5    1    3    3  502    0 -0.77078521204E+02 -0.62592697438E+02 -0.41002467418E+02  0.10750636696E+03  0.41800000000E+01 0. -1.
         -5    1    3    3    0  502  0.46079478323E+02 -0.40237704056E+02  0.40618917795E+01  0.61452115627E+02  0.41800000000E+01 0. -1.
        -11    1    1    2    0    0  0.34415746200E+02  0.31087135083E+02 -0.19707811117E+02  0.50390985039E+02  0.00000000000E+00 0. -1.
         11    1    1    2    0    0 -0.34167033193E+01  0.71743266410E+02  0.67336176019E+02  0.98452682734E+02  0.00000000000E+00 0.  1.
</event>
<event>
 7    1  0.2480409E-009  0.1346260E+03  0.7561462E-02  0.1220749E+00
         -1   -1    0    0    0  501 -0.00000000000E+00  0.00000000000E+00  0.21511286416E+03  0.21511286416E+03  0.00000000000E+00 0.  1.
          1   -1    0    0  501    0  0.00000000000E+00 -0.00000000000E+00 -0.13654864675E+03  0.13654864675E+03  0.00000000000E+00 0. -1.
         25    2    1    2    0    0 -0.10250317273E+03  0.30851859873E+02 -0.36309060323E+02  0.16859629328E+03  0.12509046554E+03 0.  0.
          5    1    3    3  502    0  0.14807681631E+01  0.55114734642E+02 -0.26420534700E+02  0.61280859189E+02  0.41800000000E+01 0.  1.
         -5    1    3    3    0  502 -0.10398394089E+03 -0.24262874770E+02 -0.98885256229E+01  0.10731543409E+03  0.41800000000E+01 0.  1.
        -11    1    1    2    0    0  0.43726928115E+02 -0.11394599708E+02 -0.76096680404E+01  0.45823445883E+02  0.00000000000E+00 0. -1.
         11    1    1    2    0    0  0.58776244614E+02 -0.19457260164E+02  0.12248294577E+03  0.13724177174E+03  0.00000000000E+00 0.  1.
</event>
<event>
 7    1  0.2480409E-009  0.3061113E+03  0.7561462E-02  0.1082225E+00
          1   -1    0    0  501    0  0.00000000000E+00  0.00000000000E+00  0.14484340170E+04  0.14484340170E+04  0.00000000000E+00 0. -1.
         -1   -1    0    0    0  501 -0.00000000000E+00 -0.00000000000E+00 -0.73667010113E+02  0.73667010113E+02  0.00000000000E+00 0.  1.
         25    2    1    2    0    0  0.13173379756E+03  0.27336707389E+03  0.57627218755E+03  0.66318956625E+03  0.12508963239E+03 0.  0.
          5    1    3    3  502    0  0.89317048100E+02  0.14407693245E+03  0.19538617945E+03  0.25870626020E+03  0.41800000000E+01 0. -1.
         -5    1    3    3    0  502  0.42416749461E+02  0.12929014144E+03  0.38088600809E+03  0.40448330604E+03  0.41800000000E+01 0. -1.
        -11    1    1    2    0    0 -0.56226435618E+02 -0.16597894591E+03  0.55863550243E+03  0.58547762307E+03  0.00000000000E+00 0.  1.
         11    1    1    2    0    0 -0.75507361943E+02 -0.10738812798E+03  0.23985931688E+03  0.27343383776E+03  0.00000000000E+00 0. -1.
</event>
<event>
 7    1  0.2480409E-009  0.9922121E+02  0.7561462E-02  0.1281942E+00
          1   -1    0    0  501    0  0.00000000000E+00  0.00000000000E+00  0.76430356159E+02  0.76430356159E+02  0.00000000000E+00 0. -1.
         -1   -1    0    0    0  501 -0.00000000000E+00 -0.00000000000E+00 -0.21889096187E+03  0.21889096187E+03  0.00000000000E+00 0.  1.
         25    2    1    2    0    0 -0.44633664959E+02  0.15303392503E+02 -0.13886506804E+03  0.19276867552E+03  0.12509954944E+03 0.  0.
          5    1    3    3  502    0  0.26695663387E+02 -0.36039409439E+02 -0.38100577664E+02  0.58996812581E+02  0.41800000000E+01 0. -1.
         -5    1    3    3    0  502 -0.71329328346E+02  0.51342801942E+02 -0.10076449038E+03  0.13377186294E+03  0.41800000000E+01 0. -1.
        -11    1    1    2    0    0  0.12616737751E+02  0.16174750548E+02  0.36816016220E+02  0.42145268739E+02  0.00000000000E+00 0. -1.
         11    1    1    2    0    0  0.32016927207E+02 -0.31478143051E+02 -0.40411553887E+02  0.60407373766E+02  0.00000000000E+00 0.  1.
</event>
<event>
 7    1  0.2480409E-009  0.1044006E+03  0.7561462E-02  0.1271305E+00
         -2   -1    0    0    0  501 -0.00000000000E+00  0.00000000000E+00  0.22409878975E+02  0.22409878975E+02  0.00000000000E+00 0.  1.
          2   -1    0    0  501    0  0.00000000000E+00 -0.00000000000E+00 -0.51540915312E+03  0.51540915312E+03  0.00000000000E+00 0. -1.
         25    2    1    2    0    0  0.77729223690E+01  0.24557324559E+01 -0.32980792159E+03  0.35282834526E+03  0.12509247432E+03 0.  0.
          5    1    3    3  502    0  0.46756833113E+02 -0.43107285749E+02 -0.14228250738E+03  0.15590453436E+03  0.41800000000E+01 0. -1.
         -5    1    3    3    0  502 -0.38983910744E+02  0.45563018205E+02 -0.18752541421E+03  0.19692381090E+03  0.41800000000E+01 0. -1.
        -11    1    1    2    0    0 -0.27933939241E+02 -0.36154660874E+02 -0.67030492048E+02  0.81120597437E+02  0.00000000000E+00 0.  1.
         11    1    1    2    0    0  0.20161016872E+02  0.33698928419E+02 -0.96160860508E+02  0.10387008940E+03  0.00000000000E+00 0. -1.
</event>
<event>
 7    1  0.2480409E-009  0.1363665E+03  0.7561462E-02  0.1218303E+00
          2   -1    0    0  501    0  0.00000000000E+00  0.00000000000E+00  0.81514847677E+02  0.81514847677E+02  0.00000000000E+00 0. -1.
         -2   -1    0    0    0  501 -0.00000000000E+00 -0.00000000000E+00 -0.30636459299E+03  0.30636459299E+03  0.00000000000E+00 0.  1.
         25    2    1    2    0    0 -0.11076551030E+03  0.14968166307E+02 -0.95861040742E+02  0.19320930172E+03  0.12508977123E+03 0.  0.
          5    1    3    3  502    0  0.14411546277E+02 -0.21962852053E+02 -0.46582477218E+02  0.53641952986E+02  0.41800000000E+01 0.  1.
         -5    1    3    3    0  502 -0.12517705658E+03  0.36931018360E+02 -0.49278563524E+02  0.13956734874E+03  0.41800000000E+01 0.  1.
        -11    1    1    2    0    0  0.31314137035E+02  0.89743454059E+01 -0.10251954114E+03  0.10757030431E+03  0.00000000000E+00 0.  1.
         11    1    1    2    0    0  0.79451373264E+02 -0.23942511713E+02 -0.26469163431E+02  0.87099834635E+02  0.00000000000E+00 0. -1.
</event>
<event>
 7    1  0.2894210E-009  0.1440499E+03  0.7561462E-02  0.1207981E+00
         -1   -1    0    0    0  501 -0.00000000000E+00  0.00000000000E+00  0.30020065528E+02  0.30020065528E+02  0.00000000000E+00 0.  1.
          1   -1    0    0  501    0  0.00000000000E+00 -0.00000000000E+00 -0.94710935555E+03  0.94710935555E+03  0.00000000000E+00 0. -1.
         25    2    1    2    0    0 -0.12538704383E+03  0.24753638322E+02 -0.44463043135E+03  0.47924784638E+03  0.12509046488E+03 0.  0.
          5    1    3    3  502    0 -0.73799364989E+02 -0.17272752235E+02 -0.87020331591E+02  0.11547599211E+03  0.41800000000E+01 0. -1.
         -5    1    3    3    0  502 -0.51587678844E+02  0.42026390557E+02 -0.35761009976E+03  0.36377185427E+03  0.41800000000E+01 0. -1.
        -11    1    1    2    0    0  0.53744886992E+02 -0.46054907917E+02 -0.13706696010E+03  0.15426250021E+03  0.00000000000E+00 0.  1.
         11    1    1    2    0    0  0.71642156841E+02  0.21301269595E+02 -0.33539189857E+03  0.34361907449E+03  0.00000000000E+00 0. -1.
</event>
<event>
 7    1  0.2490140E-009  0.1105927E+03  0.7561462E-02  0.1259476E+00
          2   -1    0    0  501    0  0.00000000000E+00  0.00000000000E+00  0.75976285931E+03  0.75976285931E+03  0.00000000000E+00 0.  1.
         -2   -1    0    0    0  501 -0.00000000000E+00 -0.00000000000E+00 -0.20373267890E+02  0.20373267890E+02  0.00000000000E+00 0. -1.
         25    2    1    2    0    0 -0.52685802832E+02 -0.13760352913E+02  0.50080610204E+03  0.51905401853E+03  0.12508069869E+03 0.  0.
          5    1    3    3  502    0  0.22185798851E+02 -0.32763542117E+02  0.63336647263E+02  0.74797477559E+02  0.41800000000E+01 0. -1.
         -5    1    3    3    0  502 -0.74871601682E+02  0.19003189204E+02  0.43746945477E+03  0.44425654097E+03  0.41800000000E+01 0. -1.
        -11    1    1    2    0    0  0.18652018678E+02  0.50573445443E+02  0.14860346691E+03  0.15807770735E+03  0.00000000000E+00 0.  1.
         11    1    1    2    0    0  0.34033784153E+02 -0.36813092530E+02  0.89980022475E+02  0.10300440131E+03  0.00000000000E+00 0. -1.
</event>
<event>
 7    1  0.2480409E-009  0.1143692E+03  0.7561462E-02  0.1252686E+00
         -1   -1    0    0    0  501 -0.00000000000E+00  0.00000000000E+00  0.24930821624E+03  0.24930821624E+03  0.00000000000E+00 0.  1.
          1   -1    0    0  501    0  0.00000000000E+00 -0.00000000000E+00 -0.98327823336E+02  0.98327823336E+02  0.00000000000E+00 0. -1.
         25    2    1    2    0    0 -0.50817131734E+01 -0.85534622586E+02 -0.18077562950E+01  0.15163518958E+03  0.12509183533E+03 0.  0.
          5    1    3    3  502    0 -0.42737623287E+02 -0.64697508100E+02  0.43500323483E+02  0.89005744431E+02  0.41800000000E+01 0.  1.
         -5    1    3    3    0  502  0.37655910114E+02 -0.20837114485E+02 -0.45308079778E+02  0.62629445150E+02  0.41800000000E+01 0.  1.
        -11    1    1    2    0    0 -0.16554555678E+00 -0.11084815541E+02 -0.39769151095E+01  0.11777792438E+02  0.00000000000E+00 0. -1.
         11    1    1    2    0    0  0.52472587302E+01  0.96619438127E+02  0.15676506431E+03  0.18422305756E+03  0.00000000000E+00 0.  1.
</event>
<event>
 7    1  0.2480409E-009  0.1171642E+03  0.7561462E-02  0.1247850E+00
         -2   -1    0    0    0  501 -0.00000000000E+00  0.00000000000E+00  0.41531077077E+02  0.41531077077E+02  0.00000000000E+00 0.  1.
          2   -1    0    0  501    0  0.00000000000E+00 -0.00000000000E+00 -0.42721264511E+03  0.42721264511E+03  0.00000000000E+00 0. -1.
         25    2    1    2    0    0 -0.68763147347E+02 -0.31515628228E+02 -0.23156848707E+03  0.27384970757E+03  0.12509233739E+03 0.  0.
          5    1    3    3  502    0 -0.19478591301E+02  0.30112952076E+02 -0.83540402363E+01  0.37060326363E+02  0.41800000000E+01 0. -1.
         -5    1    3    3    0  502 -0.49284556045E+02 -0.61628580304E+02 -0.22321444683E+03  0.23678938120E+03  0.41800000000E+01 0. -1.
        -11    1    1    2    0    0 -0.22671632797E+02  0.59917307750E+00 -0.32563545764E+02  0.39683075168E+02  0.00000000000E+00 0. -1.
         11    1    1    2    0    0  0.91434780144E+02  0.30916455150E+02 -0.12154953520E+03  0.15521093945E+03  0.00000000000E+00 0.  1.
</event>
<event>
 7    1  0.2480409E-009  0.1321250E+03  0.7561462E-02  0.1224336E+00
          2   -1    0    0  501    0  0.00000000000E+00  0.00000000000E+00  0.41895822005E+03  0.41895822005E+03  0.00000000000E+00 0. -1.
         -2   -1    0    0    0  501 -0.00000000000E+00 -0.00000000000E+00 -0.44543744581E+02  0.44543744581E+02  0.00000000000E+00 0.  1.
         25    2    1    2    0    0 -0.78628698994E+02  0.18388177132E+02  0.24276922510E+03  0.28478756591E+03  0.12508582526E+03 0.  0.
          5    1    3    3  502    0 -0.32395421656E+00 -0.44357181261E+02  0.10704240843E+03  0.11594487517E+03  0.41800000000E+01 0.  1.
         -5    1    3    3    0  502 -0.78304744778E+02  0.62745358394E+02  0.13572681666E+03  0.16884269074E+03  0.41800000000E+01 0.  1.
        -11    1    1    2    0    0 -0.19095587189E+02 -0.89428347098E+01  0.35552185867E+02  0.41334896427E+02  0.00000000000E+00 0. -1.
         11    1    1    2    0    0  0.97724286183E+02 -0.94453424226E+01  0.96093064506E+02  0.13737950229E+03  0.00000000000E+00 0.  1.
</event>
<event>
 7    1  0.2480409E-009  0.1042311E+03  0.7561462E-02  0.1271642E+00
          3   -1    0    0  501    0  0.00000000000E+00  0.00000000000E+00  0.85631571792E+02  0.85631571792E+02  0.00000000000E+00 0. -1.
         -3   -1    0    0    0  501 -0.00000000000E+00 -0.00000000000E+00 -0.21980358298E+03  0.21980358298E+03  0.00000000000E+00 0.  1.
         25    2    1    2    0    0 -0.71595737591E+02 -0.21559292549E+02 -0.34526818890E+02  0.14976290665E+03  0.12508426859E+03 0.  0.
          5    1    3    3  502    0 -0.33003167758E+02 -0.66356558261E+02 -0.48748311524E+02  0.88804685590E+02  0.41800000000E+01 0.  1.
         -5    1    3    3    0  502 -0.38592569833E+02  0.44797265712E+02  0.14221492633E+02  0.60958221056E+02  0.41800000000E+01 0.  1.
        -11    1    1    2    0    0  0.45538101866E+02  0.16349702054E+02  0.41192367533E+01  0.48559237949E+02  0.00000000000E+00 0. -1.
         11    1    1    2    0    0  0.26057635725E+02  0.52095904951E+01 -0.10376442905E+03  0.10711301017E+03  0.00000000000E+00 0.  1.
</event>
<event>
 7    1  0.2480409E-009  0.1412780E+03  0.7561462E-02  0.1211620E+00
          4   -1    0    0  501    0  0.00000000000E+00  0.00000000000E+00  0.97683658520E+03  0.97683658520E+03  0.00000000000E+00 0. -1.
         -4   -1    0    0    0  501 -0.00000000000E+00 -0.00000000000E+00 -0.23813789789E+02  0.23813789789E+02  0.00000000000E+00 0.  1.
         25    2    1    2    0    0  0.10666205289E+03  0.27075675900E+01  0.45957028518E+03  0.48809522142E+03  0.12509186106E+03 0.  0.
          5    1    3    3  502    0  0.49048059257E+02 -0.47777283036E+02  0.10573519280E+03  0.12603882056E+03  0.41800000000E+01 0.  1.
         -5    1    3    3    0  502  0.57613993636E+02  0.50484850626E+02  0.35383509238E+03  0.36205640086E+03  0.41800000000E+01 0.  1.
        -11    1    1    2    0    0 -0.74129290906E+01  0.31423106619E+02  0.14948721739E+03  0.15293394427E+03  0.00000000000E+00 0.  1.
         11    1    1    2    0    0 -0.99249123803E+02 -0.34130674209E+02  0.34396529284E+03  0.35962120930E+03  0.00000000000E+00 0. -1.
</event>
<event>
 7    1  0.2480409E-009  0.1041335E+03  0.7561462E-02  0.1271836E+00
         -1   -1    0    0    0  501 -0.00000000000E+00  0.00000000000E+00  0.69362001993E+03  0.69362001993E+03  0.00000000000E+00 0.  1.
          1   -1    0    0  501    0  0.00000000000E+00 -0.00000000000E+00 -0.17630826201E+02  0.17630826201E+02  0.00000000000E+00 0. -1.
         25    2    1    2    0    0 -0.44784717964E+01  0.23680845370E+02  0.39607914407E+03  0.41606182690E+03  0.12509163158E+03 0.  0.
          5    1    3    3  502    0  0.53318089988E+02  0.17587962103E+02  0.10433002588E+03  0.11855117811E+03  0.41800000000E+01 0.  1.
         -5    1    3    3    0  502 -0.57796561784E+02  0.60928832673E+01  0.29174911818E+03  0.29751064879E+03  0.41800000000E+01 0.  1.
        -11    1    1    2    0    0  0.47425808287E+02 -0.16135272714E+02  0.14545070832E+03  0.15383583089E+03  0.00000000000E+00 0.  1.
         11    1    1    2    0    0 -0.42947336491E+02 -0.75455726556E+01  0.13445934134E+03  0.14135318833E+03  0.00000000000E+00 0. -1.
</event>
<event>
 7    1  0.2480409E-009  0.1273235E+03  0.7561462E-02  0.1231482E+00
         -2   -1    0    0    0  501 -0.00000000000E+00  0.00000000000E+00  0.36872524107E+03  0.36872524107E+03  0.00000000000E+00 0. -1.
          2   -1    0    0  501    0  0.00000000000E+00 -0.00000000000E+00 -0.80191362371E+02  0.80191362371E+02  0.00000000000E+00 0.  1.
         25    2    1    2    0    0 -0.51506986825E+02 -0.67605256867E+02  0.19263828250E+02  0.15245146150E+03  0.12508761964E+03 0.  0.
          5    1    3    3  502    0  0.26085428502E+02  0.20361539276E+01 -0.27427576240E+02  0.38135807863E+02  0.41800000000E+01 0.  1.
         -5    1    3    3    0  502 -0.77592415327E+02 -0.69641410794E+02  0.46691404490E+02  0.11431565364E+03  0.41800000000E+01 0.  1.
        -11    1    1    2    0    0 -0.20837716273E+02  0.42314387879E+02  0.93898544974E+02  0.10507927764E+03  0.00000000000E+00 0.  1.
         11    1    1    2    0    0  0.72344703098E+02  0.25290868988E+02  0.17537150548E+03  0.19138586430E+03  0.00000000000E+00 0. -1.
</event>
<event>
 7    1  0.2480409E-009  0.1610608E+03  0.7561462E-02  0.1187504E+00
         -2   -1    0    0    0  501 -0.00000000000E+00  0.00000000000E+00  0.70102064952E+02  0.70102064952E+02  0.00000000000E+00 0.  1.
          2   -1    0    0  501    0  0.00000000000E+00 -0.00000000000E+00 -0.45303582202E+03  0.45303582202E+03  0.00000000000E+00 0. -1.
         25    2    1    2    0    0 -0.73207706291E+02 -0.11825001682E+03 -0.24202835317E+03  0.30588785101E+03  0.12508884412E+03 0.  0.
          5    1    3    3  502    0 -0.29943449949E+02 -0.10872055658E+03 -0.23519822304E+03  0.26086863771E+03  0.41800000000E+01 0. -1.
         -5    1    3    3    0  502 -0.43264256342E+02 -0.95294602404E+01 -0.68301301290E+01  0.45019213308E+02  0.41800000000E+01 0. -1.
        -11    1    1    2    0    0  0.43559641122E+02  0.12667523743E+03 -0.10713092043E+03  0.17152577715E+03  0.00000000000E+00 0.  1.
         11    1    1    2    0    0  0.29648065169E+02 -0.84252206061E+01 -0.33774483468E+02  0.45724258814E+02  0.00000000000E+00 0. -1.
</event>
<event>
 7    1  0.2480409E-009  0.7191694E+02  0.7561462E-02  0.1353693E+00
          1   -1    0    0  501    0  0.00000000000E+00  0.00000000000E+00  0.31965369445E+03  0.31965369445E+03  0.00000000000E+00 0. -1.
         -1   -1    0    0    0  501 -0.00000000000E+00 -0.00000000000E+00 -0.41818512399E+02  0.41818512399E+02  0.00000000000E+00 0.  1.
         25    2    1    2    0    0 -0.23418410506E+02 -0.25616714036E+02  0.15682586205E+03  0.20358481528E+03  0.12509111887E+03 0.  0.
          5    1    3    3  502    0 -0.99175330827E+01 -0.26240007769E+02  0.17682657618E+03  0.17908658775E+03  0.41800000000E+01 0. -1.
         -5    1    3    3    0  502 -0.13500877424E+02  0.62329373314E+00 -0.20000714133E+02  0.24498227530E+02  0.41800000000E+01 0. -1.
        -11    1    1    2    0    0  0.60460954035E+02  0.20962462207E+02  0.73182263779E+02  0.97214173434E+02  0.00000000000E+00 0. -1.
         11    1    1    2    0    0 -0.37042543528E+02  0.46542518288E+01  0.47827056225E+02  0.60673218130E+02  0.00000000000E+00 0.  1.
</event>
<event>
 7    1  0.2480409E-009  0.1108552E+03  0.7561462E-02  0.1258994E+00
          1   -1    0    0  501    0  0.00000000000E+00  0.00000000000E+00  0.29562703858E+02  0.29562703858E+02  0.00000000000E+00 0.  1.
         -1   -1    0    0    0  501 -0.00000000000E+00 -0.00000000000E+00 -0.46602678412E+03  0.46602678412E+03  0.00000000000E+00 0. -1.
         25    2    1    2    0    0  0.15925580960E+02 -0.37398479858E+02 -0.27389719632E+03  0.30384386443E+03  0.12509656020E+03 0.  0.
          5    1    3    3  502    0 -0.79506023566E+01 -0.75899398949E+02 -0.11139795503E+03  0.13509592009E+03  0.41800000000E+01 0.  1.
         -5    1    3    3    0  502  0.23876183316E+02  0.38500919091E+02 -0.16249924129E+03  0.16874794434E+03  0.41800000000E+01 0.  1.
        -11    1    1    2    0    0 -0.51515314358E+02  0.38286402508E+02 -0.12137696796E+03  0.13730274790E+03  0.00000000000E+00 0.  1.
         11    1    1    2    0    0  0.35589733399E+02 -0.88792264941E+00 -0.41189915982E+02  0.54442875646E+02  0.00000000000E+00 0. -1.
</event>
<event>
 7    1  0.2480409E-009  0.1021129E+03  0.7561462E-02  0.1275915E+00
          3   -1    0    0  501    0  0.00000000000E+00  0.00000000000E+00  0.24711101404E+03  0.24711101404E+03  0.00000000000E+00 0. -1.
         -3   -1    0    0    0  501 -0.00000000000E+00 -0.00000000000E+00 -0.66746740186E+02  0.66746740186E+02  0.00000000000E+00 0.  1.
         25    2    1    2    0    0  0.18544349105E+02  0.19354008463E+02  0.17647721844E+03  0.21796707755E+03  0.12508784009E+03 0.  0.
          5    1    3    3  502    0 -0.13578157842E+02 -0.45405029238E+02  0.10925752295E+03  0.11916652958E+03  0.41800000000E+01 0.  1.
         -5    1    3    3    0  502  0.32122506948E+02  0.64759037701E+02  0.67219695492E+02  0.98800547967E+02  0.41800000000E+01 0.  1.
        -11    1    1    2    0    0  0.26639395485E+02 -0.27546419707E+02  0.24576779571E+02  0.45524506857E+02  0.00000000000E+00 0. -1.
         11    1    1    2    0    0 -0.45183744590E+02  0.81924112437E+01 -0.20689724157E+02  0.50366169826E+02  0.00000000000E+00 0.  1.
</event>
<event>
 7    1  0.2480409E-009  0.4511281E+02  0.7561462E-02  0.1473639E+00
         -1   -1    0    0    0  501 -0.00000000000E+00  0.00000000000E+00  0.91220131713E+02  0.91220131713E+02  0.00000000000E+00 0.  1.
          1   -1    0    0  501    0  0.00000000000E+00 -0.00000000000E+00 -0.13029993973E+03  0.13029993973E+03  0.00000000000E+00 0. -1.
         25    2    1    2    0    0 -0.36448837779E+01 -0.14120783805E+02 -0.34226481650E+02  0.13050057508E+03  0.12508503642E+03 0.  0.
          5    1    3    3  502    0  0.19105792722E+02  0.15282665033E+00 -0.77207461048E+02  0.79646212170E+02  0.41800000000E+01 0. -1.
         -5    1    3    3    0  502 -0.22750676500E+02 -0.14273610456E+02  0.42980979399E+02  0.50854362907E+02  0.41800000000E+01 0. -1.
        -11    1    1    2    0    0  0.18028559699E+02  0.20886307501E+02 -0.42206579769E+02  0.50424817120E+02  0.00000000000E+00 0. -1.
         11    1    1    2    0    0 -0.14383675921E+02 -0.67655236961E+01  0.37353253397E+02  0.40594679248E+02  0.00000000000E+00 0.  1.
</event>
<event>
 7    1  0.2480409E-009  0.1700818E+03  0.7561462E-02  0.1177763E+00
          2   -1    0    0  501    0  0.00000000000E+00  0.00000000000E+00  0.56630542393E+03  0.56630542393E+03  0.00000000000E+00 0.  1.
         -2   -1    0    0    0  501 -0.00000000000E+00 -0.00000000000E+00 -0.64872001808E+02  0.64872001808E+02  0.00000000000E+00 0. -1.
         25    2    1    2    0    0 -0.15170075214E+03 -0.28922014952E+02  0.22674423750E+03  0.30151361942E+03  0.12509161566E+03 0.  0.
          5    1    3    3  502    0 -0.80743981864E+02  0.32966107066E+02  0.17103428375E+03  0.19203268847E+03  0.41800000000E+01 0.  1.
         -5    1    3    3    0  502 -0.70956770277E+02 -0.61888122018E+02  0.55709953744E+02  0.10948093095E+03  0.41800000000E+01 0.  1.
        -11    1    1    2    0    0  0.99475715725E+02  0.36230632285E+02  0.24988735045E+03  0.27138858607E+03  0.00000000000E+00 0.  1.
         11    1    1    2    0    0  0.52225036417E+02 -0.73086173328E+01  0.24801834166E+02  0.58275220240E+02  0.00000000000E+00 0. -1.
</event>
<event>
 7    1  0.2480409E-009  0.7887975E+02  0.7561462E-02  0.1332261E+00
         -3   -1    0    0    0  501 -0.00000000000E+00  0.00000000000E+00  0.14180357615E+03  0.14180357615E+03  0.00000000000E+00 0.  1.
          3   -1    0    0  501    0  0.00000000000E+00 -0.00000000000E+00 -0.13042896639E+03  0.13042896639E+03  0.00000000000E+00 0. -1.
         25    2    1    2    0    0 -0.45895160613E+01 -0.38203774229E+01  0.84617927426E+02  0.15114062875E+03  0.12509051553E+03 0.  0.
          5    1    3    3  502    0 -0.82779898685E+01  0.50357205237E+02  0.81925189660E+02  0.96610467012E+02  0.41800000000E+01 0. -1.
         -5    1    3    3    0  502  0.36884738072E+01 -0.54177582660E+02  0.26927377661E+01  0.54530161733E+02  0.41800000000E+01 0. -1.
        -11    1    1    2    0    0  0.22986668932E+02 -0.13639336213E+02  0.14044517555E+02  0.30193822452E+02  0.00000000000E+00 0.  1.
         11    1    1    2    0    0 -0.18397152870E+02  0.17459713636E+02 -0.87287835219E+02  0.90898091351E+02  0.00000000000E+00 0. -1.
</event>
<event>
 7    1  0.2480409E-009  0.1121164E+03  0.7561462E-02  0.1256700E+00
         -1   -1    0    0    0  501 -0.00000000000E+00  0.00000000000E+00  0.49427724110E+02  0.49427724110E+02  0.00000000000E+00 0.  1.
          1   -1    0    0  501    0  0.00000000000E+00 -0.00000000000E+00 -0.46662306417E+03  0.46662306417E+03  0.00000000000E+00 0. -1.
         25    2    1    2    0    0 -0.85248188833E+02  0.45258913254E+02 -0.30386594306E+03  0.34248772506E+03  0.12509079719E+03 0.  0.
          5    1    3    3  502    0 -0.42949077533E+02  0.38731449972E+01 -0.12427693701E+02  0.45072657830E+02  0.41800000000E+01 0. -1.
         -5    1    3    3    0  502 -0.42299111300E+02  0.41385768257E+02 -0.29143824935E+03  0.29741506723E+03  0.41800000000E+01 0. -1.
        -11    1    1    2    0    0  0.30289080581E+02 -0.57759355669E+02 -0.27273593087E+02  0.70692435590E+02  0.00000000000E+00 0.  1.
         11    1    1    2    0    0  0.54959108252E+02  0.12500442415E+02 -0.86055803921E+02  0.10287062763E+03  0.00000000000E+00 0. -1.
</event>
<event>
 7    1  0.2884076E-009  0.1326133E+03  0.7561462E-02  0.1223629E+00
         -2   -1    0    0    0  501 -0.00000000000E+00  0.00000000000E+00  0.18183594191E+02  0.18183594191E+02  0.00000000000E+00 0.  1.
          2   -1    0    0  501    0  0.00000000000E+00 -0.00000000000E+00 -0.99585212283E+03  0.99585212283E+03  0.00000000000E+00 0. -1.
         25    2    1    2    0    0  0.46700409643E+02 -0.62785084337E+02 -0.59762825793E+03  0.61557281870E+03  0.12508982920E+03 0.  0.
          5    1    3    3  502    0  0.30663357141E+02  0.35927436380E+02 -0.19846433749E+03  0.20405045408E+03  0.41800000000E+01 0.  1.
         -5    1    3    3    0  502  0.16037052503E+02 -0.98712520717E+02 -0.39916392044E+03  0.41152236462E+03  0.41800000000E+01 0.  1.
        -11    1    1    2    0    0 -0.58973311071E+02  0.56132406803E+01 -0.15456050965E+03  0.16552435178E+03  0.00000000000E+00 0. -1.
         11    1    1    2    0    0  0.12272901428E+02  0.57171843657E+02 -0.22547976106E+03  0.23293854654E+03  0.00000000000E+00 0.  1.
</event>
<event>
 7    1  0.2480409E-009  0.1039915E+03  0.7561462E-02  0.1272119E+00
          2   -1    0    0  501    0  0.00000000000E+00  0.00000000000E+00  0.56610220717E+03  0.56610220717E+03  0.00000000000E+00 0. -1.
         -2   -1    0    0    0  501 -0.00000000000E+00 -0.00000000000E+00 -0.23644510110E+02  0.23644510110E+02  0.00000000000E+00 0.  1.
         25    2    1    2    0    0 -0.16778999547E+02 -0.19201439633E+02  0.22876055372E+03  0.26197098569E+03  0.12508867372E+03 0.  0.
          5    1    3    3  502    0  0.47796695399E+02 -0.13795967599E+02  0.45503757167E+02  0.67549368090E+02  0.41800000000E+01 0. -1.
         -5    1    3    3    0  502 -0.64575694946E+02 -0.54054720343E+01  0.18325679656E+03  0.19442161760E+03  0.41800000000E+01 0. -1.
        -11    1    1    2    0    0  0.13735295856E+02 -0.35641368416E+02  0.97622586077E+02  0.10482907424E+03  0.00000000000E+00 0.  1.
         11    1    1    2    0    0  0.30437036912E+01  0.54842808048E+02  0.21607455727E+03  0.22294665735E+03  0.00000000000E+00 0. -1.
</event>
<event>
 7    1  0.2480409E-009  0.7603997E+02  0.7561462E-02  0.1340680E+00
         -2   -1    0    0    0  501 -0.00000000000E+00  0.00000000000E+00  0.14345913249E+03  0.14345913249E+03  0.00000000000E+00 0. -1.
          2   -1    0    0  501    0  0.00000000000E+00 -0.00000000000E+00 -0.11536385186E+03  0.11536385186E+03  0.00000000000E+00 0.  1.
         25    2    1    2    0    0 -0.21062252271E+02  0.62210452090E+02 -0.21001784620E+01  0.14130035180E+03  0.12509044668E+03 0.  0.
          5    1    3    3  502    0 -0.22640182023E+02  0.37603380820E+02  0.59939341073E+02  0.74409603542E+02  0.41800000000E+01 0. -1.
         -5    1    3    3    0  502  0.15779297522E+01  0.24607071271E+02 -0.62039519535E+02  0.66890748261E+02  0.41800000000E+01 0. -1.
        -11    1    1    2    0    0 -0.72311667773E+01 -0.52604779376E+02  0.56628227147E+02  0.77629303075E+02  0.00000000000E+00 0. -1.
         11    1    1    2    0    0  0.28293419048E+02 -0.96056727145E+01 -0.26432768050E+02  0.39893329474E+02  0.00000000000E+00 0.  1.
</event>
<event>
 7    1  0.2480409E-009  0.1333498E+03  0.7561462E-02  0.1222568E+00
          1   -1    0    0  501    0  0.00000000000E+00  0.00000000000E+00  0.54605887878E+03  0.54605887878E+03  0.00000000000E+00 0. -1.
         -1   -1    0    0    0  501 -0.00000000000E+00 -0.00000000000E+00 -0.33148950163E+02  0.33148950163E+02  0.00000000000E+00 0.  1.
         25    2    1    2    0    0 -0.89289789784E+01 -0.78312644602E+02  0.24620717234E+03  0.28719069838E+03  0.12509168059E+03 0.  0.
          5    1    3    3  502    0 -0.17767680447E+02  0.32142673377E+02  0.62227285408E+02  0.72377823742E+02  0.41800000000E+01 0. -1.
         -5    1    3    3    0  502  0.88387014685E+01 -0.11045531798E+03  0.18397988693E+03  0.21481287464E+03  0.41800000000E+01 0. -1.
        -11    1    1    2    0    0 -0.36890235337E+02  0.57979357010E+02  0.15941955432E+03  0.17360037328E+03  0.00000000000E+00 0. -1.
         11    1    1    2    0    0  0.45819214315E+02  0.20333287591E+02  0.10728320195E+03  0.11841675729E+03  0.00000000000E+00 0.  1.
</event>
<event>
 7    1  0.2480409E-009  0.1261295E+03  0.7561462E-02  0.1233315E+00
         -3   -1    0    0    0  501 -0.00000000000E+00  0.00000000000E+00  0.37568750610E+03  0.37568750610E+03  0.00000000000E+00 0.  1.
          3   -1    0    0  501    0  0.00000000000E+00 -0.00000000000E+00 -0.57845812272E+02  0.57845812272E+02  0.00000000000E+00 0. -1.
         25    2    1    2    0    0  0.30967188313E+02  0.90623238128E+02  0.13772610479E+03  0.20924456851E+03  0.12507306453E+03 0.  0.
          5    1    3    3  502    0  0.72362717676E+02  0.23112290321E+02  0.50265383142E+02  0.91184549216E+02  0.41800000000E+01 0.  1.
         -5    1    3    3    0  502 -0.41395529363E+02  0.67510947807E+02  0.87460721649E+02  0.11806001930E+03  0.41800000000E+01 0.  1.
        -11    1    1    2    0    0 -0.13317118118E+02 -0.60644634070E+02  0.17902150227E+03  0.18948302181E+03  0.00000000000E+00 0.  1.
         11    1    1    2    0    0 -0.17650070195E+02 -0.29978604058E+02  0.10940867593E+01  0.34805728048E+02  0.00000000000E+00 0. -1.
</event>
<event>
 7    1  0.2480409E-009  0.1302182E+03  0.7561462E-02  0.1227132E+00
         -1   -1    0    0    0  501 -0.00000000000E+00  0.00000000000E+00  0.45653227800E+02  0.45653227800E+02  0.00000000000E+00 0.  1.
          1   -1    0    0  501    0  0.00000000000E+00 -0.00000000000E+00 -0.59657986274E+03  0.59657986274E+03  0.00000000000E+00 0. -1.
         25    2    1    2    0    0  0.84617374477E+02  0.82381497467E+02 -0.21856994416E+03  0.27814998794E+03  0.12509110324E+03 0.  0.
          5    1    3    3  502    0  0.51125613311E+02  0.33955385114E+02 -0.20960471703E+03  0.21844543098E+03  0.41800000000E+01 0. -1.
         -5    1    3    3    0  502  0.33491761166E+02  0.48426112354E+02 -0.89652271292E+01  0.59704556955E+02  0.41800000000E+01 0. -1.
        -11    1    1    2    0    0 -0.34461142017E+02 -0.82852870957E+02 -0.14849073602E+03  0.17349832050E+03  0.00000000000E+00 0.  1.
         11    1    1    2    0    0 -0.50156232460E+02  0.47137348978E+00 -0.18386595477E+03  0.19058478210E+03  0.00000000000E+00 0. -1.
</event>
<event>
 7    1  0.2480409E-009  0.1158778E+03  0.7561462E-02  0.1250057E+00
          4   -1    0    0  501    0  0.00000000000E+00  0.00000000000E+00  0.35453126458E+02  0.35453126458E+02  0.00000000000E+00 0. -1.
         -4   -1    0    0    0  501 -0.00000000000E+00 -0.00000000000E+00 -0.59838747299E+03  0.59838747299E+03  0.00000000000E+00 0.  1.
         25    2    1    2    0    0 -0.53461084640E+02  0.41919169839E+02 -0.45224491038E+03  0.47411897742E+03  0.12509213170E+03 0.  0.
          5    1    3    3  502    0 -0.73716988863E+02 -0.10798168806E+02 -0.16143872755E+03  0.17785030236E+03  0.41800000000E+01 0.  1.
         -5    1    3    3    0  502  0.20255904223E+02  0.52717338645E+02 -0.29080618283E+03  0.29626867506E+03  0.41800000000E+01 0.  1.
        -11    1    1    2    0    0 -0.16052983717E+02 -0.23732032756E+02 -0.73345233925E+02  0.78742815574E+02  0.00000000000E+00 0.  1.
         11    1    1    2    0    0  0.69514068357E+02 -0.18187137083E+02 -0.37344202227E+02  0.80978806455E+02  0.00000000000E+00 0. -1.
</event>
<event>
 7    1  0.2480409E-009  0.1067058E+03  0.7561462E-02  0.1266795E+00
         -1   -1    0    0    0  501 -0.00000000000E+00  0.00000000000E+00  0.59413535291E+02  0.59413535291E+02  0.00000000000E+00 0.  1.
          1   -1    0    0  501    0  0.00000000000E+00 -0.00000000000E+00 -0.28621465263E+03  0.28621465263E+03  0.00000000000E+00 0. -1.
         25    2    1    2    0    0  0.36147335175E+02 -0.63389761086E+02 -0.13425420208E+03  0.19747575274E+03  0.12509032933E+03 0.  0.
          5    1    3    3  502    0 -0.17271075871E+02 -0.52974118781E+02 -0.13143459650E+03  0.14281832123E+03  0.41800000000E+01 0. -1.
         -5    1    3    3    0  502  0.53418411046E+02 -0.10415642305E+02 -0.28196055810E+01  0.54657431507E+02  0.41800000000E+01 0. -1.
        -11    1    1    2    0    0  0.50969028560E+01  0.61451199418E+02 -0.20261675793E+02  0.64905807403E+02  0.00000000000E+00 0.  1.
         11    1    1    2    0    0 -0.41244238031E+02  0.19385616676E+01 -0.72285239470E+02  0.83246627783E+02  0.00000000000E+00 0. -1.
</event>
<event>
 7    1  0.2480409E-009  0.2830345E+03  0.7561462E-02  0.1094043E+00
          2   -1    0    0  501    0  0.00000000000E+00  0.00000000000E+00  0.13192939999E+03  0.13192939999E+03  0.00000000000E+00 0.  1.
         -2   -1    0    0    0  501 -0.00000000000E+00 -0.00000000000E+00 -0.11892432540E+04  0.11892432540E+04  0.00000000000E+00 0. -1.
         25    2    1    2    0    0  0.22990955723E+03 -0.14385050601E+03 -0.89354298502E+02  0.31174295625E+03  0.12509239596E+03 0.  0.
          5    1    3    3  502    0  0.21990024112E+03 -0.10461756928E+03 -0.38457755446E+02  0.24657133491E+03  0.41800000000E+01 0.  1.
         -5    1    3    3    0  502  0.10009316112E+02 -0.39232936730E+02 -0.50896543056E+02  0.65171621344E+02  0.41800000000E+01 0.  1.
        -11    1    1    2    0    0 -0.16695476776E+03  0.60987652382E+02 -0.69313029184E+03  0.71555781716E+03  0.00000000000E+00 0.  1.
         11    1    1    2    0    0 -0.62954789467E+02  0.82862853627E+02 -0.27482926369E+03  0.29387188060E+03  0.00000000000E+00 0. -1.
</event>
<event>
 7    1  0.2480409E-009  0.1185315E+03  0.7561462E-02  0.1245539E+00
         -1   -1    0    0    0  501 -0.00000000000E+00  0.00000000000E+00  0.33842215414E+02  0.33842215414E+02  0.00000000000E+00 0.  1.
          1   -1    0    0  501    0  0.00000000000E+00 -0.00000000000E+00 -0.46527567865E+03  0.46527567865E+03  0.00000000000E+00 0. -1.
         25    2    1    2    0    0 -0.37284469644E+02 -0.49654819002E+02 -0.21110063601E+03  0.25311475005E+03  0.12509142832E+03 0.  0.
          5    1    3    3  502    0 -0.63317831643E+02  0.16558901915E+02 -0.12654995172E+03  0.14253318111E+03  0.41800000000E+01 0.  1.
         -5    1    3    3    0  502  0.26033361999E+02 -0.66213720917E+02 -0.84550684296E+02  0.11058156894E+03  0.41800000000E+01 0.  1.
        -11    1    1    2    0    0 -0.12177304741E+02  0.49266123320E+02 -0.16071804601E+03  0.16853998924E+03  0.00000000000E+00 0. -1.
         11    1    1    2    0    0  0.49461774385E+02  0.38869568163E+00 -0.59614781205E+02  0.77463154776E+02  0.00000000000E+00 0.  1.
</event>
<event>
 7    1  0.2480409E-009  0.1008716E+03  0.7561462E-02  0.1278474E+00
          1   -1    0    0  501    0  0.00000000000E+00  0.00000000000E+00  0.22956576604E+04  0.22956576604E+04  0.00000000000E+00 0. -1.
         -1   -1    0    0    0  501 -0.00000000000E+00 -0.00000000000E+00 -0.11667201937E+02  0.11667201937E+02  0.00000000000E+00 0.  1.
         25    2    1    2    0    0  0.19790957072E+02  0.15330978703E+02  0.20594703538E+04  0.20634175244E+04  0.12508805168E+03 0.  0.
          5    1    3    3  502    0  0.50030242832E+01  0.59492211562E+02  0.16816687582E+04  0.16827333830E+04  0.41800000000E+01 0. -1.
         -5    1    3    3    0  502  0.14787932788E+02 -0.44161232859E+02  0.37780159566E+03  0.38068414142E+03  0.41800000000E+01 0. -1.
        -11    1    1    2    0    0 -0.17001546179E+02 -0.53873715942E+02  0.12629725730E+03  0.13835616012E+03  0.00000000000E+00 0.  1.
         11    1    1    2    0    0 -0.27894108923E+01  0.38542737239E+02  0.98222847338E+02  0.10555117785E+03  0.00000000000E+00 0. -1.
</event>
<event>
 7    1  0.2480409E-009  0.1155724E+03  0.7561462E-02  0.1250585E+00
          1   -1    0    0  501    0  0.00000000000E+00  0.00000000000E+00  0.79304906630E+02  0.79304906630E+02  0.00000000000E+00 0. -1.
         -1   -1    0    0    0  501 -0.00000000000E+00 -0.00000000000E+00 -0.28615899848E+03  0.28615899848E+03  0.00000000000E+00 0.  1.
         25    2    1    2    0    0 -0.10482828173E+03  0.10690416360E+02 -0.10059929864E+03  0.19201792519E+03  0.12508961210E+03 0.  0.
          5    1    3    3  502    0 -0.97884373494E+02  0.85711267805E+01 -0.75988423320E+01  0.98640912371E+02  0.41800000000E+01 0.  1.
         -5    1    3    3    0  502 -0.69439082354E+01  0.21192895793E+01 -0.93000456303E+02  0.93377012817E+02  0.41800000000E+01 0.  1.
        -11    1    1    2    0    0  0.21745713891E+02 -0.31961057164E+02 -0.70755446977E+02  0.80627033461E+02  0.00000000000E+00 0. -1.
         11    1    1    2    0    0  0.83082567838E+02  0.21270640805E+02 -0.35499346236E+02  0.92818946460E+02  0.00000000000E+00 0.  1.
</event>
<event>
 7    1  0.2480409E-009  0.1323005E+03  0.7561462E-02  0.1224082E+00
         -2   -1    0    0    0  501 -0.00000000000E+00  0.00000000000E+00  0.25379601443E+02  0.25379601443E+02  0.00000000000E+00 0.  1.
          2   -1    0    0  501    0  0.00000000000E+00 -0.00000000000E+00 -0.14555409066E+04  0.14555409066E+04  0.00000000000E+00 0. -1.
         25    2    1    2    0    0  0.91634247413E+02  0.57975343872E+02 -0.11986367106E+04  0.12100146901E+04  0.12509040868E+03 0.  0.
          5    1    3    3  502    0  0.42161372592E+02  0.84436250752E+02 -0.48184543409E+03  0.49101889631E+03  0.41800000000E+01 0. -1.
         -5    1    3    3    0  502  0.49472874821E+02 -0.26460906880E+02 -0.71679127651E+03  0.71899579374E+03  0.41800000000E+01 0. -1.
        -11    1    1    2    0    0 -0.18768703748E+02 -0.30869028808E+02 -0.12074261076E+02  0.38091323953E+02  0.00000000000E+00 0.  1.
         11    1    1    2    0    0 -0.72865543665E+02 -0.27106315064E+02 -0.21945033348E+03  0.23281449404E+03  0.00000000000E+00 0. -1.
</event>
<event>
 7    1  0.2480409E-009  0.1437062E+03  0.7561462E-02  0.1208427E+00
         -2   -1    0    0    0  501 -0.00000000000E+00  0.00000000000E+00  0.33559138061E+03  0.33559138061E+03  0.00000000000E+00 0.  1.
          2   -1    0    0  501    0  0.00000000000E+00 -0.00000000000E+00 -0.67963328034E+02  0.67963328034E+02  0.00000000000E+00 0. -1.
         25    2    1    2    0    0 -0.22716533161E+02 -0.92354346403E+02  0.85165295795E+02  0.17873870435E+03  0.12509608565E+03 0.  0.
          5    1    3    3  502    0  0.15166047736E+02  0.26750000385E+02  0.25571924824E+02  0.40211531477E+02  0.41800000000E+01 0.  1.
         -5    1    3    3    0  502 -0.37882580898E+02 -0.11910434679E+03  0.59593370971E+02  0.13852717287E+03  0.41800000000E+01 0.  1.
        -11    1    1    2    0    0  0.51574033344E+02  0.23513660137E+02  0.77258332357E+02  0.95820786091E+02  0.00000000000E+00 0.  1.
         11    1    1    2    0    0 -0.28857500183E+02  0.68840686265E+02  0.10520442443E+03  0.12899521821E+03  0.00000000000E+00 0. -1.
</event>
<event>
 7    1  0.2480409E-009  0.1043079E+03  0.7561462E-02  0.1271489E+00
         -1   -1    0    0    0  501 -0.00000000000E+00  0.00000000000E+00  0.12241286532E+03  0.12241286532E+03  0.00000000000E+00 0.  1.
          1   -1    0    0  501    0  0.00000000000E+00 -0.00000000000E+00 -0.10484454838E+03  0.10484454838E+03  0.00000000000E+00 0. -1.
         25    2    1    2    0    0 -0.13998031692E+01  0.20845198699E+02  0.36611834420E+02  0.13199815463E+03  0.12508638874E+03 0.  0.
          5    1    3    3  502    0 -0.32068541044E+02 -0.42578316004E+02  0.22772770307E+01  0.53516004233E+02  0.41800000000E+01 0. -1.
         -5    1    3    3    0  502  0.30668737874E+02  0.63423514704E+02  0.34334557389E+02  0.78482150399E+02  0.41800000000E+01 0. -1.
        -11    1    1    2    0    0 -0.36625125640E+02 -0.27721391175E+02 -0.30281331085E+02  0.55016673556E+02  0.00000000000E+00 0. -1.
         11    1    1    2    0    0  0.38024928810E+02  0.68761924762E+01  0.11237813599E+02  0.40242585509E+02  0.00000000000E+00 0.  1.
</event>
<event>
 7    1  0.2480409E-009  0.2455265E+03  0.7561462E-02  0.1116165E+00
         -1   -1    0    0    0  501 -0.00000000000E+00  0.00000000000E+00  0.11908862085E+03  0.11908862085E+03  0.00000000000E+00 0.  1.
          1   -1    0    0  501    0  0.00000000000E+00 -0.00000000000E+00 -0.58135193004E+03  0.58135193004E+03  0.00000000000E+00 0. -1.
         25    2    1    2    0    0  0.23065845431E+03  0.17065644951E+02 -0.32566782871E+03  0.41857177568E+03  0.12509291730E+03 0.  0.
          5    1    3    3  502    0  0.65516931414E+02 -0.48557468835E+02 -0.13599661992E+03  0.15862802121E+03  0.41800000000E+01 0. -1.
         -5    1    3    3    0  502  0.16514152290E+03  0.65623113786E+02 -0.18967120878E+03  0.25994375447E+03  0.41800000000E+01 0. -1.
        -11    1    1    2    0    0 -0.10582865675E+03 -0.14161298375E+01 -0.14986097136E+02  0.10689384042E+03  0.00000000000E+00 0.  1.
         11    1    1    2    0    0 -0.12482979757E+03 -0.15649515114E+02 -0.12160938335E+03  0.17497493478E+03  0.00000000000E+00 0. -1.
</event>
<event>
 7    1  0.2480409E-009  0.8328317E+02  0.7561462E-02  0.1319984E+00
          2   -1    0    0  501    0  0.00000000000E+00  0.00000000000E+00  0.26120935993E+03  0.26120935993E+03  0.00000000000E+00 0. -1.
         -2   -1    0    0    0  501 -0.00000000000E+00 -0.00000000000E+00 -0.52602753301E+02  0.52602753301E+02  0.00000000000E+00 0.  1.
         25    2    1    2    0    0  0.38248233520E+02 -0.14485891261E+02  0.13467611892E+03  0.18830421009E+03  0.12509216649E+03 0.  0.
          5    1    3    3  502    0 -0.10717556454E+02 -0.30107629933E+02 -0.10773860342E+02  0.33983582260E+02  0.41800000000E+01 0.  1.
         -5    1    3    3    0  502  0.48965789975E+02  0.15621738672E+02  0.14544997926E+03  0.15432062783E+03  0.41800000000E+01 0.  1.
        -11    1    1    2    0    0 -0.11018207880E+02 -0.29245748168E+02 -0.45987160947E+01  0.31588967703E+02  0.00000000000E+00 0.  1.
         11    1    1    2    0    0 -0.27230025640E+02  0.43731639430E+02  0.78529203806E+02  0.93918935439E+02  0.00000000000E+00 0. -1.
</event>
<event>
 7    1  0.2480409E-009  0.1281733E+03  0.7561462E-02  0.1230192E+00
          2   -1    0    0  501    0  0.00000000000E+00  0.00000000000E+00  0.49964019084E+03  0.49964019084E+03  0.00000000000E+00 0. -1.
         -2   -1    0    0    0  501 -0.00000000000E+00 -0.00000000000E+00 -0.40309785506E+02  0.40309785506E+02  0.00000000000E+00 0.  1.
         25    2    1    2    0    0  0.91959116855E-01 -0.90728333944E+02  0.28325968285E+03  0.32266803534E+03  0.12508786539E+03 0.  0.
          5    1    3    3  502    0  0.62326159077E+02 -0.42821770256E+02  0.14592008355E+03  0.16440315477E+03  0.41800000000E+01 0.  1.
         -5    1    3    3    0  502 -0.62234199961E+02 -0.47906563688E+02  0.13733959929E+03  0.15826488057E+03  0.41800000000E+01 0.  1.
        -11    1    1    2    0    0  0.21841886611E+02  0.28003545644E+02  0.13401859060E+03  0.13864432627E+03  0.00000000000E+00 0. -1.
         11    1    1    2    0    0 -0.21933845727E+02  0.62724788299E+02  0.42052131887E+02  0.78637614739E+02  0.00000000000E+00 0.  1.
</event>
<event>
 7    1  0.2480409E-009  0.9525902E+02  0.7561462E-02  0.1290594E+00
         -4   -1    0    0    0  501 -0.00000000000E+00  0.00000000000E+00  0.23739703914E+03  0.23739703914E+03  0.00000000000E+00 0. -1.
          4   -1    0    0  501    0  0.00000000000E+00 -0.00000000000E+00 -0.82109776984E+02  0.82109776984E+02  0.00000000000E+00 0.  1.
         25    2    1    2    0    0 -0.63750774715E+02  0.42751303771E+02  0.38559905317E+02  0.15175083732E+03  0.12509842157E+03 0.  0.
          5    1    3    3  502    0 -0.79165806614E+02  0.27823992165E+02  0.72771390279E+02  0.11115101043E+03  0.41800000000E+01 0.  1.
         -5    1    3    3    0  502  0.15415031899E+02  0.14927311606E+02 -0.34211484961E+02  0.40599826890E+02  0.41800000000E+01 0.  1.
        -11    1    1    2    0    0  0.33913267584E+02 -0.17865501407E+01  0.11179261932E+03  0.11683702844E+03  0.00000000000E+00 0. -1.
         11    1    1    2    0    0  0.29837507131E+02 -0.40964753630E+02  0.49347375170E+01  0.50918950363E+02  0.00000000000E+00 0.  1.
</event>
<event>
 7    1  0.2480409E-009  0.1148782E+03  0.7561462E-02  0.1251794E+00
         -1   -1    0    0    0  501 -0.00000000000E+00  0.00000000000E+00  0.24729878229E+02  0.24729878229E+02  0.00000000000E+00 0.  1.
          1   -1    0    0  501    0  0.00000000000E+00 -0.00000000000E+00 -0.59450018531E+03  0.59450018531E+03  0.00000000000E+00 0. -1.
         25    2    1    2    0    0 -0.37431808930E+02  0.31641557207E+02 -0.38469274180E+03  0.40747590214E+03  0.12508307947E+03 0.  0.
          5    1    3    3  502    0 -0.82638643204E+02  0.28985208952E+02 -0.27793289285E+03  0.29143344526E+03  0.41800000000E+01 0.  1.
         -5    1    3    3    0  502  0.45206834274E+02  0.26563482545E+01 -0.10675984895E+03  0.11604245688E+03  0.41800000000E+01 0.  1.
        -11    1    1    2    0    0 -0.61058868182E+01  0.24676291456E+02 -0.86524260021E+02  0.90181199737E+02  0.00000000000E+00 0. -1.
         11    1    1    2    0    0  0.43537695748E+02 -0.56317848663E+02 -0.98553305257E+02  0.12157296166E+03  0.00000000000E+00 0.  1.
</event>
<event>
 7    1  0.2480409E-009  0.1251232E+03  0.7561462E-02  0.1234877E+00
         -1   -1    0    0    0  501 -0.00000000000E+00  0.00000000000E+00  0.77630944413E+02  0.77630944413E+02  0.00000000000E+00 0.  1.
          1   -1    0    0  501    0  0.00000000000E+00 -0.00000000000E+00 -0.24614366359E+03  0.24614366359E+03  0.00000000000E+00 0. -1.
         25    2    1    2    0    0 -0.47066049362E+02 -0.77449516247E+02 -0.67509783894E+02  0.16858025665E+03  0.12509233167E+03 0.  0.
          5    1    3    3  502    0  0.27553300759E+02 -0.43741440186E+02 -0.69318732770E+02  0.86573997742E+02  0.41800000000E+01 0.  1.
         -5    1    3    3    0  502 -0.74619350121E+02 -0.33708076061E+02  0.18089488755E+01  0.82006258909E+02  0.41800000000E+01 0.  1.
        -11    1    1    2    0    0  0.89153297504E+01  0.77733884259E+02 -0.78824235443E+02  0.11106439555E+03  0.00000000000E+00 0. -1.
         11    1    1    2    0    0  0.38150719612E+02 -0.28436801186E+00 -0.22178699836E+02  0.44129955795E+02  0.00000000000E+00 0.  1.
</event>
<event>
 7    1  0.2480409E-009  0.1035515E+03  0.7561462E-02  0.1273000E+00
          1   -1    0    0  501    0  0.00000000000E+00  0.00000000000E+00  0.66089197050E+03  0.66089197050E+03  0.00000000000E+00 0. -1.
         -1   -1    0    0    0  501 -0.00000000000E+00 -0.00000000000E+00 -0.32265157342E+02  0.32265157342E+02  0.00000000000E+00 0.  1.
         25    2    1    2    0    0 -0.39301124766E+02  0.74685219089E+02  0.45184770725E+03  0.47637841023E+03  0.12509028273E+03 0.  0.
          5    1    3    3  502    0 -0.53397977671E+02  0.52860558663E+02  0.10860900842E+03  0.13213240250E+03  0.41800000000E+01 0. -1.
         -5    1    3    3    0  502  0.14096852906E+02  0.21824660426E+02  0.34323869883E+03  0.34424600773E+03  0.41800000000E+01 0. -1.
        -11    1    1    2    0    0  0.31841259404E+02 -0.14018853410E+01  0.83525939369E+01  0.32948397661E+02  0.00000000000E+00 0.  1.
         11    1    1    2    0    0  0.74598653612E+01 -0.73283333748E+02  0.16842651197E+03  0.18383031994E+03  0.00000000000E+00 0. -1.
</event>
<event>
 7    1  0.2480409E-009  0.1512315E+03  0.7561462E-02  0.1198968E+00
         -1   -1    0    0    0  501 -0.00000000000E+00  0.00000000000E+00  0.22797893491E+03  0.22797893491E+03  0.00000000000E+00 0.  1.
          1   -1    0    0  501    0  0.00000000000E+00 -0.00000000000E+00 -0.27646649780E+03  0.27646649780E+03  0.00000000000E+00 0. -1.
         25    2    1    2    0    0 -0.92864972363E+02  0.87982483317E+02 -0.21206104840E+03  0.27745729268E+03  0.12509132884E+03 0.  0.
          5    1    3    3  502    0 -0.38493890530E+02  0.84403375822E+02 -0.47998638154E+02  0.10453253619E+03  0.41800000000E+01 0. -1.
         -5    1    3    3    0  502 -0.54371081833E+02  0.35791074948E+01 -0.16406241025E+03  0.17292475649E+03  0.41800000000E+01 0. -1.
        -11    1    1    2    0    0  0.90822268015E+02 -0.10441860281E+03  0.13156475241E+03  0.19094819469E+03  0.00000000000E+00 0. -1.
         11    1    1    2    0    0  0.20427043477E+01  0.16436119491E+02  0.32008733096E+02  0.36039945330E+02  0.00000000000E+00 0.  1.
</event>
<event>
 7    1  0.2480409E-009  0.1133136E+03  0.7561462E-02  0.1254554E+00
          1   -1    0    0  501    0  0.00000000000E+00  0.00000000000E+00  0.18702398024E+02  0.18702398024E+02  0.00000000000E+00 0. -1.
         -1   -1    0    0    0  501 -0.00000000000E+00 -0.00000000000E+00 -0.88442541344E+03  0.88442541344E+03  0.00000000000E+00 0.  1.
         25    2    1    2    0    0 -0.53018683981E+02  0.38435272818E+02 -0.56931196820E+03  0.58655986489E+03  0.12509239351E+03 0.  0.
          5    1    3    3  502    0  0.19294831695E+02  0.38404455216E+02 -0.71666613407E+02  0.83670595718E+02  0.41800000000E+01 0. -1.
         -5    1    3    3    0  502 -0.72313515675E+02  0.30817602117E-01 -0.49764535479E+03  0.50288926917E+03  0.41800000000E+01 0. -1.
        -11    1    1    2    0    0  0.48330364063E+02  0.20060160049E+02 -0.14782076773E+03  0.15680948149E+03  0.00000000000E+00 0. -1.
         11    1    1    2    0    0  0.46883199174E+01 -0.58495432868E+02 -0.14859027948E+03  0.15975846509E+03  0.00000000000E+00 0.  1.
</event>
<event>
 7    1  0.2480409E-009  0.1257761E+03  0.7561462E-02  0.1233861E+00
         -1   -1    0    0    0  501 -0.00000000000E+00  0.00000000000E+00  0.41288274174E+02  0.41288274174E+02  0.00000000000E+00 0.  1.
          1   -1    0    0  501    0  0.00000000000E+00 -0.00000000000E+00 -0.46355391582E+03  0.46355391582E+03  0.00000000000E+00 0. -1.
         25    2    1    2    0    0 -0.32699663614E+01  0.83783445880E+02 -0.26080592128E+03  0.30115871923E+03  0.12508591892E+03 0.  0.
          5    1    3    3  502    0  0.38025277726E+02 -0.15804923804E+02 -0.91069563443E+02  0.10003426987E+03  0.41800000000E+01 0. -1.
         -5    1    3    3    0  502 -0.41295244088E+02  0.99588369684E+02 -0.16973635783E+03  0.20112444936E+03  0.41800000000E+01 0. -1.
        -11    1    1    2    0    0  0.30830780899E+02 -0.48975425156E+02 -0.30530234121E+02  0.65431066899E+02  0.00000000000E+00 0.  1.
         11    1    1    2    0    0 -0.27560814537E+02 -0.34808020724E+02 -0.13092948625E+03  0.13825240387E+03  0.00000000000E+00 0. -1.
</event>
<event>
 7    1  0.2480409E-009  0.1387562E+03  0.7561462E-02  0.1215012E+00
          2   -1    0    0  501    0  0.00000000000E+00  0.00000000000E+00  0.18287117822E+03  0.18287117822E+03  0.00000000000E+00 0. -1.
         -2   -1    0    0    0  501 -0.00000000000E+00 -0.00000000000E+00 -0.19423894734E+03  0.19423894734E+03  0.00000000000E+00 0.  1.
         25    2    1    2    0    0 -0.11973297499E+03  0.80276817423E+01 -0.10181921004E+03  0.20103982876E+03  0.12509769078E+03 0.  0.
          5    1    3    3  502    0 -0.41450762866E+02  0.33646602383E+02 -0.10568238582E+03  0.11847573028E+03  0.41800000000E+01 0.  1.
         -5    1    3    3    0  502 -0.78282212128E+02 -0.25618920641E+02  0.38631757736E+01  0.82564098478E+02  0.41800000000E+01 0.  1.
        -11    1    1    2    0    0  0.57703436230E+02 -0.41430075628E+02  0.76230575273E+02  0.10419807256E+03  0.00000000000E+00 0. -1.
         11    1    1    2    0    0  0.62029538764E+02  0.33402393886E+02  0.14220865654E+02  0.71872224235E+02  0.00000000000E+00 0.  1.
</event>
<event>
 7    1  0.2480409E-009  0.6822993E+02  0.7561462E-02  0.1366218E+00
          2   -1    0    0  501    0  0.00000000000E+00  0.00000000000E+00  0.10286271148E+03  0.10286271148E+03  0.00000000000E+00 0. -1.
         -2   -1    0    0    0  501 -0.00000000000E+00 -0.00000000000E+00 -0.11916082067E+03  0.11916082067E+03  0.00000000000E+00 0.  1.
         25    2    1    2    0    0 -0.53722431345E+01  0.11883612694E+02 -0.75870856641E+01  0.12599702047E+03  0.12509038353E+03 0.  0.
          5    1    3    3  502    0 -0.18882870954E+02 -0.65684923309E+01 -0.62827291011E+02  0.66063975075E+02  0.41800000000E+01 0.  1.
         -5    1    3    3    0  502  0.13510627820E+02  0.18452105025E+02  0.55240205347E+02  0.59933045398E+02  0.41800000000E+01 0.  1.
        -11    1    1    2    0    0 -0.26056962226E+02 -0.41890214043E+02  0.69852170392E+01  0.49825180081E+02  0.00000000000E+00 0. -1.
         11    1    1    2    0    0  0.31429205360E+02  0.30006601349E+02 -0.15696240564E+02  0.46201331603E+02  0.00000000000E+00 0.  1.
</event>
<event>
 7    1  0.2480409E-009  0.8502895E+02  0.7561462E-02  0.1315357E+00
          2   -1    0    0  501    0  0.00000000000E+00  0.00000000000E+00  0.15632740390E+03  0.15632740390E+03  0.00000000000E+00 0. -1.
         -2   -1    0    0    0  501 -0.00000000000E+00 -0.00000000000E+00 -0.95432975238E+02  0.95432975238E+02  0.00000000000E+00 0.  1.
         25    2    1    2    0    0 -0.16761803757E+01 -0.56608779753E+02  0.33219803532E+02  0.14127709079E+03  0.12509315533E+03 0.  0.
          5    1    3    3  502    0 -0.73102243068E+01  0.79347728621E+00  0.71452878591E+02  0.71951756369E+02  0.41800000000E+01 0. -1.
         -5    1    3    3    0  502  0.56340439311E+01 -0.57402257039E+02 -0.38233075059E+02  0.69325334422E+02  0.41800000000E+01 0. -1.
        -11    1    1    2    0    0 -0.39138878476E+02  0.73906368375E+01 -0.22361554205E+01  0.39893279036E+02  0.00000000000E+00 0.  1.
         11    1    1    2    0    0  0.40815058851E+02  0.49218142915E+02  0.29910780547E+02  0.70590009307E+02  0.00000000000E+00 0. -1.
</event>
<event>
 7    1  0.2480409E-009  0.9400036E+02  0.7561462E-02  0.1293444E+00
         -2   -1    0    0    0  501 -0.00000000000E+00  0.00000000000E+00  0.18572432557E+02  0.18572432557E+02  0.00000000000E+00 0.  1.
          2   -1    0    0  501    0  0.00000000000E+00 -0.00000000000E+00 -0.70118385593E+03  0.70118385593E+03  0.00000000000E+00 0. -1.
         25    2    1    2    0    0  0.14976336771E+02  0.21759289744E+02 -0.46811733922E+03  0.48526301071E+03  0.12509432016E+03 0.  0.
          5    1    3    3  502    0  0.52708865855E+02  0.10281278878E+02 -0.41749053171E+03  0.42095100155E+03  0.41800000000E+01 0.  1.
         -5    1    3    3    0  502 -0.37732529084E+02  0.11478010867E+02 -0.50626807506E+02  0.64312009165E+02  0.41800000000E+01 0.  1.
        -11    1    1    2    0    0 -0.50343403142E+02  0.43264712736E+01 -0.10562375144E+03  0.11708780236E+03  0.00000000000E+00 0. -1.
         11    1    1    2    0    0  0.35367066372E+02 -0.26085761018E+02 -0.10887033272E+03  0.11740547542E+03  0.00000000000E+00 0.  1.
</event>
<event>
 7    1  0.2480409E-009  0.1136061E+03  0.7561462E-02  0.1254034E+00
          1   -1    0    0  501    0  0.00000000000E+00  0.00000000000E+00  0.21741693123E+03  0.21741693123E+03  0.00000000000E+00 0. -1.
         -1   -1    0    0    0  501 -0.00000000000E+00 -0.00000000000E+00 -0.10821478669E+03  0.10821478669E+03  0.00000000000E+00 0.  1.
         25    2    1    2    0    0  0.96182928747E+00 -0.61772071548E+02 -0.40874113225E+02  0.14537899410E+03  0.12509054663E+03 0.  0.
          5    1    3    3  502    0  0.61477830285E+02 -0.20689413438E+02 -0.28934993059E+02  0.71149713059E+02  0.41800000000E+01 0. -1.
         -5    1    3    3    0  502 -0.60516000998E+02 -0.41082658111E+02 -0.11939120166E+02  0.74229281046E+02  0.41800000000E+01 0. -1.
        -11    1    1    2    0    0 -0.23424457559E+02  0.62218526659E+02  0.67768765368E+02  0.94933955100E+02  0.00000000000E+00 0.  1.
         11    1    1    2    0    0  0.22462628271E+02 -0.44645511042E+00  0.82307492398E+02  0.85318768720E+02  0.00000000000E+00 0. -1.
</event>
<event>
 7    1  0.2480409E-009  0.1115578E+03  0.7561462E-02  0.1257712E+00
         -1   -1    0    0    0  501 -0.00000000000E+00  0.00000000000E+00  0.10970626418E+03  0.10970626418E+03  0.00000000000E+00 0.  1.
          1   -1    0    0  501    0  0.00000000000E+00 -0.00000000000E+00 -0.13652705450E+03  0.13652705450E+03  0.00000000000E+00 0. -1.
         25    2    1    2    0    0 -0.35604674028E+02  0.40677623346E+02 -0.20479122340E+02  0.13780014921E+03  0.12508846796E+03 0.  0.
          5    1    3    3  502    0 -0.70291157044E+02  0.46781492929E+02 -0.43939922064E+02  0.95276145967E+02  0.41800000000E+01 0. -1.
         -5    1    3    3    0  502  0.34686483015E+02 -0.61038695836E+01  0.23460799724E+02  0.42524003240E+02  0.41800000000E+01 0. -1.
        -11    1    1    2    0    0  0.56668907950E+02  0.70686571947E+00  0.12973846934E+02  0.58139362670E+02  0.00000000000E+00 0.  1.
         11    1    1    2    0    0 -0.21064233921E+02 -0.41384489065E+02 -0.19315514920E+02  0.50293806801E+02  0.00000000000E+00 0. -1.
</event>
<event>
 7    1  0.2480409E-009  0.9972796E+02  0.7561462E-02  0.1280869E+00
         -1   -1    0    0    0  501 -0.00000000000E+00  0.00000000000E+00  0.58920413016E+02  0.58920413016E+02  0.00000000000E+00 0.  1.
          1   -1    0    0  501    0  0.00000000000E+00 -0.00000000000E+00 -0.30458968627E+03  0.30458968627E+03  0.00000000000E+00 0. -1.
         25    2    1    2    0    0  0.58272190906E+02  0.37322572828E+02 -0.92318149710E+02  0.17017587149E+03  0.12509421967E+03 0.  0.
          5    1    3    3  502    0 -0.58106781964E+01  0.18438673078E+02 -0.10078232835E+03  0.10270491105E+03  0.41800000000E+01 0. -1.
         -5    1    3    3    0  502  0.64082869102E+02  0.18883899750E+02  0.84641786439E+01  0.67470960437E+02  0.41800000000E+01 0. -1.
        -11    1    1    2    0    0 -0.71291055478E+01 -0.57366695111E+02 -0.50616109450E+02  0.76835879572E+02  0.00000000000E+00 0.  1.
         11    1    1    2    0    0 -0.51143085358E+02  0.20044122283E+02 -0.10273501409E+03  0.11649834822E+03  0.00000000000E+00 0. -1.
</event>
<event>
 7    1  0.2480409E-009  0.1059831E+03  0.7561462E-02  0.1268195E+00
          2   -1    0    0  501    0  0.00000000000E+00  0.00000000000E+00  0.16427937343E+03  0.16427937343E+03  0.00000000000E+00 0.  1.
         -2   -1    0    0    0  501 -0.00000000000E+00 -0.00000000000E+00 -0.95728394278E+02  0.95728394278E+02  0.00000000000E+00 0. -1.
         25    2    1    2    0    0 -0.65428133083E+02  0.89880016973E+01  0.27489921762E+02  0.14410343824E+03  0.12509388610E+03 0.  0.
          5    1    3    3  502    0  0.70121499521E+01 -0.47879033677E+02  0.16325359423E+02  0.51240236856E+02  0.41800000000E+01 0.  1.
         -5    1    3    3    0  502 -0.72440283035E+02  0.56867035374E+02  0.11164562339E+02  0.92863201381E+02  0.41800000000E+01 0.  1.
        -11    1    1    2    0    0  0.57005914787E+02 -0.17097609013E+02  0.65690219261E+02  0.88640890458E+02  0.00000000000E+00 0.  1.
         11    1    1    2    0    0  0.84222182964E+01  0.81096073157E+01 -0.24629161876E+02  0.27263439008E+02  0.00000000000E+00 0. -1.
</event>
<event>
 7    1  0.2480409E-009  0.1133493E+03  0.7561462E-02  0.1254490E+00
         -1   -1    0    0    0  501 -0.00000000000E+00  0.00000000000E+00  0.19025503372E+02  0.19025503372E+02  0.00000000000E+00 0.  1.
          1   -1    0    0  501    0  0.00000000000E+00 -0.00000000000E+00 -0.69062852914E+03  0.69062852914E+03  0.00000000000E+00 0. -1.
         25    2    1    2    0    0  0.18680285579E+02 -0.30275509949E+02 -0.38572027455E+03  0.40705326102E+03  0.12508664013E+03 0.  0.
          5    1    3    3  502    0  0.65250635129E+02  0.12499386236E+02 -0.18934513938E+03  0.20070608921E+03  0.41800000000E+01 0.  1.
         -5    1    3    3    0  502 -0.46570349550E+02 -0.42774896185E+02 -0.19637513517E+03  0.20634717181E+03  0.41800000000E+01 0.  1.
        -11    1    1    2    0    0  0.27883337558E+02 -0.15127938239E+02 -0.64760279702E+02  0.72112612322E+02  0.00000000000E+00 0.  1.
         11    1    1    2    0    0 -0.46563623137E+02  0.45403448188E+02 -0.22112247152E+03  0.23048815918E+03  0.00000000000E+00 0. -1.
</event>
<event>
 7    1  0.2480409E-009  0.1055807E+03  0.7561462E-02  0.1268980E+00
         -3   -1    0    0    0  501 -0.00000000000E+00  0.00000000000E+00  0.85867936513E+02  0.85867936513E+02  0.00000000000E+00 0.  1.
          3   -1    0    0  501    0  0.00000000000E+00 -0.00000000000E+00 -0.21415152521E+03  0.21415152521E+03  0.00000000000E+00 0. -1.
         25    2    1    2    0    0  0.12230735579E+02 -0.26727123613E+02  0.14010045657E+02  0.12926014899E+03  0.12509186508E+03 0.  0.
          5    1    3    3  502    0  0.18423226286E+02  0.45463580046E+02  0.26038163722E+02  0.55693902246E+02  0.41800000000E+01 0.  1.
         -5    1    3    3    0  502 -0.61924907072E+01 -0.72190703659E+02 -0.12028118064E+02  0.73566246745E+02  0.41800000000E+01 0.  1.
        -11    1    1    2    0    0 -0.26396073352E+02 -0.24615108969E+02 -0.85982439857E+02  0.93250395397E+02  0.00000000000E+00 0. -1.
         11    1    1    2    0    0  0.14165337773E+02  0.51342232581E+02 -0.56311194495E+02  0.77508917333E+02  0.00000000000E+00 0.  1.
</event>
<event>
 7    1  0.2480409E-009  0.1339964E+03  0.7561462E-02  0.1221643E+00
          1   -1    0    0  501    0  0.00000000000E+00  0.00000000000E+00  0.91345891535E+03  0.91345891535E+03  0.00000000000E+00 0. -1.
         -1   -1    0    0    0  501 -0.00000000000E+00 -0.00000000000E+00 -0.49637281333E+02  0.49637281333E+02  0.00000000000E+00 0.  1.
         25    2    1    2    0    0  0.84823419240E+01  0.13337580143E+03  0.73164708719E+03  0.75419832934E+03  0.12508639118E+03 0.  0.
          5    1    3    3  502    0  0.10615431016E+02  0.90807480480E+02  0.68415134733E+03  0.69024577097E+03  0.41800000000E+01 0.  1.
         -5    1    3    3    0  502 -0.21330890923E+01  0.42568320948E+02  0.47495739853E+02  0.63952558366E+02  0.41800000000E+01 0.  1.
        -11    1    1    2    0    0 -0.46706858408E+01 -0.72313933767E+02  0.12860192707E+03  0.14761292616E+03  0.00000000000E+00 0. -1.
         11    1    1    2    0    0 -0.38116560832E+01 -0.61061867661E+02  0.35726197611E+01  0.61284941187E+02  0.00000000000E+00 0.  1.
</event>
<event>
 7    1  0.2480409E-009  0.1207900E+03  0.7561462E-02  0.1241800E+00
         -1   -1    0    0    0  501 -0.00000000000E+00  0.00000000000E+00  0.21707380278E+03  0.21707380278E+03  0.00000000000E+00 0.  1.
          1   -1    0    0  501    0  0.00000000000E+00 -0.00000000000E+00 -0.97994493783E+02  0.97994493783E+02  0.00000000000E+00 0. -1.
         25    2    1    2    0    0 -0.40848842320E+00  0.87299099131E+02  0.11218349968E+03  0.18935048354E+03  0.12508864234E+03 0.  0.
          5    1    3    3  502    0  0.92210546992E+01 -0.17601542949E+02 -0.14193051174E+02  0.24774124921E+02  0.41800000000E+01 0.  1.
         -5    1    3    3    0  502 -0.96295431224E+01  0.10490064208E+03  0.12637655085E+03  0.16457635862E+03  0.41800000000E+01 0.  1.
        -11    1    1    2    0    0  0.32973375059E+02 -0.14347125304E+02 -0.20338903315E+02  0.41312884858E+02  0.00000000000E+00 0. -1.
         11    1    1    2    0    0 -0.32564886636E+02 -0.72951973828E+02  0.27234712634E+02  0.84404928169E+02  0.00000000000E+00 0.  1.
</event>
<event>
 7    1  0.2480409E-009  0.1262071E+03  0.7561462E-02  0.1233195E+00
          2   -1    0    0  501    0  0.00000000000E+00  0.00000000000E+00  0.41559837394E+03  0.41559837394E+03  0.00000000000E+00 0. -1.
         -2   -1    0    0    0  501 -0.00000000000E+00 -0.00000000000E+00 -0.51148388091E+02  0.51148388091E+02  0.00000000000E+00 0.  1.
         25    2    1    2    0    0  0.36012806369E+02  0.85704120369E+02  0.21991560238E+03  0.26954104103E+03  0.12508949659E+03 0.  0.
          5    1    3    3  502    0 -0.37626741865E+01  0.80290473275E+02  0.21414514821E+03  0.22877135904E+03  0.41800000000E+01 0.  1.
         -5    1    3    3    0  502  0.39775480555E+02  0.54136470938E+01  0.57704541773E+01  0.40769681991E+02  0.41800000000E+01 0.  1.
        -11    1    1    2    0    0  0.92632759718E+00  0.19780608138E+02  0.37744526950E+02  0.42623700635E+02  0.00000000000E+00 0.  1.
         11    1    1    2    0    0 -0.36939133966E+02 -0.10548472851E+03  0.10678985652E+03  0.15458202037E+03  0.00000000000E+00 0. -1.
</event>
<event>
 7    1  0.2480409E-009  0.2268353E+03  0.7561462E-02  0.1128887E+00
          2   -1    0    0  501    0  0.00000000000E+00  0.00000000000E+00  0.36592023139E+03  0.36592023139E+03  0.00000000000E+00 0. -1.
         -2   -1    0    0    0  501 -0.00000000000E+00 -0.00000000000E+00 -0.14643109015E+03  0.14643109015E+03  0.00000000000E+00 0.  1.
         25    2    1    2    0    0  0.13597464872E+03  0.14444770854E+03  0.16233593476E+03  0.28522791867E+03  0.12509102397E+03 0.  0.
          5    1    3    3  502    0  0.51173527295E+02  0.13982789926E+03  0.93945475607E+02  0.17610734254E+03  0.41800000000E+01 0. -1.
         -5    1    3    3    0  502  0.84801121421E+02  0.46198092775E+01  0.68390459153E+02  0.10912057613E+03  0.41800000000E+01 0. -1.
        -11    1    1    2    0    0 -0.15032485328E+03 -0.12494285195E+03  0.53278899250E+02  0.20260039208E+03  0.00000000000E+00 0.  1.
         11    1    1    2    0    0  0.14350204561E+02 -0.19504856596E+02  0.38743072313E+01  0.24523010791E+02  0.00000000000E+00 0. -1.
</event>
<event>
 7    1  0.2480409E-009  0.1334736E+03  0.7561462E-02  0.1222391E+00
         -2   -1    0    0    0  501 -0.00000000000E+00  0.00000000000E+00  0.50171613777E+02  0.50171613777E+02  0.00000000000E+00 0.  1.
          2   -1    0    0  501    0  0.00000000000E+00 -0.00000000000E+00 -0.56138732374E+03  0.56138732374E+03  0.00000000000E+00 0. -1.
         25    2    1    2    0    0 -0.10478343490E+03 -0.44351149582E+02 -0.14968770609E+03  0.22583328280E+03  0.12509064539E+03 0.  0.
          5    1    3    3  502    0 -0.53202552253E+02  0.18327804078E+02 -0.13070466082E+03  0.14236432393E+03  0.41800000000E+01 0. -1.
         -5    1    3    3    0  502 -0.51580882644E+02 -0.62678953660E+02 -0.18983045277E+02  0.83468958867E+02  0.41800000000E+01 0. -1.
        -11    1    1    2    0    0  0.74268308861E+02  0.59507276556E+02 -0.21225535089E+03  0.23261391112E+03  0.00000000000E+00 0.  1.
         11    1    1    2    0    0  0.30515126036E+02 -0.15156126974E+02 -0.14927265297E+03  0.15311174360E+03  0.00000000000E+00 0. -1.
</event>
<event>
 7    1  0.2480409E-009  0.1837847E+03  0.7561462E-02  0.1164190E+00
         -2   -1    0    0    0  501 -0.00000000000E+00  0.00000000000E+00  0.32366443791E+02  0.32366443791E+02  0.00000000000E+00 0. -1.
          2   -1    0    0  501    0  0.00000000000E+00 -0.00000000000E+00 -0.10767367549E+04  0.10767367549E+04  0.00000000000E+00 0.  1.
         25    2    1    2    0    0 -0.96400358525E+02 -0.12406485349E+03 -0.57148177182E+03  0.60574283615E+03  0.12509137071E+03 0.  0.
          5    1    3    3  502    0 -0.12686419384E+03 -0.10082795035E+03 -0.47158091076E+03  0.49866504494E+03  0.41800000000E+01 0.  1.
         -5    1    3    3    0  502  0.30463835316E+02 -0.23236903141E+02 -0.99900861056E+02  0.10707779121E+03  0.41800000000E+01 0.  1.
        -11    1    1    2    0    0  0.24814906642E+02  0.77862912769E+02 -0.29517297053E+03  0.30627682790E+03  0.00000000000E+00 0.  1.
         11    1    1    2    0    0  0.71585451883E+02  0.46201940722E+02 -0.17771556876E+03  0.19708353464E+03  0.00000000000E+00 0. -1.
</event>
<event>
 7    1  0.2480409E-009  0.1357157E+03  0.7561462E-02  0.1219213E+00
          2   -1    0    0  501    0  0.00000000000E+00  0.00000000000E+00  0.65555661909E+03  0.65555661909E+03  0.00000000000E+00 0. -1.
         -2   -1    0    0    0  501 -0.00000000000E+00 -0.00000000000E+00 -0.33765345936E+02  0.33765345936E+02  0.00000000000E+00 0.  1.
         25    2    1    2    0    0 -0.65754543666E+02  0.70030609280E+02  0.27189776217E+03  0.31433275986E+03  0.12509494234E+03 0.  0.
          5    1    3    3  502    0 -0.81580381340E+02  0.82805593200E+02  0.14568517151E+03  0.18642362104E+03  0.41800000000E+01 0.  1.
         -5    1    3    3    0  502  0.15825837674E+02 -0.12774983920E+02  0.12621259066E+03  0.12790913882E+03  0.41800000000E+01 0.  1.
        -11    1    1    2    0    0 -0.11640444898E+02 -0.54093868151E+02  0.16060830632E+03  0.16987252453E+03  0.00000000000E+00 0. -1.
         11    1    1    2    0    0  0.77394988565E+02 -0.15936741129E+02  0.18928520466E+03  0.20511668064E+03  0.00000000000E+00 0.  1.
</event>
<event>
 7    1  0.2480409E-009  0.8277175E+02  0.7561462E-02  0.1321365E+00
          2   -1    0    0  501    0  0.00000000000E+00  0.00000000000E+00  0.32994174704E+03  0.32994174704E+03  0.00000000000E+00 0. -1.
         -2   -1    0    0    0  501 -0.00000000000E+00 -0.00000000000E+00 -0.42272576222E+02  0.42272576222E+02  0.00000000000E+00 0.  1.
         25    2    1    2    0    0  0.26708030463E+02  0.14745301365E+02  0.21466737866E+03  0.25031997356E+03  0.12508901990E+03 0.  0.
          5    1    3    3  502    0 -0.13992497533E+02 -0.18155087293E+02 -0.55327072032E+01  0.23947451448E+02  0.41800000000E+01 0.  1.
         -5    1    3    3    0  502  0.40700527996E+02  0.32900388658E+02  0.22020008586E+03  0.22637252211E+03  0.41800000000E+01 0.  1.
        -11    1    1    2    0    0 -0.43766605318E+02  0.22180701488E+02  0.63277800401E+02  0.80072337815E+02  0.00000000000E+00 0. -1.
         11    1    1    2    0    0  0.17058574855E+02 -0.36926002853E+02  0.97239917582E+01  0.41822011890E+02  0.00000000000E+00 0.  1.
</event>
<event>
 7    1  0.2480409E-009  0.1271444E+03  0.7561462E-02  0.1231756E+00
          2   -1    0    0  501    0  0.00000000000E+00  0.00000000000E+00  0.30354938310E+03  0.30354938310E+03  0.00000000000E+00 0.  1.
         -2   -1    0    0    0  501 -0.00000000000E+00 -0.00000000000E+00 -0.63688467787E+02  0.63688467787E+02  0.00000000000E+00 0. -1.
         25    2    1    2    0    0  0.16789453359E+02 -0.75375879374E+02  0.18383517397E+03  0.23538391851E+03  0.12508720546E+03 0.  0.
          5    1    3    3  502    0  0.32706109751E+02  0.20092140726E+02  0.16415661509E+02  0.41956287691E+02  0.41800000000E+01 0.  1.
         -5    1    3    3    0  502 -0.15916656392E+02 -0.95468020100E+02  0.16741951246E+03  0.19342763082E+03  0.41800000000E+01 0.  1.
        -11    1    1    2    0    0 -0.52349602410E+02  0.27409751163E+02  0.21501861880E+02  0.62881677742E+02  0.00000000000E+00 0. -1.
         11    1    1    2    0    0  0.35560149051E+02  0.47966128211E+02  0.34523879466E+02  0.68972254636E+02  0.00000000000E+00 0.  1.
</event>
<event>
 7    1  0.2480409E-009  0.1344614E+03  0.7561462E-02  0.1220982E+00
         -2   -1    0    0    0  501 -0.00000000000E+00  0.00000000000E+00  0.28300211986E+02  0.28300211986E+02  0.00000000000E+00 0.  1.
          2   -1    0    0  501    0  0.00000000000E+00 -0.00000000000E+00 -0.70994609807E+03  0.70994609807E+03  0.00000000000E+00 0. -1.
         25    2    1    2    0    0  0.92582937219E+02  0.47931733075E+01 -0.35972537055E+03  0.39197524353E+03  0.12509066532E+03 0.  0.
          5    1    3    3  502    0 -0.11026066805E+02 -0.36752787223E+02 -0.53180315938E+02  0.65711185662E+02  0.41800000000E+01 0. -1.
         -5    1    3    3    0  502  0.10360900402E+03  0.41545960530E+02 -0.30654505461E+03  0.32626405787E+03  0.41800000000E+01 0. -1.
        -11    1    1    2    0    0 -0.76700834093E+02 -0.35139480279E+02 -0.27831995997E+03  0.29082606682E+03  0.00000000000E+00 0.  1.
         11    1    1    2    0    0 -0.15882103125E+02  0.30346306971E+02 -0.43600555563E+02  0.55444999701E+02  0.00000000000E+00 0. -1.
</event>
<event>
 7    1  0.2480409E-009  0.1123953E+03  0.7561462E-02  0.1256197E+00
         -2   -1    0    0    0  501 -0.00000000000E+00  0.00000000000E+00  0.36344355417E+02  0.36344355417E+02  0.00000000000E+00 0.  1.
          2   -1    0    0  501    0  0.00000000000E+00 -0.00000000000E+00 -0.36994544966E+03  0.36994544966E+03  0.00000000000E+00 0. -1.
         25    2    1    2    0    0 -0.70911345581E+01  0.34851179223E+02 -0.14649653144E+03  0.19589148974E+03  0.12508938063E+03 0.  0.
          5    1    3    3  502    0  0.16238379200E+02 -0.43684082521E+02 -0.66477986386E+02  0.81294397708E+02  0.41800000000E+01 0. -1.
         -5    1    3    3    0  502 -0.23329513759E+02  0.78535261744E+02 -0.80018545053E+02  0.11459709203E+03  0.41800000000E+01 0. -1.
        -11    1    1    2    0    0 -0.37625196521E+02 -0.34796445950E+02 -0.92173119278E+02  0.10546246717E+03  0.00000000000E+00 0.  1.
         11    1    1    2    0    0  0.44716331080E+02 -0.54733272108E-01 -0.94931443523E+02  0.10493584817E+03  0.00000000000E+00 0. -1.
</event>
<event>
 7    1  0.2480409E-009  0.7901318E+02  0.7561462E-02  0.1331875E+00
          1   -1    0    0  501    0  0.00000000000E+00  0.00000000000E+00  0.85527684341E+02  0.85527684341E+02  0.00000000000E+00 0. -1.
         -1   -1    0    0    0  501 -0.00000000000E+00 -0.00000000000E+00 -0.16498953681E+03  0.16498953681E+03  0.00000000000E+00 0.  1.
         25    2    1    2    0    0  0.26706903706E+02 -0.24641412041E+02 -0.12262241888E+02  0.13083649385E+03  0.12508943861E+03 0.  0.
          5    1    3    3  502    0  0.60343619561E+02  0.15447061032E+02 -0.37247351336E+02  0.72696641585E+02  0.41800000000E+01 0.  1.
         -5    1    3    3    0  502 -0.33636715855E+02 -0.40088473072E+02  0.24985109448E+02  0.58139852261E+02  0.41800000000E+01 0.  1.
        -11    1    1    2    0    0 -0.64166041411E+01  0.21660969545E+02  0.19956988572E+02  0.30143851831E+02  0.00000000000E+00 0. -1.
         11    1    1    2    0    0 -0.20290299565E+02  0.29804424952E+01 -0.87156599156E+02  0.89536875478E+02  0.00000000000E+00 0.  1.
</event>
<event>
 7    1  0.2480409E-009  0.1234158E+03  0.7561462E-02  0.1237566E+00
          1   -1    0    0  501    0  0.00000000000E+00  0.00000000000E+00  0.45194426679E+03  0.45194426679E+03  0.00000000000E+00 0. -1.
         -1   -1    0    0    0  501 -0.00000000000E+00 -0.00000000000E+00 -0.41058959507E+02  0.41058959507E+02  0.00000000000E+00 0.  1.
         25    2    1    2    0    0  0.61714857163E+01 -0.80863466516E+02  0.23502525235E+03  0.27831789185E+03  0.12508793798E+03 0.  0.
          5    1    3    3  502    0  0.47920424546E+02 -0.89955953850E+02  0.13290235320E+03  0.16753790200E+03  0.41800000000E+01 0. -1.
         -5    1    3    3    0  502 -0.41748938830E+02  0.90924873341E+01  0.10212289915E+03  0.11077998984E+03  0.41800000000E+01 0. -1.
        -11    1    1    2    0    0 -0.33460807262E+02  0.54465296795E+02  0.44342344432E+02  0.77796771702E+02  0.00000000000E+00 0.  1.
         11    1    1    2    0    0  0.27289321546E+02  0.26398169722E+02  0.13151771050E+03  0.13688856275E+03  0.00000000000E+00 0. -1.
</event>
<event>
 7    1  0.2480409E-009  0.1690560E+03  0.7561462E-02  0.1178836E+00
          2   -1    0    0  501    0  0.00000000000E+00  0.00000000000E+00  0.23314700794E+03  0.23314700794E+03  0.00000000000E+00 0. -1.
         -2   -1    0    0    0  501 -0.00000000000E+00 -0.00000000000E+00 -0.16898587983E+03  0.16898587983E+03  0.00000000000E+00 0.  1.
         25    2    1    2    0    0  0.35453874940E+02  0.14218694032E+03 -0.43601086408E+02  0.19754101659E+03  0.12508914923E+03 0.  0.
          5    1    3    3  502    0  0.71246758691E+02  0.12845744843E+03 -0.55655012424E+02  0.15713805869E+03  0.41800000000E+01 0. -1.
         -5    1    3    3    0  502 -0.35792883751E+02  0.13729491884E+02  0.12053926016E+02  0.40402957899E+02  0.41800000000E+01 0. -1.
        -11    1    1    2    0    0 -0.60063992418E+01 -0.10495808954E+03  0.23262712747E+02  0.10767279692E+03  0.00000000000E+00 0.  1.
         11    1    1    2    0    0 -0.29447475698E+02 -0.37228850778E+02  0.84499501769E+02  0.96919074255E+02  0.00000000000E+00 0. -1.
</event>
<event>
 7    1  0.2480409E-009  0.1123156E+03  0.7561462E-02  0.1256341E+00
          1   -1    0    0  501    0  0.00000000000E+00  0.00000000000E+00  0.61301646727E+02  0.61301646727E+02  0.00000000000E+00 0. -1.
         -1   -1    0    0    0  501 -0.00000000000E+00 -0.00000000000E+00 -0.31105222739E+03  0.31105222739E+03  0.00000000000E+00 0.  1.
         25    2    1    2    0    0 -0.42327217887E+01  0.75547537631E+02 -0.19158526753E+03  0.24099666383E+03  0.12509648623E+03 0.  0.
          5    1    3    3  502    0 -0.36082255768E+02 -0.12619850253E+01 -0.50110756342E+01  0.36689304525E+02  0.41800000000E+01 0.  1.
         -5    1    3    3    0  502  0.31849533979E+02  0.76809522656E+02 -0.18657419190E+03  0.20430735931E+03  0.41800000000E+01 0.  1.
        -11    1    1    2    0    0  0.38193550597E+02 -0.47730575092E+02 -0.62276928127E+02  0.87266092399E+02  0.00000000000E+00 0.  1.
         11    1    1    2    0    0 -0.33960828808E+02 -0.27816962539E+02  0.41116149963E+01  0.44091117882E+02  0.00000000000E+00 0. -1.
</event>
<event>
 7    1  0.2480409E-009  0.1343476E+03  0.7561462E-02  0.1221144E+00
          1   -1    0    0  501    0  0.00000000000E+00  0.00000000000E+00  0.51038640506E+03  0.51038640506E+03  0.00000000000E+00 0. -1.
         -1   -1    0    0    0  501 -0.00000000000E+00 -0.00000000000E+00 -0.54220474623E+02  0.54220474623E+02  0.00000000000E+00 0.  1.
         25    2    1    2    0    0 -0.93219361067E+02  0.32545276648E+02  0.11180087890E+03  0.19466935716E+03  0.12509067824E+03 0.  0.
          5    1    3    3  502    0 -0.12259429689E+03  0.23577237159E+02  0.71840318921E+02  0.14409632738E+03  0.41800000000E+01 0. -1.
         -5    1    3    3    0  502  0.29374935824E+02  0.89680394891E+01  0.39960559979E+02  0.50573029776E+02  0.41800000000E+01 0. -1.
        -11    1    1    2    0    0  0.89724116039E+02 -0.44627688964E+02  0.34293762432E+03  0.35727896915E+03  0.00000000000E+00 0. -1.
         11    1    1    2    0    0  0.34952450275E+01  0.12082412316E+02  0.14274272187E+01  0.12658553379E+02  0.00000000000E+00 0.  1.
</event>
<event>
 7    1  0.2480409E-009  0.1392180E+03  0.7561462E-02  0.1214385E+00
          1   -1    0    0  501    0  0.00000000000E+00  0.00000000000E+00  0.62156485496E+02  0.62156485496E+02  0.00000000000E+00 0. -1.
         -1   -1    0    0    0  501 -0.00000000000E+00 -0.00000000000E+00 -0.51191406296E+03  0.51191406296E+03  0.00000000000E+00 0.  1.
         25    2    1    2    0    0 -0.22187094188E+02  0.87605593456E+02 -0.41504834828E+03  0.44280901109E+03  0.12509069406E+03 0.  0.
          5    1    3    3  502    0 -0.55730568220E+02  0.10288202085E+03 -0.30680906300E+03  0.32838982930E+03  0.41800000000E+01 0. -1.
         -5    1    3    3    0  502  0.33543474032E+02 -0.15276427394E+02 -0.10823928528E+03  0.11441918179E+03  0.41800000000E+01 0. -1.
        -11    1    1    2    0    0 -0.29047610163E+02 -0.58550937526E+02 -0.30740081808E+02  0.72228308653E+02  0.00000000000E+00 0.  1.
         11    1    1    2    0    0  0.51234704351E+02 -0.29054655930E+02 -0.39691473764E+01  0.59033228711E+02  0.00000000000E+00 0. -1.
</event>
<event>
 7    1  0.2480409E-009  0.1630186E+03  0.7561462E-02  0.1185330E+00
         -2   -1    0    0    0  501 -0.00000000000E+00  0.00000000000E+00  0.42419057244E+02  0.42419057244E+02  0.00000000000E+00 0.  1.
          2   -1    0    0  501    0  0.00000000000E+00 -0.00000000000E+00 -0.90603913697E+03  0.90603913697E+03  0.00000000000E+00 0. -1.
         25    2    1    2    0    0  0.48456680019E+02 -0.15524347669E+03 -0.47675618498E+03  0.51903374031E+03  0.12510386395E+03 0.  0.
          5    1    3    3  502    0  0.14875862719E+02 -0.60728683066E+02 -0.35839536375E+03  0.36383234242E+03  0.41800000000E+01 0. -1.
         -5    1    3    3    0  502  0.33580817300E+02 -0.94514793621E+02 -0.11836082123E+03  0.15520139789E+03  0.41800000000E+01 0. -1.
        -11    1    1    2    0    0 -0.10193950844E+02  0.49280047061E+02 -0.23503974294E+03  0.24036663752E+03  0.00000000000E+00 0. -1.
         11    1    1    2    0    0 -0.38262729176E+02  0.10596342963E+03 -0.15182415181E+03  0.18905781638E+03  0.00000000000E+00 0.  1.
</event>
<event>
 7    1  0.2480409E-009  0.9167852E+02  0.7561462E-02  0.1298837E+00
         -1   -1    0    0    0  501 -0.00000000000E+00  0.00000000000E+00  0.28925535522E+02  0.28925535522E+02  0.00000000000E+00 0.  1.
          1   -1    0    0  501    0  0.00000000000E+00 -0.00000000000E+00 -0.46205192424E+03  0.46205192424E+03  0.00000000000E+00 0. -1.
         25    2    1    2    0    0 -0.20489023252E+02 -0.16994073268E+02 -0.18007713158E+03  0.22086947101E+03  0.12508777441E+03 0.  0.
          5    1    3    3  502    0  0.11613273886E+02  0.39227269167E+02 -0.13689023565E+03  0.14293374617E+03  0.41800000000E+01 0. -1.
         -5    1    3    3    0  502 -0.32102297137E+02 -0.56221342436E+02 -0.43186895925E+02  0.77935724840E+02  0.41800000000E+01 0. -1.
        -11    1    1    2    0    0 -0.14335233734E+02  0.35239439633E+02 -0.47620101878E+02  0.60950727106E+02  0.00000000000E+00 0.  1.
         11    1    1    2    0    0  0.34824256986E+02 -0.18245366364E+02 -0.20542915526E+03  0.20915726164E+03  0.00000000000E+00 0. -1.
</event>
<event>
 7    1  0.2480409E-009  0.9281111E+02  0.7561462E-02  0.1296184E+00
          2   -1    0    0  501    0  0.00000000000E+00  0.00000000000E+00  0.10993567417E+03  0.10993567417E+03  0.00000000000E+00 0. -1.
         -2   -1    0    0    0  501 -0.00000000000E+00 -0.00000000000E+00 -0.15016708094E+03  0.15016708094E+03  0.00000000000E+00 0.  1.
         25    2    1    2    0    0  0.48418894243E+02  0.14194028031E+02  0.26681546793E+02  0.13749543328E+03  0.12508888633E+03 0.  0.
          5    1    3    3  502    0  0.89144099829E+02 -0.51841017993E+01  0.14199514777E+02  0.90513225916E+02  0.41800000000E+01 0.  1.
         -5    1    3    3    0  502 -0.40725205586E+02  0.19378129831E+02  0.12482032017E+02  0.46982207366E+02  0.41800000000E+01 0.  1.
        -11    1    1    2    0    0 -0.15445314471E+02 -0.79688404689E+01  0.21730089072E+02  0.27825472657E+02  0.00000000000E+00 0. -1.
         11    1    1    2    0    0 -0.32973579772E+02 -0.62251875623E+01 -0.88643042640E+02  0.94781849168E+02  0.00000000000E+00 0.  1.
</event>
<event>
 7    1  0.2480409E-009  0.1218502E+03  0.7561462E-02  0.1240076E+00
         -2   -1    0    0    0  501 -0.00000000000E+00  0.00000000000E+00  0.18516649187E+02  0.18516649187E+02  0.00000000000E+00 0. -1.
          2   -1    0    0  501    0  0.00000000000E+00 -0.00000000000E+00 -0.95479502649E+03  0.95479502649E+03  0.00000000000E+00 0.  1.
         25    2    1    2    0    0 -0.71622027401E+02 -0.15341655302E+02 -0.61194823401E+03  0.62888256017E+03  0.12509017619E+03 0.  0.
          5    1    3    3  502    0  0.35902218189E+02 -0.71162477102E+01 -0.17051178607E+03  0.17444584214E+03  0.41800000000E+01 0.  1.
         -5    1    3    3    0  502 -0.10752424559E+03 -0.82254075915E+01 -0.44143644795E+03  0.45443671803E+03  0.41800000000E+01 0.  1.
        -11    1    1    2    0    0  0.23168187153E+02  0.38736583251E+02 -0.62303782199E+02  0.76935356333E+02  0.00000000000E+00 0. -1.
         11    1    1    2    0    0  0.48453840248E+02 -0.23394927949E+02 -0.26202636109E+03  0.26749375917E+03  0.00000000000E+00 0.  1.
</event>
<event>
 7    1  0.2480409E-009  0.1124170E+03  0.7561462E-02  0.1256158E+00
          2   -1    0    0  501    0  0.00000000000E+00  0.00000000000E+00  0.12295241085E+03  0.12295241085E+03  0.00000000000E+00 0. -1.
         -2   -1    0    0    0  501 -0.00000000000E+00 -0.00000000000E+00 -0.14710531525E+03  0.14710531525E+03  0.00000000000E+00 0.  1.
         25    2    1    2    0    0 -0.12263372475E+02  0.67839863591E+02 -0.53882510762E+02  0.15265142622E+03  0.12508595270E+03 0.  0.
          5    1    3    3  502    0 -0.56980027494E+02  0.49083669075E+02  0.59107610401E+01  0.75553554510E+02  0.41800000000E+01 0. -1.
         -5    1    3    3    0  502  0.44716655019E+02  0.18756194517E+02 -0.59793271802E+02  0.77097871706E+02  0.41800000000E+01 0. -1.
        -11    1    1    2    0    0  0.15833667851E+02  0.12653533085E+02 -0.15032565788E+02  0.25234796836E+02  0.00000000000E+00 0.  1.
         11    1    1    2    0    0 -0.35702953762E+01 -0.80493396676E+02  0.44762172154E+02  0.92171503045E+02  0.00000000000E+00 0. -1.
</event>
<event>
 7    1  0.2480409E-009  0.7998344E+02  0.7561462E-02  0.1329098E+00
         -2   -1    0    0    0  501 -0.00000000000E+00  0.00000000000E+00  0.81063885202E+02  0.81063885202E+02  0.00000000000E+00 0.  1.
          2   -1    0    0  501    0  0.00000000000E+00 -0.00000000000E+00 -0.19260561692E+03  0.19260561692E+03  0.00000000000E+00 0. -1.
         25    2    1    2    0    0 -0.37356986190E+02 -0.44466054544E+02 -0.69149298530E+02  0.15427923740E+03  0.12509069982E+03 0.  0.
          5    1    3    3  502    0 -0.47170573877E+02 -0.62641656190E+02 -0.93482876466E+02  0.12208833164E+03  0.41800000000E+01 0. -1.
         -5    1    3    3    0  502  0.98135876867E+01  0.18175601646E+02  0.24333577936E+02  0.32190905760E+02  0.41800000000E+01 0. -1.
        -11    1    1    2    0    0  0.36700223794E+02  0.34476191236E+02 -0.72155664899E+02  0.87988375174E+02  0.00000000000E+00 0. -1.
         11    1    1    2    0    0  0.65676239577E+00  0.99898633082E+01  0.29763231707E+02  0.31401889552E+02  0.00000000000E+00 0.  1.
</event>
<event>
 7    1  0.2480409E-009  0.1084836E+03  0.7561462E-02  0.1263404E+00
          1   -1    0    0  501    0  0.00000000000E+00  0.00000000000E+00  0.53054306394E+03  0.53054306394E+03  0.00000000000E+00 0. -1.
         -1   -1    0    0    0  501 -0.00000000000E+00 -0.00000000000E+00 -0.26595080494E+02  0.26595080494E+02  0.00000000000E+00 0.  1.
         25    2    1    2    0    0 -0.95456873476E+01  0.23183667188E+02  0.18588089581E+03  0.22544801008E+03  0.12508595144E+03 0.  0.
          5    1    3    3  502    0  0.56596443689E+02  0.14802265737E+02  0.10753549274E+03  0.12248926119E+03  0.41800000000E+01 0.  1.
         -5    1    3    3    0  502 -0.66142131037E+02  0.83814014511E+01  0.78345403077E+02  0.10295874888E+03  0.41800000000E+01 0.  1.
        -11    1    1    2    0    0 -0.27917118920E+02 -0.41341351787E+02  0.21093496421E+03  0.21675338987E+03  0.00000000000E+00 0. -1.
         11    1    1    2    0    0  0.37462806268E+02  0.18157684599E+02  0.10713212343E+03  0.11493674449E+03  0.00000000000E+00 0.  1.
</event>
<event>
 7    1  0.2480409E-009  0.9750270E+02  0.7561462E-02  0.1285637E+00
         -2   -1    0    0    0  501 -0.00000000000E+00  0.00000000000E+00  0.19445410866E+02  0.19445410866E+02  0.00000000000E+00 0. -1.
          2   -1    0    0  501    0  0.00000000000E+00 -0.00000000000E+00 -0.62771922305E+03  0.62771922305E+03  0.00000000000E+00 0.  1.
         25    2    1    2    0    0  0.10935129030E+02 -0.16052366351E+02 -0.37678303785E+03  0.39748537313E+03  0.12510758861E+03 0.  0.
          5    1    3    3  502    0  0.19034040446E+02  0.44710373656E+02 -0.74668032403E+02  0.89185759352E+02  0.41800000000E+01 0.  1.
         -5    1    3    3    0  502 -0.80989114156E+01 -0.60762740007E+02 -0.30211500545E+03  0.30829961378E+03  0.41800000000E+01 0.  1.
        -11    1    1    2    0    0  0.21412720314E+02  0.39436842761E+02 -0.17398027359E+03  0.17967444102E+03  0.00000000000E+00 0.  1.
         11    1    1    2    0    0 -0.32347849344E+02 -0.23384476410E+02 -0.57510500738E+02  0.70004819758E+02  0.00000000000E+00 0. -1.
</event>
<event>
 7    1  0.2480409E-009  0.1228543E+03  0.7561462E-02  0.1238461E+00
          1   -1    0    0  501    0  0.00000000000E+00  0.00000000000E+00  0.10858208920E+03  0.10858208920E+03  0.00000000000E+00 0. -1.
         -1   -1    0    0    0  501 -0.00000000000E+00 -0.00000000000E+00 -0.15019244674E+03  0.15019244674E+03  0.00000000000E+00 0.  1.
         25    2    1    2    0    0  0.65422982527E+02 -0.23548863928E+02 -0.21216690922E+02  0.14468514275E+03  0.12509567108E+03 0.  0.
          5    1    3    3  502    0 -0.17639114503E+01  0.42677805007E+02  0.12027461313E+02  0.44571724776E+02  0.41800000000E+01 0.  1.
         -5    1    3    3    0  502  0.67186893977E+02 -0.66226668935E+02 -0.33244152234E+02  0.10011341797E+03  0.41800000000E+01 0.  1.
        -11    1    1    2    0    0 -0.50941896117E+02 -0.25676119113E+02 -0.25575521520E+02  0.62517574918E+02  0.00000000000E+00 0.  1.
         11    1    1    2    0    0 -0.14481086410E+02  0.49224983041E+02  0.51818549001E+01  0.51571818265E+02  0.00000000000E+00 0. -1.
</event>
<event>
 7    1  0.3043322E-009  0.1083308E+03  0.7561462E-02  0.1263693E+00
          2   -1    0    0  501    0  0.00000000000E+00  0.00000000000E+00  0.96769399510E+03  0.96769399510E+03  0.00000000000E+00 0. -1.
         -2   -1    0    0    0  501 -0.00000000000E+00 -0.00000000000E+00 -0.22385131989E+02  0.22385131989E+02  0.00000000000E+00 0.  1.
         25    2    1    2    0    0  0.42176192687E+02  0.40737523274E+02  0.78212283462E+03  0.79423039511E+03  0.12508962808E+03 0.  0.
          5    1    3    3  502    0 -0.16877910291E+02 -0.18047931475E+02  0.38475259599E+02  0.45917422484E+02  0.41800000000E+01 0. -1.
         -5    1    3    3    0  502  0.59054102978E+02  0.58785454749E+02  0.74364757502E+03  0.74831297262E+03  0.41800000000E+01 0. -1.
        -11    1    1    2    0    0  0.12347606233E+02 -0.51186026067E+02  0.84071374153E+02  0.99199136066E+02  0.00000000000E+00 0.  1.
         11    1    1    2    0    0 -0.54523798919E+02  0.10448502793E+02  0.79114654342E+02  0.96649595917E+02  0.00000000000E+00 0. -1.
</event>
<event>
 7    1  0.2480409E-009  0.1163841E+03  0.7561462E-02  0.1249184E+00
          1   -1    0    0  501    0  0.00000000000E+00  0.00000000000E+00  0.43712707141E+02  0.43712707141E+02  0.00000000000E+00 0. -1.
         -1   -1    0    0    0  501 -0.00000000000E+00 -0.00000000000E+00 -0.40948083636E+03  0.40948083636E+03  0.00000000000E+00 0.  1.
         25    2    1    2    0    0 -0.47191570074E+02 -0.43597529495E+02 -0.27526780918E+03  0.30910819632E+03  0.12509085257E+03 0.  0.
          5    1    3    3  502    0 -0.88199445041E+02 -0.33642519204E+02 -0.15441488087E+03  0.18103145870E+03  0.41800000000E+01 0. -1.
         -5    1    3    3    0  502  0.41007874967E+02 -0.99550102904E+01 -0.12085292831E+03  0.12807673762E+03  0.41800000000E+01 0. -1.
        -11    1    1    2    0    0 -0.13023084495E+02  0.32003381337E+02 -0.72281952147E+02  0.80115527539E+02  0.00000000000E+00 0. -1.
         11    1    1    2    0    0  0.60214654569E+02  0.11594148158E+02 -0.18218367893E+02  0.63969819642E+02  0.00000000000E+00 0.  1.
</event>
<event>
 7    1  0.2480409E-009  0.1171657E+03  0.7561462E-02  0.1247847E+00
          1   -1    0    0  501    0  0.00000000000E+00  0.00000000000E+00  0.11252213657E+03  0.11252213657E+03  0.00000000000E+00 0. -1.
         -1   -1    0    0    0  501 -0.00000000000E+00 -0.00000000000E+00 -0.19032677883E+03  0.19032677883E+03  0.00000000000E+00 0.  1.
         25    2    1    2    0    0  0.41609710469E+02 -0.58793680794E+02  0.25501149571E+02  0.14658143693E+03  0.12509094339E+03 0.  0.
          5    1    3    3  502    0  0.28911798190E+02  0.21177926631E+02  0.50200165654E+02  0.61821725005E+02  0.41800000000E+01 0.  1.
         -5    1    3    3    0  502  0.12697912279E+02 -0.79971607426E+02 -0.24699016082E+02  0.84759711927E+02  0.41800000000E+01 0.  1.
        -11    1    1    2    0    0 -0.64653260476E+02  0.66617897251E+02 -0.84160346078E+02  0.12530344040E+03  0.00000000000E+00 0. -1.
         11    1    1    2    0    0  0.23043550007E+02 -0.78242164564E+01 -0.19145445753E+02  0.30964038063E+02  0.00000000000E+00 0.  1.
</event>
<event>
 7    1  0.2480409E-009  0.1068291E+03  0.7561462E-02  0.1266557E+00
          2   -1    0    0  501    0  0.00000000000E+00  0.00000000000E+00  0.59239646204E+03  0.59239646204E+03  0.00000000000E+00 0. -1.
         -2   -1    0    0    0  501 -0.00000000000E+00 -0.00000000000E+00 -0.25108430429E+02  0.25108430429E+02  0.00000000000E+00 0.  1.
         25    2    1    2    0    0  0.35482716560E+02  0.43053992611E+02  0.30919785966E+03  0.33817614537E+03  0.12508844641E+03 0.  0.
          5    1    3    3  502    0  0.66929901162E+02  0.12232105201E+02  0.81628117047E+02  0.10634781596E+03  0.41800000000E+01 0. -1.
         -5    1    3    3    0  502 -0.31447184602E+02  0.30821887410E+02  0.22756974261E+03  0.23182832941E+03  0.41800000000E+01 0. -1.
        -11    1    1    2    0    0  0.27696259921E+02 -0.19326475113E+02  0.48191583027E+02  0.58847464929E+02  0.00000000000E+00 0. -1.
         11    1    1    2    0    0 -0.63178976480E+02 -0.23727517498E+02  0.20989858892E+03  0.22048128217E+03  0.00000000000E+00 0.  1.
</event>
<event>
 7    1  0.2480409E-009  0.1202259E+03  0.7561462E-02  0.1242725E+00
         -1   -1    0    0    0  501 -0.00000000000E+00  0.00000000000E+00  0.68066904894E+02  0.68066904894E+02  0.00000000000E+00 0.  1.
          1   -1    0    0  501    0  0.00000000000E+00 -0.00000000000E+00 -0.30089101116E+03  0.30089101116E+03  0.00000000000E+00 0. -1.
         25    2    1    2    0    0  0.54908032205E+02  0.48567580687E+02 -0.20076614005E+03  0.24764698283E+03  0.12509309821E+03 0.  0.
          5    1    3    3  502    0 -0.27149080577E+02 -0.22958803594E+02 -0.56166648449E+02  0.66605885901E+02  0.41800000000E+01 0.  1.
         -5    1    3    3    0  502  0.82057112782E+02  0.71526384281E+02 -0.14459949160E+03  0.18104109693E+03  0.41800000000E+01 0.  1.
        -11    1    1    2    0    0 -0.68432435685E+02 -0.36333829096E+02  0.74099174952E+01  0.77833490657E+02  0.00000000000E+00 0.  1.
         11    1    1    2    0    0  0.13524403480E+02 -0.12233751591E+02 -0.39467883717E+02  0.43477442572E+02  0.00000000000E+00 0. -1.
</event>
<event>
 7    1  0.2480409E-009  0.6768072E+02  0.7561462E-02  0.1368162E+00
          3   -1    0    0  501    0  0.00000000000E+00  0.00000000000E+00  0.45009084133E+03  0.45009084133E+03  0.00000000000E+00 0. -1.
         -3   -1    0    0    0  501 -0.00000000000E+00 -0.00000000000E+00 -0.34111317729E+02  0.34111317729E+02  0.00000000000E+00 0.  1.
         25    2    1    2    0    0  0.41432879670E+02 -0.10851664158E+02  0.15055531158E+03  0.20036594546E+03  0.12508064646E+03 0.  0.
          5    1    3    3  502    0 -0.23548337237E+01 -0.18078083560E+02  0.15448824229E+03  0.15561636081E+03  0.41800000000E+01 0. -1.
         -5    1    3    3    0  502  0.43787713393E+02  0.72264194023E+01 -0.39329307070E+01  0.44749584641E+02  0.41800000000E+01 0. -1.
        -11    1    1    2    0    0  0.32106491934E+01  0.25033989858E+02  0.15627433391E+02  0.29685444091E+02  0.00000000000E+00 0.  1.
         11    1    1    2    0    0 -0.44643528863E+02 -0.14182325701E+02  0.24979677863E+03  0.25415076951E+03  0.00000000000E+00 0. -1.
</event>
<event>
 7    1  0.2480409E-009  0.1014558E+03  0.7561462E-02  0.1277264E+00
         -2   -1    0    0    0  501 -0.00000000000E+00  0.00000000000E+00  0.89506099052E+02  0.89506099052E+02  0.00000000000E+00 0.  1.
          2   -1    0    0  501    0  0.00000000000E+00 -0.00000000000E+00 -0.16214283896E+03  0.16214283896E+03  0.00000000000E+00 0. -1.
         25    2    1    2    0    0  0.17463131081E+02 -0.35503984952E+02 -0.90502925055E+02  0.15938410564E+03  0.12508804816E+03 0.  0.
          5    1    3    3  502    0 -0.58233373578E+01 -0.72444389312E+02 -0.18568102866E+02  0.75128873576E+02  0.41800000000E+01 0. -1.
         -5    1    3    3    0  502  0.23286468439E+02  0.36940404360E+02 -0.71934822188E+02  0.84255232062E+02  0.41800000000E+01 0. -1.
        -11    1    1    2    0    0 -0.17087175508E+02  0.59674573925E+02  0.25215441103E+02  0.66998841855E+02  0.00000000000E+00 0.  1.
         11    1    1    2    0    0 -0.37595557277E+00 -0.24170588972E+02 -0.73492559594E+01  0.25265990521E+02  0.00000000000E+00 0. -1.
</event>
<event>
 7    1  0.2480409E-009  0.9105889E+02  0.7561462E-02  0.1300308E+00
         -2   -1    0    0    0  501 -0.00000000000E+00  0.00000000000E+00  0.17163067436E+03  0.17163067436E+03  0.00000000000E+00 0.  1.
          2   -1    0    0  501    0  0.00000000000E+00 -0.00000000000E+00 -0.88564912158E+02  0.88564912158E+02  0.00000000000E+00 0. -1.
         25    2    1    2    0    0  0.36949812255E+02  0.32952065276E+02  0.79573932710E+02  0.15629872427E+03  0.12508458423E+03 0.  0.
          5    1    3    3  502    0  0.46117592083E+02  0.75626531942E+02  0.40187258376E+02  0.97358578302E+02  0.41800000000E+01 0.  1.
         -5    1    3    3    0  502 -0.91677798280E+01 -0.42674466666E+02  0.39386674333E+02  0.58940145972E+02  0.41800000000E+01 0.  1.
        -11    1    1    2    0    0 -0.12729080151E+02 -0.95504391985E+01 -0.43364655168E+02  0.46192355301E+02  0.00000000000E+00 0. -1.
         11    1    1    2    0    0 -0.24220732105E+02 -0.23401626078E+02  0.46856484662E+02  0.57704506944E+02  0.00000000000E+00 0.  1.
</event>
<event>
 7    1  0.2480409E-009  0.1270756E+03  0.7561462E-02  0.1231861E+00
          1   -1    0    0  501    0  0.00000000000E+00  0.00000000000E+00  0.15508252418E+03  0.15508252418E+03  0.00000000000E+00 0. -1.
         -1   -1    0    0    0  501 -0.00000000000E+00 -0.00000000000E+00 -0.21656085080E+03  0.21656085080E+03  0.00000000000E+00 0.  1.
         25    2    1    2    0    0 -0.11430562323E+03 -0.24436830594E+02  0.57286428545E+02  0.18053365799E+03  0.12509089727E+03 0.  0.
          5    1    3    3  502    0 -0.82941227747E+02 -0.21163153919E+02 -0.27477035360E+02  0.89997701172E+02  0.41800000000E+01 0. -1.
         -5    1    3    3    0  502 -0.31364395485E+02 -0.32736766758E+01  0.84763463906E+02  0.90535956815E+02  0.41800000000E+01 0. -1.
        -11    1    1    2    0    0  0.92315109020E+02 -0.12996191650E+02 -0.40568505914E+02  0.10166997601E+03  0.00000000000E+00 0. -1.
         11    1    1    2    0    0  0.21990514212E+02  0.37433022244E+02 -0.78196249247E+02  0.89439740976E+02  0.00000000000E+00 0.  1.
</event>
<event>
 7    1  0.2480409E-009  0.6551088E+02  0.7561462E-02  0.1376060E+00
         -2   -1    0    0    0  501 -0.00000000000E+00  0.00000000000E+00  0.74424792752E+02  0.74424792752E+02  0.00000000000E+00 0.  1.
          2   -1    0    0  501    0  0.00000000000E+00 -0.00000000000E+00 -0.16791293582E+03  0.16791293582E+03  0.00000000000E+00 0. -1.
         25    2    1    2    0    0 -0.57968813502E+01 -0.21294302995E+02 -0.70066854504E+02  0.14506423262E+03  0.12508883368E+03 0.  0.
          5    1    3    3  502    0 -0.29925589885E+02  0.14203305677E+02  0.24310625228E+02  0.41300771434E+02  0.41800000000E+01 0. -1.
         -5    1    3    3    0  502  0.24128708535E+02 -0.35497608672E+02 -0.94377479732E+02  0.10376346119E+03  0.41800000000E+01 0. -1.
        -11    1    1    2    0    0 -0.20928174766E+02  0.10002315238E+01 -0.50163976413E+02  0.54363714845E+02  0.00000000000E+00 0. -1.
         11    1    1    2    0    0  0.26725056116E+02  0.20294071471E+02  0.26742687849E+02  0.42909781107E+02  0.00000000000E+00 0.  1.
</event>
<event>
 7    1  0.2480409E-009  0.1239956E+03  0.7561462E-02  0.1236647E+00
         -2   -1    0    0    0  501 -0.00000000000E+00  0.00000000000E+00  0.12227470081E+03  0.12227470081E+03  0.00000000000E+00 0.  1.
          2   -1    0    0  501    0  0.00000000000E+00 -0.00000000000E+00 -0.15719177036E+03  0.15719177036E+03  0.00000000000E+00 0. -1.
         25    2    1    2    0    0 -0.76311241696E+02 -0.76133670016E+01  0.14712968786E+02  0.14746039782E+03  0.12508688383E+03 0.  0.
          5    1    3    3  502    0 -0.10060493347E+02  0.45722311589E+02 -0.25293877631E+02  0.53375986633E+02  0.41800000000E+01 0.  1.
         -5    1    3    3    0  502 -0.66250748349E+02 -0.53335678591E+02  0.40006846417E+02  0.94084411183E+02  0.41800000000E+01 0.  1.
        -11    1    1    2    0    0 -0.73438753667E+01 -0.24992611758E+02  0.55313589322E+01  0.26630040923E+02  0.00000000000E+00 0.  1.
         11    1    1    2    0    0  0.83655117062E+02  0.32605978760E+02 -0.55161397276E+02  0.10537603243E+03  0.00000000000E+00 0. -1.
</event>
<event>
 7    1  0.2480409E-009  0.7164422E+02  0.7561462E-02  0.1354589E+00
         -2   -1    0    0    0  501 -0.00000000000E+00  0.00000000000E+00  0.26318141080E+02  0.26318141080E+02  0.00000000000E+00 0.  1.
          2   -1    0    0  501    0  0.00000000000E+00 -0.00000000000E+00 -0.59992321835E+03  0.59992321835E+03  0.00000000000E+00 0. -1.
         25    2    1    2    0    0 -0.25743213158E+02 -0.45981291268E+02 -0.27099603248E+03  0.30309033423E+03  0.12509160207E+03 0.  0.
          5    1    3    3  502    0  0.17865293284E+00 -0.16100926997E+02  0.99221557270E+01  0.19369908139E+02  0.41800000000E+01 0.  1.
         -5    1    3    3    0  502 -0.25921866091E+02 -0.29880364271E+02 -0.28091818821E+03  0.28372042609E+03  0.41800000000E+01 0.  1.
        -11    1    1    2    0    0  0.42741429792E+02  0.56563106998E+01 -0.46825557894E+02  0.63651052964E+02  0.00000000000E+00 0.  1.
         11    1    1    2    0    0 -0.16998216634E+02  0.40324980569E+02 -0.25578348690E+03  0.25949997225E+03  0.00000000000E+00 0. -1.
</event>
<event>
 7    1  0.2480409E-009  0.9040256E+02  0.7561462E-02  0.1301880E+00
         -1   -1    0    0    0  501 -0.00000000000E+00  0.00000000000E+00  0.16819762193E+03  0.16819762193E+03  0.00000000000E+00 0.  1.
          1   -1    0    0  501    0  0.00000000000E+00 -0.00000000000E+00 -0.62815754144E+02  0.62815754144E+02  0.00000000000E+00 0. -1.
         25    2    1    2    0    0 -0.42678473894E+00  0.35189567659E+02  0.79392646172E+02  0.15228529520E+03  0.12509648696E+03 0.  0.
          5    1    3    3  502    0 -0.54938797572E+02  0.27290726762E+02  0.79804857487E+01  0.62001740287E+02  0.41800000000E+01 0.  1.
         -5    1    3    3    0  502  0.54512012833E+02  0.78988408974E+01  0.71412160424E+02  0.90283554909E+02  0.41800000000E+01 0.  1.
        -11    1    1    2    0    0  0.21564929235E+02  0.16269411801E+01 -0.92824578902E+01  0.23534169520E+02  0.00000000000E+00 0. -1.
         11    1    1    2    0    0 -0.21138144496E+02 -0.36816508839E+02  0.35271679500E+02  0.55193911354E+02  0.00000000000E+00 0.  1.
</event>
<event>
 7    1  0.2480409E-009  0.1155042E+03  0.7561462E-02  0.1250704E+00
          2   -1    0    0  501    0  0.00000000000E+00  0.00000000000E+00  0.50966536198E+03  0.50966536198E+03  0.00000000000E+00 0.  1.
         -2   -1    0    0    0  501 -0.00000000000E+00 -0.00000000000E+00 -0.41438913661E+02  0.41438913661E+02  0.00000000000E+00 0. -1.
         25    2    1    2    0    0 -0.74873416214E+01 -0.96441777881E+02  0.22605652828E+03  0.27587065145E+03  0.12508391402E+03 0.  0.
          5    1    3    3  502    0 -0.32011293688E+02 -0.37999223568E+02  0.10240649364E+02  0.50901937239E+02  0.41800000000E+01 0. -1.
         -5    1    3    3    0  502  0.24523952066E+02 -0.58442554313E+02  0.21581587891E+03  0.22496871421E+03  0.41800000000E+01 0. -1.
        -11    1    1    2    0    0 -0.26918432275E+02  0.19176409304E+02  0.22878464613E+02  0.40196527375E+02  0.00000000000E+00 0. -1.
         11    1    1    2    0    0  0.34405773897E+02  0.77265368578E+02  0.21929145542E+03  0.23503709682E+03  0.00000000000E+00 0.  1.
</event>
<event>
 7    1  0.2480409E-009  0.1131532E+03  0.7561462E-02  0.1254840E+00
          2   -1    0    0  501    0  0.00000000000E+00  0.00000000000E+00  0.14645628561E+03  0.14645628561E+03  0.00000000000E+00 0. -1.
         -2   -1    0    0    0  501 -0.00000000000E+00 -0.00000000000E+00 -0.14387160418E+03  0.14387160418E+03  0.00000000000E+00 0.  1.
         25    2    1    2    0    0 -0.27362435862E+02 -0.44056538441E+02  0.83421069057E+02  0.15905886139E+03  0.12510381748E+03 0.  0.
          5    1    3    3  502    0 -0.22621506207E+02  0.41434931180E+02  0.16076989087E+02  0.50045259946E+02  0.41800000000E+01 0.  1.
         -5    1    3    3    0  502 -0.47409296554E+01 -0.85491469621E+02  0.67344079970E+02  0.10901360144E+03  0.41800000000E+01 0.  1.
        -11    1    1    2    0    0 -0.11435344259E+02  0.52291133833E+02 -0.17085842151E+02  0.56187683508E+02  0.00000000000E+00 0. -1.
         11    1    1    2    0    0  0.38797780122E+02 -0.82345953926E+01 -0.63750545476E+02  0.75081344901E+02  0.00000000000E+00 0.  1.
</event>
<event>
 7    1  0.2480409E-009  0.9822659E+02  0.7561462E-02  0.1284070E+00
         -1   -1    0    0    0  501 -0.00000000000E+00  0.00000000000E+00  0.40311534388E+03  0.40311534388E+03  0.00000000000E+00 0. -1.
          1   -1    0    0  501    0  0.00000000000E+00 -0.00000000000E+00 -0.56035206581E+02  0.56035206581E+02  0.00000000000E+00 0.  1.
         25    2    1    2    0    0 -0.53388889861E+02  0.55508509611E+02  0.80832896339E+02  0.16767336574E+03  0.12509529267E+03 0.  0.
          5    1    3    3  502    0 -0.48695077663E+02  0.54465830990E+02  0.11314017806E+03  0.13474386675E+03  0.41800000000E+01 0. -1.
         -5    1    3    3    0  502 -0.46938121980E+01  0.10426786207E+01 -0.32307281723E+02  0.32929498994E+02  0.41800000000E+01 0. -1.
        -11    1    1    2    0    0 -0.61072787682E+01 -0.57060421018E+02  0.15549197209E+03  0.16574360888E+03  0.00000000000E+00 0.  1.
         11    1    1    2    0    0  0.59496168629E+02  0.15519114077E+01  0.11075526887E+03  0.12573357584E+03  0.00000000000E+00 0. -1.
</event>
<event>
 7    1  0.2480409E-009  0.1380829E+03  0.7561462E-02  0.1215932E+00
         -1   -1    0    0    0  501 -0.00000000000E+00  0.00000000000E+00  0.22961045920E+03  0.22961045920E+03  0.00000000000E+00 0.  1.
          1   -1    0    0  501    0  0.00000000000E+00 -0.00000000000E+00 -0.97241029582E+02  0.97241029582E+02  0.00000000000E+00 0. -1.
         25    2    1    2    0    0  0.14991680346E+02 -0.89408731859E+02  0.12574118322E+03  0.19918697472E+03  0.12508370768E+03 0.  0.
          5    1    3    3  502    0 -0.49160803054E+02 -0.70988548399E+01  0.45352557638E+02  0.67390690613E+02  0.41800000000E+01 0. -1.
         -5    1    3    3    0  502  0.64152483400E+02 -0.82309877019E+02  0.80388625584E+02  0.13179628411E+03  0.41800000000E+01 0. -1.
        -11    1    1    2    0    0 -0.43390876973E+02  0.21825426814E+02  0.21076565884E+02  0.52946568251E+02  0.00000000000E+00 0.  1.
         11    1    1    2    0    0  0.28399196627E+02  0.67583305045E+02 -0.14448319490E+02  0.74717945809E+02  0.00000000000E+00 0. -1.
</event>
<event>
 7    1  0.2480409E-009  0.1342632E+03  0.7561462E-02  0.1221264E+00
         -2   -1    0    0    0  501 -0.00000000000E+00  0.00000000000E+00  0.38179156451E+03  0.38179156451E+03  0.00000000000E+00 0.  1.
          2   -1    0    0  501    0  0.00000000000E+00 -0.00000000000E+00 -0.61376926298E+02  0.61376926298E+02  0.00000000000E+00 0. -1.
         25    2    1    2    0    0  0.49709612445E+02  0.94472623380E+02  0.15630895815E+03  0.22688442328E+03  0.12509168234E+03 0.  0.
          5    1    3    3  502    0 -0.21321444924E+02  0.86504697143E+02  0.62664055113E+02  0.10900423315E+03  0.41800000000E+01 0. -1.
         -5    1    3    3    0  502  0.71031057369E+02  0.79679262371E+01  0.93644903041E+02  0.11788019013E+03  0.41800000000E+01 0. -1.
        -11    1    1    2    0    0 -0.26150297517E+02 -0.34415979218E+02  0.36885311361E+01  0.43380905336E+02  0.00000000000E+00 0. -1.
         11    1    1    2    0    0 -0.23559314928E+02 -0.60056644161E+02  0.16041714892E+03  0.17290316219E+03  0.00000000000E+00 0.  1.
</event>
<event>
 7    1  0.2480409E-009  0.1555534E+03  0.7561462E-02  0.1193810E+00
         -1   -1    0    0    0  501 -0.00000000000E+00  0.00000000000E+00  0.21234796486E+02  0.21234796486E+02  0.00000000000E+00 0.  1.
          1   -1    0    0  501    0  0.00000000000E+00 -0.00000000000E+00 -0.12353410686E+04  0.12353410686E+04  0.00000000000E+00 0. -1.
         25    2    1    2    0    0 -0.70263048560E+02  0.85926334825E+02 -0.80685272236E+03  0.82400085655E+03  0.12508343221E+03 0.  0.
          5    1    3    3  502    0  0.29871401411E+02  0.51850978004E+02 -0.34464263415E+03  0.34982401606E+03  0.41800000000E+01 0.  1.
         -5    1    3    3    0  502 -0.10013444997E+03  0.34075356821E+02 -0.46221008821E+03  0.47417684049E+03  0.41800000000E+01 0.  1.
        -11    1    1    2    0    0 -0.23993430602E+00  0.18918275851E+02 -0.41364376716E+02  0.45485936186E+02  0.00000000000E+00 0.  1.
         11    1    1    2    0    0  0.70502982866E+02 -0.10484461068E+03 -0.36588917300E+03  0.38708907230E+03  0.00000000000E+00 0. -1.
</event>
<event>
 7    1  0.2480409E-009  0.9564559E+02  0.7561462E-02  0.1289729E+00
         -2   -1    0    0    0  501 -0.00000000000E+00  0.00000000000E+00  0.15775548790E+03  0.15775548790E+03  0.00000000000E+00 0.  1.
          2   -1    0    0  501    0  0.00000000000E+00 -0.00000000000E+00 -0.10976326901E+03  0.10976326901E+03  0.00000000000E+00 0. -1.
         25    2    1    2    0    0  0.77668155997E+01 -0.26460951476E+02  0.96047101662E+02  0.16010019814E+03  0.12508605969E+03 0.  0.
          5    1    3    3  502    0  0.39165215884E+02  0.17202621028E+02  0.97056904898E+02  0.10614781907E+03  0.41800000000E+01 0.  1.
         -5    1    3    3    0  502 -0.31398400284E+02 -0.43663572504E+02 -0.10098032364E+01  0.53952379065E+02  0.41800000000E+01 0.  1.
        -11    1    1    2    0    0 -0.32844513092E+02 -0.22187267015E+02 -0.10377978170E+02  0.40972421075E+02  0.00000000000E+00 0.  1.
         11    1    1    2    0    0  0.25077697492E+02  0.48648218491E+02 -0.37676904603E+02  0.66446137693E+02  0.00000000000E+00 0. -1.
</event>
<event>
 7    1  0.2480409E-009  0.9190926E+02  0.7561462E-02  0.1298293E+00
          1   -1    0    0  501    0  0.00000000000E+00  0.00000000000E+00  0.11779063378E+03  0.11779063378E+03  0.00000000000E+00 0. -1.
         -1   -1    0    0    0  501 -0.00000000000E+00 -0.00000000000E+00 -0.11954203872E+03  0.11954203872E+03  0.00000000000E+00 0.  1.
         25    2    1    2    0    0  0.20708877703E+02 -0.40345793657E+02  0.23249756883E+01  0.13307226393E+03  0.12508469625E+03 0.  0.
          5    1    3    3  502    0 -0.23897355075E+02  0.37463338415E+01 -0.47097241606E+02  0.53110650191E+02  0.41800000000E+01 0. -1.
         -5    1    3    3    0  502  0.44606232778E+02 -0.44092127498E+02  0.49422217294E+02  0.79961613742E+02  0.41800000000E+01 0. -1.
        -11    1    1    2    0    0 -0.20776125221E+02 -0.24183295697E+02 -0.20205923746E+02  0.37745973618E+02  0.00000000000E+00 0.  1.
         11    1    1    2    0    0  0.67247518382E-01  0.64529089354E+02  0.16129543120E+02  0.66514434947E+02  0.00000000000E+00 0. -1.
</event>
<event>
 7    1  0.2480409E-009  0.1189958E+03  0.7561462E-02  0.1244763E+00
          2   -1    0    0  501    0  0.00000000000E+00  0.00000000000E+00  0.21444951050E+03  0.21444951050E+03  0.00000000000E+00 0. -1.
         -2   -1    0    0    0  501 -0.00000000000E+00 -0.00000000000E+00 -0.17022415203E+03  0.17022415203E+03  0.00000000000E+00 0.  1.
         25    2    1    2    0    0  0.12137262985E+02 -0.96283008965E+02  0.14762945262E+03  0.21648122203E+03  0.12510768657E+03 0.  0.
          5    1    3    3  502    0  0.35974498968E+01 -0.11023540727E+03  0.16082235641E+03  0.19505406784E+03  0.41800000000E+01 0.  1.
         -5    1    3    3    0  502  0.85398130884E+01  0.13952398304E+02 -0.13192903786E+02  0.21427154181E+02  0.41800000000E+01 0.  1.
        -11    1    1    2    0    0 -0.24031294942E+02  0.95866869346E+02 -0.11495994783E+03  0.15160392271E+03  0.00000000000E+00 0.  1.
         11    1    1    2    0    0  0.11894031957E+02  0.41613961842E+00  0.11555853680E+02  0.16588517795E+02  0.00000000000E+00 0. -1.
</event>
<event>
 7    1  0.2480409E-009  0.1206075E+03  0.7561462E-02  0.1242098E+00
         -1   -1    0    0    0  501 -0.00000000000E+00  0.00000000000E+00  0.48654835862E+02  0.48654835862E+02  0.00000000000E+00 0. -1.
          1   -1    0    0  501    0  0.00000000000E+00 -0.00000000000E+00 -0.57753873041E+03  0.57753873041E+03  0.00000000000E+00 0.  1.
         25    2    1    2    0    0  0.39830387467E+02 -0.87737774106E+02 -0.12636656269E+03  0.20223962030E+03  0.12509188255E+03 0.  0.
          5    1    3    3  502    0  0.11318066938E+02 -0.76251338744E+02 -0.54334134502E+01  0.77390953484E+02  0.41800000000E+01 0.  1.
         -5    1    3    3    0  502  0.28512320529E+02 -0.11486435361E+02 -0.12093314924E+03  0.12484866681E+03  0.41800000000E+01 0.  1.
        -11    1    1    2    0    0 -0.65193748129E+02  0.33901775850E+02 -0.21375189464E+03  0.22602970527E+03  0.00000000000E+00 0. -1.
         11    1    1    2    0    0  0.25363360662E+02  0.53835998256E+02 -0.18876543721E+03  0.19792424070E+03  0.00000000000E+00 0.  1.
</event>
<event>
 7    1  0.2480409E-009  0.8667640E+02  0.7561462E-02  0.1311106E+00
          1   -1    0    0  501    0  0.00000000000E+00  0.00000000000E+00  0.48402034597E+03  0.48402034597E+03  0.00000000000E+00 0. -1.
         -1   -1    0    0    0  501 -0.00000000000E+00 -0.00000000000E+00 -0.21677138421E+02  0.21677138421E+02  0.00000000000E+00 0.  1.
         25    2    1    2    0    0 -0.22877603499E+02 -0.66832955700E+01  0.25246141327E+03  0.28275773555E+03  0.12508845126E+03 0.  0.
          5    1    3    3  502    0  0.37532422283E+02  0.10176003350E+01  0.19599817028E+03  0.19960579497E+03  0.41800000000E+01 0. -1.
         -5    1    3    3    0  502 -0.60410025782E+02 -0.77008959050E+01  0.56463242996E+02  0.83151940581E+02  0.41800000000E+01 0. -1.
        -11    1    1    2    0    0  0.42939641965E+02 -0.14533476797E+02  0.14150635543E+03  0.14859032077E+03  0.00000000000E+00 0.  1.
         11    1    1    2    0    0 -0.20062038467E+02  0.21216772367E+02  0.68375438847E+02  0.74349428072E+02  0.00000000000E+00 0. -1.
</event>
<event>
 7    1  0.2480409E-009  0.7150729E+02  0.7561462E-02  0.1355041E+00
         -4   -1    0    0    0  501 -0.00000000000E+00  0.00000000000E+00  0.23412794199E+03  0.23412794199E+03  0.00000000000E+00 0.  1.
          4   -1    0    0  501    0  0.00000000000E+00 -0.00000000000E+00 -0.55609113557E+02  0.55609113557E+02  0.00000000000E+00 0. -1.
         25    2    1    2    0    0 -0.52580948749E+01  0.11170534340E+02  0.53474585983E+02  0.13660004827E+03  0.12509042106E+03 0.  0.
          5    1    3    3  502    0  0.18076189902E+01  0.43884372638E+02  0.81547347214E+02  0.92717570535E+02  0.41800000000E+01 0.  1.
         -5    1    3    3    0  502 -0.70657138651E+01 -0.32713838298E+02 -0.28072761231E+02  0.43882477730E+02  0.41800000000E+01 0.  1.
        -11    1    1    2    0    0  0.34426583090E+02 -0.10492259980E+02  0.11765920409E+03  0.12304050329E+03  0.00000000000E+00 0.  1.
         11    1    1    2    0    0 -0.29168488216E+02 -0.67827436074E+00  0.73850383585E+01  0.30096503990E+02  0.00000000000E+00 0. -1.
</event>
<event>
 7    1  0.2480409E-009  0.7087644E+02  0.7561462E-02  0.1357138E+00
         -2   -1    0    0    0  501 -0.00000000000E+00  0.00000000000E+00  0.31946143126E+03  0.31946143126E+03  0.00000000000E+00 0.  1.
          2   -1    0    0  501    0  0.00000000000E+00 -0.00000000000E+00 -0.38179210119E+02  0.38179210119E+02  0.00000000000E+00 0. -1.
         25    2    1    2    0    0 -0.81959636630E+01 -0.22793091865E+02  0.17235556121E+03  0.21433832982E+03  0.12509109198E+03 0.  0.
          5    1    3    3  502    0 -0.12331651681E+02  0.20642205208E+02 -0.10305182567E+02  0.26492252769E+02  0.41800000000E+01 0. -1.
         -5    1    3    3    0  502  0.41356880182E+01 -0.43435297073E+02  0.18266074378E+03  0.18784607705E+03  0.41800000000E+01 0. -1.
        -11    1    1    2    0    0 -0.14487183972E+02  0.41599693017E+02  0.17765822722E+02  0.47497762216E+02  0.00000000000E+00 0. -1.
         11    1    1    2    0    0  0.22683147635E+02 -0.18806601152E+02  0.91160837208E+02  0.95804549339E+02  0.00000000000E+00 0.  1.
</event>
<event>
 7    1  0.2480409E-009  0.6550354E+02  0.7561462E-02  0.1376087E+00
          2   -1    0    0  501    0  0.00000000000E+00  0.00000000000E+00  0.54092783934E+03  0.54092783934E+03  0.00000000000E+00 0. -1.
         -2   -1    0    0    0  501 -0.00000000000E+00 -0.00000000000E+00 -0.32599876870E+02  0.32599876870E+02  0.00000000000E+00 0.  1.
         25    2    1    2    0    0  0.34877481063E+01 -0.27756648763E+01  0.43472692915E+03  0.45238914120E+03  0.12509421826E+03 0.  0.
          5    1    3    3  502    0  0.12409106008E+02  0.11603835732E+02  0.18414010980E+00  0.17496891815E+02  0.41800000000E+01 0.  1.
         -5    1    3    3    0  502 -0.89213579018E+01 -0.14379500609E+02  0.43454278904E+03  0.43489224938E+03  0.41800000000E+01 0.  1.
        -11    1    1    2    0    0  0.46125677152E+02 -0.24612879740E+01  0.32180132299E+02  0.56295621020E+02  0.00000000000E+00 0.  1.
         11    1    1    2    0    0 -0.49613425259E+02  0.52369528503E+01  0.41420901015E+02  0.64842953989E+02  0.00000000000E+00 0. -1.
</event>
<event>
 7    1  0.2480409E-009  0.1336516E+03  0.7561462E-02  0.1222136E+00
          2   -1    0    0  501    0  0.00000000000E+00  0.00000000000E+00  0.18095237415E+04  0.18095237415E+04  0.00000000000E+00 0. -1.
         -2   -1    0    0    0  501 -0.00000000000E+00 -0.00000000000E+00 -0.11367530033E+02  0.11367530033E+02  0.00000000000E+00 0.  1.
         25    2    1    2    0    0 -0.77932558520E+02 -0.38030223897E+02  0.12077806894E+04  0.12173336345E+04  0.12508877852E+03 0.  0.
          5    1    3    3  502    0  0.29529443084E+02 -0.12590273464E+02  0.49286264534E+03  0.49392465272E+03  0.41800000000E+01 0. -1.
         -5    1    3    3    0  502 -0.10746200160E+03 -0.25439950434E+02  0.71491804404E+03  0.72340898180E+03  0.41800000000E+01 0. -1.
        -11    1    1    2    0    0  0.95697265389E+02  0.17524130911E+02  0.49096018642E+03  0.50050670966E+03  0.00000000000E+00 0.  1.
         11    1    1    2    0    0 -0.17764706869E+02  0.20506092986E+02  0.99415335622E+02  0.10305092730E+03  0.00000000000E+00 0. -1.
</event>
<event>
 7    1  0.2480409E-009  0.1033294E+03  0.7561462E-02  0.1273446E+00
          3   -1    0    0  501    0  0.00000000000E+00  0.00000000000E+00  0.24514214634E+03  0.24514214634E+03  0.00000000000E+00 0. -1.
         -3   -1    0    0    0  501 -0.00000000000E+00 -0.00000000000E+00 -0.61642652134E+02  0.61642652134E+02  0.00000000000E+00 0.  1.
         25    2    1    2    0    0 -0.37704111664E+02  0.25148863860E+02  0.14921622284E+03  0.19991558026E+03  0.12508674063E+03 0.  0.
          5    1    3    3  502    0 -0.16794949589E+02 -0.37444961652E+02  0.12132856004E+03  0.12814947275E+03  0.41800000000E+01 0. -1.
         -5    1    3    3    0  502 -0.20909162075E+02  0.62593825512E+02  0.27887662804E+02  0.71766107513E+02  0.41800000000E+01 0. -1.
        -11    1    1    2    0    0  0.42739510023E+02 -0.54636377556E+02  0.33281703014E+02  0.76938099957E+02  0.00000000000E+00 0. -1.
         11    1    1    2    0    0 -0.50353983590E+01  0.29487513696E+02  0.10015683460E+01  0.29931118251E+02  0.00000000000E+00 0.  1.
</event>
<event>
 7    1  0.2480409E-009  0.6110424E+02  0.7561462E-02  0.1393255E+00
         -1   -1    0    0    0  501 -0.00000000000E+00  0.00000000000E+00  0.17844851465E+03  0.17844851465E+03  0.00000000000E+00 0.  1.
          1   -1    0    0  501    0  0.00000000000E+00 -0.00000000000E+00 -0.74375050402E+02  0.74375050402E+02  0.00000000000E+00 0. -1.
         25    2    1    2    0    0 -0.35684839471E+02 -0.17265329872E+02  0.75761612907E+02  0.15152347812E+03  0.12509213823E+03 0.  0.
          5    1    3    3  502    0 -0.10488649454E+02  0.16074798900E+02 -0.31055267805E+02  0.36746605088E+02  0.41800000000E+01 0. -1.
         -5    1    3    3    0  502 -0.25196190018E+02 -0.33340128772E+02  0.10681688071E+03  0.11477687303E+03  0.41800000000E+01 0. -1.
        -11    1    1    2    0    0  0.36666848181E+02  0.30255987369E+02  0.54336642323E+02  0.72196628911E+02  0.00000000000E+00 0.  1.
         11    1    1    2    0    0 -0.98200870983E+00 -0.12990657497E+02 -0.26024790980E+02  0.29103458022E+02  0.00000000000E+00 0. -1.
</event>
<event>
 7    1  0.2480409E-009  0.1307642E+03  0.7561462E-02  0.1226326E+00
          1   -1    0    0  501    0  0.00000000000E+00  0.00000000000E+00  0.61090376563E+02  0.61090376563E+02  0.00000000000E+00 0. -1.
         -1   -1    0    0    0  501 -0.00000000000E+00 -0.00000000000E+00 -0.34607660097E+03  0.34607660097E+03  0.00000000000E+00 0.  1.
         25    2    1    2    0    0 -0.37290478593E+02  0.80067859786E+02 -0.21030188240E+03  0.26014669537E+03  0.12509188384E+03 0.  0.
          5    1    3    3  502    0  0.39971581966E+02  0.37937529323E+02 -0.39402917505E+02  0.67875222312E+02  0.41800000000E+01 0.  1.
         -5    1    3    3    0  502 -0.77262060559E+02  0.42130330463E+02 -0.17089896490E+03  0.19227147305E+03  0.41800000000E+01 0.  1.
        -11    1    1    2    0    0 -0.14186920717E+02 -0.62002098726E+02 -0.66208978140E+02  0.91810444680E+02  0.00000000000E+00 0.  1.
         11    1    1    2    0    0  0.51477399310E+02 -0.18065761059E+02 -0.84753638594E+01  0.55209837483E+02  0.00000000000E+00 0. -1.
</event>
<event>
 7    1  0.2480409E-009  0.1312983E+03  0.7561462E-02  0.1225542E+00
          4   -1    0    0  501    0  0.00000000000E+00  0.00000000000E+00  0.42395184015E+02  0.42395184015E+02  0.00000000000E+00 0. -1.
         -4   -1    0    0    0  501 -0.00000000000E+00 -0.00000000000E+00 -0.63260340869E+03  0.63260340869E+03  0.00000000000E+00 0.  1.
         25    2    1    2    0    0  0.11053908734E+02  0.96790620757E+02 -0.16283591365E+03  0.22727502980E+03  0.12509113171E+03 0.  0.
          5    1    3    3  502    0 -0.12410831623E+02 -0.24539367202E+02 -0.76421729859E+01  0.28845874786E+02  0.41800000000E+01 0. -1.
         -5    1    3    3    0  502  0.23464740357E+02  0.12132998796E+03 -0.15519374067E+03  0.19842915502E+03  0.41800000000E+01 0. -1.
        -11    1    1    2    0    0  0.20057872695E+02 -0.20211948709E+02 -0.28174141151E+02  0.40057750277E+02  0.00000000000E+00 0. -1.
         11    1    1    2    0    0 -0.31111781429E+02 -0.76578672048E+02 -0.39919816987E+03  0.40766581263E+03  0.00000000000E+00 0.  1.
</event>
<event>
 7    1  0.2480409E-009  0.9934727E+02  0.7561462E-02  0.1281675E+00
          2   -1    0    0  501    0  0.00000000000E+00  0.00000000000E+00  0.42727819866E+02  0.42727819866E+02  0.00000000000E+00 0. -1.
         -2   -1    0    0    0  501 -0.00000000000E+00 -0.00000000000E+00 -0.36710852729E+03  0.36710852729E+03  0.00000000000E+00 0.  1.
         25    2    1    2    0    0  0.34022478432E+02 -0.51451725021E+02 -0.16571825640E+03  0.21659675729E+03  0.12508719246E+03 0.  0.
          5    1    3    3  502    0 -0.15244338857E+02 -0.32081920890E+02  0.65236880656E+01  0.36354785396E+02  0.41800000000E+01 0. -1.
         -5    1    3    3    0  502  0.49266817289E+02 -0.19369804130E+02 -0.17224194447E+03  0.18024197189E+03  0.41800000000E+01 0. -1.
        -11    1    1    2    0    0 -0.65499672922E+02  0.36437871753E+02 -0.99638331414E+02  0.12468248769E+03  0.00000000000E+00 0.  1.
         11    1    1    2    0    0  0.31477194489E+02  0.15013853268E+02 -0.59024119607E+02  0.68557102172E+02  0.00000000000E+00 0. -1.
</event>
<event>
 7    1  0.2480409E-009  0.1240960E+03  0.7561462E-02  0.1236489E+00
         -1   -1    0    0    0  501 -0.00000000000E+00  0.00000000000E+00  0.16218933114E+03  0.16218933114E+03  0.00000000000E+00 0.  1.
          1   -1    0    0  501    0  0.00000000000E+00 -0.00000000000E+00 -0.15596403889E+03  0.15596403889E+03  0.00000000000E+00 0. -1.
         25    2    1    2    0    0 -0.49927081510E+02 -0.69842050450E+02 -0.49615859261E+02  0.15962380726E+03  0.12508957140E+03 0.  0.
          5    1    3    3  502    0 -0.91437758489E+02 -0.37726006052E+02 -0.30181968352E+02  0.10350139527E+03  0.41800000000E+01 0. -1.
         -5    1    3    3    0  502  0.41510676978E+02 -0.32116044398E+02 -0.19433890908E+02  0.56122411983E+02  0.41800000000E+01 0. -1.
        -11    1    1    2    0    0  0.55518384281E+02  0.46146946114E+02 -0.23195789267E+02  0.75827938576E+02  0.00000000000E+00 0. -1.
         11    1    1    2    0    0 -0.55913027711E+01  0.23695104336E+02  0.79036940781E+02  0.82701624193E+02  0.00000000000E+00 0.  1.
</event>
<event>
 7    1  0.2480409E-009  0.6220003E+02  0.7561462E-02  0.1388824E+00
          2   -1    0    0  501    0  0.00000000000E+00  0.00000000000E+00  0.11497246328E+03  0.11497246328E+03  0.00000000000E+00 0. -1.
         -2   -1    0    0    0  501 -0.00000000000E+00 -0.00000000000E+00 -0.13221196350E+03  0.13221196350E+03  0.00000000000E+00 0.  1.
         25    2    1    2    0    0  0.34218637158E+01 -0.48556874359E+02  0.22357312082E+02  0.13607717396E+03  0.12509064182E+03 0.  0.
          5    1    3    3  502    0 -0.20989060285E+01 -0.76251368741E+01 -0.51005117460E+02  0.51783612523E+02  0.41800000000E+01 0. -1.
         -5    1    3    3    0  502  0.55207697443E+01 -0.40931737485E+02  0.73362429543E+02  0.84293561441E+02  0.41800000000E+01 0. -1.
        -11    1    1    2    0    0 -0.12097401886E+02  0.59078424780E+02 -0.60969330214E+02  0.85754688697E+02  0.00000000000E+00 0.  1.
         11    1    1    2    0    0  0.86755381699E+01 -0.10521550421E+02  0.21372517904E+02  0.25352564118E+02  0.00000000000E+00 0. -1.
</event>
<event>
 7    1  0.2480409E-009  0.1898452E+03  0.7561462E-02  0.1158601E+00
         -1   -1    0    0    0  501 -0.00000000000E+00  0.00000000000E+00  0.18956657841E+03  0.18956657841E+03  0.00000000000E+00 0.  1.
          1   -1    0    0  501    0  0.00000000000E+00 -0.00000000000E+00 -0.23556765943E+03  0.23556765943E+03  0.00000000000E+00 0. -1.
         25    2    1    2    0    0  0.79849844347E+02  0.14902830519E+03 -0.89320916357E+02  0.22849750272E+03  0.12508976481E+03 0.  0.
          5    1    3    3  502    0 -0.11743894877E+02  0.68284162812E+02  0.11168923849E+02  0.70305499200E+02  0.41800000000E+01 0. -1.
         -5    1    3    3    0  502  0.91593739224E+02  0.80744142379E+02 -0.10048984021E+03  0.15819200352E+03  0.41800000000E+01 0. -1.
        -11    1    1    2    0    0 -0.55638721835E+02 -0.23730444030E+02 -0.37820537050E+01  0.60606148793E+02  0.00000000000E+00 0. -1.
         11    1    1    2    0    0 -0.24211122511E+02 -0.12529786116E+03  0.47101889035E+02  0.13603058632E+03  0.00000000000E+00 0.  1.
</event>
<event>
 7    1  0.2480409E-009  0.9576021E+02  0.7561462E-02  0.1289473E+00
         -1   -1    0    0    0  501 -0.00000000000E+00  0.00000000000E+00  0.44928134235E+02  0.44928134235E+02  0.00000000000E+00 0.  1.
          1   -1    0    0  501    0  0.00000000000E+00 -0.00000000000E+00 -0.29130897872E+03  0.29130897872E+03  0.00000000000E+00 0. -1.
         25    2    1    2    0    0  0.20273365554E+02 -0.11229390782E+02 -0.98335051834E+02  0.16079521467E+03  0.12509280584E+03 0.  0.
          5    1    3    3  502    0  0.13390684109E+02  0.49250514603E+02 -0.83583796986E+02  0.98023706971E+02  0.41800000000E+01 0. -1.
         -5    1    3    3    0  502  0.68826814451E+01 -0.60479905385E+02 -0.14751254848E+02  0.62771507700E+02  0.41800000000E+01 0. -1.
        -11    1    1    2    0    0  0.24482449254E+02  0.22383718703E+02 -0.11227183166E+03  0.11707000200E+03  0.00000000000E+00 0. -1.
         11    1    1    2    0    0 -0.44755814809E+02 -0.11154327921E+02 -0.35773960988E+02  0.58371896280E+02  0.00000000000E+00 0.  1.
</event>
<event>
 7    1  0.2480409E-009  0.7750125E+02  0.7561462E-02  0.1336296E+00
         -1   -1    0    0    0  501 -0.00000000000E+00  0.00000000000E+00  0.26585669018E+03  0.26585669018E+03  0.00000000000E+00 0.  1.
          1   -1    0    0  501    0  0.00000000000E+00 -0.00000000000E+00 -0.51443147878E+02  0.51443147878E+02  0.00000000000E+00 0. -1.
         25    2    1    2    0    0 -0.41099567823E+02 -0.51699426839E+01  0.10801767330E+03  0.17038267376E+03  0.12508611030E+03 0.  0.
          5    1    3    3  502    0 -0.37327551782E+02 -0.20527789356E+02 -0.15696697222E+02  0.45591610648E+02  0.41800000000E+01 0. -1.
         -5    1    3    3    0  502 -0.37720160414E+01  0.15357846672E+02  0.12371437052E+03  0.12479106311E+03  0.41800000000E+01 0. -1.
        -11    1    1    2    0    0  0.14820758722E+02 -0.40512958914E+02  0.24736104990E+02  0.49727553923E+02  0.00000000000E+00 0. -1.
         11    1    1    2    0    0  0.26278809101E+02  0.45682901598E+02  0.81659764016E+02  0.97189610377E+02  0.00000000000E+00 0.  1.
</event>
<event>
 7    1  0.2480409E-009  0.8203317E+02  0.7561462E-02  0.1323379E+00
          3   -1    0    0  501    0  0.00000000000E+00  0.00000000000E+00  0.47530822597E+03  0.47530822597E+03  0.00000000000E+00 0. -1.
         -3   -1    0    0    0  501 -0.00000000000E+00 -0.00000000000E+00 -0.28669970630E+02  0.28669970630E+02  0.00000000000E+00 0.  1.
         25    2    1    2    0    0 -0.22565363481E+02  0.15886279578E+02  0.33604727250E+03  0.35963731161E+03  0.12509858928E+03 0.  0.
          5    1    3    3  502    0  0.37019914047E+01  0.38158001546E+02  0.31837890525E+03  0.32070599859E+03  0.41800000000E+01 0. -1.
         -5    1    3    3    0  502 -0.26267354885E+02 -0.22271721969E+02  0.17668367243E+02  0.38931313016E+02  0.41800000000E+01 0. -1.
        -11    1    1    2    0    0 -0.53998244604E+01  0.33566788802E+02  0.56236423644E+02  0.65714707326E+02  0.00000000000E+00 0.  1.
         11    1    1    2    0    0  0.27965187941E+02 -0.49453068380E+02  0.54354559202E+02  0.78626177669E+02  0.00000000000E+00 0. -1.
</event>
<event>
 7    1  0.2480409E-009  0.1180528E+03  0.7561462E-02  0.1246344E+00
         -4   -1    0    0    0  501 -0.00000000000E+00  0.00000000000E+00  0.31508012462E+03  0.31508012462E+03  0.00000000000E+00 0.  1.
          4   -1    0    0  501    0  0.00000000000E+00 -0.00000000000E+00 -0.48515484240E+02  0.48515484240E+02  0.00000000000E+00 0. -1.
         25    2    1    2    0    0  0.39787714828E+02 -0.53258424985E+02  0.14036869531E+03  0.19941897127E+03  0.12508010791E+03 0.  0.
          5    1    3    3  502    0 -0.91723175383E+01  0.33253744099E+02  0.68086727452E+02  0.76440942961E+02  0.41800000000E+01 0. -1.
         -5    1    3    3    0  502  0.48960032367E+02 -0.86512169085E+02  0.72281967858E+02  0.12297802831E+03  0.41800000000E+01 0. -1.
        -11    1    1    2    0    0  0.13777117910E+02  0.45745792050E+02  0.39492356845E+02  0.61984939440E+02  0.00000000000E+00 0. -1.
         11    1    1    2    0    0 -0.53564832738E+02  0.75126329356E+01  0.86703588220E+02  0.10219169815E+03  0.00000000000E+00 0.  1.
</event>
<event>
 7    1  0.2480409E-009  0.1187027E+03  0.7561462E-02  0.1245253E+00
         -3   -1    0    0    0  501 -0.00000000000E+00  0.00000000000E+00  0.94832595975E+02  0.94832595975E+02  0.00000000000E+00 0.  1.
          3   -1    0    0  501    0  0.00000000000E+00 -0.00000000000E+00 -0.19818957342E+03  0.19818957342E+03  0.00000000000E+00 0. -1.
         25    2    1    2    0    0 -0.54720124772E+02 -0.62778648358E+02 -0.62033187684E+02  0.16257384707E+03  0.12508672444E+03 0.  0.
          5    1    3    3  502    0 -0.69545613145E+02 -0.92992210432E+02 -0.51154159987E+02  0.12695811905E+03  0.41800000000E+01 0. -1.
         -5    1    3    3    0  502  0.14825488373E+02  0.30213562073E+02 -0.10879027697E+02  0.35615728018E+02  0.41800000000E+01 0. -1.
        -11    1    1    2    0    0  0.39139211822E+02  0.59742230961E+02 -0.68509453231E+02  0.98967455480E+02  0.00000000000E+00 0. -1.
         11    1    1    2    0    0  0.15580912949E+02  0.30364173976E+01  0.27185663471E+02  0.31480866845E+02  0.00000000000E+00 0.  1.
</event>
<event>
 7    1  0.2480409E-009  0.1150884E+03  0.7561462E-02  0.1251427E+00
          2   -1    0    0  501    0  0.00000000000E+00  0.00000000000E+00  0.39624412804E+03  0.39624412804E+03  0.00000000000E+00 0. -1.
         -2   -1    0    0    0  501 -0.00000000000E+00 -0.00000000000E+00 -0.49848782284E+02  0.49848782284E+02  0.00000000000E+00 0.  1.
         25    2    1    2    0    0  0.46269450283E+02  0.80438977745E+02  0.19447038486E+03  0.24915391502E+03  0.12509057362E+03 0.  0.
          5    1    3    3  502    0  0.70799295853E+02  0.25580471180E+02  0.44523836413E+02  0.87559952079E+02  0.41800000000E+01 0. -1.
         -5    1    3    3    0  502 -0.24529845570E+02  0.54858506565E+02  0.14994654845E+03  0.16159396294E+03  0.41800000000E+01 0. -1.
        -11    1    1    2    0    0 -0.35727736245E+02 -0.44372687126E+02  0.20979050904E+02  0.60708542041E+02  0.00000000000E+00 0.  1.
         11    1    1    2    0    0 -0.10541714038E+02 -0.36066290619E+02  0.13094590999E+03  0.13623045327E+03  0.00000000000E+00 0. -1.
</event>
<event>
 7    1  0.2480409E-009  0.1395227E+03  0.7561462E-02  0.1213973E+00
         -1   -1    0    0    0  501 -0.00000000000E+00  0.00000000000E+00  0.26938983382E+02  0.26938983382E+02  0.00000000000E+00 0.  1.
          1   -1    0    0  501    0  0.00000000000E+00 -0.00000000000E+00 -0.89542868205E+03  0.89542868205E+03  0.00000000000E+00 0. -1.
         25    2    1    2    0    0  0.58008331836E+02 -0.95544010846E+02 -0.46863655311E+03  0.49775659003E+03  0.12509108455E+03 0.  0.
          5    1    3    3  502    0 -0.12925529027E+02  0.22159587198E+02 -0.40844557895E+02  0.48413499306E+02  0.41800000000E+01 0. -1.
         -5    1    3    3    0  502  0.70933860863E+02 -0.11770359804E+03 -0.42779199521E+03  0.44934309072E+03  0.41800000000E+01 0. -1.
        -11    1    1    2    0    0 -0.16414144373E+02  0.55312968009E+02 -0.32456596692E+03  0.32965438788E+03  0.00000000000E+00 0. -1.
         11    1    1    2    0    0 -0.41594187463E+02  0.40231042837E+02 -0.75287178640E+02  0.94956687526E+02  0.00000000000E+00 0.  1.
</event>
<event>
 7    1  0.2480409E-009  0.1752645E+03  0.7561462E-02  0.1172466E+00
          1   -1    0    0  501    0  0.00000000000E+00  0.00000000000E+00  0.54310865142E+03  0.54310865142E+03  0.00000000000E+00 0. -1.
         -1   -1    0    0    0  501 -0.00000000000E+00 -0.00000000000E+00 -0.78048091018E+02  0.78048091018E+02  0.00000000000E+00 0.  1.
         25    2    1    2    0    0  0.99345135917E+02  0.12570374000E+03  0.34624854845E+03  0.40150567006E+03  0.12509140461E+03 0.  0.
          5    1    3    3  502    0  0.15991058380E+02  0.99819899668E+02  0.25883414203E+03  0.27790702006E+03  0.41800000000E+01 0.  1.
         -5    1    3    3    0  502  0.83354077537E+02  0.25883840336E+02  0.87414406417E+02  0.12359865000E+03  0.41800000000E+01 0.  1.
        -11    1    1    2    0    0 -0.19485764808E+02 -0.11540032794E+02 -0.14444203972E+02  0.26860796999E+02  0.00000000000E+00 0.  1.
         11    1    1    2    0    0 -0.79859371108E+02 -0.11416370721E+03  0.13325621592E+03  0.19279027537E+03  0.00000000000E+00 0. -1.
</event>
<event>
 7    1  0.2480409E-009  0.1238024E+03  0.7561462E-02  0.1236953E+00
          1   -1    0    0  501    0  0.00000000000E+00  0.00000000000E+00  0.15694718698E+03  0.15694718698E+03  0.00000000000E+00 0. -1.
         -1   -1    0    0    0  501 -0.00000000000E+00 -0.00000000000E+00 -0.10813409738E+03  0.10813409738E+03  0.00000000000E+00 0.  1.
         25    2    1    2    0    0  0.68890665098E+02 -0.11469350327E+02  0.11646322028E+02  0.14373915641E+03  0.12509132077E+03 0.  0.
          5    1    3    3  502    0  0.88989073176E+02  0.32427972549E+02  0.79259908181E+01  0.95136335219E+02  0.41800000000E+01 0. -1.
         -5    1    3    3    0  502 -0.20098408079E+02 -0.43897322876E+02  0.37203312094E+01  0.48602821187E+02  0.41800000000E+01 0. -1.
        -11    1    1    2    0    0 -0.58522276940E+01 -0.28897206239E+02  0.35927456886E+02  0.46476652802E+02  0.00000000000E+00 0. -1.
         11    1    1    2    0    0 -0.63038437404E+02  0.40366556566E+02  0.12393106857E+01  0.74865475156E+02  0.00000000000E+00 0.  1.
</event>
<event>
 7    1  0.2480409E-009  0.1115828E+03  0.7561462E-02  0.1257666E+00
         -2   -1    0    0    0  501 -0.00000000000E+00  0.00000000000E+00  0.16763933299E+03  0.16763933299E+03  0.00000000000E+00 0. -1.
          2   -1    0    0  501    0  0.00000000000E+00 -0.00000000000E+00 -0.10330238725E+03  0.10330238725E+03  0.00000000000E+00 0.  1.
         25    2    1    2    0    0  0.70484355141E+02 -0.16201835580E+01  0.81427501106E+02  0.16507732554E+03  0.12509762650E+03 0.  0.
          5    1    3    3  502    0  0.33079552883E+01 -0.48291645926E+02  0.65640686107E+02  0.81665156015E+02  0.41800000000E+01 0. -1.
         -5    1    3    3    0  502  0.67176399853E+02  0.46671462368E+02  0.15786814999E+02  0.83412169523E+02  0.41800000000E+01 0. -1.
        -11    1    1    2    0    0 -0.42172001077E+02  0.30644177092E+02  0.14900100736E+02  0.54217674852E+02  0.00000000000E+00 0. -1.
         11    1    1    2    0    0 -0.28312354064E+02 -0.29023993534E+02 -0.31990656100E+02  0.51646719848E+02  0.00000000000E+00 0.  1.
</event>
<event>
 7    1  0.2480409E-009  0.1280925E+03  0.7561462E-02  0.1230314E+00
         -2   -1    0    0    0  501 -0.00000000000E+00  0.00000000000E+00  0.85489035517E+02  0.85489035517E+02  0.00000000000E+00 0. -1.
          2   -1    0    0  501    0  0.00000000000E+00 -0.00000000000E+00 -0.49208482359E+03  0.49208482359E+03  0.00000000000E+00 0.  1.
         25    2    1    2    0    0  0.18601581831E+02 -0.10793471781E+03 -0.40076071357E+03  0.43388275485E+03  0.12509665565E+03 0.  0.
          5    1    3    3  502    0  0.20124826371E+02 -0.11851834968E+03 -0.20425960036E+03  0.23704654519E+03  0.41800000000E+01 0.  1.
         -5    1    3    3    0  502 -0.15232445404E+01  0.10583631872E+02 -0.19650111321E+03  0.19683620966E+03  0.41800000000E+01 0.  1.
        -11    1    1    2    0    0  0.20549618359E+02  0.22696650364E+02 -0.34000380406E+02  0.45754241555E+02  0.00000000000E+00 0.  1.
         11    1    1    2    0    0 -0.39151200190E+02  0.85238067449E+02  0.28165305910E+02  0.97936862702E+02  0.00000000000E+00 0. -1.
</event>
<event>
 7    1  0.2480409E-009  0.1308894E+03  0.7561462E-02  0.1226142E+00
          1   -1    0    0  501    0  0.00000000000E+00  0.00000000000E+00  0.10330471892E+03  0.10330471892E+03  0.00000000000E+00 0. -1.
         -1   -1    0    0    0  501 -0.00000000000E+00 -0.00000000000E+00 -0.24098426508E+03  0.24098426508E+03  0.00000000000E+00 0.  1.
         25    2    1    2    0    0  0.10469570039E+02  0.11524462782E+03 -0.69155363675E+02  0.18390142906E+03  0.12508531148E+03 0.  0.
          5    1    3    3  502    0  0.28785441167E+01  0.97839026780E+02  0.13584311035E+02  0.98907871697E+02  0.41800000000E+01 0.  1.
         -5    1    3    3    0  502  0.75910259223E+01  0.17405601040E+02 -0.82739674710E+02  0.84993557363E+02  0.41800000000E+01 0.  1.
        -11    1    1    2    0    0 -0.17818411033E+02 -0.12822033958E+03 -0.56560516801E+02  0.14126939978E+03  0.00000000000E+00 0.  1.
         11    1    1    2    0    0  0.73488409939E+01  0.12975711763E+02 -0.11963665686E+02  0.19118155151E+02  0.00000000000E+00 0. -1.
</event>
<event>
 7    1  0.2480409E-009  0.1541989E+03  0.7561462E-02  0.1195406E+00
         -2   -1    0    0    0  501 -0.00000000000E+00  0.00000000000E+00  0.58462837725E+02  0.58462837725E+02  0.00000000000E+00 0.  1.
          2   -1    0    0  501    0  0.00000000000E+00 -0.00000000000E+00 -0.45500859824E+03  0.45500859824E+03  0.00000000000E+00 0. -1.
         25    2    1    2    0    0 -0.35812120406E+02 -0.10550676086E+03 -0.29408306838E+03  0.33844948123E+03  0.12509602584E+03 0.  0.
          5    1    3    3  502    0  0.14240395980E+02 -0.11526990610E+03 -0.19789676045E+03  0.22950063252E+03  0.41800000000E+01 0. -1.
         -5    1    3    3    0  502 -0.50052516386E+02  0.97631452441E+01 -0.96186307938E+02  0.10894884871E+03  0.41800000000E+01 0. -1.
        -11    1    1    2    0    0  0.58511326379E+02  0.37948745630E+02 -0.40924442259E+02  0.80860945973E+02  0.00000000000E+00 0.  1.
         11    1    1    2    0    0 -0.22699205973E+02  0.67558015230E+02 -0.61538249876E+02  0.94161008764E+02  0.00000000000E+00 0. -1.
</event>
<event>
 7    1  0.2480409E-009  0.1350104E+03  0.7561462E-02  0.1220205E+00
          2   -1    0    0  501    0  0.00000000000E+00  0.00000000000E+00  0.13055277542E+04  0.13055277542E+04  0.00000000000E+00 0. -1.
         -2   -1    0    0    0  501 -0.00000000000E+00 -0.00000000000E+00 -0.18760735880E+02  0.18760735880E+02  0.00000000000E+00 0.  1.
         25    2    1    2    0    0  0.54951679182E+02 -0.72419571108E+02  0.94384912375E+03  0.95643246103E+03  0.12509037845E+03 0.  0.
          5    1    3    3  502    0  0.18180112333E+02 -0.10413017590E+03  0.62908303529E+03  0.63791578418E+03  0.41800000000E+01 0.  1.
         -5    1    3    3    0  502  0.36771566849E+02  0.31710604796E+02  0.31476608846E+03  0.31851667685E+03  0.41800000000E+01 0.  1.
        -11    1    1    2    0    0  0.17430985613E+02  0.11421337513E+02  0.12848973279E+02  0.24482285930E+02  0.00000000000E+00 0.  1.
         11    1    1    2    0    0 -0.72382664795E+02  0.60998233595E+02  0.33006892133E+03  0.34337374316E+03  0.00000000000E+00 0. -1.
</event>
<event>
 7    1  0.2480409E-009  0.1249427E+03  0.7561462E-02  0.1235159E+00
          1   -1    0    0  501    0  0.00000000000E+00  0.00000000000E+00  0.75628612020E+03  0.75628612020E+03  0.00000000000E+00 0. -1.
         -1   -1    0    0    0  501 -0.00000000000E+00 -0.00000000000E+00 -0.28923751601E+02  0.28923751601E+02  0.00000000000E+00 0.  1.
         25    2    1    2    0    0 -0.87652914540E+02  0.25986530268E+01  0.52918469057E+03  0.55079400010E+03  0.12509119627E+03 0.  0.
          5    1    3    3  502    0 -0.44025489244E+02 -0.47534355183E+02  0.40222454200E+03  0.40743074652E+03  0.41800000000E+01 0.  1.
         -5    1    3    3    0  502 -0.43627425296E+02  0.50133008210E+02  0.12696014858E+03  0.14336325358E+03  0.41800000000E+01 0.  1.
        -11    1    1    2    0    0  0.25773057823E+02 -0.38874635000E+02  0.11773809029E+03  0.12664022134E+03  0.00000000000E+00 0. -1.
         11    1    1    2    0    0  0.61879856716E+02  0.36275981974E+02  0.80439587728E+02  0.10777565035E+03  0.00000000000E+00 0.  1.
</event>
<event>
 7    1  0.2480409E-009  0.2471398E+03  0.7561462E-02  0.1115126E+00
          2   -1    0    0  501    0  0.00000000000E+00  0.00000000000E+00  0.12904369930E+04  0.12904369930E+04  0.00000000000E+00 0.  1.
         -2   -1    0    0    0  501 -0.00000000000E+00 -0.00000000000E+00 -0.81633686349E+02  0.81633686349E+02  0.00000000000E+00 0. -1.
         25    2    1    2    0    0 -0.18544603733E+03  0.10453408153E+03  0.10415574793E+04  0.10704238642E+04  0.12509060476E+03 0.  0.
          5    1    3    3  502    0 -0.17711905098E+03  0.43977269274E+02  0.84697116511E+03  0.86641952041E+03  0.41800000000E+01 0. -1.
         -5    1    3    3    0  502 -0.83269863567E+01  0.60556812256E+02  0.19458631419E+03  0.20400434378E+03  0.41800000000E+01 0. -1.
        -11    1    1    2    0    0  0.10742683004E+03  0.14231919275E+02  0.62329228214E+02  0.12501201554E+03  0.00000000000E+00 0. -1.
         11    1    1    2    0    0  0.78019207290E+02 -0.11876600080E+03  0.10491659910E+03  0.17663479957E+03  0.00000000000E+00 0.  1.
</event>
<event>
 7    1  0.2480409E-009  0.1208855E+03  0.7561462E-02  0.1241643E+00
          2   -1    0    0  501    0  0.00000000000E+00  0.00000000000E+00  0.56188647195E+03  0.56188647195E+03  0.00000000000E+00 0. -1.
         -2   -1    0    0    0  501 -0.00000000000E+00 -0.00000000000E+00 -0.43364191646E+02  0.43364191646E+02  0.00000000000E+00 0.  1.
         25    2    1    2    0    0  0.11288828943E+02 -0.11021286363E+03  0.29183718704E+03  0.33628929163E+03  0.12508889223E+03 0.  0.
          5    1    3    3  502    0 -0.24451974463E+02 -0.64582266620E+02  0.26196994122E+03  0.27095108547E+03  0.41800000000E+01 0.  1.
         -5    1    3    3    0  502  0.35740803406E+02 -0.45630597005E+02  0.29867245822E+02  0.65338206159E+02  0.41800000000E+01 0.  1.
        -11    1    1    2    0    0  0.75862136259E+01  0.65565044081E+02  0.20589873753E+03  0.21621890704E+03  0.00000000000E+00 0. -1.
         11    1    1    2    0    0 -0.18875042568E+02  0.44647819545E+02  0.20786355733E+02  0.52742464928E+02  0.00000000000E+00 0.  1.
</event>
<event>
 7    1  0.2480409E-009  0.1235309E+03  0.7561462E-02  0.1237383E+00
         -1   -1    0    0    0  501 -0.00000000000E+00  0.00000000000E+00  0.93016807292E+02  0.93016807292E+02  0.00000000000E+00 0.  1.
          1   -1    0    0  501    0  0.00000000000E+00 -0.00000000000E+00 -0.25586060460E+03  0.25586060460E+03  0.00000000000E+00 0. -1.
         25    2    1    2    0    0  0.20754030244E+02 -0.89609178861E+02 -0.21629543986E+02  0.15676988125E+03  0.12509366006E+03 0.  0.
          5    1    3    3  502    0 -0.39190090011E+02 -0.19696280397E+02  0.27868838648E+02  0.52133973416E+02  0.41800000000E+01 0. -1.
         -5    1    3    3    0  502  0.59944120255E+02 -0.69912898464E+02 -0.49498382633E+02  0.10463590783E+03  0.41800000000E+01 0. -1.
        -11    1    1    2    0    0  0.19265572501E+02  0.53679315617E+02 -0.12256392821E+03  0.13518338547E+03  0.00000000000E+00 0. -1.
         11    1    1    2    0    0 -0.40019602745E+02  0.35929863243E+02 -0.18650325109E+02  0.56924145169E+02  0.00000000000E+00 0.  1.
</event>
<event>
 7    1  0.2480409E-009  0.1183774E+03  0.7561462E-02  0.1245798E+00
          4   -1    0    0  501    0  0.00000000000E+00  0.00000000000E+00  0.10140476381E+03  0.10140476381E+03  0.00000000000E+00 0. -1.
         -4   -1    0    0    0  501 -0.00000000000E+00 -0.00000000000E+00 -0.17101276409E+03  0.17101276409E+03  0.00000000000E+00 0.  1.
         25    2    1    2    0    0  0.23250554354E+02  0.40928921787E+02 -0.20646552188E+02  0.13523538203E+03  0.12508622434E+03 0.  0.
          5    1    3    3  502    0 -0.84517134673E+01  0.74610795650E+02 -0.39695168503E+02  0.85037527542E+02  0.41800000000E+01 0. -1.
         -5    1    3    3    0  502  0.31702267822E+02 -0.33681873863E+02  0.19048616315E+02  0.50197854490E+02  0.41800000000E+01 0. -1.
        -11    1    1    2    0    0 -0.64670415874E+02 -0.34160262785E+02 -0.59069589835E+02  0.94012779376E+02  0.00000000000E+00 0. -1.
         11    1    1    2    0    0  0.41419861519E+02 -0.67686590023E+01  0.10108141744E+02  0.43169366482E+02  0.00000000000E+00 0.  1.
</event>
<event>
 7    1  0.2480409E-009  0.1153995E+03  0.7561462E-02  0.1250885E+00
          1   -1    0    0  501    0  0.00000000000E+00  0.00000000000E+00  0.42057726351E+03  0.42057726351E+03  0.00000000000E+00 0. -1.
         -1   -1    0    0    0  501 -0.00000000000E+00 -0.00000000000E+00 -0.67950470226E+02  0.67950470226E+02  0.00000000000E+00 0.  1.
         25    2    1    2    0    0  0.43514838501E+02  0.85113874811E+02  0.10147486684E+03  0.18731025606E+03  0.12510024208E+03 0.  0.
          5    1    3    3  502    0  0.20531984144E+02  0.45388006057E+02 -0.22667348556E+02  0.54890022384E+02  0.41800000000E+01 0.  1.
         -5    1    3    3    0  502  0.22982854357E+02  0.39725868754E+02  0.12414221540E+03  0.13242023368E+03  0.41800000000E+01 0.  1.
        -11    1    1    2    0    0  0.21977254355E+02 -0.61158103749E+02  0.34413346812E+02  0.73536329810E+02  0.00000000000E+00 0.  1.
         11    1    1    2    0    0 -0.65492092856E+02 -0.23955771062E+02  0.21673857963E+03  0.22768114787E+03  0.00000000000E+00 0. -1.
</event>
<event>
 7    1  0.2480409E-009  0.9851721E+02  0.7561462E-02  0.1283445E+00
          2   -1    0    0  501    0  0.00000000000E+00  0.00000000000E+00  0.10462295075E+04  0.10462295075E+04  0.00000000000E+00 0. -1.
         -2   -1    0    0    0  501 -0.00000000000E+00 -0.00000000000E+00 -0.19616180236E+02  0.19616180236E+02  0.00000000000E+00 0.  1.
         25    2    1    2    0    0  0.43998478474E+02 -0.28459543035E+02  0.84071929377E+03  0.85158788628E+03  0.12508871031E+03 0.  0.
          5    1    3    3  502    0  0.72602203640E+02 -0.39748109366E+02  0.34178629283E+03  0.35169068020E+03  0.41800000000E+01 0.  1.
         -5    1    3    3    0  502 -0.28603725166E+02  0.11288566331E+02  0.49893300094E+03  0.49989720608E+03  0.41800000000E+01 0.  1.
        -11    1    1    2    0    0 -0.52124422857E+02 -0.14363162535E+01  0.41684109700E+02  0.66757647233E+02  0.00000000000E+00 0.  1.
         11    1    1    2    0    0  0.81259443828E+01  0.29895859288E+02  0.14420992380E+03  0.14750015422E+03  0.00000000000E+00 0. -1.
</event>
<event>
 7    1  0.2480409E-009  0.9212435E+02  0.7561462E-02  0.1297787E+00
         -1   -1    0    0    0  501 -0.00000000000E+00  0.00000000000E+00  0.98847693976E+02  0.98847693976E+02  0.00000000000E+00 0.  1.
          1   -1    0    0  501    0  0.00000000000E+00 -0.00000000000E+00 -0.17630201947E+03  0.17630201947E+03  0.00000000000E+00 0. -1.
         25    2    1    2    0    0 -0.23007926413E+02 -0.54797879234E+02 -0.99771875319E+02  0.17068717517E+03  0.12509001726E+03 0.  0.
          5    1    3    3  502    0 -0.75843611676E+01 -0.63443197866E+02 -0.12450057633E+03  0.14000152783E+03  0.41800000000E+01 0.  1.
         -5    1    3    3    0  502 -0.15423565246E+02  0.86453186320E+01  0.24728701007E+02  0.30685647339E+02  0.41800000000E+01 0.  1.
        -11    1    1    2    0    0  0.54238606975E+02  0.28786157335E+02  0.13093208374E+02  0.62784563758E+02  0.00000000000E+00 0.  1.
         11    1    1    2    0    0 -0.31230680561E+02  0.26011721899E+02  0.92243414519E+01  0.41677974515E+02  0.00000000000E+00 0. -1.
</event>
<event>
 7    1  0.2480409E-009  0.7656833E+02  0.7561462E-02  0.1339082E+00
         -3   -1    0    0    0  501 -0.00000000000E+00  0.00000000000E+00  0.59310950905E+02  0.59310950905E+02  0.00000000000E+00 0.  1.
          3   -1    0    0  501    0  0.00000000000E+00 -0.00000000000E+00 -0.20176466283E+03  0.20176466283E+03  0.00000000000E+00 0. -1.
         25    2    1    2    0    0 -0.26959860751E+01  0.19688270382E+02 -0.89379722107E+02  0.15501424585E+03  0.12508311381E+03 0.  0.
          5    1    3    3  502    0 -0.22445018382E+02 -0.16465276835E+02 -0.10653699680E+03  0.11019295930E+03  0.41800000000E+01 0. -1.
         -5    1    3    3    0  502  0.19749032307E+02  0.36153547217E+02  0.17157274694E+02  0.44821286554E+02  0.41800000000E+01 0. -1.
        -11    1    1    2    0    0 -0.39158933484E+02 -0.64845082632E+01 -0.47374494554E+02  0.61804641033E+02  0.00000000000E+00 0. -1.
         11    1    1    2    0    0  0.41854919560E+02 -0.13203762119E+02 -0.56994952666E+01  0.44256726853E+02  0.00000000000E+00 0.  1.
</event>
<event>
 7    1  0.2480409E-009  0.1259203E+03  0.7561462E-02  0.1233638E+00
          1   -1    0    0  501    0  0.00000000000E+00  0.00000000000E+00  0.18141370281E+03  0.18141370281E+03  0.00000000000E+00 0. -1.
         -1   -1    0    0    0  501 -0.00000000000E+00 -0.00000000000E+00 -0.10686974630E+03  0.10686974630E+03  0.00000000000E+00 0.  1.
         25    2    1    2    0    0  0.14076288703E+02 -0.68910792374E+02  0.91468234292E+02  0.17018752692E+03  0.12510202727E+03 0.  0.
          5    1    3    3  502    0 -0.31457539080E+02  0.20397984628E+02  0.56230777102E+01  0.38141131929E+02  0.41800000000E+01 0. -1.
         -5    1    3    3    0  502  0.45533827783E+02 -0.89308777002E+02  0.85845156582E+02  0.13204639499E+03  0.41800000000E+01 0. -1.
        -11    1    1    2    0    0  0.27081542740E+02 -0.65184110125E+01  0.73446298786E+01  0.28806999625E+02  0.00000000000E+00 0. -1.
         11    1    1    2    0    0 -0.41157831443E+02  0.75429203386E+02 -0.24268907657E+02  0.89288922558E+02  0.00000000000E+00 0.  1.
</event>
<event>
 7    1  0.2480409E-009  0.8627513E+02  0.7561462E-02  0.1312131E+00
          1   -1    0    0  501    0  0.00000000000E+00  0.00000000000E+00  0.69189309525E+03  0.69189309525E+03  0.00000000000E+00 0. -1.
         -1   -1    0    0    0  501 -0.00000000000E+00 -0.00000000000E+00 -0.20277727563E+02  0.20277727563E+02  0.00000000000E+00 0.  1.
         25    2    1    2    0    0  0.12982145503E+02  0.35900509563E+02  0.29099167381E+03  0.31903333955E+03  0.12509490328E+03 0.  0.
          5    1    3    3  502    0  0.33629824596E+02  0.80395933136E+00  0.10379933791E+02  0.35451754237E+02  0.41800000000E+01 0. -1.
         -5    1    3    3    0  502 -0.20647679093E+02  0.35096550232E+02  0.28061174002E+03  0.28358158531E+03  0.41800000000E+01 0. -1.
        -11    1    1    2    0    0 -0.21766768852E+02 -0.64356231332E+02  0.24229872078E+03  0.25164297493E+03  0.00000000000E+00 0.  1.
         11    1    1    2    0    0  0.87846233486E+01  0.28455721769E+02  0.13832497309E+03  0.14149450834E+03  0.00000000000E+00 0. -1.
</event>
<event>
 7    1  0.2480409E-009  0.1114428E+03  0.7561462E-02  0.1257921E+00
         -2   -1    0    0    0  501 -0.00000000000E+00  0.00000000000E+00  0.42283860798E+02  0.42283860798E+02  0.00000000000E+00 0.  1.
          2   -1    0    0  501    0  0.00000000000E+00 -0.00000000000E+00 -0.38346860455E+03  0.38346860455E+03  0.00000000000E+00 0. -1.
         25    2    1    2    0    0  0.35603458765E+02  0.32236706055E+02 -0.25085522294E+03  0.28439867558E+03  0.12508977695E+03 0.  0.
          5    1    3    3  502    0  0.60814804402E+02 -0.26162851848E+02 -0.16188227876E+03  0.17494650561E+03  0.41800000000E+01 0.  1.
         -5    1    3    3    0  502 -0.25211345637E+02  0.58399557903E+02 -0.88972944186E+02  0.10945216996E+03  0.41800000000E+01 0.  1.
        -11    1    1    2    0    0 -0.49316747914E+01  0.26278413375E+02 -0.65549912340E+02  0.70793131259E+02  0.00000000000E+00 0. -1.
         11    1    1    2    0    0 -0.30671783974E+02 -0.58515119430E+02 -0.24779608472E+02  0.70560658515E+02  0.00000000000E+00 0.  1.
</event>
<event>
 7    1  0.2480409E-009  0.1233500E+03  0.7561462E-02  0.1237671E+00
         -3   -1    0    0    0  501 -0.00000000000E+00  0.00000000000E+00  0.27530833808E+03  0.27530833808E+03  0.00000000000E+00 0.  1.
          3   -1    0    0  501    0  0.00000000000E+00 -0.00000000000E+00 -0.70149563196E+02  0.70149563196E+02  0.00000000000E+00 0. -1.
         25    2    1    2    0    0  0.62666306125E+02 -0.34328922685E+02  0.17136927366E+03  0.22387544280E+03  0.12508894867E+03 0.  0.
          5    1    3    3  502    0  0.79108055287E+02 -0.67315535482E+02  0.10446639274E+03  0.14737762836E+03  0.41800000000E+01 0. -1.
         -5    1    3    3    0  502 -0.16441749162E+02  0.32986612797E+02  0.66902880916E+02  0.76497814441E+02  0.41800000000E+01 0. -1.
        -11    1    1    2    0    0 -0.24762130929E+02  0.56535065049E+02  0.44834027915E+02  0.76285429588E+02  0.00000000000E+00 0.  1.
         11    1    1    2    0    0 -0.37904175196E+02 -0.22206142365E+02 -0.11044526692E+02  0.45297028886E+02  0.00000000000E+00 0. -1.
</event>
<event>
 7    1  0.2480409E-009  0.8861957E+02  0.7561462E-02  0.1306229E+00
         -3   -1    0    0    0  501 -0.00000000000E+00  0.00000000000E+00  0.30560676071E+02  0.30560676071E+02  0.00000000000E+00 0.  1.
          3   -1    0    0  501    0  0.00000000000E+00 -0.00000000000E+00 -0.42102320642E+03  0.42102320642E+03  0.00000000000E+00 0. -1.
         25    2    1    2    0    0 -0.34023116438E+02 -0.17881023986E+02 -0.20607945564E+03  0.24411791293E+03  0.12509000722E+03 0.  0.
          5    1    3    3  502    0 -0.55386675148E+02  0.38564995528E+02 -0.83701716414E+02  0.10760293860E+03  0.41800000000E+01 0. -1.
         -5    1    3    3    0  502  0.21363558709E+02 -0.56446019514E+02 -0.12237773923E+03  0.13651497433E+03  0.41800000000E+01 0. -1.
        -11    1    1    2    0    0 -0.33260239688E+00  0.14606105131E+02  0.46315998680E+01  0.15326468895E+02  0.00000000000E+00 0.  1.
         11    1    1    2    0    0  0.34355718835E+02  0.32749188546E+01 -0.18901467458E+03  0.19213950066E+03  0.00000000000E+00 0. -1.
</event>
<event>
 7    1  0.2480409E-009  0.7875971E+02  0.7561462E-02  0.1332609E+00
          2   -1    0    0  501    0  0.00000000000E+00  0.00000000000E+00  0.10477519780E+04  0.10477519780E+04  0.00000000000E+00 0.  1.
         -2   -1    0    0    0  501 -0.00000000000E+00 -0.00000000000E+00 -0.18698978979E+02  0.18698978979E+02  0.00000000000E+00 0. -1.
         25    2    1    2    0    0  0.14958414664E+02  0.50248453776E+02  0.73079847244E+03  0.74328039739E+03  0.12510268006E+03 0.  0.
          5    1    3    3  502    0  0.33916868126E+02  0.96768515738E+01  0.64867809382E+03  0.64964970345E+03  0.41800000000E+01 0.  1.
         -5    1    3    3    0  502 -0.18958453462E+02  0.40571602202E+02  0.82120378619E+02  0.93630693938E+02  0.41800000000E+01 0.  1.
        -11    1    1    2    0    0 -0.35166931812E+02 -0.43015340390E+02  0.29647127244E+03  0.30163263747E+03  0.00000000000E+00 0.  1.
         11    1    1    2    0    0  0.20208517148E+02 -0.72331133853E+01  0.17832541611E+01  0.21537922136E+02  0.00000000000E+00 0. -1.
</event>
<event>
 7    1  0.2480409E-009  0.1088069E+03  0.7561462E-02  0.1262795E+00
         -1   -1    0    0    0  501 -0.00000000000E+00  0.00000000000E+00  0.43251802145E+02  0.43251802145E+02  0.00000000000E+00 0. -1.
          1   -1    0    0  501    0  0.00000000000E+00 -0.00000000000E+00 -0.58818403719E+03  0.58818403719E+03  0.00000000000E+00 0.  1.
         25    2    1    2    0    0 -0.73297864415E+02 -0.31677444565E+02 -0.45808771702E+03  0.48152835416E+03  0.12509661048E+03 0.  0.
          5    1    3    3  502    0  0.20854665958E+02 -0.20745779881E+02 -0.26215071832E+03  0.26382906585E+03  0.41800000000E+01 0. -1.
         -5    1    3    3    0  502 -0.94152530374E+02 -0.10931664684E+02 -0.19593699870E+03  0.21769928830E+03  0.41800000000E+01 0. -1.
        -11    1    1    2    0    0  0.32746832468E+02  0.39932201949E+02  0.22288077157E+01  0.51690457272E+02  0.00000000000E+00 0. -1.
         11    1    1    2    0    0  0.40551031947E+02 -0.82547573835E+01 -0.89073325741E+02  0.98217027902E+02  0.00000000000E+00 0.  1.
</event>
<event>
 7    1  0.2480409E-009  0.2070516E+03  0.7561462E-02  0.1143922E+00
          2   -1    0    0  501    0  0.00000000000E+00  0.00000000000E+00  0.18682104127E+04  0.18682104127E+04  0.00000000000E+00 0. -1.
         -2   -1    0    0    0  501 -0.00000000000E+00 -0.00000000000E+00 -0.27098836960E+02  0.27098836960E+02  0.00000000000E+00 0.  1.
         25    2    1    2    0    0 -0.17746304487E+03 -0.82906899169E+02  0.10249524248E+04  0.10509707808E+04  0.12508166428E+03 0.  0.
          5    1    3    3  502    0 -0.41215255786E+02 -0.33140002888E+02  0.87296298950E+02  0.10215220659E+03  0.41800000000E+01 0. -1.
         -5    1    3    3    0  502 -0.13624778908E+03 -0.49766896281E+02  0.93765612581E+03  0.94881857416E+03  0.41800000000E+01 0. -1.
        -11    1    1    2    0    0  0.13591445244E+03  0.15553291857E+02  0.54060980797E+03  0.55765007643E+03  0.00000000000E+00 0.  1.
         11    1    1    2    0    0  0.41548592421E+02  0.67353607311E+02  0.27554934301E+03  0.28668839248E+03  0.00000000000E+00 0. -1.
</event>
<event>
 7    1  0.2480409E-009  0.1775313E+03  0.7561462E-02  0.1170214E+00
          2   -1    0    0  501    0  0.00000000000E+00  0.00000000000E+00  0.15336586442E+03  0.15336586442E+03  0.00000000000E+00 0. -1.
         -2   -1    0    0    0  501 -0.00000000000E+00 -0.00000000000E+00 -0.22961378000E+03  0.22961378000E+03  0.00000000000E+00 0.  1.
         25    2    1    2    0    0 -0.29926474823E+02  0.14835324530E+03 -0.13513389740E+02  0.19680627933E+03  0.12508325466E+03 0.  0.
          5    1    3    3  502    0  0.40732511707E+02  0.54644910304E+02  0.25752993937E+02  0.72978714902E+02  0.41800000000E+01 0. -1.
         -5    1    3    3    0  502 -0.70658986530E+02  0.93708334996E+02 -0.39266383676E+02  0.12382756443E+03  0.41800000000E+01 0. -1.
        -11    1    1    2    0    0 -0.22241705430E+02 -0.81852284984E+02 -0.73847154695E+01  0.85141200603E+02  0.00000000000E+00 0. -1.
         11    1    1    2    0    0  0.52168180253E+02 -0.66500960316E+02 -0.55349810373E+02  0.10103216449E+03  0.00000000000E+00 0.  1.
</event>
<event>
 7    1  0.2480409E-009  0.1094528E+03  0.7561462E-02  0.1261587E+00
         -2   -1    0    0    0  501 -0.00000000000E+00  0.00000000000E+00  0.23242972518E+02  0.23242972518E+02  0.00000000000E+00 0.  1.
          2   -1    0    0  501    0  0.00000000000E+00 -0.00000000000E+00 -0.80454680261E+03  0.80454680261E+03  0.00000000000E+00 0. -1.
         25    2    1    2    0    0 -0.43457604920E+02  0.50550293591E+02 -0.55959189471E+03  0.57726461660E+03  0.12508978112E+03 0.  0.
          5    1    3    3  502    0 -0.68885328027E+02 -0.42957570910E+01 -0.17922345298E+03  0.19209935045E+03  0.41800000000E+01 0. -1.
         -5    1    3    3    0  502  0.25427723107E+02  0.54846050682E+02 -0.38036844173E+03  0.38516526614E+03  0.41800000000E+01 0. -1.
        -11    1    1    2    0    0  0.52578408066E+01 -0.50689914774E+02 -0.20040820669E+03  0.20678627047E+03  0.00000000000E+00 0. -1.
         11    1    1    2    0    0  0.38199764113E+02  0.13962118281E+00 -0.21303728698E+02  0.43738888061E+02  0.00000000000E+00 0.  1.
</event>
<event>
 7    1  0.2480409E-009  0.1988802E+03  0.7561462E-02  0.1150687E+00
          1   -1    0    0  501    0  0.00000000000E+00  0.00000000000E+00  0.21535655929E+03  0.21535655929E+03  0.00000000000E+00 0. -1.
         -1   -1    0    0    0  501 -0.00000000000E+00 -0.00000000000E+00 -0.20160479262E+03  0.20160479262E+03  0.00000000000E+00 0.  1.
         25    2    1    2    0    0 -0.15361140114E+03 -0.89164593475E+02  0.23204067974E+02  0.21847854084E+03  0.12509059416E+03 0.  0.
          5    1    3    3  502    0 -0.16820495080E+03 -0.50791033383E+02  0.14918223257E+02  0.17638781231E+03  0.41800000000E+01 0. -1.
         -5    1    3    3    0  502  0.14593549660E+02 -0.38373560092E+02  0.82858447170E+01  0.42090728533E+02  0.41800000000E+01 0. -1.
        -11    1    1    2    0    0  0.43630451504E+02  0.43631938998E+02  0.35566543753E+02  0.71220372322E+02  0.00000000000E+00 0. -1.
         11    1    1    2    0    0  0.10998094963E+03  0.45532654477E+02 -0.45018845054E+02  0.12726243875E+03  0.00000000000E+00 0.  1.
</event>
<event>
 7    1  0.2480409E-009  0.9556247E+02  0.7561462E-02  0.1289914E+00
         -2   -1    0    0    0  501 -0.00000000000E+00  0.00000000000E+00  0.58211328123E+03  0.58211328123E+03  0.00000000000E+00 0. -1.
          2   -1    0    0  501    0  0.00000000000E+00 -0.00000000000E+00 -0.31617221463E+02  0.31617221463E+02  0.00000000000E+00 0.  1.
         25    2    1    2    0    0  0.18757616987E+02  0.66383114959E+02  0.40603333968E+03  0.43042881111E+03  0.12508925755E+03 0.  0.
          5    1    3    3  502    0 -0.17204638210E+02  0.60145743984E+01  0.31402524399E+03  0.31458146948E+03  0.41800000000E+01 0.  1.
         -5    1    3    3    0  502  0.35962255197E+02  0.60368540561E+02  0.92008095690E+02  0.11584734162E+03  0.41800000000E+01 0.  1.
        -11    1    1    2    0    0  0.26333850284E+02 -0.44976626599E+02  0.34395621441E+02  0.62445395229E+02  0.00000000000E+00 0.  1.
         11    1    1    2    0    0 -0.45091467271E+02 -0.21406488361E+02  0.11006709865E+03  0.12085629636E+03  0.00000000000E+00 0. -1.
</event>
<event>
 7    1  0.2480409E-009  0.1098097E+03  0.7561462E-02  0.1260923E+00
          2   -1    0    0  501    0  0.00000000000E+00  0.00000000000E+00  0.10367571043E+04  0.10367571043E+04  0.00000000000E+00 0. -1.
         -2   -1    0    0    0  501 -0.00000000000E+00 -0.00000000000E+00 -0.28573367280E+02  0.28573367280E+02  0.00000000000E+00 0.  1.
         25    2    1    2    0    0 -0.89057679846E+02  0.31299137683E+02  0.82869082252E+03  0.84337778586E+03  0.12508678584E+03 0.  0.
          5    1    3    3  502    0 -0.32962212854E+02  0.39493661852E+02  0.10055759291E+03  0.11302901705E+03  0.41800000000E+01 0. -1.
         -5    1    3    3    0  502 -0.56095466992E+02 -0.81945241699E+01  0.72813322960E+03  0.73034876880E+03  0.41800000000E+01 0. -1.
        -11    1    1    2    0    0  0.25767686957E+02  0.17582097255E+02  0.11518522733E+03  0.11933457349E+03  0.00000000000E+00 0. -1.
         11    1    1    2    0    0  0.63289992889E+02 -0.48881234938E+02  0.64307687171E+02  0.10261811223E+03  0.00000000000E+00 0.  1.
</event>
<event>
 7    1  0.2480409E-009  0.9511693E+02  0.7561462E-02  0.1290913E+00
          1   -1    0    0  501    0  0.00000000000E+00  0.00000000000E+00  0.50649688963E+02  0.50649688963E+02  0.00000000000E+00 0.  1.
         -1   -1    0    0    0  501 -0.00000000000E+00 -0.00000000000E+00 -0.35499322052E+03  0.35499322052E+03  0.00000000000E+00 0. -1.
         25    2    1    2    0    0  0.45569217190E+02 -0.56343649671E+02 -0.12715921234E+03  0.19254252813E+03  0.12510795115E+03 0.  0.
          5    1    3    3  502    0  0.19333081760E+02 -0.42177522982E+02 -0.14850183202E+03  0.15563732846E+03  0.41800000000E+01 0. -1.
         -5    1    3    3    0  502  0.26236135431E+02 -0.14166126689E+02  0.21342619684E+02  0.36905199670E+02  0.41800000000E+01 0. -1.
        -11    1    1    2    0    0 -0.70708040501E+02  0.29075092993E+02 -0.14532023959E+03  0.16420401962E+03  0.00000000000E+00 0.  1.
         11    1    1    2    0    0  0.25138823310E+02  0.27268556678E+02 -0.31864079629E+02  0.48896361739E+02  0.00000000000E+00 0. -1.
</event>
<event>
 7    1  0.2480409E-009  0.1051253E+03  0.7561462E-02  0.1269873E+00
          1   -1    0    0  501    0  0.00000000000E+00  0.00000000000E+00  0.76057652092E+03  0.76057652092E+03  0.00000000000E+00 0. -1.
         -1   -1    0    0    0  501 -0.00000000000E+00 -0.00000000000E+00 -0.23361674883E+02  0.23361674883E+02  0.00000000000E+00 0.  1.
         25    2    1    2    0    0 -0.52528863745E+01  0.23069332024E+02  0.62973200503E+03  0.64247122086E+03  0.12508830712E+03 0.  0.
          5    1    3    3  502    0 -0.43745652124E+02  0.55690732938E+02  0.45695732865E+03  0.46243119750E+03  0.41800000000E+01 0.  1.
         -5    1    3    3    0  502  0.38492765749E+02 -0.32621400914E+02  0.17277467638E+03  0.18004002336E+03  0.41800000000E+01 0.  1.
        -11    1    1    2    0    0  0.26936049003E+02  0.24494209500E+02  0.26310087290E+02  0.44919235613E+02  0.00000000000E+00 0.  1.
         11    1    1    2    0    0 -0.21683162628E+02 -0.47563541524E+02  0.81172753717E+02  0.96547739330E+02  0.00000000000E+00 0. -1.
</event>
<event>
 7    1  0.2480409E-009  0.1241215E+03  0.7561462E-02  0.1236449E+00
          2   -1    0    0  501    0  0.00000000000E+00  0.00000000000E+00  0.53079176722E+03  0.53079176722E+03  0.00000000000E+00 0.  1.
         -2   -1    0    0    0  501 -0.00000000000E+00 -0.00000000000E+00 -0.46151000212E+02  0.46151000212E+02  0.00000000000E+00 0. -1.
         25    2    1    2    0    0 -0.70048422339E+02 -0.25589716275E+02  0.12336328759E+03  0.19085943787E+03  0.12508880545E+03 0.  0.
          5    1    3    3  502    0 -0.32344109435E+02  0.31388387668E+02 -0.48443124446E+01  0.45522654345E+02  0.41800000000E+01 0.  1.
         -5    1    3    3    0  502 -0.37704312904E+02 -0.56978103943E+02  0.12820760003E+03  0.14533678353E+03  0.41800000000E+01 0.  1.
        -11    1    1    2    0    0 -0.22919855594E+02  0.34190736208E+02  0.84704028503E+02  0.94175892178E+02  0.00000000000E+00 0.  1.
         11    1    1    2    0    0  0.92968277933E+02 -0.86010199331E+01  0.27657345092E+03  0.29190743738E+03  0.00000000000E+00 0. -1.
</event>
<event>
 7    1  0.2480409E-009  0.1119935E+03  0.7561462E-02  0.1256922E+00
          1   -1    0    0  501    0  0.00000000000E+00  0.00000000000E+00  0.59958560700E+02  0.59958560700E+02  0.00000000000E+00 0. -1.
         -1   -1    0    0    0  501 -0.00000000000E+00 -0.00000000000E+00 -0.30365849640E+03  0.30365849640E+03  0.00000000000E+00 0.  1.
         25    2    1    2    0    0 -0.60175013168E+02  0.30345095444E+02 -0.18416326908E+03  0.23260538495E+03  0.12508916182E+03 0.  0.
          5    1    3    3  502    0  0.15559907534E+02  0.51070487302E+02 -0.11895737396E+03  0.13045548902E+03  0.41800000000E+01 0.  1.
         -5    1    3    3    0  502 -0.75734920701E+02 -0.20725391858E+02 -0.65205895125E+02  0.10214989594E+03  0.41800000000E+01 0.  1.
        -11    1    1    2    0    0 -0.91301814250E+01  0.83981921643E+01  0.16789771904E+02  0.20875494846E+02  0.00000000000E+00 0. -1.
         11    1    1    2    0    0  0.69305194593E+02 -0.38743287609E+02 -0.76326438518E+02  0.11013617729E+03  0.00000000000E+00 0.  1.
</event>
<event>
 7    1  0.2480409E-009  0.1607079E+03  0.7561462E-02  0.1187900E+00
          1   -1    0    0  501    0  0.00000000000E+00  0.00000000000E+00  0.10883905312E+03  0.10883905312E+03  0.00000000000E+00 0. -1.
         -1   -1    0    0    0  501 -0.00000000000E+00 -0.00000000000E+00 -0.28981493554E+03  0.28981493554E+03  0.00000000000E+00 0.  1.
         25    2    1    2    0    0 -0.79926474771E+02 -0.11406579224E+03 -0.71180431397E+02  0.20028036161E+03  0.12508526334E+03 0.  0.
          5    1    3    3  502    0  0.89458186779E+01 -0.74005034645E+02  0.73613522083E+01  0.75022894712E+02  0.41800000000E+01 0.  1.
         -5    1    3    3    0  502 -0.88872293449E+02 -0.40060757593E+02 -0.78541783605E+02  0.12525746690E+03  0.41800000000E+01 0.  1.
        -11    1    1    2    0    0 -0.12679983711E+01  0.37686105726E+02  0.53773947826E+01  0.38088932241E+02  0.00000000000E+00 0. -1.
         11    1    1    2    0    0  0.81194473142E+02  0.76379686513E+02 -0.11517284580E+03  0.16028469481E+03  0.00000000000E+00 0.  1.
</event>
<event>
 7    1  0.2480409E-009  0.7653717E+02  0.7561462E-02  0.1339176E+00
         -2   -1    0    0    0  501 -0.00000000000E+00  0.00000000000E+00  0.24166758779E+02  0.24166758779E+02  0.00000000000E+00 0.  1.
          2   -1    0    0  501    0  0.00000000000E+00 -0.00000000000E+00 -0.62949582215E+03  0.62949582215E+03  0.00000000000E+00 0. -1.
         25    2    1    2    0    0  0.34654495458E+00 -0.17119516050E+02 -0.48641670255E+03  0.50253478436E+03  0.12508718180E+03 0.  0.
          5    1    3    3  502    0  0.44148297966E+02  0.82406222723E+01 -0.39817996471E+03  0.40072651119E+03  0.41800000000E+01 0. -1.
         -5    1    3    3    0  502 -0.43801753012E+02 -0.25360138322E+02 -0.88236737836E+02  0.10180827317E+03  0.41800000000E+01 0. -1.
        -11    1    1    2    0    0  0.92232534452E+01 -0.18300615279E+02  0.56632297895E+01  0.21261540286E+02  0.00000000000E+00 0.  1.
         11    1    1    2    0    0 -0.95697983998E+01  0.35420131329E+02 -0.12457559061E+03  0.12986625628E+03  0.00000000000E+00 0. -1.
</event>
<event>
 7    1  0.2480409E-009  0.1256183E+03  0.7561462E-02  0.1234106E+00
          2   -1    0    0  501    0  0.00000000000E+00  0.00000000000E+00  0.61326761657E+03  0.61326761657E+03  0.00000000000E+00 0. -1.
         -2   -1    0    0    0  501 -0.00000000000E+00 -0.00000000000E+00 -0.30913989602E+02  0.30913989602E+02  0.00000000000E+00 0.  1.
         25    2    1    2    0    0  0.43496483481E+02 -0.62283607888E+02  0.41027021430E+03  0.43559282978E+03  0.12509305625E+03 0.  0.
          5    1    3    3  502    0 -0.33859738056E+01 -0.83029568221E+02  0.16275808714E+03  0.18279234488E+03  0.41800000000E+01 0.  1.
         -5    1    3    3    0  502  0.46882457287E+02  0.20745960333E+02  0.24751212716E+03  0.25280048489E+03  0.41800000000E+01 0.  1.
        -11    1    1    2    0    0  0.27520789036E+02  0.16162147099E+02  0.61702263846E+02  0.69467821268E+02  0.00000000000E+00 0. -1.
         11    1    1    2    0    0 -0.71017272518E+02  0.46121460788E+02  0.11038114882E+03  0.13912095513E+03  0.00000000000E+00 0.  1.
</event>
<event>
 7    1  0.2480409E-009  0.1043108E+03  0.7561462E-02  0.1271484E+00
         -1   -1    0    0    0  501 -0.00000000000E+00  0.00000000000E+00  0.91193491745E+02  0.91193491745E+02  0.00000000000E+00 0.  1.
          1   -1    0    0  501    0  0.00000000000E+00 -0.00000000000E+00 -0.15466717601E+03  0.15466717601E+03  0.00000000000E+00 0. -1.
         25    2    1    2    0    0 -0.93756547620E+01 -0.50698375642E+02 -0.48421984748E+02  0.14370408189E+03  0.12509175173E+03 0.  0.
          5    1    3    3  502    0 -0.40855851518E+02  0.25763224180E+02 -0.14265631964E+01  0.48502080430E+02  0.41800000000E+01 0. -1.
         -5    1    3    3    0  502  0.31480196756E+02 -0.76461599823E+02 -0.46995421551E+02  0.95202001460E+02  0.41800000000E+01 0. -1.
        -11    1    1    2    0    0 -0.95114635990E+01  0.56728225207E+02 -0.40168599790E+02  0.70157507681E+02  0.00000000000E+00 0. -1.
         11    1    1    2    0    0  0.18887118361E+02 -0.60298495642E+01  0.25116900269E+02  0.31999078188E+02  0.00000000000E+00 0.  1.
</event>
<event>
 7    1  0.2480409E-009  0.1435626E+03  0.7561462E-02  0.1208614E+00
         -1   -1    0    0    0  501 -0.00000000000E+00  0.00000000000E+00  0.40060347985E+02  0.40060347985E+02  0.00000000000E+00 0.  1.
          1   -1    0    0  501    0  0.00000000000E+00 -0.00000000000E+00 -0.66918795595E+03  0.66918795595E+03  0.00000000000E+00 0. -1.
         25    2    1    2    0    0 -0.42531504568E+01  0.11581108048E+03 -0.23391229795E+03  0.28946933319E+03  0.12508891267E+03 0.  0.
          5    1    3    3  502    0 -0.60457315570E+02  0.89891007980E+02 -0.15291417881E+03  0.18744518880E+03  0.41800000000E+01 0.  1.
         -5    1    3    3    0  502  0.56204165113E+02  0.25920072505E+02 -0.80998119134E+02  0.10202414439E+03  0.41800000000E+01 0.  1.
        -11    1    1    2    0    0 -0.48569868544E+01 -0.30557891618E+02 -0.25040216326E+02  0.39804365277E+02  0.00000000000E+00 0.  1.
         11    1    1    2    0    0  0.91101373111E+01 -0.85253188866E+02 -0.37017509369E+03  0.37997460547E+03  0.00000000000E+00 0. -1.
</event>
<event>
 7    1  0.2480409E-009  0.8482788E+02  0.7561462E-02  0.1315883E+00
         -1   -1    0    0    0  501 -0.00000000000E+00  0.00000000000E+00  0.43610411723E+03  0.43610411723E+03  0.00000000000E+00 0.  1.
          1   -1    0    0  501    0  0.00000000000E+00 -0.00000000000E+00 -0.37539609531E+02  0.37539609531E+02  0.00000000000E+00 0. -1.
         25    2    1    2    0    0 -0.12295866927E+02 -0.43766476012E+01  0.97817019651E+02  0.15933101554E+03  0.12509140575E+03 0.  0.
          5    1    3    3  502    0 -0.45870555825E+02  0.51802195503E+01  0.11216001419E+03  0.12136014069E+03  0.41800000000E+01 0.  1.
         -5    1    3    3    0  502  0.33574688898E+02 -0.95568671514E+01 -0.14342994538E+02  0.37970874847E+02  0.41800000000E+01 0.  1.
        -11    1    1    2    0    0  0.21827025128E+02  0.43076471163E+02  0.12274575383E+03  0.13190345514E+03  0.00000000000E+00 0.  1.
         11    1    1    2    0    0 -0.95311582009E+01 -0.38699823562E+02  0.17800173422E+03  0.18240925608E+03  0.00000000000E+00 0. -1.
</event>
<event>
 7    1  0.2480409E-009  0.9733921E+02  0.7561462E-02  0.1285993E+00
         -1   -1    0    0    0  501 -0.00000000000E+00  0.00000000000E+00  0.66155615003E+02  0.66155615003E+02  0.00000000000E+00 0.  1.
          1   -1    0    0  501    0  0.00000000000E+00 -0.00000000000E+00 -0.34184374204E+03  0.34184374204E+03  0.00000000000E+00 0. -1.
         25    2    1    2    0    0 -0.68145724748E+02  0.13598031554E+02 -0.25412829695E+03  0.29164563656E+03  0.12508892736E+03 0.  0.
          5    1    3    3  502    0 -0.78423350684E+02  0.31692446001E+02 -0.25665894813E+03  0.27027008921E+03  0.41800000000E+01 0.  1.
         -5    1    3    3    0  502  0.10277625936E+02 -0.18094414447E+02  0.25306511782E+01  0.21375547348E+02  0.41800000000E+01 0.  1.
        -11    1    1    2    0    0  0.90521738662E+01 -0.26737437439E+02  0.26760682102E+02  0.38896870299E+02  0.00000000000E+00 0.  1.
         11    1    1    2    0    0  0.59093550882E+02  0.13139405886E+02 -0.48320512187E+02  0.77456850187E+02  0.00000000000E+00 0. -1.
</event>
<event>
 7    1  0.2480409E-009  0.1105233E+03  0.7561462E-02  0.1259604E+00
         -2   -1    0    0    0  501 -0.00000000000E+00  0.00000000000E+00  0.72957023119E+02  0.72957023119E+02  0.00000000000E+00 0.  1.
          2   -1    0    0  501    0  0.00000000000E+00 -0.00000000000E+00 -0.28457018817E+03  0.28457018817E+03  0.00000000000E+00 0. -1.
         25    2    1    2    0    0 -0.73276771734E+02  0.48587075038E+02 -0.96655372281E+02  0.18088642527E+03  0.12508976265E+03 0.  0.
          5    1    3    3  502    0 -0.25869748013E+01  0.33203086179E+01  0.29063093821E+02  0.29662311279E+02  0.41800000000E+01 0. -1.
         -5    1    3    3    0  502 -0.70689796933E+02  0.45266766420E+02 -0.12571846610E+03  0.15122411399E+03  0.41800000000E+01 0. -1.
        -11    1    1    2    0    0  0.36965994761E+02  0.27958378478E+02 -0.23475248031E+02  0.51954239153E+02  0.00000000000E+00 0. -1.
         11    1    1    2    0    0  0.36310776972E+02 -0.76545453516E+02 -0.91482544737E+02  0.12468654687E+03  0.00000000000E+00 0.  1.
</event>
<event>
 7    1  0.2480409E-009  0.1250059E+03  0.7561462E-02  0.1235060E+00
          2   -1    0    0  501    0  0.00000000000E+00  0.00000000000E+00  0.82195750412E+02  0.82195750412E+02  0.00000000000E+00 0. -1.
         -2   -1    0    0    0  501 -0.00000000000E+00 -0.00000000000E+00 -0.21370252695E+03  0.21370252695E+03  0.00000000000E+00 0.  1.
         25    2    1    2    0    0 -0.24053181295E+02 -0.69155477451E+02 -0.85034597740E+02  0.16804830504E+03  0.12509322292E+03 0.  0.
          5    1    3    3  502    0  0.16377392987E+02  0.31426996015E+02 -0.13762546850E+02  0.38245982474E+02  0.41800000000E+01 0. -1.
         -5    1    3    3    0  502 -0.40430574283E+02 -0.10058247347E+03 -0.71272050890E+02  0.12980232257E+03  0.41800000000E+01 0. -1.
        -11    1    1    2    0    0  0.27260917862E+02  0.85213449840E+02 -0.12762591024E+02  0.90373521598E+02  0.00000000000E+00 0. -1.
         11    1    1    2    0    0 -0.32077365664E+01 -0.16057972390E+02 -0.33709587776E+02  0.37476450728E+02  0.00000000000E+00 0.  1.
</event>
<event>
 7    1  0.2480409E-009  0.1174120E+03  0.7561462E-02  0.1247429E+00
          3   -1    0    0  501    0  0.00000000000E+00  0.00000000000E+00  0.64222510896E+03  0.64222510896E+03  0.00000000000E+00 0. -1.
         -3   -1    0    0    0  501 -0.00000000000E+00 -0.00000000000E+00 -0.29822686904E+02  0.29822686904E+02  0.00000000000E+00 0.  1.
         25    2    1    2    0    0 -0.14482161086E+02 -0.48812018873E+02  0.50187307103E+03  0.51972725439E+03  0.12508994105E+03 0.  0.
          5    1    3    3  502    0 -0.68498444390E+02 -0.25648064903E+02  0.33000903514E+03  0.33804333419E+03  0.41800000000E+01 0. -1.
         -5    1    3    3    0  502  0.54016283304E+02 -0.23163953971E+02  0.17186403589E+03  0.18168392020E+03  0.41800000000E+01 0. -1.
        -11    1    1    2    0    0  0.51961147423E+01 -0.26374800531E+02  0.16391779890E+02  0.31485237167E+02  0.00000000000E+00 0. -1.
         11    1    1    2    0    0  0.92860463436E+01  0.75186819404E+02  0.94137571141E+02  0.12083530432E+03  0.00000000000E+00 0.  1.
</event>
<event>
 7    1  0.2912343E-009  0.1575119E+03  0.7561462E-02  0.1191535E+00
          1   -1    0    0  501    0  0.00000000000E+00  0.00000000000E+00  0.22067151670E+03  0.22067151670E+03  0.00000000000E+00 0. -1.
         -1   -1    0    0    0  501 -0.00000000000E+00 -0.00000000000E+00 -0.15668014685E+03  0.15668014685E+03  0.00000000000E+00 0.  1.
         25    2    1    2    0    0 -0.13278788476E+03  0.69396810717E+02  0.18184629653E+02  0.19602802896E+03  0.12509103768E+03 0.  0.
          5    1    3    3  502    0 -0.91143040050E+02  0.42304761014E+02 -0.49396892588E+02  0.11204584754E+03  0.41800000000E+01 0.  1.
         -5    1    3    3    0  502 -0.41644844710E+02  0.27092049703E+02  0.67581522241E+02  0.83982181422E+02  0.41800000000E+01 0.  1.
        -11    1    1    2    0    0  0.67532978943E+02 -0.72740397690E+02  0.57846828389E+02  0.11488308951E+03  0.00000000000E+00 0. -1.
         11    1    1    2    0    0  0.65254905818E+02  0.33435869721E+01 -0.12040088191E+02  0.66440545082E+02  0.00000000000E+00 0.  1.
</event>
<event>
 7    1  0.2480409E-009  0.1179588E+03  0.7561462E-02  0.1246503E+00
          2   -1    0    0  501    0  0.00000000000E+00  0.00000000000E+00  0.25450252753E+03  0.25450252753E+03  0.00000000000E+00 0. -1.
         -2   -1    0    0    0  501 -0.00000000000E+00 -0.00000000000E+00 -0.56861111817E+02  0.56861111817E+02  0.00000000000E+00 0.  1.
         25    2    1    2    0    0  0.51440870887E+02 -0.17452788803E+02  0.10610138270E+03  0.17278577805E+03  0.12508660460E+03 0.  0.
          5    1    3    3  502    0 -0.39296024435E+02 -0.75117485565E+00  0.12902696462E+02  0.41577563373E+02  0.41800000000E+01 0. -1.
         -5    1    3    3    0  502  0.90736895321E+02 -0.16701613947E+02  0.93198686241E+02  0.13120821467E+03  0.41800000000E+01 0. -1.
        -11    1    1    2    0    0 -0.66294689415E+02  0.39710376517E+02  0.67556551345E+02  0.10264398413E+03  0.00000000000E+00 0.  1.
         11    1    1    2    0    0  0.14853818528E+02 -0.22257587714E+02  0.23983481661E+02  0.35933877168E+02  0.00000000000E+00 0. -1.
</event>
<event>
 7    1  0.2480409E-009  0.2313352E+03  0.7561462E-02  0.1125704E+00
          1   -1    0    0  501    0  0.00000000000E+00  0.00000000000E+00  0.61698811493E+03  0.61698811493E+03  0.00000000000E+00 0. -1.
         -1   -1    0    0    0  501 -0.00000000000E+00 -0.00000000000E+00 -0.10318612068E+03  0.10318612068E+03  0.00000000000E+00 0.  1.
         25    2    1    2    0    0  0.15531981158E+03 -0.15598919052E+03  0.34611917689E+03  0.42883790486E+03  0.12508634061E+03 0.  0.
          5    1    3    3  502    0  0.55978521958E+02 -0.93734900597E+02  0.26378770161E+03  0.28551926456E+03  0.41800000000E+01 0.  1.
         -5    1    3    3    0  502  0.99341289623E+02 -0.62254289926E+02  0.82331475281E+02  0.14331864031E+03  0.41800000000E+01 0.  1.
        -11    1    1    2    0    0 -0.45945620060E+02  0.10662663523E+03  0.10196312365E+03  0.15452093039E+03  0.00000000000E+00 0.  1.
         11    1    1    2    0    0 -0.10937419152E+03  0.49362555292E+02  0.65719693704E+02  0.13681540036E+03  0.00000000000E+00 0. -1.
</event>
<event>
 7    1  0.2480409E-009  0.2283454E+03  0.7561462E-02  0.1127810E+00
         -2   -1    0    0    0  501 -0.00000000000E+00  0.00000000000E+00  0.57530520713E+02  0.57530520713E+02  0.00000000000E+00 0. -1.
          2   -1    0    0  501    0  0.00000000000E+00 -0.00000000000E+00 -0.10094001572E+04  0.10094001572E+04  0.00000000000E+00 0.  1.
         25    2    1    2    0    0  0.20588559936E+03  0.21098123852E+02 -0.36113672329E+03  0.43462722451E+03  0.12508829093E+03 0.  0.
          5    1    3    3  502    0  0.11366825981E+03  0.73633757970E+02 -0.19575468100E+03  0.23807513758E+03  0.41800000000E+01 0. -1.
         -5    1    3    3    0  502  0.92217339550E+02 -0.52535634118E+02 -0.16538204229E+03  0.19655208693E+03  0.41800000000E+01 0. -1.
        -11    1    1    2    0    0 -0.15719189635E+03  0.94827930528E+01 -0.50571407661E+03  0.52966587858E+03  0.00000000000E+00 0.  1.
         11    1    1    2    0    0 -0.48693703011E+02 -0.30580916905E+02 -0.85018836597E+02  0.10263757484E+03  0.00000000000E+00 0. -1.
</event>
<event>
 7    1  0.2480409E-009  0.1175894E+03  0.7561462E-02  0.1247128E+00
          2   -1    0    0  501    0  0.00000000000E+00  0.00000000000E+00  0.51840359930E+03  0.51840359930E+03  0.00000000000E+00 0. -1.
         -2   -1    0    0    0  501 -0.00000000000E+00 -0.00000000000E+00 -0.32627945155E+02  0.32627945155E+02  0.00000000000E+00 0.  1.
         25    2    1    2    0    0  0.52259746440E+02 -0.12712647331E+02  0.23371039110E+03  0.27047481432E+03  0.12507352149E+03 0.  0.
          5    1    3    3  502    0  0.30742974639E+02 -0.60466032101E+02  0.19110073898E+03  0.20282563044E+03  0.41800000000E+01 0.  1.
         -5    1    3    3    0  502  0.21516771801E+02  0.47753384770E+02  0.42609652119E+02  0.67649183878E+02  0.41800000000E+01 0.  1.
        -11    1    1    2    0    0 -0.81747780950E+02 -0.18868184987E+01  0.12553090256E+03  0.14981410906E+03  0.00000000000E+00 0.  1.
         11    1    1    2    0    0  0.29488034510E+02  0.14599465830E+02  0.12653436048E+03  0.13074262107E+03  0.00000000000E+00 0. -1.
</event>
<event>
 7    1  0.2480409E-009  0.1004803E+03  0.7561462E-02  0.1279289E+00
          1   -1    0    0  501    0  0.00000000000E+00  0.00000000000E+00  0.43493022170E+03  0.43493022170E+03  0.00000000000E+00 0. -1.
         -1   -1    0    0    0  501 -0.00000000000E+00 -0.00000000000E+00 -0.35333708494E+02  0.35333708494E+02  0.00000000000E+00 0.  1.
         25    2    1    2    0    0  0.51242487201E+01  0.51293510743E+02  0.16461883148E+03  0.21308051944E+03  0.12508663364E+03 0.  0.
          5    1    3    3  502    0 -0.51011017216E+01 -0.21685761410E+02 -0.90275949518E+01  0.24398019537E+02  0.41800000000E+01 0. -1.
         -5    1    3    3    0  502  0.10225350442E+02  0.72979272153E+02  0.17364642643E+03  0.18868249990E+03  0.41800000000E+01 0. -1.
        -11    1    1    2    0    0  0.25317988951E+02 -0.65989612343E+02  0.16288884039E+03  0.17756239418E+03  0.00000000000E+00 0.  1.
         11    1    1    2    0    0 -0.30442237671E+02  0.14696101600E+02  0.72088841335E+02  0.79621016583E+02  0.00000000000E+00 0. -1.
</event>
<event>
 7    1  0.2480409E-009  0.9375428E+02  0.7561462E-02  0.1294007E+00
         -1   -1    0    0    0  501 -0.00000000000E+00  0.00000000000E+00  0.19705864537E+03  0.19705864537E+03  0.00000000000E+00 0.  1.
          1   -1    0    0  501    0  0.00000000000E+00 -0.00000000000E+00 -0.13266551319E+03  0.13266551319E+03  0.00000000000E+00 0. -1.
         25    2    1    2    0    0  0.37557330648E+02  0.66540683254E+02 -0.60135848931E+02  0.15843465846E+03  0.12508798927E+03 0.  0.
          5    1    3    3  502    0  0.39109181711E+02  0.53629491796E+02  0.25862564693E+02  0.71358217025E+02  0.41800000000E+01 0. -1.
         -5    1    3    3    0  502 -0.15518510631E+01  0.12911191458E+02 -0.85998413625E+02  0.87076441432E+02  0.41800000000E+01 0. -1.
        -11    1    1    2    0    0  0.82670065947E+01 -0.60569231299E+02  0.10419070636E+03  0.12080015923E+03  0.00000000000E+00 0.  1.
         11    1    1    2    0    0 -0.45824337243E+02 -0.59714519550E+01  0.20338274738E+02  0.50489340870E+02  0.00000000000E+00 0. -1.
</event>
<event>
 7    1  0.3260560E-009  0.2100509E+03  0.7561462E-02  0.1141526E+00
         -1   -1    0    0    0  501 -0.00000000000E+00  0.00000000000E+00  0.50882273196E+02  0.50882273196E+02  0.00000000000E+00 0.  1.
          1   -1    0    0  501    0  0.00000000000E+00 -0.00000000000E+00 -0.89856766999E+03  0.89856766999E+03  0.00000000000E+00 0. -1.
         25    2    1    2    0    0 -0.18208164786E+03 -0.24777703150E+02 -0.42344375701E+03  0.47824494400E+03  0.12508377211E+03 0.  0.
          5    1    3    3  502    0 -0.19952913086E+03 -0.24560671730E+02 -0.40674778376E+03  0.45373597240E+03  0.41800000000E+01 0. -1.
         -5    1    3    3    0  502  0.17447483002E+02 -0.21703141971E+00 -0.16695973249E+02  0.24508971592E+02  0.41800000000E+01 0. -1.
        -11    1    1    2    0    0  0.96926529528E+02  0.54119748721E+02 -0.18736698780E+03  0.21778449772E+03  0.00000000000E+00 0.  1.
         11    1    1    2    0    0  0.85155118329E+02 -0.29342045572E+02 -0.23687465198E+03  0.25342050148E+03  0.00000000000E+00 0. -1.
</event>
<event>
 7    1  0.2480409E-009  0.8955072E+02  0.7561462E-02  0.1303943E+00
         -1   -1    0    0    0  501 -0.00000000000E+00  0.00000000000E+00  0.68179103271E+02  0.68179103271E+02  0.00000000000E+00 0.  1.
          1   -1    0    0  501    0  0.00000000000E+00 -0.00000000000E+00 -0.22628568063E+03  0.22628568063E+03  0.00000000000E+00 0. -1.
         25    2    1    2    0    0  0.29496637769E+01  0.59510311638E+02 -0.10426235595E+03  0.17339894402E+03  0.12508547962E+03 0.  0.
          5    1    3    3  502    0  0.77667604520E+01  0.71851349699E+02 -0.43454768343E+01  0.72520994135E+02  0.41800000000E+01 0.  1.
         -5    1    3    3    0  502 -0.48170966752E+01 -0.12341038061E+02 -0.99916879116E+02  0.10087794989E+03  0.41800000000E+01 0.  1.
        -11    1    1    2    0    0  0.13896143927E+02  0.12605607654E+02  0.11748888801E+02  0.22136859498E+02  0.00000000000E+00 0.  1.
         11    1    1    2    0    0 -0.16845807704E+02 -0.72115919292E+02 -0.65593110207E+02  0.98928980381E+02  0.00000000000E+00 0. -1.
</event>
<event>
 7    1  0.2480409E-009  0.1612133E+03  0.7561462E-02  0.1187334E+00
          3   -1    0    0  501    0  0.00000000000E+00  0.00000000000E+00  0.13637195624E+03  0.13637195624E+03  0.00000000000E+00 0. -1.
         -3   -1    0    0    0  501 -0.00000000000E+00 -0.00000000000E+00 -0.42194007344E+03  0.42194007344E+03  0.00000000000E+00 0.  1.
         25    2    1    2    0    0 -0.62011159798E+02  0.10820550590E+03 -0.34896113278E+03  0.39112119105E+03  0.12509235967E+03 0.  0.
          5    1    3    3  502    0  0.35870437231E+02  0.51735169411E+02 -0.13887258281E+03  0.15253289047E+03  0.41800000000E+01 0.  1.
         -5    1    3    3    0  502 -0.97881597028E+02  0.56470336491E+02 -0.21008854998E+03  0.23858830058E+03  0.41800000000E+01 0.  1.
        -11    1    1    2    0    0 -0.16586145580E+02 -0.35506729234E+02  0.43041503670E+02  0.58209956917E+02  0.00000000000E+00 0. -1.
         11    1    1    2    0    0  0.78597305378E+02 -0.72698776668E+02  0.20351511917E+02  0.10898088171E+03  0.00000000000E+00 0.  1.
</event>
<event>
 7    1  0.2480409E-009  0.1225935E+03  0.7561462E-02  0.1238879E+00
          2   -1    0    0  501    0  0.00000000000E+00  0.00000000000E+00  0.45562797190E+02  0.45562797190E+02  0.00000000000E+00 0. -1.
         -2   -1    0    0    0  501 -0.00000000000E+00 -0.00000000000E+00 -0.43213663853E+03  0.43213663853E+03  0.00000000000E+00 0.  1.
         25    2    1    2    0    0 -0.67733899578E+02  0.48899189544E+02 -0.18039252632E+03  0.23487865559E+03  0.12508999724E+03 0.  0.
          5    1    3    3  502    0 -0.34339751644E+02 -0.40569732002E+02 -0.49143637924E+02  0.72509938947E+02  0.41800000000E+01 0.  1.
         -5    1    3    3    0  502 -0.33394147934E+02  0.89468921546E+02 -0.13124888839E+03  0.16236871664E+03  0.41800000000E+01 0.  1.
        -11    1    1    2    0    0  0.58851555549E+02 -0.58653751530E+02 -0.21251929000E+03  0.22818461118E+03  0.00000000000E+00 0.  1.
         11    1    1    2    0    0  0.88823440290E+01  0.97545619859E+01  0.63379749698E+01  0.14636168956E+02  0.00000000000E+00 0. -1.
</event>
<event>
 7    1  0.2480409E-009  0.1108196E+03  0.7561462E-02  0.1259060E+00
         -1   -1    0    0    0  501 -0.00000000000E+00  0.00000000000E+00  0.87755755669E+02  0.87755755669E+02  0.00000000000E+00 0.  1.
          1   -1    0    0  501    0  0.00000000000E+00 -0.00000000000E+00 -0.15497202309E+03  0.15497202309E+03  0.00000000000E+00 0. -1.
         25    2    1    2    0    0 -0.35303625344E+02  0.27144565101E+02 -0.32175121673E+02  0.13662189821E+03  0.12508849363E+03 0.  0.
          5    1    3    3  502    0 -0.45690420922E+02 -0.41914066024E+02 -0.82790553830E+01  0.62693051072E+02  0.41800000000E+01 0. -1.
         -5    1    3    3    0  502  0.10386795578E+02  0.69058631125E+02 -0.23896066290E+02  0.73928847139E+02  0.41800000000E+01 0. -1.
        -11    1    1    2    0    0 -0.20176282354E+02  0.10248469349E+02  0.10727686938E+02  0.25043896675E+02  0.00000000000E+00 0.  1.
         11    1    1    2    0    0  0.55479907698E+02 -0.37393034450E+02 -0.45768832682E+02  0.81061983868E+02  0.00000000000E+00 0. -1.
</event>
<event>
 7    1  0.2480409E-009  0.8776283E+02  0.7561462E-02  0.1308362E+00
          1   -1    0    0  501    0  0.00000000000E+00  0.00000000000E+00  0.19765694702E+03  0.19765694702E+03  0.00000000000E+00 0. -1.
         -1   -1    0    0    0  501 -0.00000000000E+00 -0.00000000000E+00 -0.63515492737E+02  0.63515492737E+02  0.00000000000E+00 0.  1.
         25    2    1    2    0    0  0.13306172039E+02  0.21888986830E+02  0.66684462013E+02  0.14404789484E+03  0.12508715591E+03 0.  0.
          5    1    3    3  502    0  0.16276327520E+02 -0.35212950586E+02  0.76506188767E+02  0.85880964399E+02  0.41800000000E+01 0. -1.
         -5    1    3    3    0  502 -0.29701554807E+01  0.57101937416E+02 -0.98217267539E+01  0.58166930439E+02  0.41800000000E+01 0. -1.
        -11    1    1    2    0    0  0.31096583830E+02 -0.13896481277E+02 -0.22019153529E+01  0.34131483252E+02  0.00000000000E+00 0.  1.
         11    1    1    2    0    0 -0.44402755869E+02 -0.79925055528E+01  0.69658907627E+02  0.82993061671E+02  0.00000000000E+00 0. -1.
</event>
<event>
 7    1  0.2480409E-009  0.8755915E+02  0.7561462E-02  0.1308873E+00
          1   -1    0    0  501    0  0.00000000000E+00  0.00000000000E+00  0.67733844328E+02  0.67733844328E+02  0.00000000000E+00 0. -1.
         -1   -1    0    0    0  501 -0.00000000000E+00 -0.00000000000E+00 -0.23532524151E+03  0.23532524151E+03  0.00000000000E+00 0.  1.
         25    2    1    2    0    0  0.62974834422E+02  0.15789138232E+01 -0.65075168961E+02  0.15443760388E+03  0.12509145910E+03 0.  0.
          5    1    3    3  502    0  0.18457043817E+02  0.39230814437E+02  0.22593533823E+02  0.49067906400E+02  0.41800000000E+01 0. -1.
         -5    1    3    3    0  502  0.44517790605E+02 -0.37651900614E+02 -0.87668702784E+02  0.10536969748E+03  0.41800000000E+01 0. -1.
        -11    1    1    2    0    0 -0.55213761461E+02 -0.15342440009E+02 -0.14383188117E+02  0.59083212679E+02  0.00000000000E+00 0. -1.
         11    1    1    2    0    0 -0.77610729615E+01  0.13763526186E+02 -0.88133040109E+02  0.89538269279E+02  0.00000000000E+00 0.  1.
</event>
<event>
 7    1  0.2480409E-009  0.1566463E+03  0.7561462E-02  0.1192536E+00
         -2   -1    0    0    0  501 -0.00000000000E+00  0.00000000000E+00  0.65310257586E+02  0.65310257586E+02  0.00000000000E+00 0. -1.
          2   -1    0    0  501    0  0.00000000000E+00 -0.00000000000E+00 -0.47479260463E+03  0.47479260463E+03  0.00000000000E+00 0.  1.
         25    2    1    2    0    0 -0.91273228000E+02 -0.83592220646E+02 -0.30606909179E+03  0.35304863601E+03  0.12508632595E+03 0.  0.
          5    1    3    3  502    0  0.26544460004E+02 -0.38363784869E+02 -0.56793383514E+02  0.73616228899E+02  0.41800000000E+01 0.  1.
         -5    1    3    3    0  502 -0.11781768800E+03 -0.45228435778E+02 -0.24927570827E+03  0.27943240711E+03  0.41800000000E+01 0.  1.
        -11    1    1    2    0    0  0.40317737450E+02 -0.22248188104E+01  0.38230847839E+01  0.40559656669E+02  0.00000000000E+00 0.  1.
         11    1    1    2    0    0  0.50955490550E+02  0.85817039457E+02 -0.10723634004E+03  0.14649456954E+03  0.00000000000E+00 0. -1.
</event>
<event>
 7    1  0.2480409E-009  0.1202748E+03  0.7561462E-02  0.1242644E+00
         -2   -1    0    0    0  501 -0.00000000000E+00  0.00000000000E+00  0.12489341031E+02  0.12489341031E+02  0.00000000000E+00 0.  1.
          2   -1    0    0  501    0  0.00000000000E+00 -0.00000000000E+00 -0.15790042932E+04  0.15790042932E+04  0.00000000000E+00 0. -1.
         25    2    1    2    0    0 -0.67325721331E+02 -0.19619330641E+02 -0.11632539577E+04  0.11720602753E+04  0.12509135851E+03 0.  0.
          5    1    3    3  502    0  0.30183661474E+02 -0.17618672550E+02 -0.54612638123E+03  0.54725950674E+03  0.41800000000E+01 0.  1.
         -5    1    3    3    0  502 -0.97509382805E+02 -0.20006580909E+01 -0.61712757642E+03  0.62480076852E+03  0.41800000000E+01 0.  1.
        -11    1    1    2    0    0  0.64137941151E+02  0.47410213583E+02 -0.35313784685E+03  0.36203279233E+03  0.00000000000E+00 0. -1.
         11    1    1    2    0    0  0.31877801804E+01 -0.27790882942E+02 -0.50123147639E+02  0.57400566604E+02  0.00000000000E+00 0.  1.
</event>
<event>
 7    1  0.2480409E-009  0.1004165E+03  0.7561462E-02  0.1279423E+00
          2   -1    0    0  501    0  0.00000000000E+00  0.00000000000E+00  0.45079918054E+02  0.45079918054E+02  0.00000000000E+00 0. -1.
         -2   -1    0    0    0  501 -0.00000000000E+00 -0.00000000000E+00 -0.35445265962E+03  0.35445265962E+03  0.00000000000E+00 0.  1.
         25    2    1    2    0    0 -0.10334219045E+02 -0.50114986228E+02 -0.22748869847E+03  0.26460068046E+03  0.12507639361E+03 0.  0.
          5    1    3    3  502    0  0.11947931501E+02 -0.66479993017E+02 -0.48052573347E+02  0.82999185201E+02  0.41800000000E+01 0. -1.
         -5    1    3    3    0  502 -0.22282150545E+02  0.16365006788E+02 -0.17943612512E+03  0.18160149525E+03  0.41800000000E+01 0. -1.
        -11    1    1    2    0    0 -0.28904586505E+02  0.58338960019E+02 -0.63067366720E+02  0.90644371707E+02  0.00000000000E+00 0.  1.
         11    1    1    2    0    0  0.39238805549E+02 -0.82239737910E+01 -0.18816676374E+02  0.44287525508E+02  0.00000000000E+00 0. -1.
</event>
<event>
 7    1  0.2480409E-009  0.5921889E+02  0.7561462E-02  0.1401139E+00
         -1   -1    0    0    0  501 -0.00000000000E+00  0.00000000000E+00  0.10967432726E+03  0.10967432726E+03  0.00000000000E+00 0.  1.
          1   -1    0    0  501    0  0.00000000000E+00 -0.00000000000E+00 -0.10600544965E+03  0.10600544965E+03  0.00000000000E+00 0. -1.
         25    2    1    2    0    0 -0.11816383988E+02 -0.45110245871E-01 -0.11349946615E+02  0.12615723336E+03  0.12508875759E+03 0.  0.
          5    1    3    3  502    0 -0.37010861496E+02  0.19331682625E+02  0.44872611016E+02  0.61437296825E+02  0.41800000000E+01 0. -1.
         -5    1    3    3    0  502  0.25194477508E+02 -0.19376792871E+02 -0.56222557631E+02  0.64719936537E+02  0.41800000000E+01 0. -1.
        -11    1    1    2    0    0 -0.16161322189E+02 -0.23701405198E+01 -0.31328825904E+02  0.35331306705E+02  0.00000000000E+00 0. -1.
         11    1    1    2    0    0  0.27977706177E+02  0.24152507656E+01  0.46347650128E+02  0.54191236853E+02  0.00000000000E+00 0.  1.
</event>
<event>
 7    1  0.2480409E-009  0.1578413E+03  0.7561462E-02  0.1191156E+00
          2   -1    0    0  501    0  0.00000000000E+00  0.00000000000E+00  0.24417479913E+03  0.24417479913E+03  0.00000000000E+00 0. -1.
         -2   -1    0    0    0  501 -0.00000000000E+00 -0.00000000000E+00 -0.14455790306E+03  0.14455790306E+03  0.00000000000E+00 0.  1.
         25    2    1    2    0    0 -0.53712655349E+01  0.14759534746E+03  0.11677107035E+02  0.19390095686E+03  0.12509192283E+03 0.  0.
          5    1    3    3  502    0  0.25082513486E+02  0.47109045988E+02  0.58115463190E+02  0.79014392097E+02  0.41800000000E+01 0. -1.
         -5    1    3    3    0  502 -0.30453779021E+02  0.10048630147E+03 -0.46438356155E+02  0.11488656476E+03  0.41800000000E+01 0. -1.
        -11    1    1    2    0    0  0.17687392852E+02 -0.13105935040E+02 -0.13591101284E+02  0.25871363189E+02  0.00000000000E+00 0.  1.
         11    1    1    2    0    0 -0.12316127317E+02 -0.13448941242E+03  0.10153089032E+03  0.16896038214E+03  0.00000000000E+00 0. -1.
</event>
<event>
 7    1  0.2480409E-009  0.9905175E+02  0.7561462E-02  0.1282303E+00
          2   -1    0    0  501    0  0.00000000000E+00  0.00000000000E+00  0.11340414804E+04  0.11340414804E+04  0.00000000000E+00 0. -1.
         -2   -1    0    0    0  501 -0.00000000000E+00 -0.00000000000E+00 -0.16704328790E+02  0.16704328790E+02  0.00000000000E+00 0.  1.
         25    2    1    2    0    0 -0.50765139797E+02 -0.47569035694E+02  0.79750835995E+03  0.81025058974E+03  0.12508605602E+03 0.  0.
          5    1    3    3  502    0 -0.36057235759E+02 -0.55221376435E+01  0.71862650383E+03  0.71956385586E+03  0.41800000000E+01 0.  1.
         -5    1    3    3    0  502 -0.14707904038E+02 -0.42046898051E+02  0.78881856116E+02  0.90686733877E+02  0.41800000000E+01 0.  1.
        -11    1    1    2    0    0 -0.14047033583E+02  0.49852758484E+02  0.15124271471E+03  0.15986549169E+03  0.00000000000E+00 0.  1.
         11    1    1    2    0    0  0.64812173380E+02 -0.22837227896E+01  0.16858607695E+03  0.18062972776E+03  0.00000000000E+00 0. -1.
</event>
<event>
 7    1  0.2480409E-009  0.1065622E+03  0.7561462E-02  0.1267072E+00
          1   -1    0    0  501    0  0.00000000000E+00  0.00000000000E+00  0.16628767310E+03  0.16628767310E+03  0.00000000000E+00 0. -1.
         -1   -1    0    0    0  501 -0.00000000000E+00 -0.00000000000E+00 -0.86949314660E+02  0.86949314660E+02  0.00000000000E+00 0.  1.
         25    2    1    2    0    0 -0.37659651692E+02  0.34185144810E+02  0.63827450203E+02  0.14937315116E+03  0.12510604061E+03 0.  0.
          5    1    3    3  502    0  0.38073663364E+02 -0.13743405469E+02  0.26526376605E+01  0.40779822491E+02  0.41800000000E+01 0. -1.
         -5    1    3    3    0  502 -0.75733315056E+02  0.47928550279E+02  0.61174812543E+02  0.10859332867E+03  0.41800000000E+01 0. -1.
        -11    1    1    2    0    0 -0.13173123363E+01  0.17736186969E+02  0.32239746246E+02  0.36819952173E+02  0.00000000000E+00 0. -1.
         11    1    1    2    0    0  0.38976964028E+02 -0.51921331779E+02 -0.16728838008E+02  0.67043884431E+02  0.00000000000E+00 0.  1.
</event>
<event>
 7    1  0.2480409E-009  0.6234040E+02  0.7561462E-02  0.1388265E+00
          1   -1    0    0  501    0  0.00000000000E+00  0.00000000000E+00  0.40913465393E+03  0.40913465393E+03  0.00000000000E+00 0. -1.
         -1   -1    0    0    0  501 -0.00000000000E+00 -0.00000000000E+00 -0.35423811396E+02  0.35423811396E+02  0.00000000000E+00 0.  1.
         25    2    1    2    0    0 -0.33210905052E+02  0.35651109294E+02  0.25340749506E+03  0.28676975021E+03  0.12509022854E+03 0.  0.
          5    1    3    3  502    0 -0.83480507150E+01  0.40717957314E+02  0.25738063889E+03  0.26074874434E+03  0.41800000000E+01 0.  1.
         -5    1    3    3    0  502 -0.24862854337E+02 -0.50668480198E+01 -0.39731438332E+01  0.26021005871E+02  0.41800000000E+01 0.  1.
        -11    1    1    2    0    0  0.17997504563E+02 -0.37761652209E+02  0.13200849210E+03  0.13847777632E+03  0.00000000000E+00 0. -1.
         11    1    1    2    0    0  0.15213400489E+02  0.21105429149E+01 -0.11705144635E+02  0.19310938785E+02  0.00000000000E+00 0.  1.
</event>
<event>
 7    1  0.2480409E-009  0.8680508E+02  0.7561462E-02  0.1310778E+00
          1   -1    0    0  501    0  0.00000000000E+00  0.00000000000E+00  0.94155816025E+02  0.94155816025E+02  0.00000000000E+00 0. -1.
         -1   -1    0    0    0  501 -0.00000000000E+00 -0.00000000000E+00 -0.18165177173E+03  0.18165177173E+03  0.00000000000E+00 0.  1.
         25    2    1    2    0    0  0.36089213496E+02  0.41526793654E+01 -0.11289796799E+03  0.17237534955E+03  0.12509050276E+03 0.  0.
          5    1    3    3  502    0  0.58655796430E+02  0.20408053278E+01 -0.13064699133E+03  0.14328564507E+03  0.41800000000E+01 0. -1.
         -5    1    3    3    0  502 -0.22566582934E+02  0.21118740376E+01  0.17749023338E+02  0.29089704480E+02  0.41800000000E+01 0. -1.
        -11    1    1    2    0    0 -0.47658126947E+02  0.29559485523E+02 -0.53793822440E+01  0.56338246350E+02  0.00000000000E+00 0.  1.
         11    1    1    2    0    0  0.11568913452E+02 -0.33712164888E+02  0.30781394526E+02  0.47093991855E+02  0.00000000000E+00 0. -1.
</event>
<event>
 7    1  0.2480409E-009  0.1074397E+03  0.7561462E-02  0.1265386E+00
         -4   -1    0    0    0  501 -0.00000000000E+00  0.00000000000E+00  0.35361316542E+02  0.35361316542E+02  0.00000000000E+00 0.  1.
          4   -1    0    0  501    0  0.00000000000E+00 -0.00000000000E+00 -0.58174741268E+03  0.58174741268E+03  0.00000000000E+00 0. -1.
         25    2    1    2    0    0 -0.39232040965E+02  0.82188801619E+02 -0.33997761218E+03  0.37352971885E+03  0.12508206078E+03 0.  0.
          5    1    3    3  502    0  0.14234341903E+01 -0.13462134799E+02  0.35450072540E+01  0.14604612788E+02  0.41800000000E+01 0.  1.
         -5    1    3    3    0  502 -0.40655475155E+02  0.95650936418E+02 -0.34352261943E+03  0.35892510606E+03  0.41800000000E+01 0.  1.
        -11    1    1    2    0    0  0.36978908358E+02 -0.40106407676E+02 -0.19111307528E+03  0.19874649970E+03  0.00000000000E+00 0. -1.
         11    1    1    2    0    0  0.22531326074E+01 -0.42082393944E+02 -0.15295408676E+02  0.44832510672E+02  0.00000000000E+00 0.  1.
</event>
<event>
 7    1  0.2999343E-009  0.7383199E+02  0.7561462E-02  0.1347527E+00
          1   -1    0    0  501    0  0.00000000000E+00  0.00000000000E+00  0.28929550277E+02  0.28929550277E+02  0.00000000000E+00 0. -1.
         -1   -1    0    0    0  501 -0.00000000000E+00 -0.00000000000E+00 -0.64649573580E+03  0.64649573580E+03  0.00000000000E+00 0.  1.
         25    2    1    2    0    0  0.23268617270E+02  0.29912200430E+02 -0.52089329553E+03  0.53703992949E+03  0.12508354111E+03 0.  0.
          5    1    3    3  502    0  0.33088406865E+02 -0.94640210984E+01 -0.47239016559E+03  0.47366058662E+03  0.41800000000E+01 0.  1.
         -5    1    3    3    0  502 -0.98197895952E+01  0.39376221529E+02 -0.48503129935E+02  0.63379342873E+02  0.41800000000E+01 0.  1.
        -11    1    1    2    0    0 -0.34913465209E+02 -0.42532527660E+02 -0.10556631281E+03  0.11904710144E+03  0.00000000000E+00 0.  1.
         11    1    1    2    0    0  0.11644847939E+02  0.12620327230E+02  0.88934228094E+01  0.19338255148E+02  0.00000000000E+00 0. -1.
</event>
<event>
 7    1  0.2480409E-009  0.1657340E+03  0.7561462E-02  0.1182371E+00
          2   -1    0    0  501    0  0.00000000000E+00  0.00000000000E+00  0.45196594751E+03  0.45196594751E+03  0.00000000000E+00 0. -1.
         -2   -1    0    0    0  501 -0.00000000000E+00 -0.00000000000E+00 -0.84675815439E+02  0.84675815439E+02  0.00000000000E+00 0.  1.
         25    2    1    2    0    0  0.87984107802E+02 -0.10208278634E+03  0.31965211063E+03  0.36876247689E+03  0.12508474744E+03 0.  0.
          5    1    3    3  502    0  0.82423477507E+02 -0.30582171411E+01  0.17259809715E+03  0.19133885616E+03  0.41800000000E+01 0. -1.
         -5    1    3    3    0  502  0.55606302945E+01 -0.99024569195E+02  0.14705401348E+03  0.17742362073E+03  0.41800000000E+01 0. -1.
        -11    1    1    2    0    0 -0.97192454789E+02  0.80686511796E+02  0.14182723696E+02  0.12711347728E+03  0.00000000000E+00 0.  1.
         11    1    1    2    0    0  0.92083469870E+01  0.21396274541E+02  0.33455297748E+02  0.40765808784E+02  0.00000000000E+00 0. -1.
</event>
<event>
 7    1  0.2480409E-009  0.1012904E+03  0.7561462E-02  0.1277606E+00
         -1   -1    0    0    0  501 -0.00000000000E+00  0.00000000000E+00  0.64724210832E+02  0.64724210832E+02  0.00000000000E+00 0.  1.
          1   -1    0    0  501    0  0.00000000000E+00 -0.00000000000E+00 -0.21082755071E+03  0.21082755071E+03  0.00000000000E+00 0. -1.
         25    2    1    2    0    0  0.72507105485E+01 -0.73935854229E+01 -0.13062139876E+03  0.18115472693E+03  0.12509135608E+03 0.  0.
          5    1    3    3  502    0  0.65898882967E+02  0.55189242687E+00 -0.73276728830E+02  0.98640350514E+02  0.41800000000E+01 0. -1.
         -5    1    3    3    0  502 -0.58648172418E+02 -0.79454778498E+01 -0.57344669931E+02  0.82514376419E+02  0.41800000000E+01 0. -1.
        -11    1    1    2    0    0  0.15462373806E+02 -0.29836013012E+02  0.19176520673E+02  0.38691234425E+02  0.00000000000E+00 0.  1.
         11    1    1    2    0    0 -0.22713084355E+02  0.37229598435E+02 -0.34658461792E+02  0.55705800186E+02  0.00000000000E+00 0. -1.
</event>
<event>
 7    1  0.2480409E-009  0.1297314E+03  0.7561462E-02  0.1227855E+00
          2   -1    0    0  501    0  0.00000000000E+00  0.00000000000E+00  0.24568840237E+03  0.24568840237E+03  0.00000000000E+00 0. -1.
         -2   -1    0    0    0  501 -0.00000000000E+00 -0.00000000000E+00 -0.17131222051E+03  0.17131222051E+03  0.00000000000E+00 0.  1.
         25    2    1    2    0    0  0.76667002385E+02  0.74331126404E+02  0.17897142225E+03  0.24306959904E+03  0.12509642036E+03 0.  0.
          5    1    3    3  502    0  0.59908434263E+02  0.95699776833E+02  0.75195053041E+02  0.13571748665E+03  0.41800000000E+01 0. -1.
         -5    1    3    3    0  502  0.16758568122E+02 -0.21368650429E+02  0.10377636921E+03  0.10735211238E+03  0.41800000000E+01 0. -1.
        -11    1    1    2    0    0 -0.54607941346E+02 -0.16402592676E+02 -0.95576224504E+02  0.11129189995E+03  0.00000000000E+00 0.  1.
         11    1    1    2    0    0 -0.22059061040E+02 -0.57928533728E+02 -0.90190158909E+01  0.62639123888E+02  0.00000000000E+00 0. -1.
</event>
<event>
 7    1  0.2480409E-009  0.1149783E+03  0.7561462E-02  0.1251619E+00
         -1   -1    0    0    0  501 -0.00000000000E+00  0.00000000000E+00  0.31759687884E+02  0.31759687884E+02  0.00000000000E+00 0.  1.
          1   -1    0    0  501    0  0.00000000000E+00 -0.00000000000E+00 -0.50513366165E+03  0.50513366165E+03  0.00000000000E+00 0. -1.
         25    2    1    2    0    0 -0.28113269549E+01  0.61743102951E+02 -0.22772088629E+03  0.26706589878E+03  0.12508907993E+03 0.  0.
          5    1    3    3  502    0 -0.52394302947E+02  0.27425670797E+02 -0.44490587298E+02  0.74122973214E+02  0.41800000000E+01 0. -1.
         -5    1    3    3    0  502  0.49582975992E+02  0.34317432153E+02 -0.18323029900E+03  0.19294292557E+03  0.41800000000E+01 0. -1.
        -11    1    1    2    0    0 -0.43183076080E+02 -0.18108258644E+02 -0.83718252497E+02  0.95924099641E+02  0.00000000000E+00 0.  1.
         11    1    1    2    0    0  0.45994403034E+02 -0.43634844307E+02 -0.16193483498E+03  0.17390335111E+03  0.00000000000E+00 0. -1.
</event>
<event>
 7    1  0.2480409E-009  0.7618303E+02  0.7561462E-02  0.1340246E+00
          2   -1    0    0  501    0  0.00000000000E+00  0.00000000000E+00  0.13258142198E+03  0.13258142198E+03  0.00000000000E+00 0. -1.
         -2   -1    0    0    0  501 -0.00000000000E+00 -0.00000000000E+00 -0.12749305633E+03  0.12749305633E+03  0.00000000000E+00 0.  1.
         25    2    1    2    0    0  0.16771754892E+02  0.68855518669E+02  0.10959762933E+02  0.14418840586E+03  0.12509118981E+03 0.  0.
          5    1    3    3  502    0 -0.12760082473E+01  0.33531534322E+02 -0.56484083091E+02  0.65832484638E+02  0.41800000000E+01 0.  1.
         -5    1    3    3    0  502  0.18047763139E+02  0.35323984347E+02  0.67443846024E+02  0.78355921224E+02  0.41800000000E+01 0.  1.
        -11    1    1    2    0    0 -0.56193511896E+01 -0.67146530795E+02  0.33272592545E+02  0.75148513759E+02  0.00000000000E+00 0. -1.
         11    1    1    2    0    0 -0.11152403702E+02 -0.17089878748E+01 -0.39143989826E+02  0.40737558682E+02  0.00000000000E+00 0.  1.
</event>
<event>
 7    1  0.2480409E-009  0.9323155E+02  0.7561462E-02  0.1295209E+00
          1   -1    0    0  501    0  0.00000000000E+00  0.00000000000E+00  0.42455746735E+03  0.42455746735E+03  0.00000000000E+00 0. -1.
         -1   -1    0    0    0  501 -0.00000000000E+00 -0.00000000000E+00 -0.35901620923E+02  0.35901620923E+02  0.00000000000E+00 0.  1.
         25    2    1    2    0    0 -0.42138767336E+02 -0.65385900649E+02  0.22496655057E+03  0.26890171650E+03  0.12508873868E+03 0.  0.
          5    1    3    3  502    0 -0.84766865501E+01 -0.58201333041E+02  0.21904898582E+02  0.62901083969E+02  0.41800000000E+01 0. -1.
         -5    1    3    3    0  502 -0.33662080786E+02 -0.71845676077E+01  0.20306165199E+03  0.20600063253E+03  0.41800000000E+01 0. -1.
        -11    1    1    2    0    0  0.26629219809E+02  0.10528258221E+01  0.19865647347E+02  0.33239550755E+02  0.00000000000E+00 0.  1.
         11    1    1    2    0    0  0.15509547527E+02  0.64333074827E+02  0.14382364850E+03  0.15831782101E+03  0.00000000000E+00 0. -1.
</event>
<event>
 7    1  0.2480409E-009  0.1128166E+03  0.7561462E-02  0.1255441E+00
          4   -1    0    0  501    0  0.00000000000E+00  0.00000000000E+00  0.80946287338E+02  0.80946287338E+02  0.00000000000E+00 0. -1.
         -4   -1    0    0    0  501 -0.00000000000E+00 -0.00000000000E+00 -0.19250476999E+03  0.19250476999E+03  0.00000000000E+00 0.  1.
         25    2    1    2    0    0  0.15716979926E+00 -0.56828838835E+02 -0.53471023034E+02  0.14742762224E+03  0.12508481870E+03 0.  0.
          5    1    3    3  502    0  0.54487699277E+02  0.47609194471E+01 -0.26185104284E+02  0.60784108226E+02  0.41800000000E+01 0.  1.
         -5    1    3    3    0  502 -0.54330529478E+02 -0.61589758282E+02 -0.27285918751E+02  0.86643514014E+02  0.41800000000E+01 0.  1.
        -11    1    1    2    0    0  0.33666612781E+02  0.33205825835E+02 -0.68721160032E+02  0.83418616158E+02  0.00000000000E+00 0.  1.
         11    1    1    2    0    0 -0.33823782580E+02  0.23623013000E+02  0.10633700417E+02  0.42604818927E+02  0.00000000000E+00 0. -1.
</event>
<event>
 7    1  0.2480409E-009  0.8523288E+02  0.7561462E-02  0.1314825E+00
          1   -1    0    0  501    0  0.00000000000E+00  0.00000000000E+00  0.24957447214E+03  0.24957447214E+03  0.00000000000E+00 0. -1.
         -1   -1    0    0    0  501 -0.00000000000E+00 -0.00000000000E+00 -0.59864151285E+02  0.59864151285E+02  0.00000000000E+00 0.  1.
         25    2    1    2    0    0  0.50477505426E+02 -0.12898662925E+02  0.13446665298E+03  0.19089176841E+03  0.12507610653E+03 0.  0.
          5    1    3    3  502    0 -0.19347254809E+02 -0.14491773437E+02 -0.12930654562E+02  0.27730885189E+02  0.41800000000E+01 0. -1.
         -5    1    3    3    0  502  0.69824760234E+02  0.15931105119E+01  0.14739730754E+03  0.16316088322E+03  0.41800000000E+01 0. -1.
        -11    1    1    2    0    0 -0.39310654144E+02 -0.17908459328E+02  0.70279060344E+02  0.82493555915E+02  0.00000000000E+00 0. -1.
         11    1    1    2    0    0 -0.11166851281E+02  0.30807122253E+02 -0.15035392470E+02  0.36053299097E+02  0.00000000000E+00 0.  1.
</event>
<event>
 7    1  0.2856645E-009  0.1425055E+03  0.7561462E-02  0.1209997E+00
         -1   -1    0    0    0  501 -0.00000000000E+00  0.00000000000E+00  0.10211320845E+03  0.10211320845E+03  0.00000000000E+00 0.  1.
          1   -1    0    0  501    0  0.00000000000E+00 -0.00000000000E+00 -0.27098887930E+03  0.27098887930E+03  0.00000000000E+00 0. -1.
         25    2    1    2    0    0 -0.11252941475E+03 -0.24811380881E+02 -0.14579350731E+03  0.22402152337E+03  0.12510564477E+03 0.  0.
          5    1    3    3  502    0 -0.11576571626E+03  0.25970481020E+02 -0.10809258181E+03  0.16055418272E+03  0.41800000000E+01 0. -1.
         -5    1    3    3    0  502  0.32363015152E+01 -0.50781861901E+02 -0.37700925508E+02  0.63467340655E+02  0.41800000000E+01 0. -1.
        -11    1    1    2    0    0  0.88574110884E+02  0.20018083588E+02 -0.57048556827E+02  0.10724101186E+03  0.00000000000E+00 0. -1.
         11    1    1    2    0    0  0.23955303865E+02  0.47932972930E+01  0.33966393280E+02  0.41839552516E+02  0.00000000000E+00 0.  1.
</event>
<event>
 7    1  0.2480409E-009  0.1180364E+03  0.7561462E-02  0.1246372E+00
          1   -1    0    0  501    0  0.00000000000E+00  0.00000000000E+00  0.37473754548E+03  0.37473754548E+03  0.00000000000E+00 0. -1.
         -1   -1    0    0    0  501 -0.00000000000E+00 -0.00000000000E+00 -0.70477023858E+02  0.70477023858E+02  0.00000000000E+00 0.  1.
         25    2    1    2    0    0  0.15200732169E+02 -0.53750103380E+02  0.16835213481E+02  0.13802669393E+03  0.12509119854E+03 0.  0.
          5    1    3    3  502    0  0.15408646792E+02 -0.94583212570E+02  0.10512808765E+02  0.96495606346E+02  0.41800000000E+01 0. -1.
         -5    1    3    3    0  502 -0.20791462300E+00  0.40833109190E+02  0.63224047161E+01  0.41531087585E+02  0.41800000000E+01 0. -1.
        -11    1    1    2    0    0  0.28214940761E+02 -0.21825606290E+01  0.14944676490E+03  0.15210253776E+03  0.00000000000E+00 0. -1.
         11    1    1    2    0    0 -0.43415672929E+02  0.55932664009E+02  0.13797854324E+03  0.15508533765E+03  0.00000000000E+00 0.  1.
</event>
<event>
 7    1  0.2480409E-009  0.1338542E+03  0.7561462E-02  0.1221846E+00
         -1   -1    0    0    0  501 -0.00000000000E+00  0.00000000000E+00  0.81401582237E+02  0.81401582237E+02  0.00000000000E+00 0.  1.
          1   -1    0    0  501    0  0.00000000000E+00 -0.00000000000E+00 -0.23628777732E+03  0.23628777732E+03  0.00000000000E+00 0. -1.
         25    2    1    2    0    0  0.48397893410E+02  0.69005120372E+02 -0.66953993435E+02  0.16504374567E+03  0.12511010360E+03 0.  0.
          5    1    3    3  502    0 -0.38378808111E+02  0.63595142561E+01 -0.36941948049E+02  0.53810373156E+02  0.41800000000E+01 0.  1.
         -5    1    3    3    0  502  0.86776701521E+02  0.62645606116E+02 -0.30012045386E+02  0.11123337251E+03  0.41800000000E+01 0.  1.
        -11    1    1    2    0    0 -0.16706934869E+02  0.20545869441E+02 -0.58902921616E+01  0.27128397770E+02  0.00000000000E+00 0.  1.
         11    1    1    2    0    0 -0.31690958540E+02 -0.89550989813E+02 -0.82041909485E+02  0.12551721612E+03  0.00000000000E+00 0. -1.
</event>
<event>
 7    1  0.2480409E-009  0.8736464E+02  0.7561462E-02  0.1309362E+00
         -1   -1    0    0    0  501 -0.00000000000E+00  0.00000000000E+00  0.13577780892E+03  0.13577780892E+03  0.00000000000E+00 0.  1.
          1   -1    0    0  501    0  0.00000000000E+00 -0.00000000000E+00 -0.25055899448E+03  0.25055899448E+03  0.00000000000E+00 0. -1.
         25    2    1    2    0    0 -0.41329675370E+02  0.38702467042E+02 -0.20401428317E+03  0.24592431542E+03  0.12510362967E+03 0.  0.
          5    1    3    3  502    0 -0.47840789921E+02  0.70557890132E+01 -0.10467118583E+02  0.49654388631E+02  0.41800000000E+01 0. -1.
         -5    1    3    3    0  502  0.65111145513E+01  0.31646678029E+02 -0.19354716459E+03  0.19626992679E+03  0.41800000000E+01 0. -1.
        -11    1    1    2    0    0  0.58925022982E+01  0.22298875533E+02  0.59575931636E+02  0.63884685674E+02  0.00000000000E+00 0.  1.
         11    1    1    2    0    0  0.35437173072E+02 -0.61001342576E+02  0.29657165976E+02  0.76527802301E+02  0.00000000000E+00 0. -1.
</event>
<event>
 7    1  0.2480409E-009  0.6837988E+02  0.7561462E-02  0.1365691E+00
          2   -1    0    0  501    0  0.00000000000E+00  0.00000000000E+00  0.10621588190E+03  0.10621588190E+03  0.00000000000E+00 0. -1.
         -2   -1    0    0    0  501 -0.00000000000E+00 -0.00000000000E+00 -0.14753240125E+03  0.14753240125E+03  0.00000000000E+00 0.  1.
         25    2    1    2    0    0  0.28461680255E+02  0.24554824724E+02  0.27919651728E+02  0.13356667031E+03  0.12509013472E+03 0.  0.
          5    1    3    3  502    0 -0.70949764979E+00 -0.96616324556E-01  0.73688010322E+02  0.73809945041E+02  0.41800000000E+01 0. -1.
         -5    1    3    3    0  502  0.29171177905E+02  0.24651441048E+02 -0.45768358594E+02  0.59756725266E+02  0.41800000000E+01 0. -1.
        -11    1    1    2    0    0  0.14531998720E+02 -0.44420491458E+02 -0.51659396364E+02  0.69663852039E+02  0.00000000000E+00 0.  1.
         11    1    1    2    0    0 -0.42993678975E+02  0.19865666735E+02 -0.17576774718E+02  0.50517760799E+02  0.00000000000E+00 0. -1.
</event>
<event>
 7    1  0.2480409E-009  0.8551246E+02  0.7561462E-02  0.1314098E+00
          2   -1    0    0  501    0  0.00000000000E+00  0.00000000000E+00  0.13495793964E+03  0.13495793964E+03  0.00000000000E+00 0. -1.
         -2   -1    0    0    0  501 -0.00000000000E+00 -0.00000000000E+00 -0.11273220631E+03  0.11273220631E+03  0.00000000000E+00 0.  1.
         25    2    1    2    0    0  0.29038042991E+02 -0.43832633017E+02 -0.13650215707E+02  0.13637722500E+03  0.12509161224E+03 0.  0.
          5    1    3    3  502    0 -0.28760639985E+02  0.15022214953E+02 -0.38119125705E+02  0.50233270837E+02  0.41800000000E+01 0.  1.
         -5    1    3    3    0  502  0.57798682976E+02 -0.58854847970E+02  0.24468909997E+02  0.86143954168E+02  0.41800000000E+01 0.  1.
        -11    1    1    2    0    0 -0.82393444268E+01  0.29052074858E+02 -0.28834711046E+02  0.41753447896E+02  0.00000000000E+00 0.  1.
         11    1    1    2    0    0 -0.20798698564E+02  0.14780558159E+02  0.64710660091E+02  0.69559473049E+02  0.00000000000E+00 0. -1.
</event>
<event>
 7    1  0.2480409E-009  0.1221456E+03  0.7561462E-02  0.1239599E+00
          2   -1    0    0  501    0  0.00000000000E+00  0.00000000000E+00  0.94569594873E+03  0.94569594873E+03  0.00000000000E+00 0. -1.
         -2   -1    0    0    0  501 -0.00000000000E+00 -0.00000000000E+00 -0.33106257609E+02  0.33106257609E+02  0.00000000000E+00 0.  1.
         25    2    1    2    0    0  0.62632752998E+02 -0.47489659743E+02  0.79766568926E+03  0.81123102654E+03  0.12508835704E+03 0.  0.
          5    1    3    3  502    0  0.48115280320E+02 -0.90259183582E+02  0.54934201411E+03  0.55879864109E+03  0.41800000000E+01 0.  1.
         -5    1    3    3    0  502  0.14517472677E+02  0.42769523839E+02  0.24832367515E+03  0.25243238545E+03  0.41800000000E+01 0.  1.
        -11    1    1    2    0    0 -0.19736321433E+02 -0.12092381650E+02  0.85330009377E+02  0.88413565577E+02  0.00000000000E+00 0. -1.
         11    1    1    2    0    0 -0.42896431564E+02  0.59582041393E+02  0.29593992479E+02  0.79157614216E+02  0.00000000000E+00 0.  1.
</event>
<event>
 7    1  0.2480409E-009  0.3021140E+03  0.7561462E-02  0.1084189E+00
         -2   -1    0    0    0  501 -0.00000000000E+00  0.00000000000E+00  0.39160481125E+02  0.39160481125E+02  0.00000000000E+00 0.  1.
          2   -1    0    0  501    0  0.00000000000E+00 -0.00000000000E+00 -0.25790094868E+04  0.25790094868E+04  0.00000000000E+00 0. -1.
         25    2    1    2    0    0  0.49791398814E+02 -0.29308209259E+03 -0.13928401560E+04  0.14296951993E+04  0.12509343030E+03 0.  0.
          5    1    3    3  502    0 -0.32446043166E+01 -0.59716934585E+02 -0.55828989463E+03  0.56149952678E+03  0.41800000000E+01 0.  1.
         -5    1    3    3    0  502  0.53036003130E+02 -0.23336515801E+03 -0.83455026142E+03  0.86819567255E+03  0.41800000000E+01 0.  1.
        -11    1    1    2    0    0 -0.57345041317E+02  0.13515962942E+03 -0.67175253368E+03  0.68761038801E+03  0.00000000000E+00 0. -1.
         11    1    1    2    0    0  0.75536425037E+01  0.15792246317E+03 -0.47525631594E+03  0.50086438058E+03  0.00000000000E+00 0.  1.
</event>
<event>
 7    1  0.2480409E-009  0.1106598E+03  0.7561462E-02  0.1259353E+00
         -2   -1    0    0    0  501 -0.00000000000E+00  0.00000000000E+00  0.14887046587E+02  0.14887046587E+02  0.00000000000E+00 0.  1.
          2   -1    0    0  501    0  0.00000000000E+00 -0.00000000000E+00 -0.11770745876E+04  0.11770745876E+04  0.00000000000E+00 0. -1.
         25    2    1    2    0    0 -0.40279492410E+02 -0.12088721690E+02 -0.91448435320E+03  0.92395865207E+03  0.12509749718E+03 0.  0.
          5    1    3    3  502    0  0.75848300425E+01  0.44194847892E+02 -0.17209313042E+03  0.17788825752E+03  0.41800000000E+01 0.  1.
         -5    1    3    3    0  502 -0.47864322452E+02 -0.56283569582E+02 -0.74239122278E+03  0.74607039455E+03  0.41800000000E+01 0.  1.
        -11    1    1    2    0    0  0.26410157523E+02 -0.40247791682E+02 -0.11310897337E+03  0.12292689295E+03  0.00000000000E+00 0.  1.
         11    1    1    2    0    0  0.13869334887E+02  0.52336513372E+02 -0.13459421445E+03  0.14507608916E+03  0.00000000000E+00 0. -1.
</event>
<event>
 7    1  0.2480409E-009  0.1804747E+03  0.7561462E-02  0.1167344E+00
          1   -1    0    0  501    0  0.00000000000E+00  0.00000000000E+00  0.25872509103E+03  0.25872509103E+03  0.00000000000E+00 0. -1.
         -1   -1    0    0    0  501 -0.00000000000E+00 -0.00000000000E+00 -0.17421625475E+03  0.17421625475E+03  0.00000000000E+00 0.  1.
         25    2    1    2    0    0  0.14437532951E+03  0.44719271170E+02 -0.59464896144E+02  0.20499602972E+03  0.12507297607E+03 0.  0.
          5    1    3    3  502    0  0.42083132779E+02 -0.43685408368E+02 -0.21701583905E+02  0.64558780292E+02  0.41800000000E+01 0. -1.
         -5    1    3    3    0  502  0.10229219673E+03  0.88404679538E+02 -0.37763312239E+02  0.14043724943E+03  0.41800000000E+01 0. -1.
        -11    1    1    2    0    0 -0.60668171098E+02  0.14461506480E+02  0.96670810349E+02  0.11504350363E+03  0.00000000000E+00 0.  1.
         11    1    1    2    0    0 -0.83707158408E+02 -0.59180777650E+02  0.47302922081E+02  0.11290181243E+03  0.00000000000E+00 0. -1.
</event>
<event>
 7    1  0.2860513E-009  0.7625206E+02  0.7561462E-02  0.1340037E+00
         -2   -1    0    0    0  501 -0.00000000000E+00  0.00000000000E+00  0.14793535812E+02  0.14793535812E+02  0.00000000000E+00 0.  1.
          2   -1    0    0  501    0  0.00000000000E+00 -0.00000000000E+00 -0.97026864857E+03  0.97026864857E+03  0.00000000000E+00 0. -1.
         25    2    1    2    0    0 -0.34113599899E+02 -0.61498518385E+00 -0.69208298449E+03  0.70412394178E+03  0.12509017570E+03 0.  0.
          5    1    3    3  502    0 -0.33793263521E+02  0.17178845820E+02 -0.55858303548E+02  0.67636675542E+02  0.41800000000E+01 0. -1.
         -5    1    3    3    0  502 -0.32033637839E+00 -0.17793831004E+02 -0.63622468094E+03  0.63648726623E+03  0.41800000000E+01 0. -1.
        -11    1    1    2    0    0  0.14765367945E+02  0.45163318242E+02 -0.10464326098E+03  0.11492586077E+03  0.00000000000E+00 0.  1.
         11    1    1    2    0    0  0.19348231954E+02 -0.44548333058E+02 -0.15874886729E+03  0.16601238184E+03  0.00000000000E+00 0. -1.
</event>
<event>
 7    1  0.2480409E-009  0.1001921E+03  0.7561462E-02  0.1279893E+00
          2   -1    0    0  501    0  0.00000000000E+00  0.00000000000E+00  0.49961903188E+03  0.49961903188E+03  0.00000000000E+00 0. -1.
         -2   -1    0    0    0  501 -0.00000000000E+00 -0.00000000000E+00 -0.25295071913E+02  0.25295071913E+02  0.00000000000E+00 0.  1.
         25    2    1    2    0    0  0.83419865590E+01 -0.19882758743E+02  0.32421295750E+03  0.34817098999E+03  0.12507631121E+03 0.  0.
          5    1    3    3  502    0  0.57026286680E+02 -0.18767653269E+02  0.26321391049E+03  0.27000603189E+03  0.41800000000E+01 0.  1.
         -5    1    3    3    0  502 -0.48684300121E+02 -0.11151054737E+01  0.60999047005E+02  0.78164958095E+02  0.41800000000E+01 0.  1.
        -11    1    1    2    0    0  0.39418841241E+02 -0.44348472454E+00  0.47313331474E+02  0.61584032497E+02  0.00000000000E+00 0. -1.
         11    1    1    2    0    0 -0.47760827800E+02  0.20326243467E+02  0.10279767100E+03  0.11515908131E+03  0.00000000000E+00 0.  1.
</event>
<event>
 7    1  0.2480409E-009  0.1019944E+03  0.7561462E-02  0.1276157E+00
         -1   -1    0    0    0  501 -0.00000000000E+00  0.00000000000E+00  0.20483252054E+03  0.20483252054E+03  0.00000000000E+00 0.  1.
          1   -1    0    0  501    0  0.00000000000E+00 -0.00000000000E+00 -0.99890200278E+02  0.99890200278E+02  0.00000000000E+00 0. -1.
         25    2    1    2    0    0  0.26174842344E+02  0.88620819163E+02  0.48755992979E+02  0.16298271290E+03  0.12508975135E+03 0.  0.
          5    1    3    3  502    0  0.16157919757E+02  0.34125765743E+02 -0.41959975967E+02  0.56601751223E+02  0.41800000000E+01 0.  1.
         -5    1    3    3    0  502  0.10016922587E+02  0.54495053421E+02  0.90715968946E+02  0.10638096168E+03  0.41800000000E+01 0.  1.
        -11    1    1    2    0    0 -0.42982016534E+02 -0.38975830578E+02  0.66571529493E+02  0.88308196979E+02  0.00000000000E+00 0.  1.
         11    1    1    2    0    0  0.16807174190E+02 -0.49644988585E+02 -0.10385202205E+02  0.53431810943E+02  0.00000000000E+00 0. -1.
</event>
<event>
 7    1  0.2480409E-009  0.1114050E+03  0.7561462E-02  0.1257990E+00
          1   -1    0    0  501    0  0.00000000000E+00  0.00000000000E+00  0.10075844545E+03  0.10075844545E+03  0.00000000000E+00 0. -1.
         -1   -1    0    0    0  501 -0.00000000000E+00 -0.00000000000E+00 -0.16247063192E+03  0.16247063192E+03  0.00000000000E+00 0.  1.
         25    2    1    2    0    0  0.63044961135E+02  0.19146709840E+02 -0.11761069181E+02  0.14187028259E+03  0.12509033021E+03 0.  0.
          5    1    3    3  502    0  0.65098674285E+02 -0.41295370192E+02  0.91464614386E+01  0.77744936490E+02  0.41800000000E+01 0. -1.
         -5    1    3    3    0  502 -0.20537131500E+01  0.60442080031E+02 -0.20907530620E+02  0.64125346103E+02  0.41800000000E+01 0. -1.
        -11    1    1    2    0    0 -0.26600322365E+02 -0.36056797351E+02  0.13021969807E+02  0.46660920295E+02  0.00000000000E+00 0. -1.
         11    1    1    2    0    0 -0.36444638770E+02  0.16910087511E+02 -0.62973087094E+02  0.74697874487E+02  0.00000000000E+00 0.  1.
</event>
<event>
 7    1  0.2480409E-009  0.1112787E+03  0.7561462E-02  0.1258220E+00
          2   -1    0    0  501    0  0.00000000000E+00  0.00000000000E+00  0.41424643875E+03  0.41424643875E+03  0.00000000000E+00 0. -1.
         -2   -1    0    0    0  501 -0.00000000000E+00 -0.00000000000E+00 -0.45432659372E+02  0.45432659372E+02  0.00000000000E+00 0.  1.
         25    2    1    2    0    0  0.39222967945E+02 -0.83371164317E+01  0.78601577358E+02  0.15308263970E+03  0.12509251732E+03 0.  0.
          5    1    3    3  502    0 -0.44842601445E+02 -0.12861410941E+02  0.32492836397E+02  0.57004663080E+02  0.41800000000E+01 0. -1.
         -5    1    3    3    0  502  0.84065569390E+02  0.45242945098E+01  0.46108740962E+02  0.96077976616E+02  0.41800000000E+01 0. -1.
        -11    1    1    2    0    0  0.22843856939E+02 -0.12396566888E+02  0.38034623505E+02  0.46066791245E+02  0.00000000000E+00 0.  1.
         11    1    1    2    0    0 -0.62066824884E+02  0.20733683320E+02  0.25217757851E+03  0.26052966718E+03  0.00000000000E+00 0. -1.
</event>
<event>
 7    1  0.2480409E-009  0.1248553E+03  0.7561462E-02  0.1235296E+00
          2   -1    0    0  501    0  0.00000000000E+00  0.00000000000E+00  0.22594455636E+02  0.22594455636E+02  0.00000000000E+00 0. -1.
         -2   -1    0    0    0  501 -0.00000000000E+00 -0.00000000000E+00 -0.12620643445E+04  0.12620643445E+04  0.00000000000E+00 0.  1.
         25    2    1    2    0    0  0.91670530957E+02 -0.18532848170E+02 -0.10016206424E+04  0.10137237617E+04  0.12507997827E+03 0.  0.
          5    1    3    3  502    0  0.96821467995E+02  0.17005515456E+02 -0.43668230953E+03  0.44762986504E+03  0.41800000000E+01 0. -1.
         -5    1    3    3    0  502 -0.51509370381E+01 -0.35538363626E+02 -0.56493833287E+03  0.56609389662E+03  0.41800000000E+01 0. -1.
        -11    1    1    2    0    0 -0.40390296792E+02 -0.25338295290E+02 -0.41153715508E+02  0.62984391584E+02  0.00000000000E+00 0. -1.
         11    1    1    2    0    0 -0.51280234165E+02  0.43871143460E+02 -0.19669553094E+03  0.20795064688E+03  0.00000000000E+00 0.  1.
</event>
<event>
 7    1  0.2480409E-009  0.1185813E+03  0.7561462E-02  0.1245456E+00
          2   -1    0    0  501    0  0.00000000000E+00  0.00000000000E+00  0.99064892934E+03  0.99064892934E+03  0.00000000000E+00 0. -1.
         -2   -1    0    0    0  501 -0.00000000000E+00 -0.00000000000E+00 -0.14733189677E+02  0.14733189677E+02  0.00000000000E+00 0.  1.
         25    2    1    2    0    0 -0.38700703492E+02 -0.30077024121E+02  0.59987377940E+03  0.61473466391E+03  0.12509110271E+03 0.  0.
          5    1    3    3  502    0  0.44465777793E+02 -0.17441501660E+02  0.16716890802E+03  0.17390896350E+03  0.41800000000E+01 0. -1.
         -5    1    3    3    0  502 -0.83166481285E+02 -0.12635522461E+02  0.43270487137E+03  0.44082570042E+03  0.41800000000E+01 0. -1.
        -11    1    1    2    0    0  0.65031867234E+02  0.20023134177E-01  0.25592379926E+03  0.26405706805E+03  0.00000000000E+00 0. -1.
         11    1    1    2    0    0 -0.26331163742E+02  0.30057000987E+02  0.12011816100E+03  0.12659038706E+03  0.00000000000E+00 0.  1.
</event>
<event>
 7    1  0.2480409E-009  0.1775269E+03  0.7561462E-02  0.1170218E+00
         -2   -1    0    0    0  501 -0.00000000000E+00  0.00000000000E+00  0.55158833401E+02  0.55158833401E+02  0.00000000000E+00 0.  1.
          2   -1    0    0  501    0  0.00000000000E+00 -0.00000000000E+00 -0.10953246855E+04  0.10953246855E+04  0.00000000000E+00 0. -1.
         25    2    1    2    0    0 -0.92310715388E+02 -0.13612094535E+03 -0.19325374888E+03  0.28292052945E+03  0.12508730787E+03 0.  0.
          5    1    3    3  502    0 -0.70058370014E+02 -0.76672382951E+02 -0.19310845725E+03  0.21930612891E+03  0.41800000000E+01 0. -1.
         -5    1    3    3    0  502 -0.22252345374E+02 -0.59448562402E+02 -0.14529162843E+00  0.63614400540E+02  0.41800000000E+01 0. -1.
        -11    1    1    2    0    0  0.17220919317E+02 -0.12299105208E+02 -0.74686377097E+02  0.77626561015E+02  0.00000000000E+00 0.  1.
         11    1    1    2    0    0  0.75089796071E+02  0.14842005056E+03 -0.77222572612E+03  0.78993642843E+03  0.00000000000E+00 0. -1.
</event>
<event>
 7    1  0.2480409E-009  0.1197519E+03  0.7561462E-02  0.1243507E+00
         -2   -1    0    0    0  501 -0.00000000000E+00  0.00000000000E+00  0.35301775982E+02  0.35301775982E+02  0.00000000000E+00 0.  1.
          2   -1    0    0  501    0  0.00000000000E+00 -0.00000000000E+00 -0.45593341145E+03  0.45593341145E+03  0.00000000000E+00 0. -1.
         25    2    1    2    0    0 -0.61689842365E+02 -0.21061093204E+02 -0.23392642606E+03  0.27316720606E+03  0.12509813493E+03 0.  0.
          5    1    3    3  502    0 -0.92245226891E+02 -0.41997051467E+02 -0.14718958466E+03  0.17876011985E+03  0.41800000000E+01 0. -1.
         -5    1    3    3    0  502  0.30555384526E+02  0.20935958263E+02 -0.86736841392E+02  0.94407086210E+02  0.41800000000E+01 0. -1.
        -11    1    1    2    0    0 -0.12961423335E+02  0.22675417328E+02 -0.13386429276E+02  0.29349097680E+02  0.00000000000E+00 0.  1.
         11    1    1    2    0    0  0.74651265701E+02 -0.16143241235E+01 -0.17331878014E+03  0.18871888369E+03  0.00000000000E+00 0. -1.
</event>
<event>
 7    1  0.2480409E-009  0.1717331E+03  0.7561462E-02  0.1176052E+00
          1   -1    0    0  501    0  0.00000000000E+00  0.00000000000E+00  0.15770539757E+03  0.15770539757E+03  0.00000000000E+00 0. -1.
         -1   -1    0    0    0  501 -0.00000000000E+00 -0.00000000000E+00 -0.37341526238E+03  0.37341526238E+03  0.00000000000E+00 0.  1.
         25    2    1    2    0    0  0.13347064728E+03 -0.21241999346E+02 -0.29698122475E+03  0.34944461769E+03  0.12509219305E+03 0.  0.
          5    1    3    3  502    0 -0.19489570462E+02  0.14147027564E+02 -0.22582470178E+02  0.33277952236E+02  0.41800000000E+01 0. -1.
         -5    1    3    3    0  502  0.15296021774E+03 -0.35389026909E+02 -0.27439875457E+03  0.31616666546E+03  0.41800000000E+01 0. -1.
        -11    1    1    2    0    0 -0.86441004399E+02  0.56430521576E+02  0.58693818052E+02  0.11874938014E+03  0.00000000000E+00 0.  1.
         11    1    1    2    0    0 -0.47029642884E+02 -0.35188522230E+02  0.22577541892E+02  0.62926662111E+02  0.00000000000E+00 0. -1.
</event>
<event>
 7    1  0.2480409E-009  0.8350653E+02  0.7561462E-02  0.1319385E+00
          1   -1    0    0  501    0  0.00000000000E+00  0.00000000000E+00  0.71487415752E+03  0.71487415752E+03  0.00000000000E+00 0. -1.
         -1   -1    0    0    0  501 -0.00000000000E+00 -0.00000000000E+00 -0.18114601689E+02  0.18114601689E+02  0.00000000000E+00 0.  1.
         25    2    1    2    0    0 -0.42499757926E+02 -0.35752460143E+02  0.41238222865E+03  0.43450105720E+03  0.12509036083E+03 0.  0.
          5    1    3    3  502    0 -0.79028226783E+00 -0.36829491221E+02  0.37925301767E+03  0.38106083475E+03  0.41800000000E+01 0.  1.
         -5    1    3    3    0  502 -0.41709475658E+02  0.10770310781E+01  0.33129210985E+02  0.53440222456E+02  0.41800000000E+01 0.  1.
        -11    1    1    2    0    0  0.59977250953E+02  0.37021300925E+02  0.19351929589E+03  0.20595525056E+03  0.00000000000E+00 0.  1.
         11    1    1    2    0    0 -0.17477493027E+02 -0.12688407824E+01  0.90858031296E+02  0.92532451445E+02  0.00000000000E+00 0. -1.
</event>
<event>
 7    1  0.2480409E-009  0.2469494E+03  0.7561462E-02  0.1115248E+00
         -2   -1    0    0    0  501 -0.00000000000E+00  0.00000000000E+00  0.60035611311E+02  0.60035611311E+02  0.00000000000E+00 0.  1.
          2   -1    0    0  501    0  0.00000000000E+00 -0.00000000000E+00 -0.11236274868E+04  0.11236274868E+04  0.00000000000E+00 0. -1.
         25    2    1    2    0    0 -0.54810547825E+02  0.21717073076E+03 -0.38081753306E+03  0.45916982676E+03  0.12509042278E+03 0.  0.
          5    1    3    3  502    0 -0.76970858854E+02  0.21694202823E+03 -0.36528646117E+03  0.43178701676E+03  0.41800000000E+01 0.  1.
         -5    1    3    3    0  502  0.22160311029E+02  0.22870253086E+00 -0.15531071891E+02  0.27382810006E+02  0.41800000000E+01 0.  1.
        -11    1    1    2    0    0 -0.23874000204E+02 -0.73903200806E+02 -0.18765214028E+03  0.20308859330E+03  0.00000000000E+00 0. -1.
         11    1    1    2    0    0  0.78684548029E+02 -0.14326752995E+03 -0.49512220213E+03  0.52140467804E+03  0.00000000000E+00 0.  1.
</event>
<event>
 7    1  0.2480409E-009  0.9632508E+02  0.7561462E-02  0.1288219E+00
         -1   -1    0    0    0  501 -0.00000000000E+00  0.00000000000E+00  0.93213358443E+02  0.93213358443E+02  0.00000000000E+00 0.  1.
          1   -1    0    0  501    0  0.00000000000E+00 -0.00000000000E+00 -0.17740415015E+03  0.17740415015E+03  0.00000000000E+00 0. -1.
         25    2    1    2    0    0  0.43562060292E+01 -0.21046356901E+02 -0.10918926677E+03  0.16742601759E+03  0.12508896720E+03 0.  0.
          5    1    3    3  502    0 -0.50182560816E+02 -0.42710702449E+02 -0.42646406152E+02  0.78604591923E+02  0.41800000000E+01 0.  1.
         -5    1    3    3    0  502  0.54538766845E+02  0.21664345548E+02 -0.66542860622E+02  0.88821425663E+02  0.41800000000E+01 0.  1.
        -11    1    1    2    0    0 -0.11042596435E+02 -0.21792112731E+02  0.48184638117E+02  0.54024017471E+02  0.00000000000E+00 0.  1.
         11    1    1    2    0    0  0.66863904061E+01  0.42838469632E+02 -0.23186163054E+02  0.49167473539E+02  0.00000000000E+00 0. -1.
</event>
<event>
 7    1  0.2480409E-009  0.4153459E+03  0.7561462E-02  0.1038592E+00
         -1   -1    0    0    0  501 -0.00000000000E+00  0.00000000000E+00  0.62549544146E+02  0.62549544146E+02  0.00000000000E+00 0.  1.
          1   -1    0    0  501    0  0.00000000000E+00 -0.00000000000E+00 -0.28141970746E+04  0.28141970746E+04  0.00000000000E+00 0. -1.
         25    2    1    2    0    0 -0.38488445149E+03 -0.12442038707E+03 -0.13118771488E+04  0.13785085779E+04  0.12509105522E+03 0.  0.
          5    1    3    3  502    0 -0.34009222580E+03 -0.62397392409E+02 -0.10357772478E+04  0.10919744210E+04  0.41800000000E+01 0. -1.
         -5    1    3    3    0  502 -0.44792225699E+02 -0.62022994663E+02 -0.27609990101E+03  0.28653415693E+03  0.41800000000E+01 0. -1.
        -11    1    1    2    0    0  0.22812742830E+03  0.44900534446E+02 -0.68923729695E+03  0.72739688826E+03  0.00000000000E+00 0.  1.
         11    1    1    2    0    0  0.15675702319E+03  0.79519852626E+02 -0.75053308466E+03  0.77084115255E+03  0.00000000000E+00 0. -1.
</event>
<event>
 7    1  0.2480409E-009  0.8979107E+02  0.7561462E-02  0.1303358E+00
          2   -1    0    0  501    0  0.00000000000E+00  0.00000000000E+00  0.15465376464E+04  0.15465376464E+04  0.00000000000E+00 0. -1.
         -2   -1    0    0    0  501 -0.00000000000E+00 -0.00000000000E+00 -0.96884519567E+01  0.96884519567E+01  0.00000000000E+00 0.  1.
         25    2    1    2    0    0 -0.55177799464E+02 -0.62368648810E+01  0.99829176853E+03  0.10076288018E+04  0.12508340862E+03 0.  0.
          5    1    3    3  502    0 -0.52532665085E+02 -0.23425901717E+02  0.17732846465E+03  0.18647066941E+03  0.41800000000E+01 0.  1.
         -5    1    3    3    0  502 -0.26451343793E+01  0.17189036836E+02  0.82096330388E+03  0.82115813242E+03  0.41800000000E+01 0.  1.
        -11    1    1    2    0    0  0.29610316661E+02  0.47210733722E+02  0.26299192540E+03  0.26883150310E+03  0.00000000000E+00 0.  1.
         11    1    1    2    0    0  0.25567482803E+02 -0.40973868841E+02  0.27556550051E+03  0.27976579343E+03  0.00000000000E+00 0. -1.
</event>
<event>
 7    1  0.2480409E-009  0.1221522E+03  0.7561462E-02  0.1239588E+00
         -1   -1    0    0    0  501 -0.00000000000E+00  0.00000000000E+00  0.39927997190E+02  0.39927997190E+02  0.00000000000E+00 0.  1.
          1   -1    0    0  501    0  0.00000000000E+00 -0.00000000000E+00 -0.56314428148E+03  0.56314428148E+03  0.00000000000E+00 0. -1.
         25    2    1    2    0    0 -0.66943246408E+02 -0.30164400207E+02 -0.13979734871E+03  0.20144667809E+03  0.12508467583E+03 0.  0.
          5    1    3    3  502    0 -0.10169011769E+03 -0.11159517108E+02 -0.11732992175E+03  0.15572153927E+03  0.41800000000E+01 0.  1.
         -5    1    3    3    0  502  0.34746871277E+02 -0.19004883099E+02 -0.22467426969E+02  0.45725138816E+02  0.41800000000E+01 0.  1.
        -11    1    1    2    0    0  0.53662315933E+02  0.53161871934E+02 -0.35410012159E+03  0.36206729332E+03  0.00000000000E+00 0. -1.
         11    1    1    2    0    0  0.13280930475E+02 -0.22997471727E+02 -0.29318813983E+02  0.39558307263E+02  0.00000000000E+00 0.  1.
</event>
<event>
 7    1  0.2480409E-009  0.1332885E+03  0.7561462E-02  0.1222656E+00
          2   -1    0    0  501    0  0.00000000000E+00  0.00000000000E+00  0.53976272279E+02  0.53976272279E+02  0.00000000000E+00 0. -1.
         -2   -1    0    0    0  501 -0.00000000000E+00 -0.00000000000E+00 -0.39902147333E+03  0.39902147333E+03  0.00000000000E+00 0.  1.
         25    2    1    2    0    0 -0.83936199853E+01 -0.98149056767E+02 -0.20319955417E+03  0.25814902436E+03  0.12508864761E+03 0.  0.
          5    1    3    3  502    0 -0.58755551053E+02 -0.90114698591E+02 -0.12910216509E+03  0.16810031265E+03  0.41800000000E+01 0.  1.
         -5    1    3    3    0  502  0.50361931067E+02 -0.80343581762E+01 -0.74097389079E+02  0.90048711709E+02  0.41800000000E+01 0.  1.
        -11    1    1    2    0    0 -0.16800130955E+02  0.57693756979E+02 -0.13358701735E+03  0.14647970917E+03  0.00000000000E+00 0.  1.
         11    1    1    2    0    0  0.25193750940E+02  0.40455299788E+02 -0.82586295253E+01  0.48369012074E+02  0.00000000000E+00 0. -1.
</event>
<event>
 7    1  0.2480409E-009  0.1229077E+03  0.7561462E-02  0.1238376E+00
         -2   -1    0    0    0  501 -0.00000000000E+00  0.00000000000E+00  0.45004475822E+02  0.45004475822E+02  0.00000000000E+00 0.  1.
          2   -1    0    0  501    0  0.00000000000E+00 -0.00000000000E+00 -0.46957045317E+03  0.46957045317E+03  0.00000000000E+00 0. -1.
         25    2    1    2    0    0  0.82603597057E+02  0.37006808242E+02 -0.28917880974E+03  0.32781808201E+03  0.12508977893E+03 0.  0.
          5    1    3    3  502    0  0.69965507442E+01 -0.25552905775E+02 -0.17569658412E+03  0.17773200271E+03  0.41800000000E+01 0. -1.
         -5    1    3    3    0  502  0.75607046313E+02  0.62559714017E+02 -0.11348222561E+03  0.15008607930E+03  0.41800000000E+01 0. -1.
        -11    1    1    2    0    0 -0.96997792650E+02 -0.21000032667E+02 -0.13171422889E+03  0.16491880197E+03  0.00000000000E+00 0.  1.
         11    1    1    2    0    0  0.14394195593E+02 -0.16006775576E+02 -0.36729387270E+01  0.21838045013E+02  0.00000000000E+00 0. -1.
</event>
<event>
 7    1  0.2480409E-009  0.8046618E+02  0.7561462E-02  0.1327734E+00
          4   -1    0    0  501    0  0.00000000000E+00  0.00000000000E+00  0.10041100678E+03  0.10041100678E+03  0.00000000000E+00 0. -1.
         -4   -1    0    0    0  501 -0.00000000000E+00 -0.00000000000E+00 -0.13045271563E+03  0.13045271563E+03  0.00000000000E+00 0.  1.
         25    2    1    2    0    0 -0.45550093667E+01 -0.22211364992E+02  0.15135229740E+02  0.12802752052E+03  0.12509147847E+03 0.  0.
          5    1    3    3  502    0  0.32243029329E+02 -0.22679569941E+02  0.58709226097E+02  0.70839406138E+02  0.41800000000E+01 0. -1.
         -5    1    3    3    0  502 -0.36798038696E+02  0.46820494852E+00 -0.43573996357E+02  0.57188114379E+02  0.41800000000E+01 0. -1.
        -11    1    1    2    0    0  0.36298742948E+02  0.34628747310E+02 -0.46942112407E+02  0.68704518025E+02  0.00000000000E+00 0.  1.
         11    1    1    2    0    0 -0.31743733581E+02 -0.12417382317E+02  0.17651738224E+01  0.34131683871E+02  0.00000000000E+00 0. -1.
</event>
<event>
 7    1  0.2480409E-009  0.2212408E+03  0.7561462E-02  0.1132961E+00
         -1   -1    0    0    0  501 -0.00000000000E+00  0.00000000000E+00  0.11068935250E+03  0.11068935250E+03  0.00000000000E+00 0.  1.
          1   -1    0    0  501    0  0.00000000000E+00 -0.00000000000E+00 -0.51898209830E+03  0.51898209830E+03  0.00000000000E+00 0. -1.
         25    2    1    2    0    0 -0.12696041705E+03 -0.16185685481E+03 -0.13427662176E+03  0.27566923792E+03  0.12508688436E+03 0.  0.
          5    1    3    3  502    0  0.60888559018E+01 -0.63313341798E+02 -0.21113608777E+01  0.63777610967E+02  0.41800000000E+01 0.  1.
         -5    1    3    3    0  502 -0.13304927295E+03 -0.98543513015E+02 -0.13216526088E+03  0.21189162696E+03  0.41800000000E+01 0.  1.
        -11    1    1    2    0    0  0.12459936653E+03  0.12607030849E+03 -0.26170707462E+03  0.31608435224E+03  0.00000000000E+00 0. -1.
         11    1    1    2    0    0  0.23610505140E+01  0.35786546321E+02 -0.12309049413E+02  0.37917860628E+02  0.00000000000E+00 0.  1.
</event>
<event>
 7    1  0.2480409E-009  0.2701666E+03  0.7561462E-02  0.1101184E+00
          2   -1    0    0  501    0  0.00000000000E+00  0.00000000000E+00  0.44134800923E+03  0.44134800923E+03  0.00000000000E+00 0. -1.
         -2   -1    0    0    0  501 -0.00000000000E+00 -0.00000000000E+00 -0.20229729089E+03  0.20229729089E+03  0.00000000000E+00 0.  1.
         25    2    1    2    0    0 -0.25372995411E+03 -0.33867314190E+02  0.23874771469E+03  0.37171784187E+03  0.12509115919E+03 0.  0.
          5    1    3    3  502    0 -0.15906829764E+03  0.40153412707E+02  0.12621205111E+03  0.20703133606E+03  0.41800000000E+01 0.  1.
         -5    1    3    3    0  502 -0.94661656472E+02 -0.74020726897E+02  0.11253566358E+03  0.16468650580E+03  0.41800000000E+01 0.  1.
        -11    1    1    2    0    0  0.10500131659E+03  0.14619662213E+02 -0.45140680189E+02  0.11522452871E+03  0.00000000000E+00 0.  1.
         11    1    1    2    0    0  0.14872863752E+03  0.19247651977E+02  0.45443683840E+02  0.15670292954E+03  0.00000000000E+00 0. -1.
</event>
<event>
 7    1  0.2480409E-009  0.2160970E+03  0.7561462E-02  0.1136827E+00
         -2   -1    0    0    0  501 -0.00000000000E+00  0.00000000000E+00  0.81643009939E+02  0.81643009939E+02  0.00000000000E+00 0.  1.
          2   -1    0    0  501    0  0.00000000000E+00 -0.00000000000E+00 -0.61597226278E+03  0.61597226278E+03  0.00000000000E+00 0. -1.
         25    2    1    2    0    0  0.15178763793E+03  0.12190064747E+03 -0.30825006863E+03  0.38544628557E+03  0.12510587263E+03 0.  0.
          5    1    3    3  502    0  0.16507206715E+03  0.86108018678E+02 -0.21407613518E+03  0.28374185854E+03  0.41800000000E+01 0.  1.
         -5    1    3    3    0  502 -0.13284429223E+02  0.35792628795E+02 -0.94173933453E+02  0.10170442703E+03  0.41800000000E+01 0.  1.
        -11    1    1    2    0    0 -0.13290344175E+03 -0.65669853562E+02 -0.12038258930E+03  0.19096550030E+03  0.00000000000E+00 0.  1.
         11    1    1    2    0    0 -0.18884196177E+02 -0.56230793911E+02 -0.10569659491E+03  0.12120348685E+03  0.00000000000E+00 0. -1.
</event>
<event>
 7    1  0.2480409E-009  0.7850182E+02  0.7561462E-02  0.1333358E+00
         -2   -1    0    0    0  501 -0.00000000000E+00  0.00000000000E+00  0.11014671305E+02  0.11014671305E+02  0.00000000000E+00 0.  1.
          2   -1    0    0  501    0  0.00000000000E+00 -0.00000000000E+00 -0.11134536541E+04  0.11134536541E+04  0.00000000000E+00 0. -1.
         25    2    1    2    0    0 -0.17294741661E+02 -0.74257828060E+01 -0.71943461130E+03  0.73047103764E+03  0.12509007379E+03 0.  0.
          5    1    3    3  502    0 -0.43041575885E+02 -0.38811878480E+01 -0.84599715322E+02  0.95090615238E+02  0.41800000000E+01 0. -1.
         -5    1    3    3    0  502  0.25746834224E+02 -0.35445949580E+01 -0.63483489598E+03  0.63538042240E+03  0.41800000000E+01 0. -1.
        -11    1    1    2    0    0  0.13290762507E+01  0.45737481391E+02 -0.26464447099E+03  0.26857099559E+03  0.00000000000E+00 0. -1.
         11    1    1    2    0    0  0.15965665410E+02 -0.38311698585E+02 -0.11835990056E+03  0.12542629222E+03  0.00000000000E+00 0.  1.
</event>
<event>
 7    1  0.2480409E-009  0.1219903E+03  0.7561462E-02  0.1239849E+00
         -1   -1    0    0    0  501 -0.00000000000E+00  0.00000000000E+00  0.41840156047E+02  0.41840156047E+02  0.00000000000E+00 0.  1.
          1   -1    0    0  501    0  0.00000000000E+00 -0.00000000000E+00 -0.57072652747E+03  0.57072652747E+03  0.00000000000E+00 0. -1.
         25    2    1    2    0    0 -0.80369320021E+02  0.75723451349E+02 -0.26892201821E+03  0.31648068965E+03  0.12509079245E+03 0.  0.
          5    1    3    3  502    0 -0.78658773760E+01  0.55582122107E+02 -0.25756898082E+02  0.61904236718E+02  0.41800000000E+01 0.  1.
         -5    1    3    3    0  502 -0.72503442645E+02  0.20141329242E+02 -0.24316512013E+03  0.25457645293E+03  0.41800000000E+01 0.  1.
        -11    1    1    2    0    0  0.36353534195E+02 -0.20603116325E+02 -0.20683875189E+02  0.46624999127E+02  0.00000000000E+00 0.  1.
         11    1    1    2    0    0  0.44015785826E+02 -0.55120335024E+02 -0.23928047802E+03  0.24946099474E+03  0.00000000000E+00 0. -1.
</event>
<event>
 7    1  0.2480409E-009  0.9292206E+02  0.7561462E-02  0.1295926E+00
         -2   -1    0    0    0  501 -0.00000000000E+00  0.00000000000E+00  0.47320264505E+03  0.47320264505E+03  0.00000000000E+00 0.  1.
          2   -1    0    0  501    0  0.00000000000E+00 -0.00000000000E+00 -0.28701985601E+02  0.28701985601E+02  0.00000000000E+00 0. -1.
         25    2    1    2    0    0  0.12206969148E+02  0.23479771915E+02  0.17839094476E+03  0.21947942218E+03  0.12509027862E+03 0.  0.
          5    1    3    3  502    0 -0.45377663724E+02 -0.75324387444E+01  0.13014573305E+03  0.13809871190E+03  0.41800000000E+01 0.  1.
         -5    1    3    3    0  502  0.57584632872E+02  0.31012210659E+02  0.48245211711E+02  0.81380710282E+02  0.41800000000E+01 0.  1.
        -11    1    1    2    0    0 -0.35576168870E+02 -0.33337312668E+02  0.24385963019E+03  0.24868566393E+03  0.00000000000E+00 0.  1.
         11    1    1    2    0    0  0.23369199722E+02  0.98575407528E+01  0.22250084499E+02  0.33739544537E+02  0.00000000000E+00 0. -1.
</event>
<event>
 7    1  0.2480409E-009  0.1059391E+03  0.7561462E-02  0.1268280E+00
         -1   -1    0    0    0  501 -0.00000000000E+00  0.00000000000E+00  0.20821276964E+03  0.20821276964E+03  0.00000000000E+00 0.  1.
          1   -1    0    0  501    0  0.00000000000E+00 -0.00000000000E+00 -0.60917292635E+02  0.60917292635E+02  0.00000000000E+00 0. -1.
         25    2    1    2    0    0  0.15070527132E+02 -0.49539986371E+01  0.54006322360E+02  0.13717271992E+03  0.12509200352E+03 0.  0.
          5    1    3    3  502    0  0.86458609403E+01  0.56959361218E+02  0.52630288428E+01  0.58002513863E+02  0.41800000000E+01 0.  1.
         -5    1    3    3    0  502  0.64246661920E+01 -0.61913359855E+02  0.48743293517E+02  0.79170206057E+02  0.41800000000E+01 0.  1.
        -11    1    1    2    0    0  0.36581028677E+02 -0.10060878086E+02  0.50837740519E+02  0.63433971876E+02  0.00000000000E+00 0.  1.
         11    1    1    2    0    0 -0.51651555810E+02  0.15014876723E+02  0.42451414130E+02  0.68523370482E+02  0.00000000000E+00 0. -1.
</event>
<event>
 7    1  0.2480409E-009  0.9748078E+02  0.7561462E-02  0.1285684E+00
          4   -1    0    0  501    0  0.00000000000E+00  0.00000000000E+00  0.54333800930E+02  0.54333800930E+02  0.00000000000E+00 0. -1.
         -4   -1    0    0    0  501 -0.00000000000E+00 -0.00000000000E+00 -0.23604450520E+03  0.23604450520E+03  0.00000000000E+00 0.  1.
         25    2    1    2    0    0  0.63824391458E+01  0.20815944753E+02 -0.11913540795E+03  0.17411192538E+03  0.12509067929E+03 0.  0.
          5    1    3    3  502    0  0.34772072966E+02 -0.25069374033E+02 -0.11140801562E+03  0.11944366420E+03  0.41800000000E+01 0. -1.
         -5    1    3    3    0  502 -0.28389633820E+02  0.45885318785E+02 -0.77273923335E+01  0.54668261183E+02  0.41800000000E+01 0. -1.
        -11    1    1    2    0    0  0.44487531057E+02 -0.67805338714E+01 -0.24941654068E+02  0.51450968570E+02  0.00000000000E+00 0. -1.
         11    1    1    2    0    0 -0.50869970202E+02 -0.14035410881E+02 -0.37633642249E+02  0.64815412179E+02  0.00000000000E+00 0.  1.
</event>
<event>
 7    1  0.2480409E-009  0.1413301E+03  0.7561462E-02  0.1211550E+00
         -1   -1    0    0    0  501 -0.00000000000E+00  0.00000000000E+00  0.29512639830E+02  0.29512639830E+02  0.00000000000E+00 0.  1.
          1   -1    0    0  501    0  0.00000000000E+00 -0.00000000000E+00 -0.97492419995E+03  0.97492419995E+03  0.00000000000E+00 0. -1.
         25    2    1    2    0    0  0.42519238888E+02 -0.10926276223E+03 -0.66401310326E+03  0.68578944003E+03  0.12509003906E+03 0.  0.
          5    1    3    3  502    0 -0.32970512854E+02 -0.68996409409E+02 -0.42605206785E+03  0.43288034854E+03  0.41800000000E+01 0.  1.
         -5    1    3    3    0  502  0.75489751742E+02 -0.40266352821E+02 -0.23796103541E+03  0.25290909150E+03  0.41800000000E+01 0.  1.
        -11    1    1    2    0    0 -0.13910581285E+02  0.10048069766E+02  0.17593893342E+01  0.17250026914E+02  0.00000000000E+00 0.  1.
         11    1    1    2    0    0 -0.28608657603E+02  0.99214692464E+02 -0.28315784619E+03  0.30139737283E+03  0.00000000000E+00 0. -1.
</event>
<event>
 7    1  0.2480409E-009  0.1039326E+03  0.7561462E-02  0.1272237E+00
         -1   -1    0    0    0  501 -0.00000000000E+00  0.00000000000E+00  0.12121340152E+03  0.12121340152E+03  0.00000000000E+00 0.  1.
          1   -1    0    0  501    0  0.00000000000E+00 -0.00000000000E+00 -0.12286841866E+03  0.12286841866E+03  0.00000000000E+00 0. -1.
         25    2    1    2    0    0 -0.49577998333E+02 -0.94738111143E+01 -0.26335919708E+02  0.13744169596E+03  0.12509559587E+03 0.  0.
          5    1    3    3  502    0 -0.86253883844E+02  0.15905355175E+02 -0.53417702765E+01  0.87969993243E+02  0.41800000000E+01 0.  1.
         -5    1    3    3    0  502  0.36675885511E+02 -0.25379166289E+02 -0.20994149432E+02  0.49471702718E+02  0.41800000000E+01 0.  1.
        -11    1    1    2    0    0  0.51943052479E+02  0.26333278722E+02  0.49575865690E+02  0.76480642832E+02  0.00000000000E+00 0.  1.
         11    1    1    2    0    0 -0.23650541455E+01 -0.16859467608E+02 -0.24894963123E+02  0.30159481395E+02  0.00000000000E+00 0. -1.
</event>
<event>
 7    1  0.2480409E-009  0.1750871E+03  0.7561462E-02  0.1172644E+00
         -2   -1    0    0    0  501 -0.00000000000E+00  0.00000000000E+00  0.11466253587E+02  0.11466253587E+02  0.00000000000E+00 0.  1.
          2   -1    0    0  501    0  0.00000000000E+00 -0.00000000000E+00 -0.32856761513E+04  0.32856761513E+04  0.00000000000E+00 0. -1.
         25    2    1    2    0    0 -0.13252332073E+03 -0.49424725738E+02 -0.23594181635E+04  0.23669616567E+04  0.12509268633E+03 0.  0.
          5    1    3    3  502    0 -0.10046686826E+03 -0.86662624572E+02 -0.19638966686E+04  0.19683779108E+04  0.41800000000E+01 0. -1.
         -5    1    3    3    0  502 -0.32056452471E+02  0.37237898835E+02 -0.39552149481E+03  0.39858374592E+03  0.41800000000E+01 0. -1.
        -11    1    1    2    0    0  0.13539114514E+03  0.18025663823E+02 -0.76647504668E+03  0.77854973118E+03  0.00000000000E+00 0.  1.
         11    1    1    2    0    0 -0.28678244103E+01  0.31399061915E+02 -0.14831668760E+03  0.15163101703E+03  0.00000000000E+00 0. -1.
</event>
<event>
 7    1  0.2480409E-009  0.1550106E+03  0.7561462E-02  0.1194448E+00
         -2   -1    0    0    0  501 -0.00000000000E+00  0.00000000000E+00  0.31609498153E+03  0.31609498153E+03  0.00000000000E+00 0.  1.
          2   -1    0    0  501    0  0.00000000000E+00 -0.00000000000E+00 -0.16848348933E+03  0.16848348933E+03  0.00000000000E+00 0. -1.
         25    2    1    2    0    0 -0.12420990640E+03  0.65103840018E+02  0.22982525743E+03  0.29687566230E+03  0.12509555981E+03 0.  0.
          5    1    3    3  502    0 -0.57812711120E+02  0.18083017517E+02  0.88490596778E+01  0.61360274989E+02  0.41800000000E+01 0.  1.
         -5    1    3    3    0  502 -0.66397195283E+02  0.47020822501E+02  0.22097619775E+03  0.23551538731E+03  0.41800000000E+01 0.  1.
        -11    1    1    2    0    0  0.69479854422E+02 -0.84835262594E+02 -0.44331914943E+02  0.11827844534E+03  0.00000000000E+00 0. -1.
         11    1    1    2    0    0  0.54730051981E+02  0.19731422576E+02 -0.37881850291E+02  0.69424363218E+02  0.00000000000E+00 0.  1.
</event>
<event>
 7    1  0.2480409E-009  0.1114726E+03  0.7561462E-02  0.1257867E+00
         -2   -1    0    0    0  501 -0.00000000000E+00  0.00000000000E+00  0.28649464935E+03  0.28649464935E+03  0.00000000000E+00 0.  1.
          2   -1    0    0  501    0  0.00000000000E+00 -0.00000000000E+00 -0.90596614847E+02  0.90596614847E+02  0.00000000000E+00 0. -1.
         25    2    1    2    0    0  0.27726479488E+02 -0.10611217284E+03  0.54978362609E+02  0.17521007430E+03  0.12508956349E+03 0.  0.
          5    1    3    3  502    0  0.16391879385E+02 -0.21609903805E+02 -0.39361094701E+02  0.47983849661E+02  0.41800000000E+01 0. -1.
         -5    1    3    3    0  502  0.11334600103E+02 -0.84502269036E+02  0.94339457310E+02  0.12722622464E+03  0.41800000000E+01 0. -1.
        -11    1    1    2    0    0 -0.15162692137E+02  0.76244174505E+02  0.14937586527E+03  0.16839308330E+03  0.00000000000E+00 0.  1.
         11    1    1    2    0    0 -0.12563787350E+02  0.29867998336E+02 -0.84561933684E+01  0.33488106597E+02  0.00000000000E+00 0. -1.
</event>
<event>
 7    1  0.2480409E-009  0.8833381E+02  0.7561462E-02  0.1306938E+00
          2   -1    0    0  501    0  0.00000000000E+00  0.00000000000E+00  0.35484290560E+02  0.35484290560E+02  0.00000000000E+00 0. -1.
         -2   -1    0    0    0  501 -0.00000000000E+00 -0.00000000000E+00 -0.45149093352E+03  0.45149093352E+03  0.00000000000E+00 0.  1.
         25    2    1    2    0    0 -0.57005256658E+02 -0.30114904155E+01 -0.22143214105E+03  0.26065157643E+03  0.12509349641E+03 0.  0.
          5    1    3    3  502    0 -0.14623186639E+02 -0.16558137920E+02 -0.21420379492E+03  0.21538047190E+03  0.41800000000E+01 0.  1.
         -5    1    3    3    0  502 -0.42382070019E+02  0.13546647505E+02 -0.72283461344E+01  0.45271104532E+02  0.41800000000E+01 0.  1.
        -11    1    1    2    0    0 -0.26184973187E+02  0.24833775167E+01 -0.20348601562E+02  0.33254857844E+02  0.00000000000E+00 0. -1.
         11    1    1    2    0    0  0.83190229845E+02  0.52811289882E+00 -0.17422590035E+03  0.19306878980E+03  0.00000000000E+00 0.  1.
</event>
<event>
 7    1  0.2480409E-009  0.1163592E+03  0.7561462E-02  0.1249227E+00
         -1   -1    0    0    0  501 -0.00000000000E+00  0.00000000000E+00  0.22860882216E+03  0.22860882216E+03  0.00000000000E+00 0.  1.
          1   -1    0    0  501    0  0.00000000000E+00 -0.00000000000E+00 -0.75125105369E+02  0.75125105369E+02  0.00000000000E+00 0. -1.
         25    2    1    2    0    0 -0.22867169895E+02 -0.34480216205E+02  0.15341827358E+03  0.20222693163E+03  0.12508705945E+03 0.  0.
          5    1    3    3  502    0 -0.74542568685E+02 -0.25773714048E+02  0.97500076720E+02  0.12547755274E+03  0.41800000000E+01 0. -1.
         -5    1    3    3    0  502  0.51675398790E+02 -0.87065021568E+01  0.55918196860E+02  0.76749378890E+02  0.41800000000E+01 0. -1.
        -11    1    1    2    0    0 -0.19799549577E+02 -0.22506194207E+02 -0.37844441523E+01  0.30213787559E+02  0.00000000000E+00 0.  1.
         11    1    1    2    0    0  0.42666719472E+02  0.56986410411E+02  0.38498873616E+01  0.71293208336E+02  0.00000000000E+00 0. -1.
</event>
<event>
 7    1  0.2480409E-009  0.7538368E+02  0.7561462E-02  0.1342687E+00
         -1   -1    0    0    0  501 -0.00000000000E+00  0.00000000000E+00  0.61076942942E+02  0.61076942942E+02  0.00000000000E+00 0.  1.
          1   -1    0    0  501    0  0.00000000000E+00 -0.00000000000E+00 -0.22485879403E+03  0.22485879403E+03  0.00000000000E+00 0. -1.
         25    2    1    2    0    0 -0.17220331954E+02 -0.15607726215E+02 -0.56585617180E+02  0.13923903622E+03  0.12508171803E+03 0.  0.
          5    1    3    3  502    0 -0.89809565094E+01  0.29586442403E+02  0.28625788741E+02  0.42342925441E+02  0.41800000000E+01 0. -1.
         -5    1    3    3    0  502 -0.82393754445E+01 -0.45194168618E+02 -0.85211405921E+02  0.96896110777E+02  0.41800000000E+01 0. -1.
        -11    1    1    2    0    0  0.35310811069E+02  0.33008795181E+02 -0.14210029691E+02  0.50382128592E+02  0.00000000000E+00 0.  1.
         11    1    1    2    0    0 -0.18090479115E+02 -0.17401068966E+02 -0.92986204213E+02  0.96314572157E+02  0.00000000000E+00 0. -1.
</event>
<event>
 7    1  0.2480409E-009  0.9754499E+02  0.7561462E-02  0.1285545E+00
          2   -1    0    0  501    0  0.00000000000E+00  0.00000000000E+00  0.31592258216E+02  0.31592258216E+02  0.00000000000E+00 0. -1.
         -2   -1    0    0    0  501 -0.00000000000E+00 -0.00000000000E+00 -0.39429035341E+03  0.39429035341E+03  0.00000000000E+00 0.  1.
         25    2    1    2    0    0  0.52755973180E+01 -0.21878647323E+02 -0.19826873200E+03  0.23550619084E+03  0.12508464614E+03 0.  0.
          5    1    3    3  502    0 -0.12117638138E+02  0.45553971036E+02 -0.12808269806E+03  0.13654541872E+03  0.41800000000E+01 0. -1.
         -5    1    3    3    0  502  0.17393235456E+02 -0.67432618359E+02 -0.70186033946E+02  0.98960772125E+02  0.41800000000E+01 0. -1.
        -11    1    1    2    0    0  0.17812453925E+02  0.43104292996E+02 -0.38133204985E+02  0.60244542590E+02  0.00000000000E+00 0. -1.
         11    1    1    2    0    0 -0.23088051243E+02 -0.21225645674E+02 -0.12629615820E+03  0.13013187819E+03  0.00000000000E+00 0.  1.
</event>
<event>
 7    1  0.2480409E-009  0.1126655E+03  0.7561462E-02  0.1255712E+00
          2   -1    0    0  501    0  0.00000000000E+00  0.00000000000E+00  0.63166063423E+03  0.63166063423E+03  0.00000000000E+00 0. -1.
         -2   -1    0    0    0  501 -0.00000000000E+00 -0.00000000000E+00 -0.25383347444E+02  0.25383347444E+02  0.00000000000E+00 0.  1.
         25    2    1    2    0    0  0.39808302509E+02  0.38947625448E+02  0.41450339405E+03  0.43653487482E+03  0.12509202524E+03 0.  0.
          5    1    3    3  502    0  0.30901281559E+02  0.75514176965E+02  0.36596091730E+03  0.37496952611E+03  0.41800000000E+01 0. -1.
         -5    1    3    3    0  502  0.89070209506E+01 -0.36566551517E+02  0.48542476752E+02  0.61565348706E+02  0.41800000000E+01 0. -1.
        -11    1    1    2    0    0 -0.56187623809E+02 -0.57923092189E+02  0.12112658301E+03  0.14554649700E+03  0.00000000000E+00 0. -1.
         11    1    1    2    0    0  0.16379321300E+02  0.18975466741E+02  0.70647309733E+02  0.74962609859E+02  0.00000000000E+00 0.  1.
</event>
<event>
 7    1  0.2480409E-009  0.1712124E+03  0.7561462E-02  0.1176589E+00
          1   -1    0    0  501    0  0.00000000000E+00  0.00000000000E+00  0.87221069152E+03  0.87221069152E+03  0.00000000000E+00 0. -1.
         -1   -1    0    0    0  501 -0.00000000000E+00 -0.00000000000E+00 -0.45889087299E+02  0.45889087299E+02  0.00000000000E+00 0.  1.
         25    2    1    2    0    0  0.16273711720E+03  0.30244728289E+02  0.36924147961E+03  0.42353297292E+03  0.12507116367E+03 0.  0.
          5    1    3    3  502    0  0.83320338751E+02 -0.11941149912E+02  0.29513451483E+03  0.30693113911E+03  0.41800000000E+01 0. -1.
         -5    1    3    3    0  502  0.79416778454E+02  0.42185878201E+02  0.74106964781E+02  0.11660183381E+03  0.41800000000E+01 0. -1.
        -11    1    1    2    0    0 -0.89365239199E+02 -0.31469402821E+02  0.36350849649E+03  0.37565262719E+03  0.00000000000E+00 0. -1.
         11    1    1    2    0    0 -0.73371878006E+02  0.12246745325E+01  0.93571628125E+02  0.11891417872E+03  0.00000000000E+00 0.  1.
</event>
<event>
 7    1  0.2480409E-009  0.1359479E+03  0.7561462E-02  0.1218888E+00
         -2   -1    0    0    0  501 -0.00000000000E+00  0.00000000000E+00  0.28561060865E+02  0.28561060865E+02  0.00000000000E+00 0. -1.
          2   -1    0    0  501    0  0.00000000000E+00 -0.00000000000E+00 -0.76196399845E+03  0.76196399845E+03  0.00000000000E+00 0.  1.
         25    2    1    2    0    0 -0.97406616098E+02 -0.87293756609E+01 -0.43910292763E+03  0.46692938522E+03  0.12508964334E+03 0.  0.
          5    1    3    3  502    0 -0.11001612671E+03  0.22105848911E+02 -0.39963786143E+03  0.41511457380E+03  0.41800000000E+01 0.  1.
         -5    1    3    3    0  502  0.12609510615E+02 -0.30835224572E+02 -0.39465066200E+02  0.51814811420E+02  0.41800000000E+01 0.  1.
        -11    1    1    2    0    0  0.84988772358E+02 -0.26217235499E+02 -0.25254159750E+03  0.26774557575E+03  0.00000000000E+00 0.  1.
         11    1    1    2    0    0  0.12417843740E+02  0.34946611160E+02 -0.41758412450E+02  0.55850098344E+02  0.00000000000E+00 0. -1.
</event>
<event>
 7    1  0.2480409E-009  0.8773025E+02  0.7561462E-02  0.1308443E+00
         -2   -1    0    0    0  501 -0.00000000000E+00  0.00000000000E+00  0.19862241109E+02  0.19862241109E+02  0.00000000000E+00 0.  1.
          2   -1    0    0  501    0  0.00000000000E+00 -0.00000000000E+00 -0.61356823507E+03  0.61356823507E+03  0.00000000000E+00 0. -1.
         25    2    1    2    0    0  0.32514982361E+01 -0.92822292498E+01 -0.40159776955E+03  0.42074376536E+03  0.12509122895E+03 0.  0.
          5    1    3    3  502    0  0.49556758913E+02 -0.40156686351E+02 -0.27597860025E+03  0.28328447188E+03  0.41800000000E+01 0. -1.
         -5    1    3    3    0  502 -0.46305260677E+02  0.30874457101E+02 -0.12561916930E+03  0.13745929347E+03  0.41800000000E+01 0. -1.
        -11    1    1    2    0    0 -0.95462118216E+01 -0.21914179802E+02 -0.70631989771E+01  0.24924891501E+02  0.00000000000E+00 0.  1.
         11    1    1    2    0    0  0.62947135855E+01  0.31196409052E+02 -0.18504502543E+03  0.18776181932E+03  0.00000000000E+00 0. -1.
</event>
<event>
 7    1  0.2480409E-009  0.1147227E+03  0.7561462E-02  0.1252066E+00
          1   -1    0    0  501    0  0.00000000000E+00  0.00000000000E+00  0.89063364581E+02  0.89063364581E+02  0.00000000000E+00 0. -1.
         -1   -1    0    0    0  501 -0.00000000000E+00 -0.00000000000E+00 -0.26307996948E+03  0.26307996948E+03  0.00000000000E+00 0.  1.
         25    2    1    2    0    0  0.84428544866E+01 -0.52762814229E+02 -0.20035815919E+03  0.24216999033E+03  0.12509083062E+03 0.  0.
          5    1    3    3  502    0 -0.38692581014E+02  0.23664180093E+02 -0.57036884634E+02  0.72991697156E+02  0.41800000000E+01 0.  1.
         -5    1    3    3    0  502  0.47135435501E+02 -0.76426994322E+02 -0.14332127455E+03  0.16917829317E+03  0.41800000000E+01 0.  1.
        -11    1    1    2    0    0  0.14560424432E+02  0.65918716352E+02 -0.64473399489E+01  0.67814831103E+02  0.00000000000E+00 0.  1.
         11    1    1    2    0    0 -0.23003278918E+02 -0.13155902123E+02  0.32788894239E+02  0.42158512629E+02  0.00000000000E+00 0. -1.
</event>
<event>
 7    1  0.2480409E-009  0.1275679E+03  0.7561462E-02  0.1231110E+00
          1   -1    0    0  501    0  0.00000000000E+00  0.00000000000E+00  0.11902236388E+03  0.11902236388E+03  0.00000000000E+00 0. -1.
         -1   -1    0    0    0  501 -0.00000000000E+00 -0.00000000000E+00 -0.18972739973E+03  0.18972739973E+03  0.00000000000E+00 0.  1.
         25    2    1    2    0    0 -0.78876416075E+02 -0.63533259021E+02 -0.17748949406E+02  0.16192863900E+03  0.12509154611E+03 0.  0.
          5    1    3    3  502    0 -0.97128462280E+02 -0.71630104035E+02 -0.44140593472E+02  0.12857167021E+03  0.41800000000E+01 0.  1.
         -5    1    3    3    0  502  0.18252046206E+02  0.80968450144E+01  0.26391644066E+02  0.33356968783E+02  0.41800000000E+01 0.  1.
        -11    1    1    2    0    0  0.48852620214E+02  0.67890439472E+02  0.24241760288E+01  0.83675366165E+02  0.00000000000E+00 0. -1.
         11    1    1    2    0    0  0.30023795860E+02 -0.43571804511E+01 -0.55380262472E+02  0.63145758454E+02  0.00000000000E+00 0.  1.
</event>
<event>
 7    1  0.2480409E-009  0.8231092E+02  0.7561462E-02  0.1322618E+00
          2   -1    0    0  501    0  0.00000000000E+00  0.00000000000E+00  0.24819469442E+03  0.24819469442E+03  0.00000000000E+00 0.  1.
         -2   -1    0    0    0  501 -0.00000000000E+00 -0.00000000000E+00 -0.80502984673E+02  0.80502984673E+02  0.00000000000E+00 0. -1.
         25    2    1    2    0    0  0.68450404014E+02  0.12605850422E+02  0.26280415742E+02  0.14554460727E+03  0.12509279428E+03 0.  0.
          5    1    3    3  502    0  0.16498897813E+02 -0.11460676174E+02 -0.47686523037E+02  0.51913751616E+02  0.41800000000E+01 0.  1.
         -5    1    3    3    0  502  0.51951506200E+02  0.24066526596E+02  0.73966938780E+02  0.93630855658E+02  0.41800000000E+01 0.  1.
        -11    1    1    2    0    0 -0.23991768268E+02 -0.30469971504E+02  0.56577941628E+01  0.39192279123E+02  0.00000000000E+00 0.  1.
         11    1    1    2    0    0 -0.44458635745E+02  0.17864121082E+02  0.13575349984E+03  0.14396079269E+03  0.00000000000E+00 0. -1.
</event>
<event>
 7    1  0.2480409E-009  0.1493991E+03  0.7561462E-02  0.1201213E+00
          2   -1    0    0  501    0  0.00000000000E+00  0.00000000000E+00  0.10208050933E+04  0.10208050933E+04  0.00000000000E+00 0. -1.
         -2   -1    0    0    0  501 -0.00000000000E+00 -0.00000000000E+00 -0.23151535566E+02  0.23151535566E+02  0.00000000000E+00 0.  1.
         25    2    1    2    0    0 -0.24284873387E+02  0.99546006515E+02  0.57142585753E+03  0.59386498682E+03  0.12509576106E+03 0.  0.
          5    1    3    3  502    0 -0.40980086061E+02  0.12290553769E+03  0.50514859141E+03  0.52151482285E+03  0.41800000000E+01 0.  1.
         -5    1    3    3    0  502  0.16695212674E+02 -0.23359531175E+02  0.66277266122E+02  0.72350163977E+02  0.41800000000E+01 0.  1.
        -11    1    1    2    0    0 -0.37085206493E+02 -0.41984072550E+02  0.22730356306E+03  0.23410443112E+03  0.00000000000E+00 0.  1.
         11    1    1    2    0    0  0.61370079881E+02 -0.57561933965E+02  0.19892413719E+03  0.21598721097E+03  0.00000000000E+00 0. -1.
</event>
<event>
 7    1  0.2480409E-009  0.1223868E+03  0.7561462E-02  0.1239211E+00
         -2   -1    0    0    0  501 -0.00000000000E+00  0.00000000000E+00  0.25503640651E+03  0.25503640651E+03  0.00000000000E+00 0.  1.
          2   -1    0    0  501    0  0.00000000000E+00 -0.00000000000E+00 -0.99617232397E+02  0.99617232397E+02  0.00000000000E+00 0. -1.
         25    2    1    2    0    0 -0.14039753964E+02  0.11467014131E+03  0.62129137229E+02  0.18124986680E+03  0.12508048818E+03 0.  0.
          5    1    3    3  502    0  0.43624685858E+01  0.50473556542E+02  0.94205833906E+02  0.10704589008E+03  0.41800000000E+01 0.  1.
         -5    1    3    3    0  502 -0.18402222550E+02  0.64196584768E+02 -0.32076696677E+02  0.74203976716E+02  0.41800000000E+01 0.  1.
        -11    1    1    2    0    0 -0.10359867888E+02 -0.95332009552E+02  0.10306068563E+03  0.14077295134E+03  0.00000000000E+00 0.  1.
         11    1    1    2    0    0  0.24399621851E+02 -0.19338131758E+02 -0.97706487493E+01  0.32630820758E+02  0.00000000000E+00 0. -1.
</event>
<event>
 7    1  0.2480409E-009  0.1841737E+03  0.7561462E-02  0.1163824E+00
          2   -1    0    0  501    0  0.00000000000E+00  0.00000000000E+00  0.66648471960E+02  0.66648471960E+02  0.00000000000E+00 0. -1.
         -2   -1    0    0    0  501 -0.00000000000E+00 -0.00000000000E+00 -0.57702259809E+03  0.57702259809E+03  0.00000000000E+00 0.  1.
         25    2    1    2    0    0 -0.28056635819E+02  0.16194793159E+03 -0.18299503620E+03  0.27595090477E+03  0.12508961271E+03 0.  0.
          5    1    3    3  502    0 -0.75653621047E+02  0.10566300263E+03 -0.13744296138E+03  0.18919878577E+03  0.41800000000E+01 0. -1.
         -5    1    3    3    0  502  0.47596985228E+02  0.56284928956E+02 -0.45552074824E+02  0.86752119001E+02  0.41800000000E+01 0. -1.
        -11    1    1    2    0    0  0.47759039915E+01 -0.45002763535E+02 -0.12351805266E+03  0.13154758575E+03  0.00000000000E+00 0.  1.
         11    1    1    2    0    0  0.23280731827E+02 -0.11694516805E+03 -0.20386103726E+03  0.23617257953E+03  0.00000000000E+00 0. -1.
</event>
<event>
 7    1  0.2480409E-009  0.5323718E+02  0.7561462E-02  0.1428624E+00
          2   -1    0    0  501    0  0.00000000000E+00  0.00000000000E+00  0.20933945012E+03  0.20933945012E+03  0.00000000000E+00 0. -1.
         -2   -1    0    0    0  501 -0.00000000000E+00 -0.00000000000E+00 -0.61751303530E+02  0.61751303530E+02  0.00000000000E+00 0.  1.
         25    2    1    2    0    0 -0.30826464024E+02 -0.54373782219E+01  0.71112087927E+02  0.14725686406E+03  0.12509124268E+03 0.  0.
          5    1    3    3  502    0 -0.71509803051E+01  0.26283370316E+01 -0.36077062956E+02  0.37108914649E+02  0.41800000000E+01 0.  1.
         -5    1    3    3    0  502 -0.23675483719E+02 -0.80657152535E+01  0.10718915088E+03  0.11014794941E+03  0.41800000000E+01 0.  1.
        -11    1    1    2    0    0 -0.13118070957E+02  0.21875565308E+02 -0.83984740317E+01  0.26854394598E+02  0.00000000000E+00 0.  1.
         11    1    1    2    0    0  0.43944534981E+02 -0.16438187086E+02  0.84874532691E+02  0.96979494992E+02  0.00000000000E+00 0. -1.
</event>
<event>
 7    1  0.2480409E-009  0.1248675E+03  0.7561462E-02  0.1235277E+00
         -1   -1    0    0    0  501 -0.00000000000E+00  0.00000000000E+00  0.87303362220E+02  0.87303362220E+02  0.00000000000E+00 0.  1.
          1   -1    0    0  501    0  0.00000000000E+00 -0.00000000000E+00 -0.23117701854E+03  0.23117701854E+03  0.00000000000E+00 0. -1.
         25    2    1    2    0    0  0.64072968656E+02 -0.63874862566E+02 -0.10501286451E+03  0.18670904704E+03  0.12508886103E+03 0.  0.
          5    1    3    3  502    0  0.99822810162E+02 -0.37928276465E+02 -0.90459644891E+02  0.14001273991E+03  0.41800000000E+01 0. -1.
         -5    1    3    3    0  502 -0.35749841507E+02 -0.25946586101E+02 -0.14553219621E+02  0.46696307128E+02  0.41800000000E+01 0. -1.
        -11    1    1    2    0    0 -0.56986002584E+02  0.31010385193E+02  0.16553658396E+02  0.66955747226E+02  0.00000000000E+00 0.  1.
         11    1    1    2    0    0 -0.70869660724E+01  0.32864477372E+02 -0.55414450204E+02  0.64815586493E+02  0.00000000000E+00 0. -1.
</event>
<event>
 7    1  0.2480409E-009  0.1254239E+03  0.7561462E-02  0.1234408E+00
          2   -1    0    0  501    0  0.00000000000E+00  0.00000000000E+00  0.45204171678E+02  0.45204171678E+02  0.00000000000E+00 0.  1.
         -2   -1    0    0    0  501 -0.00000000000E+00 -0.00000000000E+00 -0.42243777897E+03  0.42243777897E+03  0.00000000000E+00 0. -1.
         25    2    1    2    0    0 -0.69818223651E+02 -0.50018400476E+02 -0.21769888100E+03  0.26536088339E+03  0.12508865218E+03 0.  0.
          5    1    3    3  502    0  0.24596204273E+02 -0.23416086513E+01 -0.20603755344E+01  0.25143069484E+02  0.41800000000E+01 0. -1.
         -5    1    3    3    0  502 -0.94414427924E+02 -0.47676791825E+02 -0.21563850546E+03  0.24021781390E+03  0.41800000000E+01 0. -1.
        -11    1    1    2    0    0 -0.40654090797E+01 -0.18639439717E+02 -0.49326038061E+02  0.52886806434E+02  0.00000000000E+00 0. -1.
         11    1    1    2    0    0  0.73883632731E+02  0.68657840192E+02 -0.11020868823E+03  0.14939426083E+03  0.00000000000E+00 0.  1.
</event>
<event>
 7    1  0.2480409E-009  0.1205524E+03  0.7561462E-02  0.1242189E+00
         -1   -1    0    0    0  501 -0.00000000000E+00  0.00000000000E+00  0.38516963777E+02  0.38516963777E+02  0.00000000000E+00 0.  1.
          1   -1    0    0  501    0  0.00000000000E+00 -0.00000000000E+00 -0.42044719411E+03  0.42044719411E+03  0.00000000000E+00 0. -1.
         25    2    1    2    0    0  0.34561048069E+02  0.47924960033E+02 -0.15900006889E+03  0.21075973452E+03  0.12508947179E+03 0.  0.
          5    1    3    3  502    0 -0.28805269536E+02 -0.25672111092E+02 -0.29067577199E+02  0.48489146055E+02  0.41800000000E+01 0.  1.
         -5    1    3    3    0  502  0.63366317604E+02  0.73597071125E+02 -0.12993249169E+03  0.16227058847E+03  0.41800000000E+01 0.  1.
        -11    1    1    2    0    0  0.15257861647E+01 -0.65102269741E+02 -0.16874474752E+03  0.18087405387E+03  0.00000000000E+00 0. -1.
         11    1    1    2    0    0 -0.36086834233E+02  0.17177309708E+02 -0.54185413928E+02  0.67330369495E+02  0.00000000000E+00 0.  1.
</event>
<event>
 7    1  0.2480409E-009  0.1076646E+03  0.7561462E-02  0.1264957E+00
          1   -1    0    0  501    0  0.00000000000E+00  0.00000000000E+00  0.31672935252E+02  0.31672935252E+02  0.00000000000E+00 0. -1.
         -1   -1    0    0    0  501 -0.00000000000E+00 -0.00000000000E+00 -0.48821429520E+03  0.48821429520E+03  0.00000000000E+00 0.  1.
         25    2    1    2    0    0 -0.38581267860E+02 -0.43843118261E+02 -0.20106076770E+03  0.24389539966E+03  0.12509516544E+03 0.  0.
          5    1    3    3  502    0  0.34238057539E+02 -0.42010242911E+02 -0.13475825847E+03  0.14530783090E+03  0.41800000000E+01 0. -1.
         -5    1    3    3    0  502 -0.72819325399E+02 -0.18328753505E+01 -0.66302509232E+02  0.98587568760E+02  0.41800000000E+01 0. -1.
        -11    1    1    2    0    0  0.45358465244E+02  0.57218792201E+02 -0.24930109200E+03  0.25977377662E+03  0.00000000000E+00 0.  1.
         11    1    1    2    0    0 -0.67771973843E+01 -0.13375673940E+02 -0.61795002436E+01  0.16218054168E+02  0.00000000000E+00 0. -1.
</event>
<event>
 7    1  0.2480409E-009  0.1193689E+03  0.7561462E-02  0.1244142E+00
         -1   -1    0    0    0  501 -0.00000000000E+00  0.00000000000E+00  0.48131036162E+03  0.48131036162E+03  0.00000000000E+00 0.  1.
          1   -1    0    0  501    0  0.00000000000E+00 -0.00000000000E+00 -0.50042375340E+02  0.50042375340E+02  0.00000000000E+00 0. -1.
         25    2    1    2    0    0  0.75545711037E+02  0.78860946866E+02  0.24849554282E+03  0.29887253722E+03  0.12509418575E+03 0.  0.
          5    1    3    3  502    0  0.47689636906E+02  0.24363091058E+02  0.22792435926E+03  0.23416841721E+03  0.41800000000E+01 0. -1.
         -5    1    3    3    0  502  0.27856074131E+02  0.54497855809E+02  0.20571183558E+02  0.64704120014E+02  0.41800000000E+01 0. -1.
        -11    1    1    2    0    0 -0.53733823075E+02 -0.14408240212E+02  0.25656859469E+02  0.61263329701E+02  0.00000000000E+00 0. -1.
         11    1    1    2    0    0 -0.21811887963E+02 -0.64452706654E+02  0.15711558399E+03  0.17121687003E+03  0.00000000000E+00 0.  1.
</event>
<event>
 7    1  0.2480409E-009  0.2262091E+03  0.7561462E-02  0.1129337E+00
         -1   -1    0    0    0  501 -0.00000000000E+00  0.00000000000E+00  0.41245747459E+02  0.41245747459E+02  0.00000000000E+00 0.  1.
          1   -1    0    0  501    0  0.00000000000E+00 -0.00000000000E+00 -0.14844569040E+04  0.14844569040E+04  0.00000000000E+00 0. -1.
         25    2    1    2    0    0  0.16673861174E+03  0.11434945690E+03 -0.44539705331E+03  0.50488064877E+03  0.12509345094E+03 0.  0.
          5    1    3    3  502    0  0.39257339529E+02  0.10135038455E+03 -0.22482099942E+03  0.24974986153E+03  0.41800000000E+01 0.  1.
         -5    1    3    3    0  502  0.12748127221E+03  0.12999072346E+02 -0.22057605389E+03  0.25513078724E+03  0.41800000000E+01 0.  1.
        -11    1    1    2    0    0 -0.10208623771E+03 -0.11084482433E+03 -0.68584005372E+03  0.70219993898E+03  0.00000000000E+00 0.  1.
         11    1    1    2    0    0 -0.64652374026E+02 -0.35046325657E+01 -0.31197404954E+03  0.31862206374E+03  0.00000000000E+00 0. -1.
</event>
<event>
 7    1  0.2480409E-009  0.1185581E+03  0.7561462E-02  0.1245495E+00
          1   -1    0    0  501    0  0.00000000000E+00  0.00000000000E+00  0.49481927444E+03  0.49481927444E+03  0.00000000000E+00 0. -1.
         -1   -1    0    0    0  501 -0.00000000000E+00 -0.00000000000E+00 -0.39661640152E+02  0.39661640152E+02  0.00000000000E+00 0.  1.
         25    2    1    2    0    0 -0.52529100464E+02  0.43824206915E+02  0.14204189805E+03  0.20125429794E+03  0.12509006408E+03 0.  0.
          5    1    3    3  502    0 -0.57939159802E+02  0.73523417509E+02  0.14276620463E+03  0.17076973017E+03  0.41800000000E+01 0.  1.
         -5    1    3    3    0  502  0.54100593379E+01 -0.29699210594E+02 -0.72430657944E+00  0.30484567768E+02  0.41800000000E+01 0.  1.
        -11    1    1    2    0    0 -0.45968222425E+01 -0.54609730486E+02  0.12923007411E+03  0.14037010185E+03  0.00000000000E+00 0.  1.
         11    1    1    2    0    0  0.57125922706E+02  0.10785523572E+02  0.18388566212E+03  0.19285651479E+03  0.00000000000E+00 0. -1.
</event>
<event>
 7    1  0.2480409E-009  0.1496310E+03  0.7561462E-02  0.1200927E+00
         -2   -1    0    0    0  501 -0.00000000000E+00  0.00000000000E+00  0.95513162530E+02  0.95513162530E+02  0.00000000000E+00 0.  1.
          2   -1    0    0  501    0  0.00000000000E+00 -0.00000000000E+00 -0.37413801030E+03  0.37413801030E+03  0.00000000000E+00 0. -1.
         25    2    1    2    0    0  0.12448343290E+03 -0.61578186143E+02 -0.22812642393E+03  0.29491899540E+03  0.12509016939E+03 0.  0.
          5    1    3    3  502    0  0.21623354326E+02 -0.19115358621E+02  0.10973542855E+02  0.31158585178E+02  0.41800000000E+01 0. -1.
         -5    1    3    3    0  502  0.10286007858E+03 -0.42462827522E+02 -0.23909996678E+03  0.26376041022E+03  0.41800000000E+01 0. -1.
        -11    1    1    2    0    0 -0.95622241125E+02  0.79853632780E+02 -0.15022227552E+02  0.12548260033E+03  0.00000000000E+00 0. -1.
         11    1    1    2    0    0 -0.28861191778E+02 -0.18275446637E+02 -0.35476196291E+02  0.49249577093E+02  0.00000000000E+00 0.  1.
</event>
<event>
 7    1  0.2480409E-009  0.2051551E+03  0.7561462E-02  0.1145461E+00
          1   -1    0    0  501    0  0.00000000000E+00  0.00000000000E+00  0.24064060966E+03  0.24064060966E+03  0.00000000000E+00 0. -1.
         -1   -1    0    0    0  501 -0.00000000000E+00 -0.00000000000E+00 -0.18172151425E+03  0.18172151425E+03  0.00000000000E+00 0.  1.
         25    2    1    2    0    0  0.38239100294E+02  0.16981462726E+03  0.69627218727E+02  0.22537217322E+03  0.12508169512E+03 0.  0.
          5    1    3    3  502    0  0.12392408701E+02  0.18364897331E+03  0.53896756834E+02  0.19184068909E+03  0.41800000000E+01 0. -1.
         -5    1    3    3    0  502  0.25846691593E+02 -0.13834346054E+02  0.15730461893E+02  0.33531484137E+02  0.41800000000E+01 0. -1.
        -11    1    1    2    0    0  0.24295391549E+02 -0.99770132162E+02 -0.89609343687E+01  0.10307591216E+03  0.00000000000E+00 0. -1.
         11    1    1    2    0    0 -0.62534491843E+02 -0.70044495097E+02 -0.17471889416E+01  0.93914038528E+02  0.00000000000E+00 0.  1.
</event>
<event>
 7    1  0.2480409E-009  0.8883458E+02  0.7561462E-02  0.1305699E+00
          3   -1    0    0  501    0  0.00000000000E+00  0.00000000000E+00  0.15976314889E+03  0.15976314889E+03  0.00000000000E+00 0. -1.
         -3   -1    0    0    0  501 -0.00000000000E+00 -0.00000000000E+00 -0.19174884610E+03  0.19174884610E+03  0.00000000000E+00 0.  1.
         25    2    1    2    0    0 -0.40964361272E+02 -0.46552793056E+02 -0.13960787829E+03  0.19744132449E+03  0.12508986970E+03 0.  0.
          5    1    3    3  502    0  0.64106143614E+01  0.10327819316E+02 -0.12008436450E+03  0.12077038886E+03  0.41800000000E+01 0.  1.
         -5    1    3    3    0  502 -0.47374975634E+02 -0.56880612372E+02 -0.19523513792E+02  0.76670935633E+02  0.41800000000E+01 0.  1.
        -11    1    1    2    0    0 -0.14762262760E+02  0.28495180310E+02  0.63758015183E+00  0.32098383310E+02  0.00000000000E+00 0.  1.
         11    1    1    2    0    0  0.55726624033E+02  0.18057612746E+02  0.10698460094E+03  0.12197228719E+03  0.00000000000E+00 0. -1.
</event>
<event>
 7    1  0.2480409E-009  0.1752760E+03  0.7561462E-02  0.1172455E+00
         -2   -1    0    0    0  501 -0.00000000000E+00  0.00000000000E+00  0.80470228730E+03  0.80470228730E+03  0.00000000000E+00 0.  1.
          2   -1    0    0  501    0  0.00000000000E+00 -0.00000000000E+00 -0.53709691076E+02  0.53709691076E+02  0.00000000000E+00 0. -1.
         25    2    1    2    0    0 -0.10717157733E+03 -0.11474409441E+03  0.57868290053E+03  0.61251411607E+03  0.12509072239E+03 0.  0.
          5    1    3    3  502    0 -0.53287545759E+02 -0.12575544765E+03  0.31892428552E+03  0.34696421637E+03  0.41800000000E+01 0.  1.
         -5    1    3    3    0  502 -0.53884031570E+02  0.11011353237E+02  0.25975861501E+03  0.26554989970E+03  0.41800000000E+01 0.  1.
        -11    1    1    2    0    0  0.54123493614E+02  0.40949788327E+02  0.12779448060E+03  0.14469853834E+03  0.00000000000E+00 0.  1.
         11    1    1    2    0    0  0.53048083716E+02  0.73794306085E+02  0.44515215087E+02  0.10119932396E+03  0.00000000000E+00 0. -1.
</event>
<event>
 7    1  0.2480409E-009  0.1502764E+03  0.7561462E-02  0.1200134E+00
          1   -1    0    0  501    0  0.00000000000E+00  0.00000000000E+00  0.43746343256E+02  0.43746343256E+02  0.00000000000E+00 0. -1.
         -1   -1    0    0    0  501 -0.00000000000E+00 -0.00000000000E+00 -0.67654875297E+03  0.67654875297E+03  0.00000000000E+00 0.  1.
         25    2    1    2    0    0 -0.12410128302E+03 -0.24504197054E+02 -0.42311591483E+03  0.45899501871E+03  0.12509102963E+03 0.  0.
          5    1    3    3  502    0 -0.12534196986E+03  0.29283484726E+00 -0.41340603963E+03  0.43201009382E+03  0.41800000000E+01 0.  1.
         -5    1    3    3    0  502  0.12406868445E+01 -0.24797031901E+02 -0.97098752095E+01  0.26984924894E+02  0.41800000000E+01 0.  1.
        -11    1    1    2    0    0 -0.10920938715E+02  0.88111565120E+01 -0.37114422876E+01  0.14514757502E+02  0.00000000000E+00 0. -1.
         11    1    1    2    0    0  0.13502222173E+03  0.15693040542E+02 -0.20597505259E+03  0.24678532001E+03  0.00000000000E+00 0.  1.
</event>
<event>
 7    1  0.2480409E-009  0.1612350E+03  0.7561462E-02  0.1187309E+00
          1   -1    0    0  501    0  0.00000000000E+00  0.00000000000E+00  0.11643684721E+04  0.11643684721E+04  0.00000000000E+00 0. -1.
         -1   -1    0    0    0  501 -0.00000000000E+00 -0.00000000000E+00 -0.26965511520E+02  0.26965511520E+02  0.00000000000E+00 0.  1.
         25    2    1    2    0    0 -0.55512662400E+02 -0.12519192364E+03  0.68679666155E+03  0.71140151185E+03  0.12509110004E+03 0.  0.
          5    1    3    3  502    0 -0.39848595701E+02 -0.81725512113E+01  0.38721220507E+03  0.38936546499E+03  0.41800000000E+01 0.  1.
         -5    1    3    3    0  502 -0.15664066699E+02 -0.11701937243E+03  0.29958445648E+03  0.32203604686E+03  0.41800000000E+01 0.  1.
        -11    1    1    2    0    0  0.79859994946E+02  0.10427270073E+03  0.33134101125E+03  0.35642289579E+03  0.00000000000E+00 0.  1.
         11    1    1    2    0    0 -0.24347332546E+02  0.20919222908E+02  0.11926528773E+03  0.12350957593E+03  0.00000000000E+00 0. -1.
</event>
<event>
 7    1  0.2480409E-009  0.1550889E+03  0.7561462E-02  0.1194356E+00
          1   -1    0    0  501    0  0.00000000000E+00  0.00000000000E+00  0.59589827795E+02  0.59589827795E+02  0.00000000000E+00 0. -1.
         -1   -1    0    0    0  501 -0.00000000000E+00 -0.00000000000E+00 -0.52787428447E+03  0.52787428447E+03  0.00000000000E+00 0.  1.
         25    2    1    2    0    0  0.11250584471E+03 -0.28975270234E+02 -0.37862923776E+03  0.41533783310E+03  0.12509310347E+03 0.  0.
          5    1    3    3  502    0  0.13973317427E+03 -0.30673997067E+02 -0.31715030433E+03  0.34794833240E+03  0.41800000000E+01 0. -1.
         -5    1    3    3    0  502 -0.27227329559E+02  0.16987268324E+01 -0.61478933437E+02  0.67389500698E+02  0.41800000000E+01 0. -1.
        -11    1    1    2    0    0 -0.41438976019E+02 -0.26599092788E+02 -0.58989321223E+02  0.76840357164E+02  0.00000000000E+00 0.  1.
         11    1    1    2    0    0 -0.71066868687E+02  0.55574363022E+02 -0.30665897683E+02  0.95285921998E+02  0.00000000000E+00 0. -1.
</event>
<event>
 7    1  0.2480409E-009  0.2382208E+03  0.7561462E-02  0.1120984E+00
          2   -1    0    0  501    0  0.00000000000E+00  0.00000000000E+00  0.17535145128E+03  0.17535145128E+03  0.00000000000E+00 0. -1.
         -2   -1    0    0    0  501 -0.00000000000E+00 -0.00000000000E+00 -0.37948642046E+03  0.37948642046E+03  0.00000000000E+00 0.  1.
         25    2    1    2    0    0 -0.13976081066E+03 -0.16158342697E+03 -0.20983200747E+03  0.32452959938E+03  0.12509077283E+03 0.  0.
          5    1    3    3  502    0 -0.29501271266E+02 -0.12783311146E+03 -0.97645623540E+02  0.16359636178E+03  0.41800000000E+01 0.  1.
         -5    1    3    3    0  502 -0.11025953940E+03 -0.33750315510E+02 -0.11218638393E+03  0.16093323760E+03  0.41800000000E+01 0.  1.
        -11    1    1    2    0    0  0.70297730515E+02  0.21625185578E+02  0.84763238484E+01  0.74035583558E+02  0.00000000000E+00 0. -1.
         11    1    1    2    0    0  0.69463080147E+02  0.13995824139E+03 -0.27792855580E+01  0.15627268880E+03  0.00000000000E+00 0.  1.
</event>
<event>
 7    1  0.2480409E-009  0.8116595E+02  0.7561462E-02  0.1325775E+00
          3   -1    0    0  501    0  0.00000000000E+00  0.00000000000E+00  0.22997488700E+03  0.22997488700E+03  0.00000000000E+00 0. -1.
         -3   -1    0    0    0  501 -0.00000000000E+00 -0.00000000000E+00 -0.59524400740E+02  0.59524400740E+02  0.00000000000E+00 0.  1.
         25    2    1    2    0    0  0.22813307173E+02 -0.21506302861E+01  0.52860532327E+02  0.13772651235E+03  0.12509709882E+03 0.  0.
          5    1    3    3  502    0  0.52718042496E+02 -0.18826250559E+02 -0.17972049440E+02  0.58941383389E+02  0.41800000000E+01 0. -1.
         -5    1    3    3    0  502 -0.29904735323E+02  0.16675620273E+02  0.70832581767E+02  0.78785128965E+02  0.41800000000E+01 0. -1.
        -11    1    1    2    0    0  0.24140664712E+02 -0.35657005438E+01 -0.66201317499E+00  0.24411558217E+02  0.00000000000E+00 0.  1.
         11    1    1    2    0    0 -0.46953971885E+02  0.57163308299E+01  0.11825196711E+03  0.12736121717E+03  0.00000000000E+00 0. -1.
</event>
<event>
 7    1  0.2480409E-009  0.1020576E+03  0.7561462E-02  0.1276028E+00
          2   -1    0    0  501    0  0.00000000000E+00  0.00000000000E+00  0.77719436622E+03  0.77719436622E+03  0.00000000000E+00 0.  1.
         -2   -1    0    0    0  501 -0.00000000000E+00 -0.00000000000E+00 -0.23017140954E+02  0.23017140954E+02  0.00000000000E+00 0. -1.
         25    2    1    2    0    0 -0.20890117426E+02 -0.71316227782E+02  0.46444749759E+03  0.48670481898E+03  0.12509077285E+03 0.  0.
          5    1    3    3  502    0 -0.35900819509E+02 -0.30527941829E+02  0.46005518606E+02  0.65990940408E+02  0.41800000000E+01 0.  1.
         -5    1    3    3    0  502  0.15010702084E+02 -0.40788285953E+02  0.41844197898E+03  0.42071387857E+03  0.41800000000E+01 0.  1.
        -11    1    1    2    0    0 -0.19905380305E+02 -0.99175029228E+01  0.10851571037E+03  0.11077111730E+03  0.00000000000E+00 0.  1.
         11    1    1    2    0    0  0.40795497731E+02  0.81233730705E+02  0.18121401730E+03  0.20273557089E+03  0.00000000000E+00 0. -1.
</event>
<event>
 7    1  0.3091023E-009  0.1348207E+03  0.7561462E-02  0.1220473E+00
         -1   -1    0    0    0  501 -0.00000000000E+00  0.00000000000E+00  0.90145579697E+02  0.90145579697E+02  0.00000000000E+00 0.  1.
          1   -1    0    0  501    0  0.00000000000E+00 -0.00000000000E+00 -0.26102414176E+03  0.26102414176E+03  0.00000000000E+00 0. -1.
         25    2    1    2    0    0 -0.10143139806E+03  0.34773724849E+02 -0.76028960349E+02  0.18145342740E+03  0.12508958011E+03 0.  0.
          5    1    3    3  502    0 -0.12242899157E+03  0.53047401825E+02 -0.75364822585E+02  0.15329779418E+03  0.41800000000E+01 0.  1.
         -5    1    3    3    0  502  0.20997593510E+02 -0.18273676976E+02 -0.66413776448E+00  0.28155633227E+02  0.41800000000E+01 0.  1.
        -11    1    1    2    0    0  0.70965606217E+02 -0.17959282022E+02 -0.10970047076E+03  0.13188194100E+03  0.00000000000E+00 0. -1.
         11    1    1    2    0    0  0.30465791838E+02 -0.16814442827E+02  0.14850869044E+02  0.37834353057E+02  0.00000000000E+00 0.  1.
</event>
<event>
 7    1  0.2480409E-009  0.9902847E+02  0.7561462E-02  0.1282352E+00
          2   -1    0    0  501    0  0.00000000000E+00  0.00000000000E+00  0.22093999435E+03  0.22093999435E+03  0.00000000000E+00 0. -1.
         -2   -1    0    0    0  501 -0.00000000000E+00 -0.00000000000E+00 -0.11034411773E+03  0.11034411773E+03  0.00000000000E+00 0.  1.
         25    2    1    2    0    0  0.25870883426E+02 -0.16945299404E+02 -0.54872231611E+02  0.14005268695E+03  0.12508935822E+03 0.  0.
          5    1    3    3  502    0  0.68022656361E+02  0.21052287732E+01 -0.63080348861E+02  0.92887655687E+02  0.41800000000E+01 0.  1.
         -5    1    3    3    0  502 -0.42151772935E+02 -0.19050528178E+02  0.82081172497E+01  0.47165031265E+02  0.41800000000E+01 0.  1.
        -11    1    1    2    0    0  0.23211779114E+02 -0.12324435218E+02  0.14962794430E+02  0.30241752764E+02  0.00000000000E+00 0.  1.
         11    1    1    2    0    0 -0.49082662541E+02  0.29269734622E+02  0.15050531380E+03  0.16098967237E+03  0.00000000000E+00 0. -1.
</event>
<event>
 7    1  0.2480409E-009  0.8943227E+02  0.7561462E-02  0.1304232E+00
          1   -1    0    0  501    0  0.00000000000E+00  0.00000000000E+00  0.23695980668E+03  0.23695980668E+03  0.00000000000E+00 0. -1.
         -1   -1    0    0    0  501 -0.00000000000E+00 -0.00000000000E+00 -0.74359197670E+02  0.74359197670E+02  0.00000000000E+00 0.  1.
         25    2    1    2    0    0 -0.52114467359E+02 -0.29147222928E+02  0.30697570536E+02  0.14197047449E+03  0.12509115268E+03 0.  0.
          5    1    3    3  502    0 -0.51771890938E+02 -0.55215264301E+02  0.64183025580E+02  0.99327676283E+02  0.41800000000E+01 0. -1.
         -5    1    3    3    0  502 -0.34257642015E+00  0.26068041373E+02 -0.33485455044E+02  0.42642798209E+02  0.41800000000E+01 0. -1.
        -11    1    1    2    0    0  0.14956198984E+02 -0.13460097432E+02 -0.54243303558E+01  0.20839517047E+02  0.00000000000E+00 0.  1.
         11    1    1    2    0    0  0.37158268375E+02  0.42607320359E+02  0.13732736883E+03  0.14850901281E+03  0.00000000000E+00 0. -1.
</event>
<event>
 7    1  0.2480409E-009  0.1209716E+03  0.7561462E-02  0.1241503E+00
         -1   -1    0    0    0  501 -0.00000000000E+00  0.00000000000E+00  0.82753005247E+02  0.82753005247E+02  0.00000000000E+00 0.  1.
          1   -1    0    0  501    0  0.00000000000E+00 -0.00000000000E+00 -0.21745699384E+03  0.21745699384E+03  0.00000000000E+00 0. -1.
         25    2    1    2    0    0  0.49840675303E+02 -0.15662770256E+02 -0.96033561385E+01  0.13590127795E+03  0.12509003802E+03 0.  0.
          5    1    3    3  502    0 -0.89778720907E+01 -0.60526370279E+02 -0.13104364101E+01  0.61345198101E+02  0.41800000000E+01 0.  1.
         -5    1    3    3    0  502  0.58818547394E+02  0.44863600023E+02 -0.82929197284E+01  0.74556079847E+02  0.41800000000E+01 0.  1.
        -11    1    1    2    0    0 -0.65842283212E+02 -0.18840904967E+02 -0.81165483155E+02  0.10619803018E+03  0.00000000000E+00 0.  1.
         11    1    1    2    0    0  0.16001607909E+02  0.34503675223E+02 -0.43935149301E+02  0.58110690959E+02  0.00000000000E+00 0. -1.
</event>
<event>
 7    1  0.2480409E-009  0.1151988E+03  0.7561462E-02  0.1251235E+00
         -2   -1    0    0    0  501 -0.00000000000E+00  0.00000000000E+00  0.56083100943E+02  0.56083100943E+02  0.00000000000E+00 0.  1.
          2   -1    0    0  501    0  0.00000000000E+00 -0.00000000000E+00 -0.31550122165E+03  0.31550122165E+03  0.00000000000E+00 0. -1.
         25    2    1    2    0    0  0.12921402922E+02 -0.56847821558E+02 -0.19984650413E+03  0.24286777688E+03  0.12508994510E+03 0.  0.
          5    1    3    3  502    0 -0.38331567580E+02  0.19307799448E+02 -0.41846195876E+02  0.60088906646E+02  0.41800000000E+01 0.  1.
         -5    1    3    3    0  502  0.51252970502E+02 -0.76155621006E+02 -0.15800030826E+03  0.18277887024E+03  0.41800000000E+01 0.  1.
        -11    1    1    2    0    0 -0.44754322753E+02  0.33738942655E+02  0.15067418604E+01  0.56067244694E+02  0.00000000000E+00 0. -1.
         11    1    1    2    0    0  0.31832919830E+02  0.23108878904E+02 -0.61078358439E+02  0.72649301020E+02  0.00000000000E+00 0.  1.
</event>
<event>
 7    1  0.2480409E-009  0.7645371E+02  0.7561462E-02  0.1339428E+00
         -1   -1    0    0    0  501 -0.00000000000E+00  0.00000000000E+00  0.25749828241E+02  0.25749828241E+02  0.00000000000E+00 0.  1.
          1   -1    0    0  501    0  0.00000000000E+00 -0.00000000000E+00 -0.61185734411E+03  0.61185734411E+03  0.00000000000E+00 0. -1.
         25    2    1    2    0    0 -0.40376228939E+02 -0.10553262320E+02 -0.44460174009E+03  0.46374541824E+03  0.12508994542E+03 0.  0.
          5    1    3    3  502    0 -0.25558295683E+02 -0.32300063444E+02 -0.37765974182E+02  0.56038038711E+02  0.41800000000E+01 0.  1.
         -5    1    3    3    0  502 -0.14817933256E+02  0.21746801124E+02 -0.40683576591E+03  0.40770737953E+03  0.41800000000E+01 0.  1.
        -11    1    1    2    0    0  0.12648513758E+02  0.41456252565E+02 -0.11897366067E+03  0.12662281670E+03  0.00000000000E+00 0. -1.
         11    1    1    2    0    0  0.27727715181E+02 -0.30902990245E+02 -0.22532115106E+02  0.47238937397E+02  0.00000000000E+00 0.  1.
</event>
<event>
 7    1  0.2480409E-009  0.1132217E+03  0.7561462E-02  0.1254718E+00
          1   -1    0    0  501    0  0.00000000000E+00  0.00000000000E+00  0.49095739376E+02  0.49095739376E+02  0.00000000000E+00 0. -1.
         -1   -1    0    0    0  501 -0.00000000000E+00 -0.00000000000E+00 -0.33252683911E+03  0.33252683911E+03  0.00000000000E+00 0.  1.
         25    2    1    2    0    0 -0.36112997560E+01  0.59762019796E+02 -0.20651792975E+03  0.24875877478E+03  0.12508689870E+03 0.  0.
          5    1    3    3  502    0  0.50146149885E+02  0.64160182296E+02 -0.97859751796E+02  0.12737805448E+03  0.41800000000E+01 0.  1.
         -5    1    3    3    0  502 -0.53757449641E+02 -0.43981624997E+01 -0.10865817795E+03  0.12138072030E+03  0.41800000000E+01 0.  1.
        -11    1    1    2    0    0 -0.25127871467E+02 -0.56557221223E+02 -0.82780414547E+02  0.10335727468E+03  0.00000000000E+00 0.  1.
         11    1    1    2    0    0  0.28739171223E+02 -0.32047985728E+01  0.58672445610E+01  0.29506529027E+02  0.00000000000E+00 0. -1.
</event>
<event>
 7    1  0.2480409E-009  0.1095898E+03  0.7561462E-02  0.1261331E+00
          1   -1    0    0  501    0  0.00000000000E+00  0.00000000000E+00  0.23012516507E+03  0.23012516507E+03  0.00000000000E+00 0.  1.
         -1   -1    0    0    0  501 -0.00000000000E+00 -0.00000000000E+00 -0.59160389307E+02  0.59160389307E+02  0.00000000000E+00 0. -1.
         25    2    1    2    0    0  0.33572574236E+02  0.44488028974E+01  0.12946836218E+03  0.18318537840E+03  0.12509163228E+03 0.  0.
          5    1    3    3  502    0  0.77652944154E+02 -0.71531289629E+01  0.54085768925E+02  0.94994156610E+02  0.41800000000E+01 0.  1.
         -5    1    3    3    0  502 -0.44080369918E+02  0.11601931860E+02  0.75382593259E+02  0.88191221794E+02  0.41800000000E+01 0.  1.
        -11    1    1    2    0    0  0.22630706252E+02  0.23430467969E+02  0.35229843582E+01  0.32765028819E+02  0.00000000000E+00 0. -1.
         11    1    1    2    0    0 -0.56203280488E+02 -0.27879270866E+02  0.37973429222E+02  0.73335147157E+02  0.00000000000E+00 0.  1.
</event>
<event>
 7    1  0.2480409E-009  0.7887020E+02  0.7561462E-02  0.1332289E+00
         -4   -1    0    0    0  501 -0.00000000000E+00  0.00000000000E+00  0.38584982645E+02  0.38584982645E+02  0.00000000000E+00 0.  1.
          4   -1    0    0  501    0  0.00000000000E+00 -0.00000000000E+00 -0.40883296069E+03  0.40883296069E+03  0.00000000000E+00 0. -1.
         25    2    1    2    0    0  0.13744104195E+02 -0.26845440410E+02 -0.30907348130E+03  0.33478825469E+03  0.12508869081E+03 0.  0.
          5    1    3    3  502    0  0.35671749322E+01  0.19950029447E+02 -0.27521021770E+03  0.27598707350E+03  0.41800000000E+01 0. -1.
         -5    1    3    3    0  502  0.10176929263E+02 -0.46795469857E+02 -0.33863263596E+02  0.58801181193E+02  0.41800000000E+01 0. -1.
        -11    1    1    2    0    0 -0.47014552039E+02  0.13048626325E+01 -0.13085495093E+02  0.48819063405E+02  0.00000000000E+00 0.  1.
         11    1    1    2    0    0  0.33270447844E+02  0.25540577777E+02 -0.48089001654E+02  0.63810625236E+02  0.00000000000E+00 0. -1.
</event>
<event>
 7    1  0.2480409E-009  0.1166333E+03  0.7561462E-02  0.1248757E+00
         -4   -1    0    0    0  501 -0.00000000000E+00  0.00000000000E+00  0.79017404313E+02  0.79017404313E+02  0.00000000000E+00 0.  1.
          4   -1    0    0  501    0  0.00000000000E+00 -0.00000000000E+00 -0.19716218526E+03  0.19716218526E+03  0.00000000000E+00 0. -1.
         25    2    1    2    0    0 -0.48510182779E+02  0.40262707244E+02 -0.67056849188E+02  0.15530221093E+03  0.12509129573E+03 0.  0.
          5    1    3    3  502    0  0.15092819376E+02  0.63028302421E+02 -0.79253544531E+01  0.65426628722E+02  0.41800000000E+01 0. -1.
         -5    1    3    3    0  502 -0.63603002156E+02 -0.22765595177E+02 -0.59131494735E+02  0.89875582204E+02  0.41800000000E+01 0. -1.
        -11    1    1    2    0    0  0.71046672395E+01 -0.55921083069E+02 -0.51868984412E+02  0.76603102888E+02  0.00000000000E+00 0. -1.
         11    1    1    2    0    0  0.41405515540E+02  0.15658375825E+02  0.78105265226E+00  0.44274275758E+02  0.00000000000E+00 0.  1.
</event>
<event>
 7    1  0.2480409E-009  0.1060539E+03  0.7561462E-02  0.1268057E+00
          2   -1    0    0  501    0  0.00000000000E+00  0.00000000000E+00  0.66157343903E+03  0.66157343903E+03  0.00000000000E+00 0. -1.
         -2   -1    0    0    0  501 -0.00000000000E+00 -0.00000000000E+00 -0.36018222721E+02  0.36018222721E+02  0.00000000000E+00 0.  1.
         25    2    1    2    0    0 -0.72971505812E+02 -0.67079992922E+02  0.24207467448E+03  0.28995159725E+03  0.12508882688E+03 0.  0.
          5    1    3    3  502    0 -0.13049807092E+02 -0.12610346927E+02  0.19561269015E+03  0.19649711260E+03  0.41800000000E+01 0.  1.
         -5    1    3    3    0  502 -0.59921698720E+02 -0.54469645994E+02  0.46461984335E+02  0.93454484647E+02  0.41800000000E+01 0.  1.
        -11    1    1    2    0    0  0.17193051404E+02  0.51780680982E+02  0.69403710539E+02  0.88282019552E+02  0.00000000000E+00 0.  1.
         11    1    1    2    0    0  0.55778454409E+02  0.15299311940E+02  0.31407683129E+03  0.31935804495E+03  0.00000000000E+00 0. -1.
</event>
<event>
 7    1  0.2480409E-009  0.9395320E+02  0.7561462E-02  0.1293551E+00
          3   -1    0    0  501    0  0.00000000000E+00  0.00000000000E+00  0.19961604980E+02  0.19961604980E+02  0.00000000000E+00 0.  1.
         -3   -1    0    0    0  501 -0.00000000000E+00 -0.00000000000E+00 -0.90174848407E+03  0.90174848407E+03  0.00000000000E+00 0. -1.
         25    2    1    2    0    0 -0.17057184274E+02  0.40395277975E+02 -0.70348337641E+03  0.71586271697E+03  0.12509133721E+03 0.  0.
          5    1    3    3  502    0 -0.53011846627E+02  0.10254125093E+02 -0.59669348344E+03  0.59914604943E+03  0.41800000000E+01 0. -1.
         -5    1    3    3    0  502  0.35954662354E+02  0.30141152882E+02 -0.10678989297E+03  0.11671666754E+03  0.41800000000E+01 0. -1.
        -11    1    1    2    0    0 -0.17043984079E+02  0.14262349129E+02 -0.77574594023E+01  0.23539120041E+02  0.00000000000E+00 0.  1.
         11    1    1    2    0    0  0.34101168352E+02 -0.54657627104E+02 -0.17054604327E+03  0.18230825203E+03  0.00000000000E+00 0. -1.
</event>
<event>
 7    1  0.2480409E-009  0.8676206E+02  0.7561462E-02  0.1310888E+00
         -4   -1    0    0    0  501 -0.00000000000E+00  0.00000000000E+00  0.63608399584E+02  0.63608399584E+02  0.00000000000E+00 0.  1.
          4   -1    0    0  501    0  0.00000000000E+00 -0.00000000000E+00 -0.18641673160E+03  0.18641673160E+03  0.00000000000E+00 0. -1.
         25    2    1    2    0    0 -0.73580084638E+01  0.20880817829E+01 -0.59342750700E+02  0.13866424130E+03  0.12509080454E+03 0.  0.
          5    1    3    3  502    0  0.48143586002E+02 -0.75085137378E+01  0.92906993970E+01  0.49779234093E+02  0.41800000000E+01 0. -1.
         -5    1    3    3    0  502 -0.55501594465E+02  0.95965955206E+01 -0.68633450097E+02  0.88885007206E+02  0.41800000000E+01 0. -1.
        -11    1    1    2    0    0 -0.20716981508E+02  0.22667911629E+02 -0.67061066666E+02  0.73757807742E+02  0.00000000000E+00 0. -1.
         11    1    1    2    0    0  0.28074989972E+02 -0.24755993412E+02  0.35954853508E+01  0.37603082143E+02  0.00000000000E+00 0.  1.
</event>
<event>
 7    1  0.2480409E-009  0.1091137E+03  0.7561462E-02  0.1262220E+00
         -2   -1    0    0    0  501 -0.00000000000E+00  0.00000000000E+00  0.10548317980E+03  0.10548317980E+03  0.00000000000E+00 0. -1.
          2   -1    0    0  501    0  0.00000000000E+00 -0.00000000000E+00 -0.12785311486E+03  0.12785311486E+03  0.00000000000E+00 0.  1.
         25    2    1    2    0    0  0.63291082451E+01 -0.41451938018E+02 -0.18301136785E+02  0.13318021615E+03  0.12507484795E+03 0.  0.
          5    1    3    3  502    0 -0.50497103278E+02 -0.41732114657E+02  0.14789207858E+02  0.67288334073E+02  0.41800000000E+01 0.  1.
         -5    1    3    3    0  502  0.56826211524E+02  0.28017663879E+00 -0.33090344643E+02  0.65891882077E+02  0.41800000000E+01 0.  1.
        -11    1    1    2    0    0 -0.22825933396E+02  0.63838031865E+02  0.10754716199E+02  0.68643874223E+02  0.00000000000E+00 0. -1.
         11    1    1    2    0    0  0.16496825151E+02 -0.22386093848E+02 -0.14823514473E+02  0.31512204289E+02  0.00000000000E+00 0.  1.
</event>
<event>
 7    1  0.2480409E-009  0.8856482E+02  0.7561462E-02  0.1306365E+00
          2   -1    0    0  501    0  0.00000000000E+00  0.00000000000E+00  0.97567565500E+03  0.97567565500E+03  0.00000000000E+00 0. -1.
         -2   -1    0    0    0  501 -0.00000000000E+00 -0.00000000000E+00 -0.14913577775E+02  0.14913577775E+02  0.00000000000E+00 0.  1.
         25    2    1    2    0    0 -0.41631419650E+01  0.50113156644E+02  0.58222769557E+03  0.59763341636E+03  0.12509176888E+03 0.  0.
          5    1    3    3  502    0  0.28708875638E+02  0.44650912216E+01  0.28077138487E+02  0.40619388051E+02  0.41800000000E+01 0.  1.
         -5    1    3    3    0  502 -0.32872017603E+02  0.45648065423E+02  0.55415055708E+03  0.55701402831E+03  0.41800000000E+01 0.  1.
        -11    1    1    2    0    0  0.16595623611E+02 -0.67771132032E+02  0.35148314616E+03  0.35834165693E+03  0.00000000000E+00 0. -1.
         11    1    1    2    0    0 -0.12432481646E+02  0.17657975387E+02  0.27051235493E+02  0.34614159478E+02  0.00000000000E+00 0.  1.
</event>
<event>
 7    1  0.2480409E-009  0.1312351E+03  0.7561462E-02  0.1225634E+00
         -2   -1    0    0    0  501 -0.00000000000E+00  0.00000000000E+00  0.27352618975E+03  0.27352618975E+03  0.00000000000E+00 0.  1.
          2   -1    0    0  501    0  0.00000000000E+00 -0.00000000000E+00 -0.95516993992E+02  0.95516993992E+02  0.00000000000E+00 0. -1.
         25    2    1    2    0    0  0.88115764514E+02 -0.47797760865E+02  0.21188552471E+02  0.16169561358E+03  0.12508997879E+03 0.  0.
          5    1    3    3  502    0  0.64679758126E+02 -0.69222491921E+02 -0.31595690168E+02  0.99954912516E+02  0.41800000000E+01 0.  1.
         -5    1    3    3    0  502  0.23436006388E+02  0.21424731057E+02  0.52784242639E+02  0.61740701059E+02  0.41800000000E+01 0.  1.
        -11    1    1    2    0    0 -0.10402775458E+03  0.23630303441E+02  0.12142282306E+03  0.16162817491E+03  0.00000000000E+00 0.  1.
         11    1    1    2    0    0  0.15911990067E+02  0.24167457423E+02  0.35397820228E+02  0.45719395261E+02  0.00000000000E+00 0. -1.
</event>
<event>
 7    1  0.2480409E-009  0.1076965E+03  0.7561462E-02  0.1264896E+00
          2   -1    0    0  501    0  0.00000000000E+00  0.00000000000E+00  0.28130518784E+03  0.28130518784E+03  0.00000000000E+00 0.  1.
         -2   -1    0    0    0  501 -0.00000000000E+00 -0.00000000000E+00 -0.18116479272E+03  0.18116479272E+03  0.00000000000E+00 0. -1.
         25    2    1    2    0    0  0.22755738081E+02  0.93399050105E+02  0.22874086586E+03  0.27787091623E+03  0.12509458898E+03 0.  0.
          5    1    3    3  502    0  0.43856874569E+02  0.67816372114E+02  0.47951199675E+02  0.94017422449E+02  0.41800000000E+01 0.  1.
         -5    1    3    3    0  502 -0.21101136488E+02  0.25582677991E+02  0.18078966619E+03  0.18385349378E+03  0.41800000000E+01 0.  1.
        -11    1    1    2    0    0 -0.26274502208E+02 -0.41750557901E+02 -0.12300653284E+03  0.13252948983E+03  0.00000000000E+00 0. -1.
         11    1    1    2    0    0  0.35187641267E+01 -0.51648492203E+02 -0.55939378975E+01  0.52069574504E+02  0.00000000000E+00 0.  1.
</event>
<event>
 7    1  0.2480409E-009  0.1276222E+03  0.7561462E-02  0.1231027E+00
         -2   -1    0    0    0  501 -0.00000000000E+00  0.00000000000E+00  0.73205754534E+02  0.73205754534E+02  0.00000000000E+00 0.  1.
          2   -1    0    0  501    0  0.00000000000E+00 -0.00000000000E+00 -0.65409712586E+03  0.65409712586E+03  0.00000000000E+00 0. -1.
         25    2    1    2    0    0 -0.83071565025E+02 -0.25359517203E+02 -0.21317550393E+02  0.15376153915E+03  0.12507670822E+03 0.  0.
          5    1    3    3  502    0 -0.22373208573E+02  0.37217999290E+02  0.29595992400E+02  0.52717502778E+02  0.41800000000E+01 0.  1.
         -5    1    3    3    0  502 -0.60698356452E+02 -0.62577516493E+02 -0.50913542793E+02  0.10104403637E+03  0.41800000000E+01 0.  1.
        -11    1    1    2    0    0  0.85426599445E+02  0.50401427684E+02 -0.47780638053E+03  0.48799277155E+03  0.00000000000E+00 0.  1.
         11    1    1    2    0    0 -0.23550344199E+01 -0.25041910481E+02 -0.81767440398E+02  0.85548569695E+02  0.00000000000E+00 0. -1.
</event>
<event>
 7    1  0.2480409E-009  0.9694683E+02  0.7561462E-02  0.1286851E+00
          3   -1    0    0  501    0  0.00000000000E+00  0.00000000000E+00  0.57646128165E+02  0.57646128165E+02  0.00000000000E+00 0. -1.
         -3   -1    0    0    0  501 -0.00000000000E+00 -0.00000000000E+00 -0.38885994198E+03  0.38885994198E+03  0.00000000000E+00 0.  1.
         25    2    1    2    0    0  0.55945331235E+02  0.74360843943E+00 -0.50017968514E+02  0.14587862917E+03  0.12509334208E+03 0.  0.
          5    1    3    3  502    0  0.56172909046E+02 -0.30021657283E+02  0.21950614559E+02  0.67498129576E+02  0.41800000000E+01 0. -1.
         -5    1    3    3    0  502 -0.22757781089E+00  0.30765265722E+02 -0.71968583072E+02  0.78380499591E+02  0.41800000000E+01 0. -1.
        -11    1    1    2    0    0  0.14232033040E+02 -0.21544152872E+02 -0.13130650763E+03  0.13382115017E+03  0.00000000000E+00 0.  1.
         11    1    1    2    0    0 -0.70177364275E+02  0.20800544433E+02 -0.14988933767E+03  0.16680629081E+03  0.00000000000E+00 0. -1.
</event>
<event>
 7    1  0.2480409E-009  0.1006833E+03  0.7561462E-02  0.1278866E+00
          2   -1    0    0  501    0  0.00000000000E+00  0.00000000000E+00  0.30592853143E+03  0.30592853143E+03  0.00000000000E+00 0. -1.
         -2   -1    0    0    0  501 -0.00000000000E+00 -0.00000000000E+00 -0.43002129109E+02  0.43002129109E+02  0.00000000000E+00 0.  1.
         25    2    1    2    0    0  0.23056148646E+02  0.59250284353E+01  0.19175237659E+03  0.23017938828E+03  0.12508750900E+03 0.  0.
          5    1    3    3  502    0 -0.43150990420E+02  0.34181070659E+02  0.85151371477E+02  0.10148192957E+03  0.41800000000E+01 0.  1.
         -5    1    3    3    0  502  0.66207139066E+02 -0.28256042223E+02  0.10660100511E+03  0.12869745870E+03  0.41800000000E+01 0.  1.
        -11    1    1    2    0    0  0.94400238597E+01  0.26509825922E+02  0.66974784701E+02  0.72646450062E+02  0.00000000000E+00 0. -1.
         11    1    1    2    0    0 -0.32496172506E+02 -0.32434854357E+02  0.41992410270E+01  0.46104822198E+02  0.00000000000E+00 0.  1.
</event>
<event>
 7    1  0.2480409E-009  0.1212021E+03  0.7561462E-02  0.1241127E+00
          1   -1    0    0  501    0  0.00000000000E+00  0.00000000000E+00  0.18534037876E+03  0.18534037876E+03  0.00000000000E+00 0. -1.
         -1   -1    0    0    0  501 -0.00000000000E+00 -0.00000000000E+00 -0.10814487832E+03  0.10814487832E+03  0.00000000000E+00 0.  1.
         25    2    1    2    0    0  0.49618701103E+02  0.75161292215E+02  0.51981418024E+02  0.16265646264E+03  0.12507526402E+03 0.  0.
          5    1    3    3  502    0  0.80076154488E+02  0.15405074838E+02  0.73430905966E+01  0.81981096771E+02  0.41800000000E+01 0.  1.
         -5    1    3    3    0  502 -0.30457453385E+02  0.59756217376E+02  0.44638327427E+02  0.80675365864E+02  0.41800000000E+01 0. -1.
        -11    1    1    2    0    0  0.88068515171E+00 -0.14911339225E+02 -0.30846538960E+02  0.34272913644E+02  0.00000000000E+00 0.  1.
         11    1    1    2    0    0 -0.50499386255E+02 -0.60249952990E+02  0.56060621385E+02  0.96555880802E+02  0.00000000000E+00 0. -1.
</event>
<event>
 7    1  0.2480409E-009  0.1107503E+03  0.7561462E-02  0.1259187E+00
         -2   -1    0    0    0  501 -0.00000000000E+00  0.00000000000E+00  0.10521142598E+03  0.10521142598E+03  0.00000000000E+00 0.  1.
          2   -1    0    0  501    0  0.00000000000E+00 -0.00000000000E+00 -0.15432235438E+03  0.15432235438E+03  0.00000000000E+00 0. -1.
         25    2    1    2    0    0 -0.24728258297E+02 -0.24853204152E+02 -0.82194404809E+02  0.15373147967E+03  0.12509308192E+03 0.  0.
          5    1    3    3  502    0  0.33818261653E+02 -0.48460530149E+02 -0.65467481263E+02  0.88292475933E+02  0.41800000000E+01 0.  1.
         -5    1    3    3    0  502 -0.58546519950E+02  0.23607325997E+02 -0.16726923546E+02  0.65439003739E+02  0.41800000000E+01 0.  1.
        -11    1    1    2    0    0  0.54274905410E+02  0.38404286052E+02  0.13473857499E+02  0.67839511940E+02  0.00000000000E+00 0. -1.
         11    1    1    2    0    0 -0.29546647112E+02 -0.13551081900E+02  0.19609618909E+02  0.37962788754E+02  0.00000000000E+00 0.  1.
</event>
<event>
 7    1  0.2609385E-009  0.1534195E+03  0.7561462E-02  0.1196333E+00
          2   -1    0    0  501    0  0.00000000000E+00  0.00000000000E+00  0.49337566257E+03  0.49337566257E+03  0.00000000000E+00 0. -1.
         -2   -1    0    0    0  501 -0.00000000000E+00 -0.00000000000E+00 -0.51516045084E+02  0.51516045084E+02  0.00000000000E+00 0.  1.
         25    2    1    2    0    0  0.11418349886E+02  0.11383275007E+03  0.20218979415E+03  0.26384881717E+03  0.12508881549E+03 0.  0.
          5    1    3    3  502    0  0.63500446404E+02  0.42132590025E+02  0.12393175721E+03  0.14554729363E+03  0.41800000000E+01 0.  1.
         -5    1    3    3    0  502 -0.52082096518E+02  0.71700160042E+02  0.78258036939E+02  0.11830152355E+03  0.41800000000E+01 0.  1.
        -11    1    1    2    0    0 -0.43976416057E+02 -0.34012977272E+02  0.13117781854E+03  0.14247255129E+03  0.00000000000E+00 0.  1.
         11    1    1    2    0    0  0.32558066171E+02 -0.79819772795E+02  0.10849200479E+03  0.13857033920E+03  0.00000000000E+00 0. -1.
</event>
<event>
 7    1  0.2480409E-009  0.1236971E+03  0.7561462E-02  0.1237120E+00
          2   -1    0    0  501    0  0.00000000000E+00  0.00000000000E+00  0.20632287460E+03  0.20632287460E+03  0.00000000000E+00 0. -1.
         -2   -1    0    0    0  501 -0.00000000000E+00 -0.00000000000E+00 -0.84012157520E+02  0.84012157520E+02  0.00000000000E+00 0.  1.
         25    2    1    2    0    0  0.17546556375E+02 -0.70702667715E+02  0.61077776390E+02  0.15711178956E+03  0.12508745256E+03 0.  0.
          5    1    3    3  502    0 -0.17984924862E+02  0.31362594951E+02  0.19054636191E+02  0.41080669965E+02  0.41800000000E+01 0.  1.
         -5    1    3    3    0  502  0.35531481238E+02 -0.10206526267E+03  0.42023140198E+02  0.11603111959E+03  0.41800000000E+01 0.  1.
        -11    1    1    2    0    0 -0.39345221217E+02  0.13444655249E+02 -0.62850047113E+01  0.42051236267E+02  0.00000000000E+00 0.  1.
         11    1    1    2    0    0  0.21798664842E+02  0.57258012465E+02  0.67517945399E+02  0.91172006292E+02  0.00000000000E+00 0. -1.
</event>
<event>
 7    1  0.2480409E-009  0.1462588E+03  0.7561462E-02  0.1205147E+00
         -2   -1    0    0    0  501 -0.00000000000E+00  0.00000000000E+00  0.23397472395E+03  0.23397472395E+03  0.00000000000E+00 0.  1.
          2   -1    0    0  501    0  0.00000000000E+00 -0.00000000000E+00 -0.12156382191E+03  0.12156382191E+03  0.00000000000E+00 0. -1.
         25    2    1    2    0    0 -0.54409024730E+02  0.99790754185E+02  0.12341986803E+03  0.20927942632E+03  0.12508748084E+03 0.  0.
          5    1    3    3  502    0 -0.56175155653E+02 -0.83993494235E+01  0.64338603910E+02  0.85925115865E+02  0.41800000000E+01 0. -1.
         -5    1    3    3    0  502  0.17661309226E+01  0.10819010361E+03  0.59081264119E+02  0.12335431045E+03  0.41800000000E+01 0. -1.
        -11    1    1    2    0    0  0.71877920576E+01 -0.72263903179E+02  0.29337234856E+02  0.78322470634E+02  0.00000000000E+00 0.  1.
         11    1    1    2    0    0  0.47221232673E+02 -0.27526851006E+02 -0.40346200845E+02  0.67936648902E+02  0.00000000000E+00 0. -1.
</event>
<event>
 7    1  0.2480409E-009  0.1072165E+03  0.7561462E-02  0.1265813E+00
          2   -1    0    0  501    0  0.00000000000E+00  0.00000000000E+00  0.22570597907E+03  0.22570597907E+03  0.00000000000E+00 0. -1.
         -2   -1    0    0    0  501 -0.00000000000E+00 -0.00000000000E+00 -0.54956211640E+02  0.54956211640E+02  0.00000000000E+00 0.  1.
         25    2    1    2    0    0  0.17267459395E+01  0.28869626647E+02  0.10802437223E+03  0.16778771904E+03  0.12508803568E+03 0.  0.
          5    1    3    3  502    0  0.54014715892E+01 -0.45918121360E+02  0.16062417347E+02  0.49123552555E+02  0.41800000000E+01 0.  1.
         -5    1    3    3    0  502 -0.36747256497E+01  0.74787748007E+02  0.91961954887E+02  0.11866416648E+03  0.41800000000E+01 0.  1.
        -11    1    1    2    0    0 -0.34141309246E+02  0.15965407615E+02  0.18181617084E+02  0.41846080308E+02  0.00000000000E+00 0. -1.
         11    1    1    2    0    0  0.32414563306E+02 -0.44835034261E+02  0.44543778114E+02  0.71028391367E+02  0.00000000000E+00 0.  1.
</event>
<event>
 7    1  0.2480409E-009  0.1027450E+03  0.7561462E-02  0.1274627E+00
         -2   -1    0    0    0  501 -0.00000000000E+00  0.00000000000E+00  0.26881332820E+02  0.26881332820E+02  0.00000000000E+00 0.  1.
          2   -1    0    0  501    0  0.00000000000E+00 -0.00000000000E+00 -0.50396679230E+03  0.50396679230E+03  0.00000000000E+00 0. -1.
         25    2    1    2    0    0 -0.14668335581E+02  0.87647061989E+01 -0.17805625965E+03  0.21826878771E+03  0.12508098156E+03 0.  0.
          5    1    3    3  502    0 -0.26429176139E+02 -0.54739970521E+02 -0.75804476703E+02  0.97256140229E+02  0.41800000000E+01 0.  1.
         -5    1    3    3    0  502  0.11760840557E+02  0.63504676720E+02 -0.10225178295E+03  0.12101264749E+03  0.41800000000E+01 0.  1.
        -11    1    1    2    0    0 -0.30134270761E+02  0.92947582297E+01 -0.51556731917E+02  0.60436441083E+02  0.00000000000E+00 0.  1.
         11    1    1    2    0    0  0.44802606342E+02 -0.18059464429E+02 -0.24747246791E+03  0.25214289632E+03  0.00000000000E+00 0. -1.
</event>
<event>
 7    1  0.2480409E-009  0.2590564E+03  0.7561462E-02  0.1107711E+00
          2   -1    0    0  501    0  0.00000000000E+00  0.00000000000E+00  0.64893931232E+03  0.64893931232E+03  0.00000000000E+00 0. -1.
         -2   -1    0    0    0  501 -0.00000000000E+00 -0.00000000000E+00 -0.15097105836E+03  0.15097105836E+03  0.00000000000E+00 0.  1.
         25    2    1    2    0    0 -0.14494152013E+03  0.19438918786E+03  0.46700175146E+03  0.54086359077E+03  0.12509031673E+03 0.  0.
          5    1    3    3  502    0 -0.34038655386E-01  0.95870919296E+02  0.13800182908E+03  0.16808691667E+03  0.41800000000E+01 0.  1.
         -5    1    3    3    0  502 -0.14490748147E+03  0.98518268561E+02  0.32899992238E+03  0.37277667410E+03  0.41800000000E+01 0.  1.
        -11    1    1    2    0    0  0.91067552038E+02 -0.15630571458E+03  0.54609559662E+02  0.18896290496E+03  0.00000000000E+00 0. -1.
         11    1    1    2    0    0  0.53873968091E+02 -0.38083473276E+02 -0.23643057168E+02  0.70083874942E+02  0.00000000000E+00 0.  1.
</event>
<event>
 7    1  0.2480409E-009  0.1092230E+03  0.7561462E-02  0.1262016E+00
         -2   -1    0    0    0  501 -0.00000000000E+00  0.00000000000E+00  0.11631944936E+02  0.11631944936E+02  0.00000000000E+00 0.  1.
          2   -1    0    0  501    0  0.00000000000E+00 -0.00000000000E+00 -0.16922633848E+04  0.16922633848E+04  0.00000000000E+00 0. -1.
         25    2    1    2    0    0  0.60762155319E+02 -0.23820204061E+02 -0.13313227418E+04  0.13387765218E+04  0.12507154300E+03 0.  0.
          5    1    3    3  502    0  0.22834406400E+02  0.35467263703E+02 -0.95286399594E+03  0.95380637661E+03  0.41800000000E+01 0. -1.
         -5    1    3    3    0  502  0.37927748919E+02 -0.59287467764E+02 -0.37845874581E+03  0.38497014515E+03  0.41800000000E+01 0. -1.
        -11    1    1    2    0    0  0.20942637233E+02  0.23560183590E+01 -0.54067172855E+02  0.58029337902E+02  0.00000000000E+00 0.  1.
         11    1    1    2    0    0 -0.81704792552E+02  0.21464185702E+02 -0.29524152524E+03  0.30708947006E+03  0.00000000000E+00 0. -1.
</event>
<event>
 7    1  0.2480409E-009  0.1004667E+03  0.7561462E-02  0.1279318E+00
          1   -1    0    0  501    0  0.00000000000E+00  0.00000000000E+00  0.72463132292E+02  0.72463132292E+02  0.00000000000E+00 0. -1.
         -1   -1    0    0    0  501 -0.00000000000E+00 -0.00000000000E+00 -0.21244541065E+03  0.21244541065E+03  0.00000000000E+00 0.  1.
         25    2    1    2    0    0 -0.39572112941E+02 -0.21662334936E+02 -0.32463377970E+02  0.13688213520E+03  0.12509052382E+03 0.  0.
          5    1    3    3  502    0 -0.37729005354E+02  0.34053360536E+02 -0.56429874086E+02  0.76058610940E+02  0.41800000000E+01 0. -1.
         -5    1    3    3    0  502 -0.18431075878E+01 -0.55715695472E+02  0.23966496116E+02  0.60823524261E+02  0.41800000000E+01 0. -1.
        -11    1    1    2    0    0  0.11413608065E+02  0.51651741312E+02 -0.31434170540E+02  0.61532754750E+02  0.00000000000E+00 0. -1.
         11    1    1    2    0    0  0.28158504877E+02 -0.29989406376E+02 -0.76084729849E+02  0.86493652992E+02  0.00000000000E+00 0.  1.
</event>
<event>
 7    1  0.2480409E-009  0.6931743E+02  0.7561462E-02  0.1362430E+00
          2   -1    0    0  501    0  0.00000000000E+00  0.00000000000E+00  0.11849799315E+03  0.11849799315E+03  0.00000000000E+00 0.  1.
         -2   -1    0    0    0  501 -0.00000000000E+00 -0.00000000000E+00 -0.98635578421E+02  0.98635578421E+02  0.00000000000E+00 0. -1.
         25    2    1    2    0    0  0.19097939355E+02 -0.11711129264E+02 -0.14599688725E+01  0.12709177826E+03  0.12509319229E+03 0.  0.
          5    1    3    3  502    0  0.56382486037E+02 -0.75274207904E+01  0.41025040160E+02  0.70257904293E+02  0.41800000000E+01 0.  1.
         -5    1    3    3    0  502 -0.37284546682E+02 -0.41837084733E+01 -0.42485009033E+02  0.56833873970E+02  0.41800000000E+01 0.  1.
        -11    1    1    2    0    0  0.11528303807E+02  0.45644381634E+01  0.47519818673E+02  0.49110783451E+02  0.00000000000E+00 0.  1.
         11    1    1    2    0    0 -0.30626243161E+02  0.71466911003E+01 -0.26197435071E+02  0.40931009860E+02  0.00000000000E+00 0. -1.
</event>
<event>
 7    1  0.2480409E-009  0.1083726E+03  0.7561462E-02  0.1263614E+00
         -1   -1    0    0    0  501 -0.00000000000E+00  0.00000000000E+00  0.33877107893E+03  0.33877107893E+03  0.00000000000E+00 0.  1.
          1   -1    0    0  501    0  0.00000000000E+00 -0.00000000000E+00 -0.38160085210E+02  0.38160085210E+02  0.00000000000E+00 0. -1.
         25    2    1    2    0    0 -0.16567321252E+02  0.29569222270E+02  0.15589819696E+03  0.20273210613E+03  0.12508894436E+03 0.  0.
          5    1    3    3  502    0 -0.55838300636E+02  0.53074138965E+02  0.65025270286E+02  0.10089865321E+03  0.41800000000E+01 0. -1.
         -5    1    3    3    0  502  0.39270979384E+02 -0.23504916695E+02  0.90872926671E+02  0.10183345291E+03  0.41800000000E+01 0. -1.
        -11    1    1    2    0    0  0.51543046666E+02 -0.27925449114E+02  0.11133195922E+03  0.12582257950E+03  0.00000000000E+00 0.  1.
         11    1    1    2    0    0 -0.34975725414E+02 -0.16437731559E+01  0.33380837549E+02  0.48376478519E+02  0.00000000000E+00 0. -1.
</event>
<event>
 7    1  0.2480409E-009  0.1022361E+03  0.7561462E-02  0.1275663E+00
         -2   -1    0    0    0  501 -0.00000000000E+00  0.00000000000E+00  0.10126521463E+03  0.10126521463E+03  0.00000000000E+00 0.  1.
          2   -1    0    0  501    0  0.00000000000E+00 -0.00000000000E+00 -0.31989580180E+03  0.31989580180E+03  0.00000000000E+00 0. -1.
         25    2    1    2    0    0  0.83269115228E+02 -0.44607740712E+02  0.91839324680E+01  0.15702474845E+03  0.12509528739E+03 0.  0.
          5    1    3    3  502    0  0.54776636979E+02 -0.43931080472E+01  0.63152878525E+02  0.83818481394E+02  0.41800000000E+01 0. -1.
         -5    1    3    3    0  502  0.28492478248E+02 -0.40214632665E+02 -0.53968946057E+02  0.73206267052E+02  0.41800000000E+01 0. -1.
        -11    1    1    2    0    0 -0.44734794823E+02  0.41861830204E+02 -0.41836729938E+02  0.74188453736E+02  0.00000000000E+00 0.  1.
         11    1    1    2    0    0 -0.38534320405E+02  0.27459105080E+01 -0.18597778970E+03  0.18994781424E+03  0.00000000000E+00 0. -1.
</event>
<event>
 7    1  0.2480409E-009  0.1123002E+03  0.7561462E-02  0.1256369E+00
         -2   -1    0    0    0  501 -0.00000000000E+00  0.00000000000E+00  0.65237515303E+02  0.65237515303E+02  0.00000000000E+00 0.  1.
          2   -1    0    0  501    0  0.00000000000E+00 -0.00000000000E+00 -0.42945856822E+03  0.42945856822E+03  0.00000000000E+00 0. -1.
         25    2    1    2    0    0  0.40187102752E+01 -0.10121380524E+03 -0.30743835519E+03  0.34702494021E+03  0.12509029733E+03 0.  0.
          5    1    3    3  502    0 -0.36041394818E+00 -0.34791988549E+01  0.11857972895E+02  0.13050618532E+02  0.41800000000E+01 0. -1.
         -5    1    3    3    0  502  0.43791242234E+01 -0.97734606384E+02 -0.31929632808E+03  0.33397432168E+03  0.41800000000E+01 0. -1.
        -11    1    1    2    0    0  0.25855503778E+02  0.81331681542E+02 -0.60864107293E+01  0.85559300451E+02  0.00000000000E+00 0. -1.
         11    1    1    2    0    0 -0.29874214053E+02  0.19882123697E+02 -0.50696287002E+02  0.62111842862E+02  0.00000000000E+00 0.  1.
</event>
<event>
 7    1  0.2480409E-009  0.6515541E+02  0.7561462E-02  0.1377388E+00
         -2   -1    0    0    0  501 -0.00000000000E+00  0.00000000000E+00  0.11657106087E+03  0.11657106087E+03  0.00000000000E+00 0.  1.
          2   -1    0    0  501    0  0.00000000000E+00 -0.00000000000E+00 -0.14525490633E+03  0.14525490633E+03  0.00000000000E+00 0. -1.
         25    2    1    2    0    0 -0.36722166350E+02  0.22683548359E+02  0.42547506008E+02  0.13899904281E+03  0.12508949903E+03 0.  0.
          5    1    3    3  502    0 -0.18864675029E+02  0.20371662637E+02  0.86699988697E+02  0.91133095210E+02  0.41800000000E+01 0. -1.
         -5    1    3    3    0  502 -0.17857491321E+02  0.23118857223E+01 -0.44152482689E+02  0.47865947598E+02  0.41800000000E+01 0. -1.
        -11    1    1    2    0    0  0.10521621615E+02  0.26228628644E+02  0.48371222406E+01  0.28671296335E+02  0.00000000000E+00 0.  1.
         11    1    1    2    0    0  0.26200544735E+02 -0.48912177003E+02 -0.76068473701E+02  0.94155628056E+02  0.00000000000E+00 0. -1.
</event>
<event>
 7    1  0.2480409E-009  0.1486258E+03  0.7561462E-02  0.1202172E+00
         -3   -1    0    0    0  501 -0.00000000000E+00  0.00000000000E+00  0.12691625282E+03  0.12691625282E+03  0.00000000000E+00 0.  1.
          3   -1    0    0  501    0  0.00000000000E+00 -0.00000000000E+00 -0.18153508543E+03  0.18153508543E+03  0.00000000000E+00 0. -1.
         25    2    1    2    0    0  0.86952336365E+01 -0.99678522127E+02 -0.45221963274E+01  0.16024936128E+03  0.12509193687E+03 0.  0.
          5    1    3    3  502    0 -0.57154828951E+02 -0.54250336693E+02  0.73963935273E+01  0.79258769490E+02  0.41800000000E+01 0. -1.
         -5    1    3    3    0  502  0.65850062588E+02 -0.45428185434E+02 -0.11918589855E+02  0.80990591791E+02  0.41800000000E+01 0. -1.
        -11    1    1    2    0    0  0.41754190227E+02  0.64088196074E+02 -0.37509804049E+02  0.85192104548E+02  0.00000000000E+00 0.  1.
         11    1    1    2    0    0 -0.50449423864E+02  0.35590326053E+02 -0.12586832238E+02  0.63009872421E+02  0.00000000000E+00 0. -1.
</event>
<event>
 7    1  0.2586412E-009  0.1194348E+03  0.7561462E-02  0.1244032E+00
          2   -1    0    0  501    0  0.00000000000E+00  0.00000000000E+00  0.10919014605E+04  0.10919014605E+04  0.00000000000E+00 0. -1.
         -2   -1    0    0    0  501 -0.00000000000E+00 -0.00000000000E+00 -0.27870050255E+02  0.27870050255E+02  0.00000000000E+00 0.  1.
         25    2    1    2    0    0  0.70475513882E+02  0.11265981104E+01  0.93830681555E+03  0.94922909716E+03  0.12509249182E+03 0.  0.
          5    1    3    3  502    0 -0.15963558655E+02 -0.36291286695E+02  0.14645853595E+03  0.15178757475E+03  0.41800000000E+01 0. -1.
         -5    1    3    3    0  502  0.86439072537E+02  0.37417884806E+02  0.79184827960E+03  0.79744152242E+03  0.41800000000E+01 0. -1.
        -11    1    1    2    0    0 -0.20517627967E+02  0.36707330704E+02  0.17635372952E+02  0.45600521532E+02  0.00000000000E+00 0.  1.
         11    1    1    2    0    0 -0.49957885915E+02 -0.37833928815E+02  0.10808922173E+03  0.12494189205E+03  0.00000000000E+00 0. -1.
</event>
<event>
 7    1  0.2480409E-009  0.1615021E+03  0.7561462E-02  0.1187011E+00
          2   -1    0    0  501    0  0.00000000000E+00  0.00000000000E+00  0.45686782459E+03  0.45686782459E+03  0.00000000000E+00 0. -1.
         -2   -1    0    0    0  501 -0.00000000000E+00 -0.00000000000E+00 -0.61105526254E+02  0.61105526254E+02  0.00000000000E+00 0.  1.
         25    2    1    2    0    0 -0.12519385741E+03  0.16411099673E+02  0.19262172242E+03  0.26209563044E+03  0.12509262736E+03 0.  0.
          5    1    3    3  502    0 -0.30764244916E+02  0.60423198769E+02  0.45460387616E+02  0.81740571059E+02  0.41800000000E+01 0.  1.
         -5    1    3    3    0  502 -0.94429612492E+02 -0.44012099096E+02  0.14716133480E+03  0.18035505938E+03  0.41800000000E+01 0.  1.
        -11    1    1    2    0    0  0.10324400113E+03 -0.46768868661E+02  0.12210597285E+03  0.16660287948E+03  0.00000000000E+00 0.  1.
         11    1    1    2    0    0  0.21949856281E+02  0.30357768988E+02  0.81034603063E+02  0.89274840925E+02  0.00000000000E+00 0. -1.
</event>
<event>
 7    1  0.2480409E-009  0.1012141E+03  0.7561462E-02  0.1277763E+00
         -1   -1    0    0    0  501 -0.00000000000E+00  0.00000000000E+00  0.18812546830E+03  0.18812546830E+03  0.00000000000E+00 0.  1.
          1   -1    0    0  501    0  0.00000000000E+00 -0.00000000000E+00 -0.61634312391E+02  0.61634312391E+02  0.00000000000E+00 0. -1.
         25    2    1    2    0    0  0.11923823982E+02  0.27720633055E+02  0.41886096059E+02  0.13532726041E+03  0.12509361011E+03 0.  0.
          5    1    3    3  502    0 -0.51122920181E+02  0.37585270679E+02  0.11892819480E+02  0.64692480978E+02  0.41800000000E+01 0. -1.
         -5    1    3    3    0  502  0.63046744163E+02 -0.98646376242E+01  0.29993276579E+02  0.70634779429E+02  0.41800000000E+01 0. -1.
        -11    1    1    2    0    0 -0.38910423687E+02 -0.42853768846E+01  0.57567166457E+02  0.69615832829E+02  0.00000000000E+00 0.  1.
         11    1    1    2    0    0  0.26986599706E+02 -0.23435256170E+02  0.27037893393E+02  0.44816687456E+02  0.00000000000E+00 0. -1.
</event>
<event>
 7    1  0.2480409E-009  0.1308456E+03  0.7561462E-02  0.1226206E+00
          2   -1    0    0  501    0  0.00000000000E+00  0.00000000000E+00  0.45343802494E+02  0.45343802494E+02  0.00000000000E+00 0. -1.
         -2   -1    0    0    0  501 -0.00000000000E+00 -0.00000000000E+00 -0.44190747740E+03  0.44190747740E+03  0.00000000000E+00 0.  1.
         25    2    1    2    0    0 -0.89868595318E+02  0.70458794030E+01 -0.20534212617E+03  0.25678691431E+03  0.12509245277E+03 0.  0.
          5    1    3    3  502    0 -0.81790673891E+02 -0.41619860361E+02 -0.17780646597E+03  0.20013630069E+03  0.41800000000E+01 0.  1.
         -5    1    3    3    0  502 -0.80779214267E+01  0.48665739764E+02 -0.27535660204E+02  0.56650613626E+02  0.41800000000E+01 0.  1.
        -11    1    1    2    0    0  0.62558087140E+02  0.33858485309E+02 -0.15104648850E+03  0.16695793776E+03  0.00000000000E+00 0.  1.
         11    1    1    2    0    0  0.27310508178E+02 -0.40904364712E+02 -0.40175060233E+02  0.63506427818E+02  0.00000000000E+00 0. -1.
</event>
<event>
 7    1  0.2480409E-009  0.1187180E+03  0.7561462E-02  0.1245227E+00
         -2   -1    0    0    0  501 -0.00000000000E+00  0.00000000000E+00  0.20030657937E+02  0.20030657937E+02  0.00000000000E+00 0.  1.
          2   -1    0    0  501    0  0.00000000000E+00 -0.00000000000E+00 -0.82211196701E+03  0.82211196701E+03  0.00000000000E+00 0. -1.
         25    2    1    2    0    0  0.30382755498E+02 -0.62082823517E+02 -0.53826742421E+03  0.55691606968E+03  0.12508517053E+03 0.  0.
          5    1    3    3  502    0  0.14276178213E+02  0.37378028037E+02 -0.11612983458E+03  0.12290051719E+03  0.41800000000E+01 0.  1.
         -5    1    3    3    0  502  0.16106577285E+02 -0.99460851554E+02 -0.42213758963E+03  0.43401555249E+03  0.41800000000E+01 0.  1.
        -11    1    1    2    0    0  0.64857022652E+01  0.59011993286E+02 -0.92125712870E+02  0.10959756684E+03  0.00000000000E+00 0.  1.
         11    1    1    2    0    0 -0.36868457763E+02  0.30708302313E+01 -0.17168817199E+03  0.17562898843E+03  0.00000000000E+00 0. -1.
</event>
<event>
 7    1  0.4016773E-009  0.2191391E+03  0.7561462E-02  0.1134526E+00
          2   -1    0    0  501    0  0.00000000000E+00  0.00000000000E+00  0.80998614951E+03  0.80998614951E+03  0.00000000000E+00 0. -1.
         -2   -1    0    0    0  501 -0.00000000000E+00 -0.00000000000E+00 -0.76308403717E+02  0.76308403717E+02  0.00000000000E+00 0.  1.
         25    2    1    2    0    0 -0.10533942077E+03 -0.15922785093E+03  0.17116881280E+03  0.28529936986E+03  0.12508823240E+03 0.  0.
          5    1    3    3  502    0  0.38479124532E+01  0.17806578229E+02  0.58894681550E+01  0.19596910308E+02  0.41800000000E+01 0.  1.
         -5    1    3    3    0  502 -0.10918733323E+03 -0.17703442916E+03  0.16527934465E+03  0.26570245955E+03  0.41800000000E+01 0.  1.
        -11    1    1    2    0    0  0.27055406393E+02  0.12181412719E+03  0.32457268690E+03  0.34773280788E+03  0.00000000000E+00 0. -1.
         11    1    1    2    0    0  0.78284014381E+02  0.37413723733E+02  0.23793624609E+03  0.25326237549E+03  0.00000000000E+00 0.  1.
</event>
<event>
 7    1  0.3539657E-009  0.1567901E+03  0.7561462E-02  0.1192369E+00
          3   -1    0    0  501    0  0.00000000000E+00  0.00000000000E+00  0.55535835605E+03  0.55535835605E+03  0.00000000000E+00 0. -1.
         -3   -1    0    0    0  501 -0.00000000000E+00 -0.00000000000E+00 -0.50593705785E+02  0.50593705785E+02  0.00000000000E+00 0.  1.
         25    2    1    2    0    0  0.84613234349E+01 -0.12644511846E+03  0.25056433636E+03  0.30739357763E+03  0.12509341684E+03 0.  0.
          5    1    3    3  502    0  0.62246895541E+02 -0.41324072082E+02  0.82094955127E+02  0.11108289245E+03  0.41800000000E+01 0. -1.
         -5    1    3    3    0  502 -0.53785572106E+02 -0.85121046376E+02  0.16846938123E+03  0.19631068518E+03  0.41800000000E+01 0. -1.
        -11    1    1    2    0    0  0.21824166616E+02  0.31565297690E+02  0.14828951404E+03  0.15317454828E+03  0.00000000000E+00 0. -1.
         11    1    1    2    0    0 -0.30285490051E+02  0.94879820767E+02  0.10591079986E+03  0.14538393592E+03  0.00000000000E+00 0.  1.
</event>
<event>
 7    1  0.2480409E-009  0.1852988E+03  0.7561462E-02  0.1162771E+00
          1   -1    0    0  501    0  0.00000000000E+00  0.00000000000E+00  0.46142179376E+02  0.46142179376E+02  0.00000000000E+00 0. -1.
         -1   -1    0    0    0  501 -0.00000000000E+00 -0.00000000000E+00 -0.88403147912E+03  0.88403147912E+03  0.00000000000E+00 0.  1.
         25    2    1    2    0    0 -0.14091929006E+03  0.59665135139E+02 -0.26329727691E+03  0.32922827684E+03  0.12509047758E+03 0.  0.
          5    1    3    3  502    0 -0.14647476279E+03  0.94178428234E+01 -0.19134472134E+03  0.24119250959E+03  0.41800000000E+01 0.  1.
         -5    1    3    3    0  502  0.55554727303E+01  0.50247292315E+02 -0.71952555572E+02  0.88035767252E+02  0.41800000000E+01 0.  1.
        -11    1    1    2    0    0  0.15005565869E+03 -0.46663040584E+02 -0.54678145028E+03  0.56891483935E+03  0.00000000000E+00 0. -1.
         11    1    1    2    0    0 -0.91363686315E+01 -0.13002094555E+02 -0.27810572546E+02  0.32030542298E+02  0.00000000000E+00 0.  1.
</event>
<event>
 7    1  0.2480409E-009  0.1020551E+03  0.7561462E-02  0.1276033E+00
          1   -1    0    0  501    0  0.00000000000E+00  0.00000000000E+00  0.23297716679E+03  0.23297716679E+03  0.00000000000E+00 0. -1.
         -1   -1    0    0    0  501 -0.00000000000E+00 -0.00000000000E+00 -0.91328936743E+02  0.91328936743E+02  0.00000000000E+00 0.  1.
         25    2    1    2    0    0  0.19081703922E+02 -0.90676698448E+02  0.10684806179E+03  0.18881397924E+03  0.12509130818E+03 0.  0.
          5    1    3    3  502    0  0.15563191234E+02 -0.55188914435E+02  0.13266684244E+03  0.14458904758E+03  0.41800000000E+01 0.  1.
         -5    1    3    3    0  502  0.35185126886E+01 -0.35487784013E+02 -0.25818780651E+02  0.44224931656E+02  0.41800000000E+01 0.  1.
        -11    1    1    2    0    0 -0.40295546462E+02  0.45353596503E+02 -0.17465444351E+02  0.63132571045E+02  0.00000000000E+00 0.  1.
         11    1    1    2    0    0  0.21213842539E+02  0.45323101946E+02  0.52265612611E+02  0.72359553252E+02  0.00000000000E+00 0. -1.
</event>
<event>
 7    1  0.2480409E-009  0.1156574E+03  0.7561462E-02  0.1250438E+00
          2   -1    0    0  501    0  0.00000000000E+00  0.00000000000E+00  0.67642697249E+03  0.67642697249E+03  0.00000000000E+00 0. -1.
         -2   -1    0    0    0  501 -0.00000000000E+00 -0.00000000000E+00 -0.28628474001E+02  0.28628474001E+02  0.00000000000E+00 0.  1.
         25    2    1    2    0    0  0.52461523093E+02  0.58119718578E+02  0.44756946901E+03  0.47127041576E+03  0.12508901664E+03 0.  0.
          5    1    3    3  502    0 -0.22354370144E+02  0.33615038576E+01  0.12017824731E+02  0.25940664679E+02  0.41800000000E+01 0. -1.
         -5    1    3    3    0  502  0.74815893237E+02  0.54758214721E+02  0.43555164428E+03  0.44532975108E+03  0.41800000000E+01 0. -1.
        -11    1    1    2    0    0 -0.11320352561E+02 -0.71395631529E+02  0.15601808795E+03  0.17195095333E+03  0.00000000000E+00 0. -1.
         11    1    1    2    0    0 -0.41141170533E+02  0.13275912951E+02  0.44210941525E+02  0.61834077401E+02  0.00000000000E+00 0.  1.
</event>
<event>
 7    1  0.2480409E-009  0.1329826E+03  0.7561462E-02  0.1223096E+00
          4   -1    0    0  501    0  0.00000000000E+00  0.00000000000E+00  0.60172318599E+03  0.60172318599E+03  0.00000000000E+00 0. -1.
         -4   -1    0    0    0  501 -0.00000000000E+00 -0.00000000000E+00 -0.52946904626E+02  0.52946904626E+02  0.00000000000E+00 0.  1.
         25    2    1    2    0    0  0.28589897409E+02 -0.75550099384E+02  0.50379017224E+03  0.52533523690E+03  0.12508946290E+03 0.  0.
          5    1    3    3  502    0 -0.42256960086E+02  0.11431635597E+01  0.10998995704E+03  0.11790767807E+03  0.41800000000E+01 0.  1.
         -5    1    3    3    0  502  0.70846857495E+02 -0.76693262943E+02  0.39380021520E+03  0.40742755882E+03  0.41800000000E+01 0.  1.
        -11    1    1    2    0    0 -0.53517563061E+02  0.18311903082E+02  0.33849842784E+02  0.65918640815E+02  0.00000000000E+00 0. -1.
         11    1    1    2    0    0  0.24927665651E+02  0.57238196302E+02  0.11136266335E+02  0.63416212900E+02  0.00000000000E+00 0.  1.
</event>
<event>
 7    1  0.2480409E-009  0.1713242E+03  0.7561462E-02  0.1176474E+00
          2   -1    0    0  501    0  0.00000000000E+00  0.00000000000E+00  0.32904092575E+03  0.32904092575E+03  0.00000000000E+00 0. -1.
         -2   -1    0    0    0  501 -0.00000000000E+00 -0.00000000000E+00 -0.11443395953E+03  0.11443395953E+03  0.00000000000E+00 0.  1.
         25    2    1    2    0    0  0.13984428841E+03  0.51750771872E+02  0.92263149479E+02  0.21539363055E+03  0.12508940777E+03 0.  0.
          5    1    3    3  502    0  0.14904299119E+03  0.41393613944E+02  0.38142838370E+02  0.15937249768E+03  0.41800000000E+01 0. -1.
         -5    1    3    3    0  502 -0.91987027744E+01  0.10357157927E+02  0.54120311109E+02  0.56021132866E+02  0.41800000000E+01 0. -1.
        -11    1    1    2    0    0 -0.83491477457E+02 -0.75234586067E+02  0.28194463791E+02  0.11587060687E+03  0.00000000000E+00 0.  1.
         11    1    1    2    0    0 -0.56352810957E+02  0.23483814195E+02  0.94149352955E+02  0.11221064786E+03  0.00000000000E+00 0. -1.
</event>
<event>
 7    1  0.2480409E-009  0.1464344E+03  0.7561462E-02  0.1204924E+00
          2   -1    0    0  501    0  0.00000000000E+00  0.00000000000E+00  0.26330527441E+03  0.26330527441E+03  0.00000000000E+00 0. -1.
         -2   -1    0    0    0  501 -0.00000000000E+00 -0.00000000000E+00 -0.11764901469E+03  0.11764901469E+03  0.00000000000E+00 0.  1.
         25    2    1    2    0    0  0.10318767050E+03 -0.86257328429E+02  0.57803940985E+02  0.19255675704E+03  0.12509511197E+03 0.  0.
          5    1    3    3  502    0  0.99717349094E+02 -0.67522483244E+02 -0.11037797110E+02  0.12100471403E+03  0.41800000000E+01 0. -1.
         -5    1    3    3    0  502  0.34703214069E+01 -0.18734845186E+02  0.68841738094E+02  0.71552043008E+02  0.41800000000E+01 0. -1.
        -11    1    1    2    0    0 -0.10533496166E+03  0.50102786624E+02  0.30498003817E+02  0.12056480254E+03  0.00000000000E+00 0.  1.
         11    1    1    2    0    0  0.21472911598E+01  0.36154541805E+02  0.57354314923E+02  0.67832729510E+02  0.00000000000E+00 0. -1.
</event>
<event>
 7    1  0.2480409E-009  0.1422037E+03  0.7561462E-02  0.1210394E+00
          1   -1    0    0  501    0  0.00000000000E+00  0.00000000000E+00  0.22770061328E+02  0.22770061328E+02  0.00000000000E+00 0. -1.
         -1   -1    0    0    0  501 -0.00000000000E+00 -0.00000000000E+00 -0.10506987305E+04  0.10506987305E+04  0.00000000000E+00 0.  1.
         25    2    1    2    0    0  0.19345634870E+02 -0.10267715744E+03 -0.57292716003E+03  0.59565907135E+03  0.12508935338E+03 0.  0.
          5    1    3    3  502    0 -0.38109031960E+02 -0.21971415168E+02 -0.68053881200E+02  0.81140893191E+02  0.41800000000E+01 0. -1.
         -5    1    3    3    0  502  0.57454666830E+02 -0.80705742269E+02 -0.50487327883E+03  0.51451817816E+03  0.41800000000E+01 0. -1.
        -11    1    1    2    0    0  0.38048725065E+02  0.29977583560E+02 -0.21876833850E+03  0.22406683584E+03  0.00000000000E+00 0.  1.
         11    1    1    2    0    0 -0.57394359935E+02  0.72699573877E+02 -0.23623317068E+03  0.25374288468E+03  0.00000000000E+00 0. -1.
</event>
<event>
 7    1  0.2480409E-009  0.1054785E+03  0.7561462E-02  0.1269180E+00
         -1   -1    0    0    0  501 -0.00000000000E+00  0.00000000000E+00  0.79074371900E+03  0.79074371900E+03  0.00000000000E+00 0.  1.
          1   -1    0    0  501    0  0.00000000000E+00 -0.00000000000E+00 -0.27038268613E+02  0.27038268613E+02  0.00000000000E+00 0. -1.
         25    2    1    2    0    0  0.89321425813E+02 -0.17201275394E+02  0.50154909031E+03  0.52485721788E+03  0.12509759467E+03 0.  0.
          5    1    3    3  502    0  0.43102590647E+02 -0.14813945595E+02  0.39439675569E+02  0.60417271649E+02  0.41800000000E+01 0. -1.
         -5    1    3    3    0  502  0.46218835166E+02 -0.23873297990E+01  0.46210941474E+03  0.46443994623E+03  0.41800000000E+01 0. -1.
        -11    1    1    2    0    0 -0.92336662006E+02  0.36424498429E+02  0.25227661588E+03  0.27110199955E+03  0.00000000000E+00 0.  1.
         11    1    1    2    0    0  0.30152361937E+01 -0.19223223035E+02  0.98797441990E+01  0.21822770186E+02  0.00000000000E+00 0. -1.
</event>
<event>
 7    1  0.2480409E-009  0.1083961E+03  0.7561462E-02  0.1263569E+00
         -4   -1    0    0    0  501 -0.00000000000E+00  0.00000000000E+00  0.27038388552E+03  0.27038388552E+03  0.00000000000E+00 0. -1.
          4   -1    0    0  501    0  0.00000000000E+00 -0.00000000000E+00 -0.70938606481E+02  0.70938606481E+02  0.00000000000E+00 0.  1.
         25    2    1    2    0    0  0.19388865644E+02 -0.83305469796E+02  0.12029347997E+03  0.19347927777E+03  0.12509188701E+03 0.  0.
          5    1    3    3  502    0  0.20716916468E+02 -0.21484694914E+02 -0.22635945032E+02  0.37691393593E+02  0.41800000000E+01 0.  1.
         -5    1    3    3    0  502 -0.13280508243E+01 -0.61820774882E+02  0.14292942500E+03  0.15578788418E+03  0.41800000000E+01 0.  1.
        -11    1    1    2    0    0  0.23926227766E+02  0.77338059427E+02  0.55264629592E+02  0.98019483242E+02  0.00000000000E+00 0.  1.
         11    1    1    2    0    0 -0.43315093410E+02  0.59674103693E+01  0.23887169475E+02  0.49823730984E+02  0.00000000000E+00 0. -1.
</event>
<event>
 7    1  0.2480409E-009  0.7663977E+02  0.7561462E-02  0.1338867E+00
         -1   -1    0    0    0  501 -0.00000000000E+00  0.00000000000E+00  0.17087688823E+03  0.17087688823E+03  0.00000000000E+00 0.  1.
          1   -1    0    0  501    0  0.00000000000E+00 -0.00000000000E+00 -0.77167254219E+02  0.77167254219E+02  0.00000000000E+00 0. -1.
         25    2    1    2    0    0 -0.22009254673E+02 -0.25793211918E+02  0.33937993354E+02  0.13397190049E+03  0.12508791171E+03 0.  0.
          5    1    3    3  502    0 -0.37736526821E+02 -0.44339692007E+02  0.69453601524E+02  0.90726671428E+02  0.41800000000E+01 0. -1.
         -5    1    3    3    0  502  0.15727272147E+02  0.18546480089E+02 -0.35515608170E+02  0.43245229061E+02  0.41800000000E+01 0. -1.
        -11    1    1    2    0    0  0.31883257947E+02  0.41099860561E+02  0.74351442693E+02  0.90740716914E+02  0.00000000000E+00 0.  1.
         11    1    1    2    0    0 -0.98740032735E+01 -0.15306648643E+02 -0.14579802039E+02  0.23331525043E+02  0.00000000000E+00 0. -1.
</event>
<event>
 7    1  0.2480409E-009  0.2181975E+03  0.7561462E-02  0.1135234E+00
          2   -1    0    0  501    0  0.00000000000E+00  0.00000000000E+00  0.13397164870E+03  0.13397164870E+03  0.00000000000E+00 0.  1.
         -2   -1    0    0    0  501 -0.00000000000E+00 -0.00000000000E+00 -0.41423809325E+03  0.41423809325E+03  0.00000000000E+00 0. -1.
         25    2    1    2    0    0  0.10153658201E+03 -0.18178059787E+03 -0.12858716245E+03  0.27483775341E+03  0.12508904471E+03 0.  0.
          5    1    3    3  502    0  0.94706731862E+02 -0.91557298750E+02 -0.12877124684E+03  0.18425962777E+03  0.41800000000E+01 0. -1.
         -5    1    3    3    0  502  0.68298501433E+01 -0.90223299124E+02  0.18408438632E+00  0.90578125642E+02  0.41800000000E+01 0. -1.
        -11    1    1    2    0    0 -0.29081276412E+02  0.10283759203E+03 -0.29511069729E+02  0.11087016825E+03  0.00000000000E+00 0.  1.
         11    1    1    2    0    0 -0.72455305594E+02  0.78943005847E+02 -0.12216821237E+03  0.16250182028E+03  0.00000000000E+00 0. -1.
</event>
<event>
 7    1  0.2480409E-009  0.1036990E+03  0.7561462E-02  0.1272704E+00
         -4   -1    0    0    0  501 -0.00000000000E+00  0.00000000000E+00  0.12650491586E+03  0.12650491586E+03  0.00000000000E+00 0.  1.
          4   -1    0    0  501    0  0.00000000000E+00 -0.00000000000E+00 -0.10759632406E+03  0.10759632406E+03  0.00000000000E+00 0. -1.
         25    2    1    2    0    0 -0.12910537272E+02  0.32490982934E+02 -0.17244961015E+02  0.13102374938E+03  0.12508992076E+03 0.  0.
          5    1    3    3  502    0  0.27493599650E+02 -0.32116798248E+02 -0.32135456452E+02  0.53268627848E+02  0.41800000000E+01 0.  1.
         -5    1    3    3    0  502 -0.40404136922E+02  0.64607781182E+02  0.14890495437E+02  0.77755121529E+02  0.41800000000E+01 0.  1.
        -11    1    1    2    0    0  0.46748566247E+02 -0.27924117553E+02  0.15669744282E+01  0.54476051584E+02  0.00000000000E+00 0.  1.
         11    1    1    2    0    0 -0.33838028975E+02 -0.45668653809E+01  0.34586578393E+02  0.48601438963E+02  0.00000000000E+00 0. -1.
</event>
<event>
 7    1  0.2480409E-009  0.1367764E+03  0.7561462E-02  0.1217734E+00
         -2   -1    0    0    0  501 -0.00000000000E+00  0.00000000000E+00  0.21532643039E+03  0.21532643039E+03  0.00000000000E+00 0.  1.
          2   -1    0    0  501    0  0.00000000000E+00 -0.00000000000E+00 -0.13348011063E+03  0.13348011063E+03  0.00000000000E+00 0. -1.
         25    2    1    2    0    0 -0.94703619584E+02  0.67944283446E+02  0.10229230622E+03  0.19923974030E+03  0.12509019540E+03 0.  0.
          5    1    3    3  502    0 -0.30989410649E+02 -0.64488130728E+01 -0.23581088175E+02  0.39692201777E+02  0.41800000000E+01 0.  1.
         -5    1    3    3    0  502 -0.63714208935E+02  0.74393096519E+02  0.12587339440E+03  0.15954753852E+03  0.41800000000E+01 0.  1.
        -11    1    1    2    0    0 -0.11329002073E+02 -0.28131068360E+02  0.10603868428E+02  0.32127018546E+02  0.00000000000E+00 0. -1.
         11    1    1    2    0    0  0.10603262166E+03 -0.39813215086E+02 -0.31049854892E+02  0.11743978219E+03  0.00000000000E+00 0.  1.
</event>
<event>
 7    1  0.2480409E-009  0.7568902E+02  0.7561462E-02  0.1341751E+00
         -2   -1    0    0    0  501 -0.00000000000E+00  0.00000000000E+00  0.25984708145E+02  0.25984708145E+02  0.00000000000E+00 0.  1.
          2   -1    0    0  501    0  0.00000000000E+00 -0.00000000000E+00 -0.90855835738E+03  0.90855835738E+03  0.00000000000E+00 0. -1.
         25    2    1    2    0    0 -0.31408681195E+02 -0.15418393248E+02 -0.79048934165E+03  0.80108987396E+03  0.12508938720E+03 0.  0.
          5    1    3    3  502    0 -0.45132000235E+02  0.35475259427E+02 -0.61808112985E+03  0.62075530360E+03  0.41800000000E+01 0.  1.
         -5    1    3    3    0  502  0.13723319040E+02 -0.50893652675E+02 -0.17240821180E+03  0.18033457035E+03  0.41800000000E+01 0.  1.
        -11    1    1    2    0    0  0.19997948789E+02 -0.20242978159E+01  0.14541832353E+02  0.24808881990E+02  0.00000000000E+00 0.  1.
         11    1    1    2    0    0  0.11410732406E+02  0.17442691064E+02 -0.10662613994E+03  0.10864430958E+03  0.00000000000E+00 0. -1.
</event>
<event>
 7    1  0.2480409E-009  0.6188888E+02  0.7561462E-02  0.1390072E+00
         -1   -1    0    0    0  501 -0.00000000000E+00  0.00000000000E+00  0.52618053931E+03  0.52618053931E+03  0.00000000000E+00 0.  1.
          1   -1    0    0  501    0  0.00000000000E+00 -0.00000000000E+00 -0.27418552327E+02  0.27418552327E+02  0.00000000000E+00 0. -1.
         25    2    1    2    0    0 -0.21163231876E+02 -0.11549143949E+02  0.17647735633E+03  0.21765371948E+03  0.12509044406E+03 0.  0.
          5    1    3    3  502    0 -0.13698971267E+02 -0.23549099101E+02  0.19331931988E+03  0.19527430379E+03  0.41800000000E+01 0.  1.
         -5    1    3    3    0  502 -0.74642606091E+01  0.11999955152E+02 -0.16841963550E+02  0.22379415683E+02  0.41800000000E+01 0.  1.
        -11    1    1    2    0    0 -0.15774603201E+02 -0.24969872005E+02  0.44927260439E+02  0.53766079870E+02  0.00000000000E+00 0.  1.
         11    1    1    2    0    0  0.36937835077E+02  0.36519015954E+02  0.27735737021E+03  0.28217929229E+03  0.00000000000E+00 0. -1.
</event>
<event>
 7    1  0.2480409E-009  0.1224935E+03  0.7561462E-02  0.1239039E+00
          1   -1    0    0  501    0  0.00000000000E+00  0.00000000000E+00  0.13661075495E+03  0.13661075495E+03  0.00000000000E+00 0. -1.
         -1   -1    0    0    0  501 -0.00000000000E+00 -0.00000000000E+00 -0.12557083446E+03  0.12557083446E+03  0.00000000000E+00 0.  1.
         25    2    1    2    0    0 -0.28102696082E+02 -0.64427177500E+02 -0.13526847638E+02  0.14412226564E+03  0.12509048372E+03 0.  0.
          5    1    3    3  502    0  0.11599256823E+02 -0.92224465760E+02 -0.19636179692E+02  0.95094409911E+02  0.41800000000E+01 0.  1.
         -5    1    3    3    0  502 -0.39701952905E+02  0.27797288260E+02  0.61093320533E+01  0.49027855727E+02  0.41800000000E+01 0.  1.
        -11    1    1    2    0    0  0.19784146645E+02 -0.14122381029E+02  0.30320635316E+02  0.38861227855E+02  0.00000000000E+00 0. -1.
         11    1    1    2    0    0  0.83185494370E+01  0.78549558530E+02 -0.57538671852E+01  0.79198095921E+02  0.00000000000E+00 0.  1.
</event>
<event>
 7    1  0.2480409E-009  0.9133444E+02  0.7561462E-02  0.1299652E+00
         -1   -1    0    0    0  501 -0.00000000000E+00  0.00000000000E+00  0.30384063894E+02  0.30384063894E+02  0.00000000000E+00 0.  1.
          1   -1    0    0  501    0  0.00000000000E+00 -0.00000000000E+00 -0.54751705494E+03  0.54751705494E+03  0.00000000000E+00 0. -1.
         25    2    1    2    0    0 -0.65404579140E+02  0.12632671259E+02 -0.30893768449E+03  0.33989334369E+03  0.12509056253E+03 0.  0.
          5    1    3    3  502    0 -0.43022072960E+02  0.13523604675E+00 -0.16441543692E+02  0.46246230219E+02  0.41800000000E+01 0.  1.
         -5    1    3    3    0  502 -0.22382506180E+02  0.12497435212E+02 -0.29249614080E+03  0.29364711347E+03  0.41800000000E+01 0.  1.
        -11    1    1    2    0    0  0.64710855092E+02 -0.46443498600E+02 -0.16435991147E+03  0.18264357045E+03  0.00000000000E+00 0. -1.
         11    1    1    2    0    0  0.69372404752E+00  0.33810827341E+02 -0.43835395089E+02  0.55364204692E+02  0.00000000000E+00 0.  1.
</event>
<event>
 7    1  0.2480409E-009  0.9959313E+02  0.7561462E-02  0.1281154E+00
          2   -1    0    0  501    0  0.00000000000E+00  0.00000000000E+00  0.17698069266E+03  0.17698069266E+03  0.00000000000E+00 0.  1.
         -2   -1    0    0    0  501 -0.00000000000E+00 -0.00000000000E+00 -0.72932331345E+02  0.72932331345E+02  0.00000000000E+00 0. -1.
         25    2    1    2    0    0  0.17895281877E+01 -0.29122841180E+02  0.42330820710E+02  0.13524263716E+03  0.12508928905E+03 0.  0.
          5    1    3    3  502    0  0.90270043836E+01  0.43474706745E+02 -0.95659264809E+01  0.45612676792E+02  0.41800000000E+01 0.  1.
         -5    1    3    3    0  502 -0.72374761959E+01 -0.72597547925E+02  0.51896747190E+02  0.89629960367E+02  0.41800000000E+01 0.  1.
        -11    1    1    2    0    0  0.34888636139E+02  0.28134731627E+02  0.63743382133E+02  0.77923031391E+02  0.00000000000E+00 0.  1.
         11    1    1    2    0    0 -0.36678164326E+02  0.98810955323E+00 -0.20258415310E+01  0.36747355453E+02  0.00000000000E+00 0. -1.
</event>
<event>
 7    1  0.2480409E-009  0.8232606E+02  0.7561462E-02  0.1322577E+00
          1   -1    0    0  501    0  0.00000000000E+00  0.00000000000E+00  0.16149872479E+03  0.16149872479E+03  0.00000000000E+00 0. -1.
         -1   -1    0    0    0  501 -0.00000000000E+00 -0.00000000000E+00 -0.11096614690E+03  0.11096614690E+03  0.00000000000E+00 0.  1.
         25    2    1    2    0    0  0.25962153080E+02 -0.30911567640E+02  0.96224506017E+02  0.16289926962E+03  0.12508980006E+03 0.  0.
          5    1    3    3  502    0  0.41536727536E+02 -0.15699746345E+02 -0.16845754149E+02  0.47676342168E+02  0.41800000000E+01 0.  1.
         -5    1    3    3    0  502 -0.15574574456E+02 -0.15211821294E+02  0.11307026017E+03  0.11522292745E+03  0.41800000000E+01 0.  1.
        -11    1    1    2    0    0  0.32131568492E+02  0.22399661891E+02 -0.28324185991E+02  0.48336756806E+02  0.00000000000E+00 0. -1.
         11    1    1    2    0    0 -0.58093721572E+02  0.85119057489E+01 -0.17367742141E+02  0.61228845266E+02  0.00000000000E+00 0.  1.
</event>
<event>
 7    1  0.2480409E-009  0.7663066E+02  0.7561462E-02  0.1338894E+00
         -4   -1    0    0    0  501 -0.00000000000E+00  0.00000000000E+00  0.24536908142E+03  0.24536908142E+03  0.00000000000E+00 0. -1.
          4   -1    0    0  501    0  0.00000000000E+00 -0.00000000000E+00 -0.57304336812E+02  0.57304336812E+02  0.00000000000E+00 0.  1.
         25    2    1    2    0    0  0.42092686129E+02 -0.26806093459E+02  0.12134731259E+03  0.18128170620E+03  0.12509007098E+03 0.  0.
          5    1    3    3  502    0  0.16002815713E+02 -0.48746544136E+02  0.13487873581E+03  0.14436779921E+03  0.41800000000E+01 0.  1.
         -5    1    3    3    0  502  0.26089870416E+02  0.21940450677E+02 -0.13531423223E+02  0.36913906981E+02  0.41800000000E+01 0.  1.
        -11    1    1    2    0    0 -0.31183513854E+02  0.39744135831E+02 -0.20633511539E+01  0.50559522221E+02  0.00000000000E+00 0.  1.
         11    1    1    2    0    0 -0.10909172275E+02 -0.12938042372E+02  0.68780783177E+02  0.70832189819E+02  0.00000000000E+00 0. -1.
</event>
<event>
 7    1  0.2480409E-009  0.9844052E+02  0.7561462E-02  0.1283610E+00
          3   -1    0    0  501    0  0.00000000000E+00  0.00000000000E+00  0.92123398692E+02  0.92123398692E+02  0.00000000000E+00 0. -1.
         -3   -1    0    0    0  501 -0.00000000000E+00 -0.00000000000E+00 -0.20685434998E+03  0.20685434998E+03  0.00000000000E+00 0.  1.
         25    2    1    2    0    0  0.51184727731E+02  0.28908496180E+02  0.59417505401E+01  0.13833502616E+03  0.12508276284E+03 0.  0.
          5    1    3    3  502    0  0.85981918800E+02  0.49687267612E+00 -0.16957884595E+02  0.87739269959E+02  0.41800000000E+01 0.  1.
         -5    1    3    3    0  502 -0.34797191069E+02  0.28411623503E+02  0.22899635135E+02  0.50595756203E+02  0.41800000000E+01 0.  1.
        -11    1    1    2    0    0 -0.27568780322E+02 -0.31570841054E+02 -0.12886097955E+03  0.13550611685E+03  0.00000000000E+00 0.  1.
         11    1    1    2    0    0 -0.23615947409E+02  0.26623448741E+01  0.81882777183E+01  0.25136605663E+02  0.00000000000E+00 0. -1.
</event>
<event>
 7    1  0.2480409E-009  0.3030120E+03  0.7561462E-02  0.1083745E+00
         -1   -1    0    0    0  501 -0.00000000000E+00  0.00000000000E+00  0.28079795522E+03  0.28079795522E+03  0.00000000000E+00 0.  1.
          1   -1    0    0  501    0  0.00000000000E+00 -0.00000000000E+00 -0.46395615908E+03  0.46395615908E+03  0.00000000000E+00 0. -1.
         25    2    1    2    0    0 -0.28275220988E+03  0.57488736330E+02 -0.28615229412E+03  0.42518726712E+03  0.12508920696E+03 0.  0.
          5    1    3    3  502    0 -0.20566600233E+03 -0.17498917467E+02 -0.19828296493E+03  0.28624870866E+03  0.41800000000E+01 0. -1.
         -5    1    3    3    0  502 -0.77086207554E+02  0.74987653797E+02 -0.87869329192E+02  0.13893855847E+03  0.41800000000E+01 0. -1.
        -11    1    1    2    0    0  0.72399841293E+02  0.48256056274E+01 -0.92237151795E+01  0.73144380581E+02  0.00000000000E+00 0. -1.
         11    1    1    2    0    0  0.21035236859E+03 -0.62314341957E+02  0.11221780544E+03  0.24642246659E+03  0.00000000000E+00 0.  1.
</event>
<event>
 7    1  0.2480409E-009  0.1818325E+03  0.7561462E-02  0.1166041E+00
          1   -1    0    0  501    0  0.00000000000E+00  0.00000000000E+00  0.11988556161E+04  0.11988556161E+04  0.00000000000E+00 0. -1.
         -1   -1    0    0    0  501 -0.00000000000E+00 -0.00000000000E+00 -0.35058274407E+02  0.35058274407E+02  0.00000000000E+00 0.  1.
         25    2    1    2    0    0  0.98728221882E+02  0.11938133726E+03  0.37322878103E+03  0.42301962590E+03  0.12508683151E+03 0.  0.
          5    1    3    3  502    0  0.39798424534E+02 -0.98014323293E+01  0.28293477303E+02  0.49979755191E+02  0.41800000000E+01 0.  1.
         -5    1    3    3    0  502  0.58929797348E+02  0.12918276959E+03  0.34493530373E+03  0.37303987070E+03  0.41800000000E+01 0.  1.
        -11    1    1    2    0    0 -0.37940022203E+02 -0.11310991107E+03  0.52543684308E+03  0.53881088828E+03  0.00000000000E+00 0.  1.
         11    1    1    2    0    0 -0.60788199679E+02 -0.62714261920E+01  0.26513171755E+03  0.27208337630E+03  0.00000000000E+00 0. -1.
</event>
<event>
 7    1  0.2480409E-009  0.7338071E+02  0.7561462E-02  0.1348960E+00
         -1   -1    0    0    0  501 -0.00000000000E+00  0.00000000000E+00  0.32190925146E+03  0.32190925146E+03  0.00000000000E+00 0.  1.
          1   -1    0    0  501    0  0.00000000000E+00 -0.00000000000E+00 -0.51496845127E+02  0.51496845127E+02  0.00000000000E+00 0. -1.
         25    2    1    2    0    0  0.25968024620E+02 -0.49399512869E+02  0.89143204500E+02  0.16342799286E+03  0.12509015856E+03 0.  0.
          5    1    3    3  502    0  0.10384491071E+02 -0.28723023316E+02  0.11944133409E+03  0.12335539880E+03  0.41800000000E+01 0.  1.
         -5    1    3    3    0  502  0.15583533549E+02 -0.20676489554E+02 -0.30298129593E+02  0.40072594063E+02  0.41800000000E+01 0.  1.
        -11    1    1    2    0    0  0.21870319435E+02  0.13616929370E+01  0.10781724044E+03  0.11002146344E+03  0.00000000000E+00 0.  1.
         11    1    1    2    0    0 -0.47838344055E+02  0.48037819932E+02  0.73451961394E+02  0.99956640292E+02  0.00000000000E+00 0. -1.
</event>
<event>
 7    1  0.2480409E-009  0.1518907E+03  0.7561462E-02  0.1198169E+00
         -2   -1    0    0    0  501 -0.00000000000E+00  0.00000000000E+00  0.18849382542E+02  0.18849382542E+02  0.00000000000E+00 0.  1.
          2   -1    0    0  501    0  0.00000000000E+00 -0.00000000000E+00 -0.12379756538E+04  0.12379756538E+04  0.00000000000E+00 0. -1.
         25    2    1    2    0    0 -0.14523683446E+02 -0.10405379127E+03 -0.70317488629E+03  0.72190061684E+03  0.12508977186E+03 0.  0.
          5    1    3    3  502    0  0.28157693838E+02 -0.11541411550E+03 -0.52412389836E+03  0.53743521192E+03  0.41800000000E+01 0.  1.
         -5    1    3    3    0  502 -0.42681377285E+02  0.11360324225E+02 -0.17905098793E+03  0.18446540492E+03  0.41800000000E+01 0.  1.
        -11    1    1    2    0    0  0.51617323742E+02  0.35656291413E+02 -0.20489761673E+03  0.21428661313E+03  0.00000000000E+00 0.  1.
         11    1    1    2    0    0 -0.37093640295E+02  0.68397499861E+02 -0.31105376828E+03  0.32063780641E+03  0.00000000000E+00 0. -1.
</event>
<event>
 7    1  0.2480409E-009  0.1187123E+03  0.7561462E-02  0.1245237E+00
          2   -1    0    0  501    0  0.00000000000E+00  0.00000000000E+00  0.51956000103E+03  0.51956000103E+03  0.00000000000E+00 0. -1.
         -2   -1    0    0    0  501 -0.00000000000E+00 -0.00000000000E+00 -0.28663822185E+02  0.28663822185E+02  0.00000000000E+00 0.  1.
         25    2    1    2    0    0 -0.21628967513E+02 -0.47836944048E+02  0.33607784974E+03  0.36242515028E+03  0.12508989975E+03 0.  0.
          5    1    3    3  502    0 -0.65667064115E+02  0.52126292819E+01  0.14750763676E+03  0.16160232089E+03  0.41800000000E+01 0.  1.
         -5    1    3    3    0  502  0.44038096602E+02 -0.53049573330E+02  0.18857021298E+03  0.20082282939E+03  0.41800000000E+01 0.  1.
        -11    1    1    2    0    0  0.10586216733E+02  0.73577992714E+02  0.10506713096E+03  0.12870466583E+03  0.00000000000E+00 0.  1.
         11    1    1    2    0    0  0.11042750780E+02 -0.25741048666E+02  0.49751198148E+02  0.57094007114E+02  0.00000000000E+00 0. -1.
</event>
<event>
 7    1  0.2480409E-009  0.1011996E+03  0.7561462E-02  0.1277793E+00
          1   -1    0    0  501    0  0.00000000000E+00  0.00000000000E+00  0.16480003674E+03  0.16480003674E+03  0.00000000000E+00 0. -1.
         -1   -1    0    0    0  501 -0.00000000000E+00 -0.00000000000E+00 -0.10356284238E+03  0.10356284238E+03  0.00000000000E+00 0.  1.
         25    2    1    2    0    0  0.10499691351E+02  0.18732533728E+02 -0.37091776796E+02  0.13223749622E+03  0.12509917730E+03 0.  0.
          5    1    3    3  502    0  0.58323986381E+02  0.14339219807E+02 -0.54275453074E+02  0.81059224142E+02  0.41800000000E+01 0.  1.
         -5    1    3    3    0  502 -0.47824295030E+02  0.43933139207E+01  0.17183676279E+02  0.51178272077E+02  0.41800000000E+01 0.  1.
        -11    1    1    2    0    0  0.27743734666E+02 -0.41170487944E+02  0.55764616164E+02  0.74662013813E+02  0.00000000000E+00 0. -1.
         11    1    1    2    0    0 -0.38243426018E+02  0.22437954217E+02  0.42564354994E+02  0.61463369083E+02  0.00000000000E+00 0.  1.
</event>
<event>
 7    1  0.2480409E-009  0.1169686E+03  0.7561462E-02  0.1248183E+00
         -2   -1    0    0    0  501 -0.00000000000E+00  0.00000000000E+00  0.50008189422E+02  0.50008189422E+02  0.00000000000E+00 0. -1.
          2   -1    0    0  501    0  0.00000000000E+00 -0.00000000000E+00 -0.38267164734E+03  0.38267164734E+03  0.00000000000E+00 0.  1.
         25    2    1    2    0    0 -0.37550924161E+02  0.66315337981E+02 -0.23075720248E+03  0.27332123299E+03  0.12509122252E+03 0.  0.
          5    1    3    3  502    0  0.11794428907E+02 -0.13177681520E+02 -0.14562597074E+03  0.14675542783E+03  0.41800000000E+01 0. -1.
         -5    1    3    3    0  502 -0.49345353068E+02  0.79493019502E+02 -0.85131231739E+02  0.12656580516E+03  0.41800000000E+01 0. -1.
        -11    1    1    2    0    0 -0.28404417230E+02 -0.44207329060E+02 -0.50336640727E+02  0.72765900396E+02  0.00000000000E+00 0.  1.
         11    1    1    2    0    0  0.65955341390E+02 -0.22108008921E+02 -0.51569614715E+02  0.86592703377E+02  0.00000000000E+00 0. -1.
</event>
<event>
 7    1  0.2480409E-009  0.2922705E+03  0.7561462E-02  0.1089170E+00
          2   -1    0    0  501    0  0.00000000000E+00  0.00000000000E+00  0.12361255147E+04  0.12361255147E+04  0.00000000000E+00 0. -1.
         -2   -1    0    0    0  501 -0.00000000000E+00 -0.00000000000E+00 -0.81788822490E+02  0.81788822490E+02  0.00000000000E+00 0.  1.
         25    2    1    2    0    0 -0.19968645685E+03 -0.19859028544E+03  0.79394761096E+03  0.85165320960E+03  0.12509035916E+03 0.  0.
          5    1    3    3  502    0 -0.99698419949E+02 -0.50739564076E+02  0.45489771419E+03  0.46846950923E+03  0.41800000000E+01 0. -1.
         -5    1    3    3    0  502 -0.99988036897E+02 -0.14785072136E+03  0.33904989677E+03  0.38318370037E+03  0.41800000000E+01 0. -1.
        -11    1    1    2    0    0  0.63151895499E+02  0.12233664748E+03  0.14340938836E+03  0.19879806310E+03  0.00000000000E+00 0.  1.
         11    1    1    2    0    0  0.13653456135E+03  0.76253637953E+02  0.21697969293E+03  0.26746306453E+03  0.00000000000E+00 0. -1.
</event>
<event>
 7    1  0.2480409E-009  0.2423456E+03  0.7561462E-02  0.1118240E+00
          1   -1    0    0  501    0  0.00000000000E+00  0.00000000000E+00  0.24950736432E+03  0.24950736432E+03  0.00000000000E+00 0. -1.
         -1   -1    0    0    0  501 -0.00000000000E+00 -0.00000000000E+00 -0.31402685088E+03  0.31402685088E+03  0.00000000000E+00 0.  1.
         25    2    1    2    0    0 -0.16458777115E+03  0.73599282529E+02  0.56303797531E+01  0.21951061095E+03  0.12508884181E+03 0.  0.
          5    1    3    3  502    0 -0.71218911522E+02  0.60876664251E+02  0.59325881602E+02  0.11097357450E+03  0.41800000000E+01 0. -1.
         -5    1    3    3    0  502 -0.93368859625E+02  0.12722618278E+02 -0.53695501849E+02  0.10853703645E+03  0.41800000000E+01 0. -1.
        -11    1    1    2    0    0 -0.55194511111E+02 -0.51845645399E+02  0.51788419811E+02  0.91741187207E+02  0.00000000000E+00 0. -1.
         11    1    1    2    0    0  0.21978228226E+03 -0.21753637130E+02 -0.12193828613E+03  0.25228241704E+03  0.00000000000E+00 0.  1.
</event>
<event>
 7    1  0.2480409E-009  0.1072024E+03  0.7561462E-02  0.1265840E+00
          2   -1    0    0  501    0  0.00000000000E+00  0.00000000000E+00  0.93233586785E+03  0.93233586785E+03  0.00000000000E+00 0. -1.
         -2   -1    0    0    0  501 -0.00000000000E+00 -0.00000000000E+00 -0.15885417925E+02  0.15885417925E+02  0.00000000000E+00 0.  1.
         25    2    1    2    0    0  0.37995795963E+01 -0.41683375707E+02  0.66311540941E+03  0.67610704516E+03  0.12508696855E+03 0.  0.
          5    1    3    3  502    0 -0.12119787955E+01 -0.78950105683E+02  0.57214516329E+03  0.57758302291E+03  0.41800000000E+01 0.  1.
         -5    1    3    3    0  502  0.50115583917E+01  0.37266729975E+02  0.90970246122E+02  0.98524022248E+02  0.41800000000E+01 0.  1.
        -11    1    1    2    0    0 -0.40419427908E+02 -0.20367638382E+01  0.13160298812E+03  0.13768523901E+03  0.00000000000E+00 0. -1.
         11    1    1    2    0    0  0.36619848312E+02  0.43720139546E+02  0.12173205239E+03  0.13442900160E+03  0.00000000000E+00 0.  1.
</event>
<event>
 7    1  0.2480409E-009  0.1149250E+03  0.7561462E-02  0.1251712E+00
         -2   -1    0    0    0  501 -0.00000000000E+00  0.00000000000E+00  0.42394036497E+02  0.42394036497E+02  0.00000000000E+00 0.  1.
          2   -1    0    0  501    0  0.00000000000E+00 -0.00000000000E+00 -0.42476243724E+03  0.42476243724E+03  0.00000000000E+00 0. -1.
         25    2    1    2    0    0  0.34256333949E+02  0.28542198974E+02 -0.32601708006E+03  0.35202684302E+03  0.12509040004E+03 0.  0.
          5    1    3    3  502    0 -0.18112267953E+02  0.64371975212E+02 -0.13517854321E+03  0.15087251701E+03  0.41800000000E+01 0.  1.
         -5    1    3    3    0  502  0.52368601902E+02 -0.35829776238E+02 -0.19083853685E+03  0.20115432602E+03  0.41800000000E+01 0.  1.
        -11    1    1    2    0    0  0.21899223961E+02  0.16377950757E+02 -0.80647587209E+01  0.28510587758E+02  0.00000000000E+00 0.  1.
         11    1    1    2    0    0 -0.56155557910E+02 -0.44920149731E+02 -0.48286561964E+02  0.86619042954E+02  0.00000000000E+00 0. -1.
</event>
<event>
 7    1  0.2480409E-009  0.1056988E+03  0.7561462E-02  0.1268749E+00
         -1   -1    0    0    0  501 -0.00000000000E+00  0.00000000000E+00  0.18152269881E+03  0.18152269881E+03  0.00000000000E+00 0.  1.
          1   -1    0    0  501    0  0.00000000000E+00 -0.00000000000E+00 -0.86587659053E+02  0.86587659053E+02  0.00000000000E+00 0. -1.
         25    2    1    2    0    0  0.61869821751E+02  0.15374827113E+02  0.32934238570E+02  0.14422380478E+03  0.12510628138E+03 0.  0.
          5    1    3    3  502    0  0.37181674138E+02 -0.51667729612E+02  0.34732985329E+02  0.72635279616E+02  0.41800000000E+01 0. -1.
         -5    1    3    3    0  502  0.24688147613E+02  0.67042556725E+02 -0.17987467589E+01  0.71588525161E+02  0.41800000000E+01 0. -1.
        -11    1    1    2    0    0 -0.55029207998E+02 -0.27952399744E+02  0.79901541902E+02  0.10096438373E+03  0.00000000000E+00 0.  1.
         11    1    1    2    0    0 -0.68406137531E+01  0.12577572630E+02 -0.17900740714E+02  0.22922169354E+02  0.00000000000E+00 0. -1.
</event>
<event>
 7    1  0.2480409E-009  0.1277991E+03  0.7561462E-02  0.1230759E+00
          1   -1    0    0  501    0  0.00000000000E+00  0.00000000000E+00  0.34744744257E+03  0.34744744257E+03  0.00000000000E+00 0. -1.
         -1   -1    0    0    0  501 -0.00000000000E+00 -0.00000000000E+00 -0.66041241881E+02  0.66041241881E+02  0.00000000000E+00 0.  1.
         25    2    1    2    0    0 -0.93513089570E+02  0.27025485081E+02  0.10348594909E+03  0.18929318599E+03  0.12508994299E+03 0.  0.
          5    1    3    3  502    0 -0.15361998433E+02  0.37014457984E+02 -0.18244072897E+02  0.44230981128E+02  0.41800000000E+01 0.  1.
         -5    1    3    3    0  502 -0.78151091137E+02 -0.99889729032E+01  0.12173002199E+03  0.14506220486E+03  0.41800000000E+01 0.  1.
        -11    1    1    2    0    0  0.10437631942E+03 -0.46376567421E+02  0.14835301946E+03  0.18722665528E+03  0.00000000000E+00 0. -1.
         11    1    1    2    0    0 -0.10863229851E+02  0.19351082340E+02  0.29567232134E+02  0.36968843187E+02  0.00000000000E+00 0.  1.
</event>
<event>
 7    1  0.2480409E-009  0.1211281E+03  0.7561462E-02  0.1241247E+00
          1   -1    0    0  501    0  0.00000000000E+00  0.00000000000E+00  0.52241780504E+02  0.52241780504E+02  0.00000000000E+00 0. -1.
         -1   -1    0    0    0  501 -0.00000000000E+00 -0.00000000000E+00 -0.35906142484E+03  0.35906142484E+03  0.00000000000E+00 0.  1.
         25    2    1    2    0    0 -0.78841294286E+02 -0.28570322620E+01 -0.20750160359E+03  0.25481120427E+03  0.12509085503E+03 0.  0.
          5    1    3    3  502    0  0.21672662963E+02  0.28503621259E+02 -0.24331422607E+02  0.43493117511E+02  0.41800000000E+01 0. -1.
         -5    1    3    3    0  502 -0.10051395725E+03 -0.31360653521E+02 -0.18317018099E+03  0.21131808676E+03  0.41800000000E+01 0. -1.
        -11    1    1    2    0    0  0.52577450031E+02 -0.28598272340E+02 -0.98794637763E+02  0.11551030207E+03  0.00000000000E+00 0.  1.
         11    1    1    2    0    0  0.26263844255E+02  0.31455304602E+02 -0.52340298101E+00  0.40981699005E+02  0.00000000000E+00 0. -1.
</event>
<event>
 7    1  0.2480409E-009  0.1132081E+03  0.7561462E-02  0.1254742E+00
         -1   -1    0    0    0  501 -0.00000000000E+00  0.00000000000E+00  0.29753829340E+03  0.29753829340E+03  0.00000000000E+00 0.  1.
          1   -1    0    0  501    0  0.00000000000E+00 -0.00000000000E+00 -0.53763859654E+02  0.53763859654E+02  0.00000000000E+00 0. -1.
         25    2    1    2    0    0  0.57432206014E+02  0.22375783978E+02  0.10969346897E+03  0.17742521522E+03  0.12509162987E+03 0.  0.
          5    1    3    3  502    0  0.86777588647E+02  0.61103721228E+01  0.11386903254E+03  0.14335730017E+03  0.41800000000E+01 0. -1.
         -5    1    3    3    0  502 -0.29345382633E+02  0.16265411856E+02 -0.41755635730E+01  0.34067915050E+02  0.41800000000E+01 0. -1.
        -11    1    1    2    0    0  0.18346285041E+02 -0.23390493266E+02  0.64383833688E+02  0.70915297295E+02  0.00000000000E+00 0.  1.
         11    1    1    2    0    0 -0.75778491055E+02  0.10147092872E+01  0.69697131090E+02  0.10296164055E+03  0.00000000000E+00 0. -1.
</event>
<event>
 7    1  0.2480409E-009  0.7680899E+02  0.7561462E-02  0.1338359E+00
         -2   -1    0    0    0  501 -0.00000000000E+00  0.00000000000E+00  0.90692971512E+02  0.90692971512E+02  0.00000000000E+00 0.  1.
          2   -1    0    0  501    0  0.00000000000E+00 -0.00000000000E+00 -0.17138058015E+03  0.17138058015E+03  0.00000000000E+00 0. -1.
         25    2    1    2    0    0  0.19141860779E+02  0.50140773790E+02 -0.63674958076E+01  0.13627256128E+03  0.12509659438E+03 0.  0.
          5    1    3    3  502    0 -0.86454899998E+00  0.30230088067E+02  0.58177659684E+02  0.65701736323E+02  0.41800000000E+01 0.  1.
         -5    1    3    3    0  502  0.20006409779E+02  0.19910685723E+02 -0.64545155492E+02  0.70570824961E+02  0.41800000000E+01 0.  1.
        -11    1    1    2    0    0  0.29097433248E+02 -0.72078916465E+01 -0.46858886415E+02  0.55627057802E+02  0.00000000000E+00 0. -1.
         11    1    1    2    0    0 -0.48239294027E+02 -0.42932882144E+02 -0.27461226419E+02  0.70173932580E+02  0.00000000000E+00 0.  1.
</event>
<event>
 7    1  0.2480409E-009  0.3311471E+03  0.7561462E-02  0.1070630E+00
          2   -1    0    0  501    0  0.00000000000E+00  0.00000000000E+00  0.23200932359E+03  0.23200932359E+03  0.00000000000E+00 0.  1.
         -2   -1    0    0    0  501 -0.00000000000E+00 -0.00000000000E+00 -0.51540821276E+03  0.51540821276E+03  0.00000000000E+00 0. -1.
         25    2    1    2    0    0  0.25178743634E+03 -0.20850087435E+03 -0.10832983126E+03  0.36640410173E+03  0.12508831170E+03 0.  0.
          5    1    3    3  502    0  0.19758989033E+03 -0.12451599191E+03 -0.22643872916E+02  0.23468322134E+03  0.41800000000E+01 0. -1.
         -5    1    3    3    0  502  0.54197546008E+02 -0.83984882440E+02 -0.85685958347E+02  0.13172088039E+03  0.41800000000E+01 0. -1.
        -11    1    1    2    0    0 -0.12571962660E+03  0.12605133440E+03 -0.49173134453E+02  0.18469531821E+03  0.00000000000E+00 0. -1.
         11    1    1    2    0    0 -0.12606780974E+03  0.82449539942E+02 -0.12589592345E+03  0.19631811641E+03  0.00000000000E+00 0.  1.
</event>
<event>
 7    1  0.2480409E-009  0.1327713E+03  0.7561462E-02  0.1223401E+00
          1   -1    0    0  501    0  0.00000000000E+00  0.00000000000E+00  0.60169650186E+03  0.60169650186E+03  0.00000000000E+00 0. -1.
         -1   -1    0    0    0  501 -0.00000000000E+00 -0.00000000000E+00 -0.39818300116E+02  0.39818300116E+02  0.00000000000E+00 0.  1.
         25    2    1    2    0    0  0.72133202285E+02  0.64399859031E+02  0.40299357099E+03  0.43289810671E+03  0.12508561795E+03 0.  0.
          5    1    3    3  502    0  0.20151806846E+02  0.78711240337E+02  0.12127629111E+03  0.14603754949E+03  0.41800000000E+01 0. -1.
         -5    1    3    3    0  502  0.51981395439E+02 -0.14311381306E+02  0.28171727988E+03  0.28686055722E+03  0.41800000000E+01 0. -1.
        -11    1    1    2    0    0 -0.40530556442E+02  0.16112113810E+02  0.82064981927E+02  0.92935394095E+02  0.00000000000E+00 0. -1.
         11    1    1    2    0    0 -0.31602645843E+02 -0.80511972841E+02  0.76819648828E+02  0.11568130117E+03  0.00000000000E+00 0.  1.
</event>
<event>
 7    1  0.2480409E-009  0.1250167E+03  0.7561462E-02  0.1235043E+00
          3   -1    0    0  501    0  0.00000000000E+00  0.00000000000E+00  0.16061497349E+03  0.16061497349E+03  0.00000000000E+00 0. -1.
         -3   -1    0    0    0  501 -0.00000000000E+00 -0.00000000000E+00 -0.14852046862E+03  0.14852046862E+03  0.00000000000E+00 0.  1.
         25    2    1    2    0    0 -0.32712267890E+02  0.79454408538E+02 -0.63808067535E+02  0.16462615949E+03  0.12508879806E+03 0.  0.
          5    1    3    3  502    0  0.79903544971E+01  0.10372433276E+03 -0.41488419392E+02  0.11207740323E+03  0.41800000000E+01 0. -1.
         -5    1    3    3    0  502 -0.40702622387E+02 -0.24269924224E+02 -0.22319648143E+02  0.52548756258E+02  0.41800000000E+01 0. -1.
        -11    1    1    2    0    0  0.41807243181E+02 -0.40017449573E+02  0.85187114627E+02  0.10298585510E+03  0.00000000000E+00 0. -1.
         11    1    1    2    0    0 -0.90949752910E+01 -0.39436958965E+02 -0.92845422237E+01  0.41523427511E+02  0.00000000000E+00 0.  1.
</event>
<event>
 7    1  0.2480409E-009  0.1563766E+03  0.7561462E-02  0.1192849E+00
          1   -1    0    0  501    0  0.00000000000E+00  0.00000000000E+00  0.67533282417E+03  0.67533282417E+03  0.00000000000E+00 0. -1.
         -1   -1    0    0    0  501 -0.00000000000E+00 -0.00000000000E+00 -0.43773136351E+02  0.43773136351E+02  0.00000000000E+00 0.  1.
         25    2    1    2    0    0  0.11382039878E+03 -0.69897627061E+02  0.30480158454E+03  0.35552074369E+03  0.12510088652E+03 0.  0.
          5    1    3    3  502    0  0.89682444435E+02 -0.85973373502E+02  0.13622038809E+03  0.18441211544E+03  0.41800000000E+01 0.  1.
         -5    1    3    3    0  502  0.24137954350E+02  0.16075746441E+02  0.16858119645E+03  0.17110862825E+03  0.41800000000E+01 0.  1.
        -11    1    1    2    0    0 -0.10929927098E+03  0.88104062572E+02  0.29498079892E+03  0.32668383524E+03  0.00000000000E+00 0. -1.
         11    1    1    2    0    0 -0.45211278089E+01 -0.18206435511E+02  0.31777304363E+02  0.36901381590E+02  0.00000000000E+00 0.  1.
</event>
<event>
 7    1  0.2480409E-009  0.9635018E+02  0.7561462E-02  0.1288164E+00
          2   -1    0    0  501    0  0.00000000000E+00  0.00000000000E+00  0.52356591601E+02  0.52356591601E+02  0.00000000000E+00 0. -1.
         -2   -1    0    0    0  501 -0.00000000000E+00 -0.00000000000E+00 -0.23809905060E+03  0.23809905060E+03  0.00000000000E+00 0.  1.
         25    2    1    2    0    0  0.29705647740E+02 -0.90125101933E+00 -0.99396570165E+02  0.16251111851E+03  0.12508776007E+03 0.  0.
          5    1    3    3  502    0  0.43772231516E+02 -0.41515943335E+02 -0.10271977220E+03  0.11919901763E+03  0.41800000000E+01 0.  1.
         -5    1    3    3    0  502 -0.14066583776E+02  0.40614692316E+02  0.33232020360E+01  0.43312100882E+02  0.41800000000E+01 0.  1.
        -11    1    1    2    0    0 -0.41779418874E+02  0.33964630540E+02 -0.30360060423E+02  0.61813018354E+02  0.00000000000E+00 0. -1.
         11    1    1    2    0    0  0.12073771134E+02 -0.33063379521E+02 -0.55985828406E+02  0.66131505329E+02  0.00000000000E+00 0.  1.
</event>
<event>
 7    1  0.2480409E-009  0.1149410E+03  0.7561462E-02  0.1251684E+00
          1   -1    0    0  501    0  0.00000000000E+00  0.00000000000E+00  0.14983068056E+03  0.14983068056E+03  0.00000000000E+00 0. -1.
         -1   -1    0    0    0  501 -0.00000000000E+00 -0.00000000000E+00 -0.10156563619E+03  0.10156563619E+03  0.00000000000E+00 0.  1.
         25    2    1    2    0    0 -0.37713643740E+02  0.13060480473E+02  0.44778311738E+02  0.13872852917E+03  0.12509041742E+03 0.  0.
          5    1    3    3  502    0  0.38499107146E+02  0.16055958804E+02 -0.11938262175E+02  0.43588640354E+02  0.41800000000E+01 0. -1.
         -5    1    3    3    0  502 -0.76212750887E+02 -0.29954783317E+01  0.56716573913E+02  0.95139888820E+02  0.41800000000E+01 0. -1.
        -11    1    1    2    0    0  0.31381753519E+02  0.44065722101E+02  0.93253758797E+01  0.54895946604E+02  0.00000000000E+00 0.  1.
         11    1    1    2    0    0  0.63318902212E+01 -0.57126202574E+02 -0.58386432528E+01  0.57771840972E+02  0.00000000000E+00 0. -1.
</event>
<event>
 7    1  0.2480409E-009  0.1116129E+03  0.7561462E-02  0.1257612E+00
         -1   -1    0    0    0  501 -0.00000000000E+00  0.00000000000E+00  0.19763728169E+02  0.19763728169E+02  0.00000000000E+00 0.  1.
          1   -1    0    0  501    0  0.00000000000E+00 -0.00000000000E+00 -0.73332400440E+03  0.73332400440E+03  0.00000000000E+00 0. -1.
         25    2    1    2    0    0  0.18431031836E+02  0.23579318353E+02 -0.53990791346E+03  0.55501654853E+03  0.12508847644E+03 0.  0.
          5    1    3    3  502    0  0.30787719911E+02  0.71862762847E+02 -0.31029957037E+03  0.32002411808E+03  0.41800000000E+01 0. -1.
         -5    1    3    3    0  502 -0.12356688075E+02 -0.48283444494E+02 -0.22960834309E+03  0.23499243045E+03  0.41800000000E+01 0. -1.
        -11    1    1    2    0    0  0.35775253802E+02  0.78817231871E-01 -0.73878302812E+02  0.82084582128E+02  0.00000000000E+00 0. -1.
         11    1    1    2    0    0 -0.54206285637E+02 -0.23658135585E+02 -0.99774059961E+02  0.11598660191E+03  0.00000000000E+00 0.  1.
</event>
<event>
 7    1  0.2480409E-009  0.1231695E+03  0.7561462E-02  0.1237958E+00
         -1   -1    0    0    0  501 -0.00000000000E+00  0.00000000000E+00  0.17979364231E+02  0.17979364231E+02  0.00000000000E+00 0.  1.
          1   -1    0    0  501    0  0.00000000000E+00 -0.00000000000E+00 -0.11328939340E+04  0.11328939340E+04  0.00000000000E+00 0. -1.
         25    2    1    2    0    0 -0.84310823475E+02  0.33867014437E+01 -0.77037938068E+03  0.78501686920E+03  0.12508920835E+03 0.  0.
          5    1    3    3  502    0  0.16743686056E+02  0.23146146668E+02 -0.38550669004E+03  0.38658631066E+03  0.41800000000E+01 0. -1.
         -5    1    3    3    0  502 -0.10105450953E+03 -0.19759445224E+02 -0.38487269064E+03  0.39843055854E+03  0.41800000000E+01 0. -1.
        -11    1    1    2    0    0  0.62952060295E+02  0.33858303623E+02 -0.14385784605E+03  0.16063756251E+03  0.00000000000E+00 0.  1.
         11    1    1    2    0    0  0.21358763180E+02 -0.37245005067E+02 -0.20067734306E+03  0.20521886654E+03  0.00000000000E+00 0. -1.
</event>
<event>
 7    1  0.2480409E-009  0.9595682E+02  0.7561462E-02  0.1289036E+00
         -1   -1    0    0    0  501 -0.00000000000E+00  0.00000000000E+00  0.29921635093E+02  0.29921635093E+02  0.00000000000E+00 0.  1.
          1   -1    0    0  501    0  0.00000000000E+00 -0.00000000000E+00 -0.45416153066E+03  0.45416153066E+03  0.00000000000E+00 0. -1.
         25    2    1    2    0    0 -0.18988163452E+02  0.33763636371E+02 -0.20193461540E+03  0.24068046141E+03  0.12509581174E+03 0.  0.
          5    1    3    3  502    0 -0.47750702657E+02 -0.19690775459E+01 -0.18577199355E+03  0.19186639325E+03  0.41800000000E+01 0.  1.
         -5    1    3    3    0  502  0.28762539205E+02  0.35732713916E+02 -0.16162621853E+02  0.48814068162E+02  0.41800000000E+01 0.  1.
        -11    1    1    2    0    0  0.45911926963E+02  0.95357551519E+01 -0.87420150155E+02  0.99202410842E+02  0.00000000000E+00 0. -1.
         11    1    1    2    0    0 -0.26923763511E+02 -0.43299391522E+02 -0.13488513001E+03  0.14420029350E+03  0.00000000000E+00 0.  1.
</event>
<event>
 7    1  0.2480409E-009  0.9858844E+02  0.7561462E-02  0.1283293E+00
         -2   -1    0    0    0  501 -0.00000000000E+00  0.00000000000E+00  0.13714183233E+03  0.13714183233E+03  0.00000000000E+00 0.  1.
          2   -1    0    0  501    0  0.00000000000E+00 -0.00000000000E+00 -0.93767527642E+02  0.93767527642E+02  0.00000000000E+00 0. -1.
         25    2    1    2    0    0 -0.13370096696E+02 -0.29518720447E+02  0.47784435728E+02  0.13776693019E+03  0.12508501275E+03 0.  0.
          5    1    3    3  502    0  0.45735888719E+02  0.14979913558E+02  0.40988704001E+02  0.63353891615E+02  0.41800000000E+01 0.  1.
         -5    1    3    3    0  502 -0.59105985415E+02 -0.44498634005E+02  0.67957317269E+01  0.74413038575E+02  0.41800000000E+01 0.  1.
        -11    1    1    2    0    0  0.39126889548E+01  0.51076411353E+02  0.23728718025E+02  0.56454946556E+02  0.00000000000E+00 0.  1.
         11    1    1    2    0    0  0.94574077416E+01 -0.21557690906E+02 -0.28138849068E+02  0.36687483223E+02  0.00000000000E+00 0. -1.
</event>
<event>
 7    1  0.2480409E-009  0.1136866E+03  0.7561462E-02  0.1253891E+00
          3   -1    0    0  501    0  0.00000000000E+00  0.00000000000E+00  0.10206247880E+03  0.10206247880E+03  0.00000000000E+00 0. -1.
         -3   -1    0    0    0  501 -0.00000000000E+00 -0.00000000000E+00 -0.16421872651E+03  0.16421872651E+03  0.00000000000E+00 0.  1.
         25    2    1    2    0    0  0.21062423047E+02  0.49835998037E+02 -0.85229936538E+02  0.16074415431E+03  0.12508912302E+03 0.  0.
          5    1    3    3  502    0 -0.48583626342E+02  0.13973989228E+02 -0.59491379444E+02  0.78181441223E+02  0.41800000000E+01 0. -1.
         -5    1    3    3    0  502  0.69646049389E+02  0.35862008809E+02 -0.25738557094E+02  0.82562713089E+02  0.41800000000E+01 0. -1.
        -11    1    1    2    0    0  0.25576159338E+02  0.51584591147E+01  0.20843592283E+02  0.33394684700E+02  0.00000000000E+00 0. -1.
         11    1    1    2    0    0 -0.46638582385E+02 -0.54994457151E+02  0.22300965420E+01  0.72142366296E+02  0.00000000000E+00 0.  1.
</event>
<event>
 7    1  0.2480409E-009  0.8250593E+02  0.7561462E-02  0.1322087E+00
          1   -1    0    0  501    0  0.00000000000E+00  0.00000000000E+00  0.53011714097E+03  0.53011714097E+03  0.00000000000E+00 0.  1.
         -1   -1    0    0    0  501 -0.00000000000E+00 -0.00000000000E+00 -0.42130815922E+02  0.42130815922E+02  0.00000000000E+00 0. -1.
         25    2    1    2    0    0  0.59486243711E+02 -0.25429604431E+02  0.41744436408E+03  0.44055819962E+03  0.12508577927E+03 0.  0.
          5    1    3    3  502    0  0.64949148060E+02 -0.11718198169E+02  0.41985394452E+03  0.42503001674E+03  0.41800000000E+01 0.  1.
         -5    1    3    3    0  502 -0.54629043487E+01 -0.13711406262E+02 -0.24095804389E+01  0.15528182878E+02  0.41800000000E+01 0.  1.
        -11    1    1    2    0    0 -0.25873255365E+02  0.39404349454E+02  0.81084671692E+02  0.93791535239E+02  0.00000000000E+00 0.  1.
         11    1    1    2    0    0 -0.33612988346E+02 -0.13974745023E+02 -0.10542710723E+02  0.37898222035E+02  0.00000000000E+00 0. -1.
</event>
<event>
 7    1  0.2480409E-009  0.1243494E+03  0.7561462E-02  0.1236090E+00
          3   -1    0    0  501    0  0.00000000000E+00  0.00000000000E+00  0.52205983721E+02  0.52205983721E+02  0.00000000000E+00 0. -1.
         -3   -1    0    0    0  501 -0.00000000000E+00 -0.00000000000E+00 -0.32544959241E+03  0.32544959241E+03  0.00000000000E+00 0.  1.
         25    2    1    2    0    0  0.27718937986E+02  0.62285944059E+02 -0.13424499213E+03  0.19574683713E+03  0.12508888034E+03 0.  0.
          5    1    3    3  502    0  0.63699570162E+02  0.79389495726E+02 -0.10375060467E+03  0.14540284605E+03  0.41800000000E+01 0.  1.
         -5    1    3    3    0  502 -0.35980632175E+02 -0.17103551666E+02 -0.30494387459E+02  0.50343991079E+02  0.41800000000E+01 0.  1.
        -11    1    1    2    0    0 -0.49978873644E+02 -0.67420684754E+02 -0.70192551990E+02  0.10940946439E+03  0.00000000000E+00 0. -1.
         11    1    1    2    0    0  0.22259935657E+02  0.51347406944E+01 -0.68806064563E+02  0.72499274604E+02  0.00000000000E+00 0.  1.
</event>
<event>
 7    1  0.2480409E-009  0.1071567E+03  0.7561462E-02  0.1265928E+00
         -2   -1    0    0    0  501 -0.00000000000E+00  0.00000000000E+00  0.17507702057E+02  0.17507702057E+02  0.00000000000E+00 0.  1.
          2   -1    0    0  501    0  0.00000000000E+00 -0.00000000000E+00 -0.86460962825E+03  0.86460962825E+03  0.00000000000E+00 0. -1.
         25    2    1    2    0    0 -0.65252753561E+00  0.41946808759E+02 -0.62339052110E+03  0.63719940947E+03  0.12508950827E+03 0.  0.
          5    1    3    3  502    0  0.52964527531E+02  0.14451939973E+02 -0.45470082569E+03  0.45802228442E+03  0.41800000000E+01 0. -1.
         -5    1    3    3    0  502 -0.53617055066E+02  0.27494868787E+02 -0.16868969541E+03  0.17917712505E+03  0.41800000000E+01 0. -1.
        -11    1    1    2    0    0  0.44485029431E+02 -0.13076804827E+02 -0.12084788303E+03  0.12943775145E+03  0.00000000000E+00 0. -1.
         11    1    1    2    0    0 -0.43832501895E+02 -0.28870003932E+02 -0.10286352206E+03  0.11548016938E+03  0.00000000000E+00 0.  1.
</event>
<event>
 7    1  0.2480409E-009  0.1158911E+03  0.7561462E-02  0.1250034E+00
          1   -1    0    0  501    0  0.00000000000E+00  0.00000000000E+00  0.49598648715E+02  0.49598648715E+02  0.00000000000E+00 0.  1.
         -1   -1    0    0    0  501 -0.00000000000E+00 -0.00000000000E+00 -0.34858362968E+03  0.34858362968E+03  0.00000000000E+00 0. -1.
         25    2    1    2    0    0 -0.71325781223E+02  0.12872913438E+02 -0.15354438061E+03  0.21089603825E+03  0.12509269828E+03 0.  0.
          5    1    3    3  502    0 -0.30235399271E+02  0.59314766079E+02 -0.31142163124E+02  0.73618799013E+02  0.41800000000E+01 0. -1.
         -5    1    3    3    0  502 -0.41090381952E+02 -0.46441852642E+02 -0.12240221749E+03  0.13727723924E+03  0.41800000000E+01 0. -1.
        -11    1    1    2    0    0  0.86556363358E+02 -0.79653281982E+01 -0.14744525611E+03  0.17115944041E+03  0.00000000000E+00 0. -1.
         11    1    1    2    0    0 -0.15230582135E+02 -0.49075852393E+01  0.20046557609E+01  0.16126799737E+02  0.00000000000E+00 0.  1.
</event>
<event>
 7    1  0.2480409E-009  0.1129466E+03  0.7561462E-02  0.1255208E+00
         -3   -1    0    0    0  501 -0.00000000000E+00  0.00000000000E+00  0.64785134454E+03  0.64785134454E+03  0.00000000000E+00 0.  1.
          3   -1    0    0  501    0  0.00000000000E+00 -0.00000000000E+00 -0.45994351930E+02  0.45994351930E+02  0.00000000000E+00 0. -1.
         25    2    1    2    0    0 -0.38685176650E+02  0.74418193370E+02  0.13686701817E+03  0.20350558061E+03  0.12508928922E+03 0.  0.
          5    1    3    3  502    0 -0.60993750875E+02  0.59153588863E+02  0.15054942127E+03  0.17292190540E+03  0.41800000000E+01 0. -1.
         -5    1    3    3    0  502  0.22308574225E+02  0.15264604507E+02 -0.13682403099E+02  0.30583675209E+02  0.41800000000E+01 0. -1.
        -11    1    1    2    0    0  0.50810257702E+02 -0.83895049017E+02  0.46471052609E+03  0.47494834940E+03  0.00000000000E+00 0.  1.
         11    1    1    2    0    0 -0.12125081053E+02  0.94768556467E+01  0.27944834627E+00  0.15391766463E+02  0.00000000000E+00 0. -1.
</event>
<event>
 7    1  0.2480409E-009  0.1487207E+03  0.7561462E-02  0.1202054E+00
          1   -1    0    0  501    0  0.00000000000E+00  0.00000000000E+00  0.38991221897E+03  0.38991221897E+03  0.00000000000E+00 0. -1.
         -1   -1    0    0    0  501 -0.00000000000E+00 -0.00000000000E+00 -0.78830322979E+02  0.78830322979E+02  0.00000000000E+00 0.  1.
         25    2    1    2    0    0 -0.13720731986E+03  0.85069447356E+01  0.15857578377E+03  0.24431943458E+03  0.12508992840E+03 0.  0.
          5    1    3    3  502    0 -0.51164062704E+02  0.20146653999E+02  0.14652705688E+03  0.15656085008E+03  0.41800000000E+01 0.  1.
         -5    1    3    3    0  502 -0.86043257158E+02 -0.11639709263E+02  0.12048726883E+02  0.87758584501E+02  0.41800000000E+01 0.  1.
        -11    1    1    2    0    0  0.54790974945E+02 -0.39255392380E+02  0.30423310294E+02  0.73950081647E+02  0.00000000000E+00 0.  1.
         11    1    1    2    0    0  0.82416344917E+02  0.30748447644E+02  0.12208280193E+03  0.15047302572E+03  0.00000000000E+00 0. -1.
</event>
<event>
 7    1  0.2480409E-009  0.1088785E+03  0.7561462E-02  0.1262661E+00
         -1   -1    0    0    0  501 -0.00000000000E+00  0.00000000000E+00  0.19444924512E+03  0.19444924512E+03  0.00000000000E+00 0.  1.
          1   -1    0    0  501    0  0.00000000000E+00 -0.00000000000E+00 -0.83720978560E+02  0.83720978560E+02  0.00000000000E+00 0. -1.
         25    2    1    2    0    0 -0.34280728773E+01  0.59695746998E+02  0.93919996433E+02  0.16746074868E+03  0.12508718050E+03 0.  0.
          5    1    3    3  502    0 -0.51664369532E+02  0.25523494927E+02  0.16513933773E+01  0.57800132980E+02  0.41800000000E+01 0.  1.
         -5    1    3    3    0  502  0.48236296655E+02  0.34172252071E+02  0.92268603056E+02  0.10966061570E+03  0.41800000000E+01 0.  1.
        -11    1    1    2    0    0 -0.38800022534E+02 -0.26177258878E+02  0.29494953455E+02  0.55323077556E+02  0.00000000000E+00 0.  1.
         11    1    1    2    0    0  0.42228095411E+02 -0.33518488120E+02 -0.12686683326E+02  0.55386397443E+02  0.00000000000E+00 0. -1.
</event>
<event>
 7    1  0.2480409E-009  0.8748148E+02  0.7561462E-02  0.1309068E+00
         -1   -1    0    0    0  501 -0.00000000000E+00  0.00000000000E+00  0.39728592461E+02  0.39728592461E+02  0.00000000000E+00 0.  1.
          1   -1    0    0  501    0  0.00000000000E+00 -0.00000000000E+00 -0.40096622222E+03  0.40096622222E+03  0.00000000000E+00 0. -1.
         25    2    1    2    0    0 -0.15918466943E+02 -0.58673414663E+02 -0.23243350247E+03  0.27086572194E+03  0.12508772551E+03 0.  0.
          5    1    3    3  502    0  0.42967927435E+01 -0.21331277797E+02  0.10282966826E+02  0.24427395422E+02  0.41800000000E+01 0.  1.
         -5    1    3    3    0  502 -0.20215259686E+02 -0.37342136866E+02 -0.24271646929E+03  0.24643832652E+03  0.41800000000E+01 0.  1.
        -11    1    1    2    0    0 -0.38502959409E+02  0.20115065925E+02 -0.59194829601E+02  0.73424257653E+02  0.00000000000E+00 0. -1.
         11    1    1    2    0    0  0.54421426352E+02  0.38558348738E+02 -0.69609297686E+02  0.96404835086E+02  0.00000000000E+00 0.  1.
</event>
<event>
 7    1  0.2480409E-009  0.1214397E+03  0.7561462E-02  0.1240741E+00
         -2   -1    0    0    0  501 -0.00000000000E+00  0.00000000000E+00  0.29353250968E+02  0.29353250968E+02  0.00000000000E+00 0.  1.
          2   -1    0    0  501    0  0.00000000000E+00 -0.00000000000E+00 -0.78426274522E+03  0.78426274522E+03  0.00000000000E+00 0. -1.
         25    2    1    2    0    0 -0.95204273789E+02  0.26480283408E+02 -0.50466394071E+03  0.52924341961E+03  0.12509134659E+03 0.  0.
          5    1    3    3  502    0  0.90551114774E+01 -0.15102251750E+02 -0.25305005510E+03  0.25369642457E+03  0.41800000000E+01 0.  1.
         -5    1    3    3    0  502 -0.10425938527E+03  0.41582535158E+02 -0.25161388561E+03  0.27554699505E+03  0.41800000000E+01 0.  1.
        -11    1    1    2    0    0  0.36126997537E+02 -0.37819704037E+02 -0.40437937967E+02  0.66111396835E+02  0.00000000000E+00 0.  1.
         11    1    1    2    0    0  0.59077276252E+02  0.11339420629E+02 -0.20980761557E+03  0.21826117974E+03  0.00000000000E+00 0. -1.
</event>
<event>
 7    1  0.2480409E-009  0.3429341E+03  0.7561462E-02  0.1065553E+00
          2   -1    0    0  501    0  0.00000000000E+00  0.00000000000E+00  0.83995296163E+03  0.83995296163E+03  0.00000000000E+00 0. -1.
         -2   -1    0    0    0  501 -0.00000000000E+00 -0.00000000000E+00 -0.14068718581E+03  0.14068718581E+03  0.00000000000E+00 0.  1.
         25    2    1    2    0    0  0.16330749703E+03 -0.28194075754E+03  0.35103591006E+03  0.49500980446E+03  0.12509423255E+03 0.  0.
          5    1    3    3  502    0  0.73517863604E+02 -0.23445010381E+03  0.26925294674E+03  0.36453579957E+03  0.41800000000E+01 0. -1.
         -5    1    3    3    0  502  0.89789633423E+02 -0.47490653732E+02  0.81782963324E+02  0.13047400489E+03  0.41800000000E+01 0. -1.
        -11    1    1    2    0    0 -0.10022207517E+03  0.84176209329E+02  0.13200986573E+03  0.18589433348E+03  0.00000000000E+00 0.  1.
         11    1    1    2    0    0 -0.63085421857E+02  0.19776454821E+03  0.21622000003E+03  0.29973600951E+03  0.00000000000E+00 0. -1.
</event>
<event>
 7    1  0.2480409E-009  0.4019407E+03  0.7561462E-02  0.1043110E+00
         -1   -1    0    0    0  501 -0.00000000000E+00  0.00000000000E+00  0.30652858158E+03  0.30652858158E+03  0.00000000000E+00 0.  1.
          1   -1    0    0  501    0  0.00000000000E+00 -0.00000000000E+00 -0.54912547839E+03  0.54912547839E+03  0.00000000000E+00 0. -1.
         25    2    1    2    0    0 -0.33653236406E+03 -0.19747893656E+03 -0.18732941422E+03  0.45054703149E+03  0.12509338795E+03 0.  0.
          5    1    3    3  502    0 -0.21718808587E+02 -0.58791885691E+02 -0.10351966075E+02  0.63661825854E+02  0.41800000000E+01 0.  1.
         -5    1    3    3    0  502 -0.31481355547E+03 -0.13868705087E+03 -0.17697744814E+03  0.38688520563E+03  0.41800000000E+01 0.  1.
        -11    1    1    2    0    0  0.25350065073E+03  0.18323129297E+03 -0.67471763631E+02  0.31998238316E+03  0.00000000000E+00 0. -1.
         11    1    1    2    0    0  0.83031713326E+02  0.14247643592E+02  0.12204281034E+02  0.85124645322E+02  0.00000000000E+00 0.  1.
</event>
<event>
 7    1  0.2480409E-009  0.2358735E+03  0.7561462E-02  0.1122573E+00
          2   -1    0    0  501    0  0.00000000000E+00  0.00000000000E+00  0.83670409654E+03  0.83670409654E+03  0.00000000000E+00 0. -1.
         -2   -1    0    0    0  501 -0.00000000000E+00 -0.00000000000E+00 -0.67476596207E+02  0.67476596207E+02  0.00000000000E+00 0.  1.
         25    2    1    2    0    0  0.98330968497E+02 -0.18611242319E+03  0.39052772746E+03  0.46094130841E+03  0.12509264746E+03 0.  0.
          5    1    3    3  502    0 -0.21041525005E+02 -0.10925774823E+01  0.60335792884E+02  0.64045451072E+02  0.41800000000E+01 0. -1.
         -5    1    3    3    0  502  0.11937249350E+03 -0.18501984571E+03  0.33019193458E+03  0.39689585733E+03  0.41800000000E+01 0. -1.
        -11    1    1    2    0    0  0.14260299973E+02  0.56881137770E+02  0.10629873123E+03  0.12140115424E+03  0.00000000000E+00 0. -1.
         11    1    1    2    0    0 -0.11259126847E+03  0.12923128542E+03  0.27240104165E+03  0.32183823011E+03  0.00000000000E+00 0.  1.
</event>
<event>
 7    1  0.2480409E-009  0.1152285E+03  0.7561462E-02  0.1251183E+00
          2   -1    0    0  501    0  0.00000000000E+00  0.00000000000E+00  0.10412395459E+03  0.10412395459E+03  0.00000000000E+00 0. -1.
         -2   -1    0    0    0  501 -0.00000000000E+00 -0.00000000000E+00 -0.25173509317E+03  0.25173509317E+03  0.00000000000E+00 0.  1.
         25    2    1    2    0    0 -0.28753524532E+02 -0.56258920094E+02  0.33858425076E+02  0.14417492879E+03  0.12509270914E+03 0.  0.
          5    1    3    3  502    0  0.49576075538E+02 -0.25245856112E+02  0.13919412404E+02  0.57500982237E+02  0.41800000000E+01 0.  1.
         -5    1    3    3    0  502 -0.78329600070E+02 -0.31013063982E+02  0.19939012672E+02  0.86673946553E+02  0.41800000000E+01 0.  1.
        -11    1    1    2    0    0  0.47933653604E+02  0.26108925610E+02 -0.16209002078E+03  0.17103358144E+03  0.00000000000E+00 0.  1.
         11    1    1    2    0    0 -0.19180129072E+02  0.30149994484E+02 -0.19379542875E+02  0.40650537520E+02  0.00000000000E+00 0. -1.
</event>
<event>
 7    1  0.2480409E-009  0.8574904E+02  0.7561462E-02  0.1313485E+00
          2   -1    0    0  501    0  0.00000000000E+00  0.00000000000E+00  0.26580107613E+03  0.26580107613E+03  0.00000000000E+00 0. -1.
         -2   -1    0    0    0  501 -0.00000000000E+00 -0.00000000000E+00 -0.51973767979E+02  0.51973767979E+02  0.00000000000E+00 0.  1.
         25    2    1    2    0    0  0.15935759323E+02 -0.37183589579E+02  0.14956963481E+03  0.19913763109E+03  0.12509257651E+03 0.  0.
          5    1    3    3  502    0  0.11837890655E+02  0.27222077634E+02  0.12723444432E+03  0.13071822133E+03  0.41800000000E+01 0. -1.
         -5    1    3    3    0  502  0.40978686673E+01 -0.64405667213E+02  0.22335190487E+02  0.68419409753E+02  0.41800000000E+01 0. -1.
        -11    1    1    2    0    0 -0.29834043590E+02  0.49817119569E+02  0.71326985463E+01  0.58503768662E+02  0.00000000000E+00 0.  1.
         11    1    1    2    0    0  0.13898284267E+02 -0.12633529990E+02  0.57124974793E+02  0.60133444361E+02  0.00000000000E+00 0. -1.
</event>
<event>
 7    1  0.2480409E-009  0.1124461E+03  0.7561462E-02  0.1256106E+00
         -2   -1    0    0    0  501 -0.00000000000E+00  0.00000000000E+00  0.73770606095E+02  0.73770606095E+02  0.00000000000E+00 0. -1.
          2   -1    0    0  501    0  0.00000000000E+00 -0.00000000000E+00 -0.30149603172E+03  0.30149603172E+03  0.00000000000E+00 0.  1.
         25    2    1    2    0    0 -0.88993996760E+02  0.41873081506E+01 -0.61620903206E+02  0.16547459321E+03  0.12508892947E+03 0.  0.
          5    1    3    3  502    0 -0.75715178422E+02  0.17324912704E+02 -0.97549548777E+02  0.12476509011E+03  0.41800000000E+01 0. -1.
         -5    1    3    3    0  502 -0.13278818339E+02 -0.13137604553E+02  0.35928645571E+02  0.40709503098E+02  0.41800000000E+01 0. -1.
        -11    1    1    2    0    0  0.90096353243E+02 -0.35350666930E+02 -0.12070536127E+03  0.15471524410E+03  0.00000000000E+00 0.  1.
         11    1    1    2    0    0 -0.11023564826E+01  0.31163358779E+02 -0.45399161155E+02  0.55076800504E+02  0.00000000000E+00 0. -1.
</event>
<event>
 7    1  0.2480409E-009  0.1893797E+03  0.7561462E-02  0.1159022E+00
          2   -1    0    0  501    0  0.00000000000E+00  0.00000000000E+00  0.12986928360E+04  0.12986928360E+04  0.00000000000E+00 0. -1.
         -2   -1    0    0    0  501 -0.00000000000E+00 -0.00000000000E+00 -0.33565031227E+02  0.33565031227E+02  0.00000000000E+00 0.  1.
         25    2    1    2    0    0 -0.12096910986E+03  0.12986449802E+03  0.67343990393E+03  0.70757841257E+03  0.12509033673E+03 0.  0.
          5    1    3    3  502    0 -0.69135930389E+02  0.12682526902E+03  0.60238431362E+03  0.61947458336E+03  0.41800000000E+01 0.  1.
         -5    1    3    3    0  502 -0.51833179474E+02  0.30392289925E+01  0.71055590312E+02  0.88103829213E+02  0.41800000000E+01 0.  1.
        -11    1    1    2    0    0  0.99624123678E+02 -0.79480320328E+02  0.51459225428E+03  0.53013892094E+03  0.00000000000E+00 0. -1.
         11    1    1    2    0    0  0.21344986185E+02 -0.50384177689E+02  0.77095646611E+02  0.94540533756E+02  0.00000000000E+00 0.  1.
</event>
<event>
 7    1  0.2480409E-009  0.1009600E+03  0.7561462E-02  0.1278290E+00
         -3   -1    0    0    0  501 -0.00000000000E+00  0.00000000000E+00  0.11179557285E+03  0.11179557285E+03  0.00000000000E+00 0.  1.
          3   -1    0    0  501    0  0.00000000000E+00 -0.00000000000E+00 -0.14732692704E+03  0.14732692704E+03  0.00000000000E+00 0. -1.
         25    2    1    2    0    0 -0.39075800377E+02 -0.36069495212E+02 -0.62584159494E+02  0.14963916488E+03  0.12508867250E+03 0.  0.
          5    1    3    3  502    0  0.27005775323E+02 -0.36598354401E+02 -0.69391201102E+02  0.83074440329E+02  0.41800000000E+01 0. -1.
         -5    1    3    3    0  502 -0.66081575701E+02  0.52885918919E+00  0.68070416077E+01  0.66564724551E+02  0.41800000000E+01 0. -1.
        -11    1    1    2    0    0  0.62488042408E+01 -0.22246996953E+02 -0.17587594539E+02  0.29039626539E+02  0.00000000000E+00 0. -1.
         11    1    1    2    0    0  0.32826996137E+02  0.58316492165E+02  0.44640399849E+02  0.80443708470E+02  0.00000000000E+00 0.  1.
</event>
<event>
 7    1  0.2480409E-009  0.1273438E+03  0.7561462E-02  0.1231451E+00
          2   -1    0    0  501    0  0.00000000000E+00  0.00000000000E+00  0.12395730665E+04  0.12395730665E+04  0.00000000000E+00 0. -1.
         -2   -1    0    0    0  501 -0.00000000000E+00 -0.00000000000E+00 -0.14424803588E+02  0.14424803588E+02  0.00000000000E+00 0.  1.
         25    2    1    2    0    0 -0.79575951243E+02 -0.14529600445E+02  0.84503097598E+03  0.85806108069E+03  0.12509207221E+03 0.  0.
          5    1    3    3  502    0 -0.93799782300E+02 -0.49336326641E+02  0.51080928516E+03  0.52170496499E+03  0.41800000000E+01 0.  1.
         -5    1    3    3    0  502  0.14223831057E+02  0.34806726197E+02  0.33422169081E+03  0.33635611570E+03  0.41800000000E+01 0.  1.
        -11    1    1    2    0    0  0.47206045439E+02  0.45806726525E+02  0.22288642842E+03  0.23238981668E+03  0.00000000000E+00 0.  1.
         11    1    1    2    0    0  0.32369905804E+02 -0.31277126080E+02  0.15723085854E+03  0.16354697275E+03  0.00000000000E+00 0. -1.
</event>
<event>
 7    1  0.2480409E-009  0.9673046E+02  0.7561462E-02  0.1287326E+00
          2   -1    0    0  501    0  0.00000000000E+00  0.00000000000E+00  0.79083284930E+02  0.79083284930E+02  0.00000000000E+00 0. -1.
         -2   -1    0    0    0  501 -0.00000000000E+00 -0.00000000000E+00 -0.15927272908E+03  0.15927272908E+03  0.00000000000E+00 0.  1.
         25    2    1    2    0    0 -0.21689039308E+02  0.80897767072E+01 -0.62124991780E+02  0.14156794393E+03  0.12508440843E+03 0.  0.
          5    1    3    3  502    0 -0.72220605004E+02 -0.10100313410E+02 -0.40512061538E+02  0.83525634677E+02  0.41800000000E+01 0.  1.
         -5    1    3    3    0  502  0.50531565696E+02  0.18190090117E+02 -0.21612930241E+02  0.58042309256E+02  0.41800000000E+01 0.  1.
        -11    1    1    2    0    0  0.96697549652E+01  0.27412397276E+02  0.25957613391E+02  0.38971032556E+02  0.00000000000E+00 0. -1.
         11    1    1    2    0    0  0.12019284343E+02 -0.35502173984E+02 -0.44022065762E+02  0.57817037520E+02  0.00000000000E+00 0.  1.
</event>
<event>
 7    1  0.2480409E-009  0.8293604E+02  0.7561462E-02  0.1320920E+00
          2   -1    0    0  501    0  0.00000000000E+00  0.00000000000E+00  0.13686742057E+03  0.13686742057E+03  0.00000000000E+00 0. -1.
         -2   -1    0    0    0  501 -0.00000000000E+00 -0.00000000000E+00 -0.87609819513E+02  0.87609819513E+02  0.00000000000E+00 0.  1.
         25    2    1    2    0    0  0.13744035173E+02 -0.12212930245E+02  0.32830906916E+02  0.13062752199E+03  0.12509047479E+03 0.  0.
          5    1    3    3  502    0  0.11010028197E+02  0.47205043113E+02 -0.18399155153E+02  0.52014787576E+02  0.41800000000E+01 0. -1.
         -5    1    3    3    0  502  0.27340069757E+01 -0.59417973358E+02  0.51230062070E+02  0.78612734412E+02  0.41800000000E+01 0. -1.
        -11    1    1    2    0    0 -0.23949270776E+02  0.29206511394E+02 -0.26788206070E+02  0.46305462561E+02  0.00000000000E+00 0.  1.
         11    1    1    2    0    0  0.10205235604E+02 -0.16993581150E+02  0.43214900211E+02  0.47544255534E+02  0.00000000000E+00 0. -1.
</event>
<event>
 7    1  0.2480409E-009  0.9315914E+02  0.7561462E-02  0.1295377E+00
          3   -1    0    0  501    0  0.00000000000E+00  0.00000000000E+00  0.20793938913E+03  0.20793938913E+03  0.00000000000E+00 0. -1.
         -3   -1    0    0    0  501 -0.00000000000E+00 -0.00000000000E+00 -0.66452279745E+02  0.66452279745E+02  0.00000000000E+00 0.  1.
         25    2    1    2    0    0 -0.44451511795E+02 -0.10728911640E+02  0.83484231882E+02  0.15718767191E+03  0.12508917132E+03 0.  0.
          5    1    3    3  502    0  0.56386316071E+00 -0.38387474990E+02  0.95352827285E+02  0.10287638334E+03  0.41800000000E+01 0. -1.
         -5    1    3    3    0  502 -0.45015374956E+02  0.27658563350E+02 -0.11868595403E+02  0.54311288567E+02  0.41800000000E+01 0. -1.
        -11    1    1    2    0    0  0.39107901987E+02  0.45227651485E+02  0.56497556472E+02  0.82261426829E+02  0.00000000000E+00 0. -1.
         11    1    1    2    0    0  0.53436098074E+01 -0.34498739845E+02  0.15053210340E+01  0.34942570141E+02  0.00000000000E+00 0.  1.
</event>
<event>
 7    1  0.2480409E-009  0.1279367E+03  0.7561462E-02  0.1230550E+00
         -2   -1    0    0    0  501 -0.00000000000E+00  0.00000000000E+00  0.20777119892E+03  0.20777119892E+03  0.00000000000E+00 0.  1.
          2   -1    0    0  501    0  0.00000000000E+00 -0.00000000000E+00 -0.90170420114E+02  0.90170420114E+02  0.00000000000E+00 0. -1.
         25    2    1    2    0    0  0.66607276191E+02  0.19035907991E+02  0.11465070491E+03  0.18327999321E+03  0.12509147350E+03 0.  0.
          5    1    3    3  502    0  0.28327777522E+02  0.71958593036E+02  0.65483990185E+02  0.10142054753E+03  0.41800000000E+01 0.  1.
         -5    1    3    3    0  502  0.38279498669E+02 -0.52922685045E+02  0.49166714725E+02  0.81859445683E+02  0.41800000000E+01 0.  1.
        -11    1    1    2    0    0 -0.41023145062E+01 -0.45078163012E+02  0.10683984968E+02  0.46508249802E+02  0.00000000000E+00 0.  1.
         11    1    1    2    0    0 -0.62504961685E+02  0.26042255022E+02 -0.77339110732E+01  0.68153376016E+02  0.00000000000E+00 0. -1.
</event>
<event>
 7    1  0.2480409E-009  0.1310153E+03  0.7561462E-02  0.1225957E+00
         -1   -1    0    0    0  501 -0.00000000000E+00  0.00000000000E+00  0.75284411743E+02  0.75284411743E+02  0.00000000000E+00 0.  1.
          1   -1    0    0  501    0  0.00000000000E+00 -0.00000000000E+00 -0.24673996797E+03  0.24673996797E+03  0.00000000000E+00 0. -1.
         25    2    1    2    0    0  0.70876323296E+02  0.39076444132E+02 -0.75954369498E+02  0.16723255949E+03  0.12508893243E+03 0.  0.
          5    1    3    3  502    0  0.10260748116E+03  0.26871045963E+02 -0.79748938528E+02  0.13276940121E+03  0.41800000000E+01 0. -1.
         -5    1    3    3    0  502 -0.31731157869E+02  0.12205398170E+02  0.37945690297E+01  0.34463158275E+02  0.41800000000E+01 0. -1.
        -11    1    1    2    0    0 -0.11694998943E+02  0.29091047966E+02 -0.28501043871E+02  0.42371825235E+02  0.00000000000E+00 0. -1.
         11    1    1    2    0    0 -0.59181324353E+02 -0.68167492098E+02 -0.67000142863E+02  0.11241999500E+03  0.00000000000E+00 0.  1.
</event>
<event>
 7    1  0.2480409E-009  0.1787824E+03  0.7561462E-02  0.1168987E+00
          1   -1    0    0  501    0  0.00000000000E+00  0.00000000000E+00  0.38417962021E+03  0.38417962021E+03  0.00000000000E+00 0. -1.
         -1   -1    0    0    0  501 -0.00000000000E+00 -0.00000000000E+00 -0.11618844973E+03  0.11618844973E+03  0.00000000000E+00 0.  1.
         25    2    1    2    0    0 -0.10670381895E+03  0.11421254657E+03  0.24740304580E+03  0.31825432137E+03  0.12508930902E+03 0.  0.
          5    1    3    3  502    0  0.23010438016E+02  0.39254872962E+02  0.31769607509E+02  0.55652544149E+02  0.41800000000E+01 0.  1.
         -5    1    3    3    0  502 -0.12971425697E+03  0.74957673611E+02  0.21563343829E+03  0.26260177722E+03  0.41800000000E+01 0.  1.
        -11    1    1    2    0    0  0.31197696585E+02 -0.64350194232E+02  0.49669680928E+02  0.87070781399E+02  0.00000000000E+00 0. -1.
         11    1    1    2    0    0  0.75506122367E+02 -0.49862352341E+02 -0.29081556244E+02  0.95042967175E+02  0.00000000000E+00 0.  1.
</event>
<event>
 7    1  0.2480409E-009  0.9292081E+02  0.7561462E-02  0.1295929E+00
         -2   -1    0    0    0  501 -0.00000000000E+00  0.00000000000E+00  0.20131049280E+02  0.20131049280E+02  0.00000000000E+00 0.  1.
          2   -1    0    0  501    0  0.00000000000E+00 -0.00000000000E+00 -0.88418197411E+03  0.88418197411E+03  0.00000000000E+00 0. -1.
         25    2    1    2    0    0 -0.63491534851E+02  0.17856952094E+02 -0.36313073261E+03  0.38969470875E+03  0.12509193151E+03 0.  0.
          5    1    3    3  502    0 -0.12460041401E+02  0.19684087173E+02 -0.71892499352E+00  0.23679213938E+02  0.41800000000E+01 0.  1.
         -5    1    3    3    0  502 -0.51031493449E+02 -0.18271350798E+01 -0.36241180761E+03  0.36601549481E+03  0.41800000000E+01 0.  1.
        -11    1    1    2    0    0  0.16893792696E+02 -0.51020168797E+02 -0.15624334728E+03  0.16522845223E+03  0.00000000000E+00 0. -1.
         11    1    1    2    0    0  0.46597742155E+02  0.33163216703E+02 -0.34467684495E+03  0.34938986241E+03  0.00000000000E+00 0.  1.
</event>
<event>
 7    1  0.2480409E-009  0.7131000E+02  0.7561462E-02  0.1355694E+00
         -2   -1    0    0    0  501 -0.00000000000E+00  0.00000000000E+00  0.29173395949E+02  0.29173395949E+02  0.00000000000E+00 0.  1.
          2   -1    0    0  501    0  0.00000000000E+00 -0.00000000000E+00 -0.46536009559E+03  0.46536009559E+03  0.00000000000E+00 0. -1.
         25    2    1    2    0    0 -0.24481595656E+02 -0.20203840717E+02 -0.28157704554E+03  0.30974324947E+03  0.12509078429E+03 0.  0.
          5    1    3    3  502    0 -0.20179445078E+02  0.14233686693E+02  0.94840097243E+00  0.25063513420E+02  0.41800000000E+01 0.  1.
         -5    1    3    3    0  502 -0.43021505778E+01 -0.34437527410E+02 -0.28252544651E+03  0.28467973605E+03  0.41800000000E+01 0.  1.
        -11    1    1    2    0    0  0.52105833662E+02  0.17000346002E+02 -0.42705232921E+02  0.69482131405E+02  0.00000000000E+00 0.  1.
         11    1    1    2    0    0 -0.27624238006E+02  0.32034947151E+01 -0.11190442118E+03  0.11530811066E+03  0.00000000000E+00 0. -1.
</event>
<event>
 7    1  0.2480409E-009  0.9496258E+02  0.7561462E-02  0.1291260E+00
         -1   -1    0    0    0  501 -0.00000000000E+00  0.00000000000E+00  0.12169855481E+03  0.12169855481E+03  0.00000000000E+00 0.  1.
          1   -1    0    0  501    0  0.00000000000E+00 -0.00000000000E+00 -0.14220625598E+03  0.14220625598E+03  0.00000000000E+00 0. -1.
         25    2    1    2    0    0  0.44338894595E+02 -0.93440205803E+01  0.49150952385E+02  0.14183410465E+03  0.12509136192E+03 0.  0.
          5    1    3    3  502    0  0.13501632764E+02  0.48805261146E+02 -0.11652998899E+02  0.52129764877E+02  0.41800000000E+01 0.  1.
         -5    1    3    3    0  502  0.30837261831E+02 -0.58149281726E+02  0.60803951284E+02  0.89704339774E+02  0.41800000000E+01 0.  1.
        -11    1    1    2    0    0 -0.34326128460E+02 -0.21654956036E+02 -0.78452215153E+02  0.88328762464E+02  0.00000000000E+00 0.  1.
         11    1    1    2    0    0 -0.10012766135E+02  0.30998976617E+02  0.87935616006E+01  0.33741943669E+02  0.00000000000E+00 0. -1.
</event>
<event>
 7    1  0.2480409E-009  0.1795079E+03  0.7561462E-02  0.1168280E+00
         -1   -1    0    0    0  501 -0.00000000000E+00  0.00000000000E+00  0.17968336317E+02  0.17968336317E+02  0.00000000000E+00 0.  1.
          1   -1    0    0  501    0  0.00000000000E+00 -0.00000000000E+00 -0.22981597660E+04  0.22981597660E+04  0.00000000000E+00 0. -1.
         25    2    1    2    0    0  0.16635405094E+03 -0.32082173033E+02 -0.13549268050E+04  0.13711956814E+04  0.12509201998E+03 0.  0.
          5    1    3    3  502    0  0.75923908535E+02 -0.28506807985E+02 -0.10489330804E+04  0.10520718405E+04  0.41800000000E+01 0. -1.
         -5    1    3    3    0  502  0.90430142404E+02 -0.35753650476E+01 -0.30599372460E+03  0.31912384083E+03  0.41800000000E+01 0. -1.
        -11    1    1    2    0    0 -0.53529819390E+02  0.49670656657E+02 -0.26550541038E+03  0.27536473746E+03  0.00000000000E+00 0.  1.
         11    1    1    2    0    0 -0.11282423155E+03 -0.17588483624E+02 -0.65975921426E+03  0.66956768349E+03  0.00000000000E+00 0. -1.
</event>
<event>
 7    1  0.2480409E-009  0.1424187E+03  0.7561462E-02  0.1210111E+00
          2   -1    0    0  501    0  0.00000000000E+00  0.00000000000E+00  0.62210194628E+02  0.62210194628E+02  0.00000000000E+00 0.  1.
         -2   -1    0    0    0  501 -0.00000000000E+00 -0.00000000000E+00 -0.60326721199E+03  0.60326721199E+03  0.00000000000E+00 0. -1.
         25    2    1    2    0    0 -0.99653936540E+02  0.70595335437E+02 -0.46194601393E+03  0.49391872956E+03  0.12508790177E+03 0.  0.
          5    1    3    3  502    0 -0.11926564587E+03  0.58434675382E+02 -0.44646315721E+03  0.46581726967E+03  0.41800000000E+01 0. -1.
         -5    1    3    3    0  502  0.19611709332E+02  0.12160660054E+02 -0.15482856718E+02  0.28101459892E+02  0.41800000000E+01 0. -1.
        -11    1    1    2    0    0  0.81081202380E+02 -0.34905754196E+02 -0.64603393498E+01  0.88511632229E+02  0.00000000000E+00 0.  1.
         11    1    1    2    0    0  0.18572734160E+02 -0.35689581241E+02 -0.72650664081E+02  0.83047044829E+02  0.00000000000E+00 0. -1.
</event>
<event>
 7    1  0.2480409E-009  0.1242764E+03  0.7561462E-02  0.1236205E+00
         -4   -1    0    0    0  501 -0.00000000000E+00  0.00000000000E+00  0.39965548387E+03  0.39965548387E+03  0.00000000000E+00 0.  1.
          4   -1    0    0  501    0  0.00000000000E+00 -0.00000000000E+00 -0.45509624057E+02  0.45509624057E+02  0.00000000000E+00 0. -1.
         25    2    1    2    0    0 -0.53192009258E+02 -0.47860959591E+02  0.13688162656E+03  0.19876377730E+03  0.12510155146E+03 0.  0.
          5    1    3    3  502    0 -0.93101214652E+02 -0.26375950215E+02  0.10693954151E+03  0.14428120064E+03  0.41800000000E+01 0. -1.
         -5    1    3    3    0  502  0.39909205395E+02 -0.21485009376E+02  0.29942085049E+02  0.54482576666E+02  0.41800000000E+01 0. -1.
        -11    1    1    2    0    0  0.73927133666E+02  0.35141795558E+02  0.20129838271E+03  0.21730440808E+03  0.00000000000E+00 0.  1.
         11    1    1    2    0    0 -0.20735124409E+02  0.12719164034E+02  0.15965850539E+02  0.29096922542E+02  0.00000000000E+00 0. -1.
</event>
<event>
 7    1  0.2480409E-009  0.1057358E+03  0.7561462E-02  0.1268677E+00
          2   -1    0    0  501    0  0.00000000000E+00  0.00000000000E+00  0.53976825911E+02  0.53976825911E+02  0.00000000000E+00 0. -1.
         -2   -1    0    0    0  501 -0.00000000000E+00 -0.00000000000E+00 -0.29158418826E+03  0.29158418826E+03  0.00000000000E+00 0.  1.
         25    2    1    2    0    0  0.60488437097E+02  0.20647011749E+02 -0.14676437586E+03  0.20315499723E+03  0.12508805204E+03 0.  0.
          5    1    3    3  502    0  0.99342253542E+02  0.16640449067E+02 -0.98768432841E+02  0.14113278715E+03  0.41800000000E+01 0. -1.
         -5    1    3    3    0  502 -0.38853816445E+02  0.40065626819E+01 -0.47995943015E+02  0.62022210076E+02  0.41800000000E+01 0. -1.
        -11    1    1    2    0    0 -0.38924548028E+02 -0.28695635736E+02 -0.10484817857E+03  0.11546298324E+03  0.00000000000E+00 0.  1.
         11    1    1    2    0    0 -0.21563889069E+02  0.80486239872E+01  0.14005192077E+02  0.26943033701E+02  0.00000000000E+00 0. -1.
</event>
<event>
 7    1  0.2480409E-009  0.1231952E+03  0.7561462E-02  0.1237917E+00
         -2   -1    0    0    0  501 -0.00000000000E+00  0.00000000000E+00  0.16315962223E+02  0.16315962223E+02  0.00000000000E+00 0.  1.
          2   -1    0    0  501    0  0.00000000000E+00 -0.00000000000E+00 -0.11815150940E+04  0.11815150940E+04  0.00000000000E+00 0. -1.
         25    2    1    2    0    0 -0.67736883339E+02  0.51934140653E+02 -0.68116326239E+03  0.69779454306E+03  0.12509354088E+03 0.  0.
          5    1    3    3  502    0  0.19053059331E+02 -0.65049470927E+01 -0.34699830474E+03  0.34760700410E+03  0.41800000000E+01 0.  1.
         -5    1    3    3    0  502 -0.86789942670E+02  0.58439087746E+02 -0.33416495765E+03  0.35018753896E+03  0.41800000000E+01 0.  1.
        -11    1    1    2    0    0  0.90371075528E+01 -0.61045773304E+02 -0.18093098768E+03  0.19116557758E+03  0.00000000000E+00 0.  1.
         11    1    1    2    0    0  0.58699775786E+02  0.91116326505E+01 -0.30310488174E+03  0.30887093560E+03  0.00000000000E+00 0. -1.
</event>
<event>
 7    1  0.2480409E-009  0.1030444E+03  0.7561462E-02  0.1274021E+00
         -2   -1    0    0    0  501 -0.00000000000E+00  0.00000000000E+00  0.11608170726E+03  0.11608170726E+03  0.00000000000E+00 0.  1.
          2   -1    0    0  501    0  0.00000000000E+00 -0.00000000000E+00 -0.11103205423E+03  0.11103205423E+03  0.00000000000E+00 0. -1.
         25    2    1    2    0    0 -0.13330492398E+02  0.12109584608E+02  0.32952160279E+02  0.13060186394E+03  0.12508660172E+03 0.  0.
          5    1    3    3  502    0 -0.62589106631E+02  0.15617905922E+02 -0.95097284121E+01  0.65339288248E+02  0.41800000000E+01 0.  1.
         -5    1    3    3    0  502  0.49258614234E+02 -0.35083213141E+01  0.42461888691E+02  0.65262575692E+02  0.41800000000E+01 0.  1.
        -11    1    1    2    0    0 -0.38518982906E+02 -0.10860590078E+02 -0.71749465523E+01  0.40658877493E+02  0.00000000000E+00 0.  1.
         11    1    1    2    0    0  0.51849475304E+02 -0.12489945298E+01 -0.20727560694E+02  0.55853020052E+02  0.00000000000E+00 0. -1.
</event>
<event>
 7    1  0.2480409E-009  0.1044509E+03  0.7561462E-02  0.1271205E+00
          1   -1    0    0  501    0  0.00000000000E+00  0.00000000000E+00  0.15156861301E+03  0.15156861301E+03  0.00000000000E+00 0. -1.
         -1   -1    0    0    0  501 -0.00000000000E+00 -0.00000000000E+00 -0.13605400686E+03  0.13605400686E+03  0.00000000000E+00 0.  1.
         25    2    1    2    0    0  0.17474541321E+02  0.73382852009E+02 -0.51052797064E+02  0.15474072158E+03  0.12509156752E+03 0.  0.
          5    1    3    3  502    0  0.73913651923E+01  0.10129529053E+03 -0.75731128697E+01  0.10193229420E+03  0.41800000000E+01 0.  1.
         -5    1    3    3    0  502  0.10083176129E+02 -0.27912438517E+02 -0.43479684194E+02  0.52808427381E+02  0.41800000000E+01 0.  1.
        -11    1    1    2    0    0  0.61581210512E+00 -0.33284420729E+02 -0.17788586701E+02  0.37744744066E+02  0.00000000000E+00 0.  1.
         11    1    1    2    0    0 -0.18090353427E+02 -0.40098431281E+02  0.84355989915E+02  0.95137154219E+02  0.00000000000E+00 0. -1.
</event>
<event>
 7    1  0.2480409E-009  0.1091819E+03  0.7561462E-02  0.1262092E+00
         -2   -1    0    0    0  501 -0.00000000000E+00  0.00000000000E+00  0.18231752832E+02  0.18231752832E+02  0.00000000000E+00 0.  1.
          2   -1    0    0  501    0  0.00000000000E+00 -0.00000000000E+00 -0.72506101643E+03  0.72506101643E+03  0.00000000000E+00 0. -1.
         25    2    1    2    0    0  0.23203976509E+02 -0.27369555745E+02 -0.36869414867E+03  0.39098657600E+03  0.12509040827E+03 0.  0.
          5    1    3    3  502    0  0.60270770992E+02  0.22124007265E+02 -0.23460679132E+03  0.24326910299E+03  0.41800000000E+01 0. -1.
         -5    1    3    3    0  502 -0.37066794483E+02 -0.49493563010E+02 -0.13408735735E+03  0.14771747301E+03  0.41800000000E+01 0. -1.
        -11    1    1    2    0    0  0.29908218571E+02  0.24836483176E+02 -0.82516841248E+02  0.91216125352E+02  0.00000000000E+00 0.  1.
         11    1    1    2    0    0 -0.53112195080E+02  0.25330725688E+01 -0.25561827368E+03  0.26109006791E+03  0.00000000000E+00 0. -1.
</event>
<event>
 7    1  0.2480409E-009  0.2010628E+03  0.7561462E-02  0.1148845E+00
          1   -1    0    0  501    0  0.00000000000E+00  0.00000000000E+00  0.13010560903E+04  0.13010560903E+04  0.00000000000E+00 0. -1.
         -1   -1    0    0    0  501 -0.00000000000E+00 -0.00000000000E+00 -0.37872985241E+02  0.37872985241E+02  0.00000000000E+00 0.  1.
         25    2    1    2    0    0  0.12920849652E+03 -0.13870703155E+03  0.77443055282E+03  0.80704666309E+03  0.12508860496E+03 0.  0.
          5    1    3    3  502    0 -0.12627980156E+02 -0.35747637600E+00  0.82643845957E+01  0.15664166908E+02  0.41800000000E+01 0.  1.
         -5    1    3    3    0  502  0.14183647667E+03 -0.13834955517E+03  0.76616616823E+03  0.79138249618E+03  0.41800000000E+01 0.  1.
        -11    1    1    2    0    0 -0.70082801731E+02  0.89772665997E+02  0.17437720999E+03  0.20827419912E+03  0.00000000000E+00 0.  1.
         11    1    1    2    0    0 -0.59125694787E+02  0.48934365550E+02  0.31437534228E+03  0.32360821335E+03  0.00000000000E+00 0. -1.
</event>
<event>
 7    1  0.2480409E-009  0.1224462E+03  0.7561462E-02  0.1239115E+00
          1   -1    0    0  501    0  0.00000000000E+00  0.00000000000E+00  0.11390011192E+03  0.11390011192E+03  0.00000000000E+00 0. -1.
         -1   -1    0    0    0  501 -0.00000000000E+00 -0.00000000000E+00 -0.14570222483E+03  0.14570222483E+03  0.00000000000E+00 0.  1.
         25    2    1    2    0    0 -0.52234255211E+02 -0.29589544234E+02  0.20182825770E+02  0.14021279047E+03  0.12509325165E+03 0.  0.
          5    1    3    3  502    0 -0.82654390594E+01  0.47751616596E+02  0.15397135304E+02  0.51020373832E+02  0.41800000000E+01 0. -1.
         -5    1    3    3    0  502 -0.43968816152E+02 -0.77341160830E+02  0.47856904656E+01  0.89192416637E+02  0.41800000000E+01 0. -1.
        -11    1    1    2    0    0 -0.13168660728E+02  0.38951473971E+02 -0.24242211773E+02  0.47731706250E+02  0.00000000000E+00 0. -1.
         11    1    1    2    0    0  0.65402915939E+02 -0.93619297372E+01 -0.27742726912E+02  0.71657840033E+02  0.00000000000E+00 0.  1.
</event>
<event>
 7    1  0.2480409E-009  0.1892824E+03  0.7561462E-02  0.1159110E+00
          2   -1    0    0  501    0  0.00000000000E+00  0.00000000000E+00  0.15537270252E+03  0.15537270252E+03  0.00000000000E+00 0. -1.
         -2   -1    0    0    0  501 -0.00000000000E+00 -0.00000000000E+00 -0.24292864786E+03  0.24292864786E+03  0.00000000000E+00 0.  1.
         25    2    1    2    0    0  0.46675968744E+02  0.14764373991E+03 -0.88668640542E+02  0.21791454988E+03  0.12508918116E+03 0.  0.
          5    1    3    3  502    0  0.67454384727E+02  0.22000213851E+02 -0.23944349896E+02  0.74999384800E+02  0.41800000000E+01 0.  1.
         -5    1    3    3    0  502 -0.20778415983E+02  0.12564352606E+03 -0.64724290646E+02  0.14291516508E+03  0.41800000000E+01 0.  1.
        -11    1    1    2    0    0  0.12246088638E+02 -0.10882490689E+03 -0.44979967088E+01  0.10960410129E+03  0.00000000000E+00 0.  1.
         11    1    1    2    0    0 -0.58922057382E+02 -0.38818833018E+02  0.56106919098E+01  0.70782699205E+02  0.00000000000E+00 0. -1.
</event>
<event>
 7    1  0.2480409E-009  0.9468420E+02  0.7561462E-02  0.1291889E+00
         -1   -1    0    0    0  501 -0.00000000000E+00  0.00000000000E+00  0.19434632508E+02  0.19434632508E+02  0.00000000000E+00 0.  1.
          1   -1    0    0  501    0  0.00000000000E+00 -0.00000000000E+00 -0.82661820292E+03  0.82661820292E+03  0.00000000000E+00 0. -1.
         25    2    1    2    0    0  0.14779137538E+02  0.58226668085E+02 -0.55933073888E+03  0.57628779259E+03  0.12509187286E+03 0.  0.
          5    1    3    3  502    0  0.32036940762E+02  0.13997448794E+02 -0.34492430046E+02  0.49289900351E+02  0.41800000000E+01 0. -1.
         -5    1    3    3    0  502 -0.17257803224E+02  0.44229219291E+02 -0.52483830883E+03  0.52699789224E+03  0.41800000000E+01 0. -1.
        -11    1    1    2    0    0 -0.50908584976E+02 -0.45238713160E+02 -0.15770428583E+03  0.17178145116E+03  0.00000000000E+00 0.  1.
         11    1    1    2    0    0  0.36129447439E+02 -0.12987954925E+02 -0.90148545702E+02  0.97983591675E+02  0.00000000000E+00 0. -1.
</event>
<event>
 7    1  0.2480409E-009  0.1352529E+03  0.7561462E-02  0.1219863E+00
         -1   -1    0    0    0  501 -0.00000000000E+00  0.00000000000E+00  0.26257681999E+02  0.26257681999E+02  0.00000000000E+00 0.  1.
          1   -1    0    0  501    0  0.00000000000E+00 -0.00000000000E+00 -0.93035573286E+03  0.93035573286E+03  0.00000000000E+00 0. -1.
         25    2    1    2    0    0 -0.61154796644E+02  0.93284339059E+02 -0.46116626805E+03  0.49067222581E+03  0.12507209654E+03 0.  0.
          5    1    3    3  502    0 -0.75890051884E+02  0.60876610985E+02 -0.15945060483E+03  0.18683476529E+03  0.41800000000E+01 0. -1.
         -5    1    3    3    0  502  0.14735255240E+02  0.32407728074E+02 -0.30171566322E+03  0.30383746053E+03  0.41800000000E+01 0. -1.
        -11    1    1    2    0    0 -0.14537616248E+02 -0.45504353796E+02 -0.23089801944E+03  0.23578779418E+03  0.00000000000E+00 0.  1.
         11    1    1    2    0    0  0.75692412892E+02 -0.47779985263E+02 -0.21203376337E+03  0.23015339487E+03  0.00000000000E+00 0. -1.
</event>
<event>
 7    1  0.2480409E-009  0.1836177E+03  0.7561462E-02  0.1164347E+00
          1   -1    0    0  501    0  0.00000000000E+00  0.00000000000E+00  0.45561308237E+03  0.45561308237E+03  0.00000000000E+00 0.  1.
         -1   -1    0    0    0  501 -0.00000000000E+00 -0.00000000000E+00 -0.84479967584E+02  0.84479967584E+02  0.00000000000E+00 0. -1.
         25    2    1    2    0    0 -0.45183717597E+01 -0.15704958051E+03  0.19744745814E+03  0.28163476083E+03  0.12509058061E+03 0.  0.
          5    1    3    3  502    0  0.45146661540E+02 -0.63961954695E+02  0.14240038519E+03  0.16255674332E+03  0.41800000000E+01 0. -1.
         -5    1    3    3    0  502 -0.49665033300E+02 -0.93087625820E+02  0.55047072958E+02  0.11907801751E+03  0.41800000000E+01 0. -1.
        -11    1    1    2    0    0  0.49396795618E+02  0.87181160406E+02  0.57123809485E+02  0.11534178669E+03  0.00000000000E+00 0.  1.
         11    1    1    2    0    0 -0.44878423858E+02  0.69868420108E+02  0.11656184716E+03  0.14311650243E+03  0.00000000000E+00 0. -1.
</event>
<event>
 7    1  0.2480409E-009  0.7891411E+02  0.7561462E-02  0.1332162E+00
          2   -1    0    0  501    0  0.00000000000E+00  0.00000000000E+00  0.11971851268E+03  0.11971851268E+03  0.00000000000E+00 0. -1.
         -2   -1    0    0    0  501 -0.00000000000E+00 -0.00000000000E+00 -0.11881853108E+03  0.11881853108E+03  0.00000000000E+00 0.  1.
         25    2    1    2    0    0  0.48257105482E+02 -0.39187122006E+01 -0.10920649214E+02  0.13457276935E+03  0.12508583107E+03 0.  0.
          5    1    3    3  502    0  0.47440317904E+02  0.35201576441E+01  0.52272118133E+02  0.70801285347E+02  0.41800000000E+01 0. -1.
         -5    1    3    3    0  502  0.81678757855E+00 -0.74388698446E+01 -0.63192767347E+02  0.63771484000E+02  0.41800000000E+01 0. -1.
        -11    1    1    2    0    0 -0.31216227332E+02  0.46290374290E+02  0.16064532251E+02  0.58097511110E+02  0.00000000000E+00 0. -1.
         11    1    1    2    0    0 -0.17040878150E+02 -0.42371662089E+02 -0.42439014446E+01  0.45866763302E+02  0.00000000000E+00 0.  1.
</event>
<event>
 7    1  0.2480409E-009  0.1005070E+03  0.7561462E-02  0.1279233E+00
         -2   -1    0    0    0  501 -0.00000000000E+00  0.00000000000E+00  0.30601102724E+02  0.30601102724E+02  0.00000000000E+00 0.  1.
          2   -1    0    0  501    0  0.00000000000E+00 -0.00000000000E+00 -0.54693656192E+03  0.54693656192E+03  0.00000000000E+00 0. -1.
         25    2    1    2    0    0  0.55356382787E+02 -0.17252264288E+01 -0.38007513141E+03  0.40394538983E+03  0.12508983543E+03 0.  0.
          5    1    3    3  502    0  0.16486384161E+02  0.38318622180E+02 -0.35734263797E+02  0.55086547156E+02  0.41800000000E+01 0. -1.
         -5    1    3    3    0  502  0.38869998626E+02 -0.40043848609E+02 -0.34434086761E+03  0.34885884267E+03  0.41800000000E+01 0. -1.
        -11    1    1    2    0    0 -0.78503477110E+02 -0.59814695504E+01 -0.12239694827E+03  0.14553208183E+03  0.00000000000E+00 0. -1.
         11    1    1    2    0    0  0.23147094323E+02  0.77066959791E+01 -0.13863379517E+02  0.28060192981E+02  0.00000000000E+00 0.  1.
</event>
<event>
 7    1  0.2480409E-009  0.2823795E+03  0.7561462E-02  0.1094396E+00
         -1   -1    0    0    0  501 -0.00000000000E+00  0.00000000000E+00  0.59011176370E+03  0.59011176370E+03  0.00000000000E+00 0.  1.
          1   -1    0    0  501    0  0.00000000000E+00 -0.00000000000E+00 -0.14653062830E+03  0.14653062830E+03  0.00000000000E+00 0. -1.
         25    2    1    2    0    0 -0.22417864001E+03 -0.15049759788E+03  0.17193718328E+03  0.34368330882E+03  0.12510088794E+03 0.  0.
          5    1    3    3  502    0 -0.51119146364E+02 -0.78511638119E+02  0.71096441642E+01  0.94049263077E+02  0.41800000000E+01 0. -1.
         -5    1    3    3    0  502 -0.17305949364E+03 -0.71985959756E+02  0.16482753912E+03  0.24963404574E+03  0.41800000000E+01 0. -1.
        -11    1    1    2    0    0  0.36450926738E+02  0.70641753242E+02  0.66422352283E+02  0.10358984624E+03  0.00000000000E+00 0.  1.
         11    1    1    2    0    0  0.18772771327E+03  0.79855844633E+02  0.20522159983E+03  0.28936923694E+03  0.00000000000E+00 0. -1.
</event>
<event>
 7    1  0.2658678E-009  0.2009206E+03  0.7561462E-02  0.1148965E+00
          2   -1    0    0  501    0  0.00000000000E+00  0.00000000000E+00  0.92761466861E+03  0.92761466861E+03  0.00000000000E+00 0. -1.
         -2   -1    0    0    0  501 -0.00000000000E+00 -0.00000000000E+00 -0.50924231129E+02  0.50924231129E+02  0.00000000000E+00 0.  1.
         25    2    1    2    0    0 -0.12765144510E+03 -0.13790623046E+03  0.44243777538E+03  0.49670105326E+03  0.12509089252E+03 0.  0.
          5    1    3    3  502    0 -0.12297427078E+02 -0.68802864218E+02  0.63255933109E+02  0.94360194525E+02  0.41800000000E+01 0.  1.
         -5    1    3    3    0  502 -0.11535401802E+03 -0.69103366243E+02  0.37918184227E+03  0.40234085873E+03  0.41800000000E+01 0.  1.
        -11    1    1    2    0    0  0.36556722024E+01  0.37667261758E+02  0.33538785432E+02  0.50567150165E+02  0.00000000000E+00 0.  1.
         11    1    1    2    0    0  0.12399577290E+03  0.10023896870E+03  0.40071387667E+03  0.43127069631E+03  0.00000000000E+00 0. -1.
</event>
<event>
 7    1  0.2480409E-009  0.1467301E+03  0.7561462E-02  0.1204550E+00
          2   -1    0    0  501    0  0.00000000000E+00  0.00000000000E+00  0.23754644509E+03  0.23754644509E+03  0.00000000000E+00 0.  1.
         -2   -1    0    0    0  501 -0.00000000000E+00 -0.00000000000E+00 -0.13410238074E+03  0.13410238074E+03  0.00000000000E+00 0. -1.
         25    2    1    2    0    0  0.91662123077E+02  0.86000481812E+02  0.10203767464E+02  0.17762317775E+03  0.12509136151E+03 0.  0.
          5    1    3    3  502    0  0.51847039140E+02  0.74937245042E+02  0.62694308801E+02  0.11068764573E+03  0.41800000000E+01 0.  1.
         -5    1    3    3    0  502  0.39815083937E+02  0.11063236770E+02 -0.52490541338E+02  0.66935532019E+02  0.41800000000E+01 0.  1.
        -11    1    1    2    0    0 -0.51014415318E+02 -0.10431589738E+03  0.36209413375E+02  0.12163633763E+03  0.00000000000E+00 0.  1.
         11    1    1    2    0    0 -0.40647707759E+02  0.18315415566E+02  0.57030883509E+02  0.72389310448E+02  0.00000000000E+00 0. -1.
</event>
<event>
 7    1  0.3696698E-009  0.1308194E+03  0.7561462E-02  0.1226245E+00
          1   -1    0    0  501    0  0.00000000000E+00  0.00000000000E+00  0.38261519406E+03  0.38261519406E+03  0.00000000000E+00 0. -1.
         -1   -1    0    0    0  501 -0.00000000000E+00 -0.00000000000E+00 -0.51901678105E+02  0.51901678105E+02  0.00000000000E+00 0.  1.
         25    2    1    2    0    0  0.88154668549E+02  0.75199481420E+01  0.15843288224E+03  0.22040010060E+03  0.12508969167E+03 0.  0.
          5    1    3    3  502    0  0.40585476713E+01  0.55500528193E+02  0.66599702391E+02  0.86889430873E+02  0.41800000000E+01 0.  1.
         -5    1    3    3    0  502  0.84096120878E+02 -0.47980580051E+02  0.91833179854E+02  0.13351066973E+03  0.41800000000E+01 0.  1.
        -11    1    1    2    0    0 -0.47270902283E+02  0.27847337079E+02  0.14183071476E+03  0.15207223295E+03  0.00000000000E+00 0. -1.
         11    1    1    2    0    0 -0.40883766266E+02 -0.35367285221E+02  0.30449918949E+02  0.62044538615E+02  0.00000000000E+00 0.  1.
</event>
<event>
 7    1  0.2480409E-009  0.7893625E+02  0.7561462E-02  0.1332098E+00
         -2   -1    0    0    0  501 -0.00000000000E+00  0.00000000000E+00  0.28592324865E+03  0.28592324865E+03  0.00000000000E+00 0.  1.
          2   -1    0    0  501    0  0.00000000000E+00 -0.00000000000E+00 -0.54310566420E+02  0.54310566420E+02  0.00000000000E+00 0. -1.
         25    2    1    2    0    0 -0.35014252616E+02 -0.48084504562E+02  0.11624819984E+03  0.18082923183E+03  0.12508976638E+03 0.  0.
          5    1    3    3  502    0  0.17919607672E+02 -0.16791429151E+02  0.11656255140E+03  0.11919465265E+03  0.41800000000E+01 0. -1.
         -5    1    3    3    0  502 -0.52933860288E+02 -0.31293075411E+02 -0.31435155827E+00  0.61634579179E+02  0.41800000000E+01 0. -1.
        -11    1    1    2    0    0  0.25008842927E+02  0.30483312109E+01  0.11012926201E+03  0.11297428424E+03  0.00000000000E+00 0.  1.
         11    1    1    2    0    0  0.10005409689E+02  0.45036173351E+02  0.52352203788E+01  0.46430299004E+02  0.00000000000E+00 0. -1.
</event>
<event>
 7    1  0.2480409E-009  0.3386299E+03  0.7561462E-02  0.1067381E+00
         -1   -1    0    0    0  501 -0.00000000000E+00  0.00000000000E+00  0.94646544306E+02  0.94646544306E+02  0.00000000000E+00 0.  1.
          1   -1    0    0  501    0  0.00000000000E+00 -0.00000000000E+00 -0.12818686172E+04  0.12818686172E+04  0.00000000000E+00 0. -1.
         25    2    1    2    0    0 -0.91410536811E+01 -0.32974417648E+03 -0.55434580085E+03  0.65708214319E+03  0.12507156030E+03 0.  0.
          5    1    3    3  502    0 -0.25423126462E+02 -0.30365032012E+03 -0.41826672574E+03  0.51750785359E+03  0.41800000000E+01 0. -1.
         -5    1    3    3    0  502  0.16282072781E+02 -0.26093856359E+02 -0.13607907512E+03  0.13957428960E+03  0.41800000000E+01 0. -1.
        -11    1    1    2    0    0  0.47141789859E+02  0.22908552436E+03 -0.45361350073E+03  0.51036039606E+03  0.00000000000E+00 0.  1.
         11    1    1    2    0    0 -0.38000736177E+02  0.10065865211E+03 -0.17926277126E+03  0.20907262221E+03  0.00000000000E+00 0. -1.
</event>
<event>
 7    1  0.2480409E-009  0.7943747E+02  0.7561462E-02  0.1330655E+00
         -1   -1    0    0    0  501 -0.00000000000E+00  0.00000000000E+00  0.46578205596E+02  0.46578205596E+02  0.00000000000E+00 0.  1.
          1   -1    0    0  501    0  0.00000000000E+00 -0.00000000000E+00 -0.41297566324E+03  0.41297566324E+03  0.00000000000E+00 0. -1.
         25    2    1    2    0    0  0.44831708371E+01  0.21040456790E+02 -0.58263787748E+02  0.13966015038E+03  0.12508992365E+03 0.  0.
          5    1    3    3  502    0  0.33190347741E+02 -0.12522500651E+02 -0.81931206324E+02  0.89379008583E+02  0.41800000000E+01 0.  1.
         -5    1    3    3    0  502 -0.28707176903E+02  0.33562957442E+02  0.23667418576E+02  0.50281141793E+02  0.41800000000E+01 0.  1.
        -11    1    1    2    0    0  0.30105373039E+02 -0.30580464195E+02 -0.10197967832E+03  0.11064064834E+03  0.00000000000E+00 0.  1.
         11    1    1    2    0    0 -0.34588543876E+02  0.95400074047E+01 -0.20615399158E+03  0.20925307012E+03  0.00000000000E+00 0. -1.
</event>
<event>
 7    1  0.2480409E-009  0.9473294E+02  0.7561462E-02  0.1291779E+00
          2   -1    0    0  501    0  0.00000000000E+00  0.00000000000E+00  0.30606404018E+03  0.30606404018E+03  0.00000000000E+00 0. -1.
         -2   -1    0    0    0  501 -0.00000000000E+00 -0.00000000000E+00 -0.42981479514E+02  0.42981479514E+02  0.00000000000E+00 0.  1.
         25    2    1    2    0    0 -0.15200118426E+02 -0.24276111819E+02  0.12012489121E+03  0.17577610174E+03  0.12508747040E+03 0.  0.
          5    1    3    3  502    0 -0.19853290447E+01 -0.74582439867E+02  0.83325613014E+02  0.11192458198E+03  0.41800000000E+01 0.  1.
         -5    1    3    3    0  502 -0.13214789381E+02  0.50306328048E+02  0.36799278193E+02  0.63851519760E+02  0.41800000000E+01 0.  1.
        -11    1    1    2    0    0 -0.20552769113E+02  0.15507455244E+02  0.10212695566E+00  0.25746998199E+02  0.00000000000E+00 0.  1.
         11    1    1    2    0    0  0.35752887539E+02  0.87686565751E+01  0.14285554251E+03  0.14752241975E+03  0.00000000000E+00 0. -1.
</event>
<event>
 7    1  0.2480409E-009  0.1265072E+03  0.7561462E-02  0.1232732E+00
          1   -1    0    0  501    0  0.00000000000E+00  0.00000000000E+00  0.25948351867E+03  0.25948351867E+03  0.00000000000E+00 0. -1.
         -1   -1    0    0    0  501 -0.00000000000E+00 -0.00000000000E+00 -0.68653229830E+02  0.68653229830E+02  0.00000000000E+00 0.  1.
         25    2    1    2    0    0  0.45803346167E+02  0.59607269282E+02  0.87327129460E+02  0.17007156905E+03  0.12508932004E+03 0.  0.
          5    1    3    3  502    0  0.14318239307E+01  0.83559072974E+02  0.20320262606E+02  0.86107806083E+02  0.41800000000E+01 0. -1.
         -5    1    3    3    0  502  0.44371522236E+02 -0.23951803691E+02  0.67006866853E+02  0.83963762964E+02  0.41800000000E+01 0. -1.
        -11    1    1    2    0    0 -0.74182266480E+02 -0.45810659547E+02  0.83383707119E+02  0.12064189903E+03  0.00000000000E+00 0. -1.
         11    1    1    2    0    0  0.28378920313E+02 -0.13796609735E+02  0.20119452258E+02  0.37423280421E+02  0.00000000000E+00 0.  1.
</event>
<event>
 7    1  0.2480409E-009  0.1116523E+03  0.7561462E-02  0.1257540E+00
          1   -1    0    0  501    0  0.00000000000E+00  0.00000000000E+00  0.37129784268E+03  0.37129784268E+03  0.00000000000E+00 0. -1.
         -1   -1    0    0    0  501 -0.00000000000E+00 -0.00000000000E+00 -0.45316703727E+02  0.45316703727E+02  0.00000000000E+00 0.  1.
         25    2    1    2    0    0  0.59899679189E+02  0.33314708084E+02  0.20677446444E+03  0.25120478091E+03  0.12510124487E+03 0.  0.
          5    1    3    3  502    0  0.84703427344E+02  0.44046859448E+02  0.90003152595E+02  0.13127389805E+03  0.41800000000E+01 0. -1.
         -5    1    3    3    0  502 -0.24803748155E+02 -0.10732151364E+02  0.11677131185E+03  0.11993088287E+03  0.41800000000E+01 0. -1.
        -11    1    1    2    0    0  0.92211659210E+01 -0.29789102259E+02  0.80006233024E+02  0.85868607984E+02  0.00000000000E+00 0. -1.
         11    1    1    2    0    0 -0.69120845110E+02 -0.35256058252E+01  0.39200441488E+02  0.79541157510E+02  0.00000000000E+00 0.  1.
</event>
<event>
 7    1  0.2480409E-009  0.9555231E+02  0.7561462E-02  0.1289937E+00
         -2   -1    0    0    0  501 -0.00000000000E+00  0.00000000000E+00  0.87134214290E+02  0.87134214290E+02  0.00000000000E+00 0.  1.
          2   -1    0    0  501    0  0.00000000000E+00 -0.00000000000E+00 -0.20047775433E+03  0.20047775433E+03  0.00000000000E+00 0. -1.
         25    2    1    2    0    0 -0.59139095093E+02  0.62825418855E-01 -0.11352945151E+03  0.17898092072E+03  0.12509115519E+03 0.  0.
          5    1    3    3  502    0 -0.30505727445E+01  0.50657032403E+02 -0.11912373258E+02  0.52295487020E+02  0.41800000000E+01 0.  1.
         -5    1    3    3    0  502 -0.56088522349E+02 -0.50594206985E+02 -0.10161707825E+03  0.12668543370E+03  0.41800000000E+01 0.  1.
        -11    1    1    2    0    0  0.44307425296E+02  0.11442749106E+02 -0.42216132160E+02  0.62259828605E+02  0.00000000000E+00 0. -1.
         11    1    1    2    0    0  0.14831669798E+02 -0.11505574525E+02  0.42402043634E+02  0.46371219290E+02  0.00000000000E+00 0.  1.
</event>
<event>
 7    1  0.2618515E-009  0.1094420E+03  0.7561462E-02  0.1261607E+00
         -2   -1    0    0    0  501 -0.00000000000E+00  0.00000000000E+00  0.46108715408E+02  0.46108715408E+02  0.00000000000E+00 0.  1.
          2   -1    0    0  501    0  0.00000000000E+00 -0.00000000000E+00 -0.30430178163E+03  0.30430178163E+03  0.00000000000E+00 0. -1.
         25    2    1    2    0    0  0.45493815393E+02 -0.13540918403E+02 -0.13438573402E+03  0.18962760890E+03  0.12508421499E+03 0.  0.
          5    1    3    3  502    0 -0.11618884756E+02  0.38524379639E+02 -0.93984154796E+02  0.10232116136E+03  0.41800000000E+01 0.  1.
         -5    1    3    3    0  502  0.57112700149E+02 -0.52065298043E+02 -0.40401579226E+02  0.87306447543E+02  0.41800000000E+01 0.  1.
        -11    1    1    2    0    0  0.78191598674E+01  0.40530477247E+02 -0.37236257446E+02  0.55591345689E+02  0.00000000000E+00 0. -1.
         11    1    1    2    0    0 -0.53312975261E+02 -0.26989558844E+02 -0.86571074752E+02  0.10519154244E+03  0.00000000000E+00 0.  1.
</event>
<event>
 7    1  0.2480409E-009  0.1148492E+03  0.7561462E-02  0.1251845E+00
          2   -1    0    0  501    0  0.00000000000E+00  0.00000000000E+00  0.22701346493E+03  0.22701346493E+03  0.00000000000E+00 0. -1.
         -2   -1    0    0    0  501 -0.00000000000E+00 -0.00000000000E+00 -0.71425440970E+02  0.71425440970E+02  0.00000000000E+00 0.  1.
         25    2    1    2    0    0  0.39897834454E+02  0.22281369595E+02  0.14119187546E+03  0.19409046760E+03  0.12509063631E+03 0.  0.
          5    1    3    3  502    0  0.28733886284E+02  0.70853633277E+02  0.11352216602E+03  0.13693293303E+03  0.41800000000E+01 0. -1.
         -5    1    3    3    0  502  0.11163948170E+02 -0.48572263681E+02  0.27669709442E+02  0.57157534573E+02  0.41800000000E+01 0. -1.
        -11    1    1    2    0    0 -0.35036388304E+02  0.32694637792E+02  0.10225856516E+02  0.49000571295E+02  0.00000000000E+00 0. -1.
         11    1    1    2    0    0 -0.48614461505E+01 -0.54976007388E+02  0.41702919851E+01  0.55347867007E+02  0.00000000000E+00 0.  1.
</event>
<event>
 7    1  0.2480409E-009  0.1607173E+03  0.7561462E-02  0.1187889E+00
         -1   -1    0    0    0  501 -0.00000000000E+00  0.00000000000E+00  0.86110519443E+03  0.86110519443E+03  0.00000000000E+00 0.  1.
          1   -1    0    0  501    0  0.00000000000E+00 -0.00000000000E+00 -0.32000441003E+02  0.32000441003E+02  0.00000000000E+00 0. -1.
         25    2    1    2    0    0  0.86162734146E+02  0.91534848802E+02  0.49248636804E+03  0.52344363833E+03  0.12509106485E+03 0.  0.
          5    1    3    3  502    0 -0.31438457128E+02  0.32144041642E+02  0.11136965825E+03  0.12017607573E+03  0.41800000000E+01 0.  1.
         -5    1    3    3    0  502  0.11760119127E+03  0.59390807160E+02  0.38111670979E+03  0.40326756260E+03  0.41800000000E+01 0.  1.
        -11    1    1    2    0    0 -0.15030010096E+01 -0.50254612339E+02  0.64992002379E+02  0.82169005389E+02  0.00000000000E+00 0. -1.
         11    1    1    2    0    0 -0.84659733136E+02 -0.41280236463E+02  0.27162638300E+03  0.28749299171E+03  0.00000000000E+00 0.  1.
</event>
<event>
 7    1  0.2480409E-009  0.1082087E+03  0.7561462E-02  0.1263923E+00
         -2   -1    0    0    0  501 -0.00000000000E+00  0.00000000000E+00  0.20088320372E+02  0.20088320372E+02  0.00000000000E+00 0.  1.
          2   -1    0    0  501    0  0.00000000000E+00 -0.00000000000E+00 -0.90431166928E+03  0.90431166928E+03  0.00000000000E+00 0. -1.
         25    2    1    2    0    0  0.26246818953E+02 -0.74822980335E+02 -0.42684174721E+03  0.45180617239E+03  0.12509023285E+03 0.  0.
          5    1    3    3  502    0 -0.29105035355E+02 -0.31660021430E+02 -0.40847977357E+02  0.59459983973E+02  0.41800000000E+01 0.  1.
         -5    1    3    3    0  502  0.55351854309E+02 -0.43162958905E+02 -0.38599376985E+03  0.39234618841E+03  0.41800000000E+01 0.  1.
        -11    1    1    2    0    0  0.21841109779E+02  0.30358413178E+02 -0.66778097830E+02  0.76537452772E+02  0.00000000000E+00 0.  1.
         11    1    1    2    0    0 -0.48087928732E+02  0.44464567157E+02 -0.39060350387E+03  0.39605636449E+03  0.00000000000E+00 0. -1.
</event>
<event>
 7    1  0.2480409E-009  0.1136980E+03  0.7561462E-02  0.1253871E+00
         -2   -1    0    0    0  501 -0.00000000000E+00  0.00000000000E+00  0.19940278733E+02  0.19940278733E+02  0.00000000000E+00 0.  1.
          2   -1    0    0  501    0  0.00000000000E+00 -0.00000000000E+00 -0.75827938868E+03  0.75827938868E+03  0.00000000000E+00 0. -1.
         25    2    1    2    0    0 -0.16580303148E+02 -0.41752165913E+02 -0.30845441382E+03  0.33587252505E+03  0.12509227743E+03 0.  0.
          5    1    3    3  502    0  0.48593701836E+02 -0.36070801684E+02 -0.96235815149E+02  0.11375963744E+03  0.41800000000E+01 0.  1.
         -5    1    3    3    0  502 -0.65174004984E+02 -0.56813642296E+01 -0.21221859867E+03  0.22211288762E+03  0.41800000000E+01 0.  1.
        -11    1    1    2    0    0  0.54245708008E+02  0.20947115379E+02 -0.19238724981E+03  0.20098316440E+03  0.00000000000E+00 0. -1.
         11    1    1    2    0    0 -0.37665404860E+02  0.20805050534E+02 -0.23749744631E+03  0.24136397796E+03  0.00000000000E+00 0.  1.
</event>
<event>
 7    1  0.2480409E-009  0.1259577E+03  0.7561462E-02  0.1233580E+00
         -1   -1    0    0    0  501 -0.00000000000E+00  0.00000000000E+00  0.12765454656E+03  0.12765454656E+03  0.00000000000E+00 0.  1.
          1   -1    0    0  501    0  0.00000000000E+00 -0.00000000000E+00 -0.16962295162E+03  0.16962295162E+03  0.00000000000E+00 0. -1.
         25    2    1    2    0    0 -0.22703965369E+02 -0.69762112968E+02  0.45730821946E+02  0.15205643658E+03  0.12509048477E+03 0.  0.
          5    1    3    3  502    0  0.47826327689E+02 -0.30130702094E+02  0.42744234430E+02  0.70991258658E+02  0.41800000000E+01 0. -1.
         -5    1    3    3    0  502 -0.70530293058E+02 -0.39631410874E+02  0.29865875163E+01  0.81065177923E+02  0.41800000000E+01 0. -1.
        -11    1    1    2    0    0 -0.12876524883E+02  0.76870058797E+02 -0.70383929592E+02  0.10501765745E+03  0.00000000000E+00 0.  1.
         11    1    1    2    0    0  0.35580490252E+02 -0.71079458288E+01 -0.17315297408E+02  0.40203404144E+02  0.00000000000E+00 0. -1.
</event>
<event>
 7    1  0.2480409E-009  0.1437855E+03  0.7561462E-02  0.1208324E+00
          1   -1    0    0  501    0  0.00000000000E+00  0.00000000000E+00  0.13374117663E+04  0.13374117663E+04  0.00000000000E+00 0. -1.
         -1   -1    0    0    0  501 -0.00000000000E+00 -0.00000000000E+00 -0.16122249559E+02  0.16122249559E+02  0.00000000000E+00 0.  1.
         25    2    1    2    0    0  0.15126045949E+02  0.93187214983E+02  0.82269573987E+03  0.83749001842E+03  0.12509434943E+03 0.  0.
          5    1    3    3  502    0 -0.45597605479E+02  0.82684106936E+02  0.52763842603E+03  0.53603692428E+03  0.41800000000E+01 0.  1.
         -5    1    3    3    0  502  0.60723651428E+02  0.10503108047E+02  0.29505731383E+03  0.30145309414E+03  0.41800000000E+01 0.  1.
        -11    1    1    2    0    0  0.10524006602E+02  0.15987696021E+02  0.47334826344E+02  0.51058269889E+02  0.00000000000E+00 0.  1.
         11    1    1    2    0    0 -0.25650052550E+02 -0.10917491100E+03  0.45125895052E+03  0.46498572754E+03  0.00000000000E+00 0. -1.
</event>
<event>
 7    1  0.2480409E-009  0.8453867E+02  0.7561462E-02  0.1316643E+00
         -3   -1    0    0    0  501 -0.00000000000E+00  0.00000000000E+00  0.45077209755E+02  0.45077209755E+02  0.00000000000E+00 0.  1.
          3   -1    0    0  501    0  0.00000000000E+00 -0.00000000000E+00 -0.27680046463E+03  0.27680046463E+03  0.00000000000E+00 0. -1.
         25    2    1    2    0    0 -0.23059089084E+02 -0.16863759707E+02 -0.11132590649E+03  0.16987316016E+03  0.12508926855E+03 0.  0.
          5    1    3    3  502    0 -0.48537117469E+02 -0.40160417766E+02 -0.11858781452E+03  0.13434750865E+03  0.41800000000E+01 0. -1.
         -5    1    3    3    0  502  0.25478028385E+02  0.23296658059E+02  0.72619080313E+01  0.35525651512E+02  0.41800000000E+01 0. -1.
        -11    1    1    2    0    0 -0.77453767143E+01 -0.20983136451E+02 -0.29709950642E+00  0.22368977265E+02  0.00000000000E+00 0.  1.
         11    1    1    2    0    0  0.30804465799E+02  0.37846896158E+02 -0.12010024888E+03  0.12963553696E+03  0.00000000000E+00 0. -1.
</event>
<event>
 7    1  0.2573448E-009  0.1125933E+03  0.7561462E-02  0.1255842E+00
          2   -1    0    0  501    0  0.00000000000E+00  0.00000000000E+00  0.40570568120E+03  0.40570568120E+03  0.00000000000E+00 0. -1.
         -2   -1    0    0    0  501 -0.00000000000E+00 -0.00000000000E+00 -0.36512886973E+02  0.36512886973E+02  0.00000000000E+00 0.  1.
         25    2    1    2    0    0  0.31293287435E+02 -0.39682586003E+02  0.16849750746E+03  0.21585279226E+03  0.12508813066E+03 0.  0.
          5    1    3    3  502    0 -0.31450475863E+02 -0.54854865816E+02  0.49504885920E+02  0.80413897217E+02  0.41800000000E+01 0.  1.
         -5    1    3    3    0  502  0.62743763298E+02  0.15172279813E+02  0.11899262154E+03  0.13543889504E+03  0.41800000000E+01 0.  1.
        -11    1    1    2    0    0 -0.43006914401E+02 -0.11586084013E+02  0.51052215134E+02  0.67750724713E+02  0.00000000000E+00 0.  1.
         11    1    1    2    0    0  0.11713626965E+02  0.51268670015E+02  0.14964307163E+03  0.15861505120E+03  0.00000000000E+00 0. -1.
</event>
<event>
 7    1  0.2480409E-009  0.1711896E+03  0.7561462E-02  0.1176613E+00
         -2   -1    0    0    0  501 -0.00000000000E+00  0.00000000000E+00  0.12133407313E+03  0.12133407313E+03  0.00000000000E+00 0.  1.
          2   -1    0    0  501    0  0.00000000000E+00 -0.00000000000E+00 -0.27874504374E+03  0.27874504374E+03  0.00000000000E+00 0. -1.
         25    2    1    2    0    0  0.13185022848E+03  0.47484239536E+02 -0.13636748482E+03  0.23212686695E+03  0.12509019022E+03 0.  0.
          5    1    3    3  502    0  0.10276773716E+03  0.81246332455E+02 -0.61225910187E+02  0.14466602509E+03  0.41800000000E+01 0.  1.
         -5    1    3    3    0  502  0.29082491317E+02 -0.33762092920E+02 -0.75141574631E+02  0.87460841852E+02  0.41800000000E+01 0.  1.
        -11    1    1    2    0    0 -0.79785872855E+02  0.19088479979E+02 -0.78106397971E+01  0.82408504835E+02  0.00000000000E+00 0. -1.
         11    1    1    2    0    0 -0.52064355621E+02 -0.66572719514E+02 -0.13232845997E+02  0.85543745084E+02  0.00000000000E+00 0.  1.
</event>
<event>
 7    1  0.2480409E-009  0.9080383E+02  0.7561462E-02  0.1300917E+00
         -2   -1    0    0    0  501 -0.00000000000E+00  0.00000000000E+00  0.15470779299E+03  0.15470779299E+03  0.00000000000E+00 0.  1.
          2   -1    0    0  501    0  0.00000000000E+00 -0.00000000000E+00 -0.11598667397E+03  0.11598667397E+03  0.00000000000E+00 0. -1.
         25    2    1    2    0    0  0.40277847060E+01  0.31680902698E+01 -0.55928504858E+02  0.13711967472E+03  0.12509015826E+03 0.  0.
          5    1    3    3  502    0 -0.13037396627E+02  0.61894939286E+02 -0.22277301441E+02  0.67191575213E+02  0.41800000000E+01 0.  1.
         -5    1    3    3    0  502  0.17065181333E+02 -0.58726849017E+02 -0.33651203417E+02  0.69928099508E+02  0.41800000000E+01 0.  1.
        -11    1    1    2    0    0 -0.22654449273E+02  0.17844190018E+02  0.10078754408E+03  0.10483209542E+03  0.00000000000E+00 0.  1.
         11    1    1    2    0    0  0.18626664567E+02 -0.21012280288E+02 -0.61379202073E+01  0.28742696816E+02  0.00000000000E+00 0. -1.
</event>
<event>
 7    1  0.2480409E-009  0.1358251E+03  0.7561462E-02  0.1219060E+00
         -2   -1    0    0    0  501 -0.00000000000E+00  0.00000000000E+00  0.60611164085E+02  0.60611164085E+02  0.00000000000E+00 0.  1.
          2   -1    0    0  501    0  0.00000000000E+00 -0.00000000000E+00 -0.31343558946E+03  0.31343558946E+03  0.00000000000E+00 0. -1.
         25    2    1    2    0    0  0.39355660138E+02 -0.72169704684E+02 -0.16720507477E+03  0.22440457194E+03  0.12507014280E+03 0.  0.
          5    1    3    3  502    0  0.82642490751E+02 -0.27512717731E+02 -0.92866597098E+02  0.12739076957E+03  0.41800000000E+01 0. -1.
         -5    1    3    3    0  502 -0.43286830613E+02 -0.44656986953E+02 -0.74338477672E+02  0.97013802373E+02  0.41800000000E+01 0. -1.
        -11    1    1    2    0    0 -0.56047429843E+02  0.89858581556E+01 -0.32377547941E+02  0.65348034779E+02  0.00000000000E+00 0.  1.
         11    1    1    2    0    0  0.16691769706E+02  0.63183846529E+02 -0.53241802662E+02  0.84294146824E+02  0.00000000000E+00 0. -1.
</event>
<event>
 7    1  0.2480409E-009  0.1410045E+03  0.7561462E-02  0.1211984E+00
          1   -1    0    0  501    0  0.00000000000E+00  0.00000000000E+00  0.86268312926E+03  0.86268312926E+03  0.00000000000E+00 0. -1.
         -1   -1    0    0    0  501 -0.00000000000E+00 -0.00000000000E+00 -0.27848398731E+02  0.27848398731E+02  0.00000000000E+00 0.  1.
         25    2    1    2    0    0 -0.35434942585E+02  0.10366222249E+03  0.48335732452E+03  0.51115880303E+03  0.12509007640E+03 0.  0.
          5    1    3    3  502    0 -0.41945054675E+01  0.10904683825E+03  0.21741786300E+03  0.24330393823E+03  0.41800000000E+01 0. -1.
         -5    1    3    3    0  502 -0.31240437117E+02 -0.53846157605E+01  0.26593946152E+03  0.26785486479E+03  0.41800000000E+01 0. -1.
        -11    1    1    2    0    0  0.20289916154E+02 -0.11814272378E+03  0.27324205392E+03  0.29837996566E+03  0.00000000000E+00 0.  1.
         11    1    1    2    0    0  0.15145026431E+02  0.14480501284E+02  0.78235352095E+02  0.80992759309E+02  0.00000000000E+00 0. -1.
</event>
<event>
 7    1  0.2480409E-009  0.9559275E+02  0.7561462E-02  0.1289847E+00
          1   -1    0    0  501    0  0.00000000000E+00  0.00000000000E+00  0.12090540304E+04  0.12090540304E+04  0.00000000000E+00 0. -1.
         -1   -1    0    0    0  501 -0.00000000000E+00 -0.00000000000E+00 -0.14482937129E+02  0.14482937129E+02  0.00000000000E+00 0.  1.
         25    2    1    2    0    0  0.27173033330E+02 -0.45486574795E+02  0.90554456244E+03  0.91567789677E+03  0.12509058259E+03 0.  0.
          5    1    3    3  502    0 -0.22141687488E+02 -0.26285326127E+02  0.66653156708E+02  0.75108510793E+02  0.41800000000E+01 0.  1.
         -5    1    3    3    0  502  0.49314720818E+02 -0.19201248668E+02  0.83889140573E+03  0.84056938598E+03  0.41800000000E+01 0.  1.
        -11    1    1    2    0    0 -0.67418065229E+01 -0.27175022879E+02  0.11132186286E+03  0.11478889744E+03  0.00000000000E+00 0. -1.
         11    1    1    2    0    0 -0.20431226807E+02  0.72661597675E+02  0.17770466794E+03  0.19307017329E+03  0.00000000000E+00 0.  1.
</event>
<event>
 7    1  0.2480409E-009  0.9602017E+02  0.7561462E-02  0.1288895E+00
         -2   -1    0    0    0  501 -0.00000000000E+00  0.00000000000E+00  0.40428789728E+02  0.40428789728E+02  0.00000000000E+00 0.  1.
          2   -1    0    0  501    0  0.00000000000E+00 -0.00000000000E+00 -0.29546808032E+03  0.29546808032E+03  0.00000000000E+00 0. -1.
         25    2    1    2    0    0 -0.11799938249E+02 -0.97831154310E+01 -0.15740245949E+03  0.20163854637E+03  0.12509045222E+03 0.  0.
          5    1    3    3  502    0 -0.18053208483E+02 -0.57105404602E+02 -0.13696555775E+03  0.14954591931E+03  0.41800000000E+01 0. -1.
         -5    1    3    3    0  502  0.62532702345E+01  0.47322289171E+02 -0.20436901738E+02  0.52092627057E+02  0.41800000000E+01 0. -1.
        -11    1    1    2    0    0  0.34406704709E+02 -0.25051059709E+02 -0.76782457287E+02  0.87789080576E+02  0.00000000000E+00 0. -1.
         11    1    1    2    0    0 -0.22606766460E+02  0.34834175140E+02 -0.20854373811E+02  0.46469243102E+02  0.00000000000E+00 0.  1.
</event>
<event>
 7    1  0.2480409E-009  0.7034780E+02  0.7561462E-02  0.1358914E+00
          2   -1    0    0  501    0  0.00000000000E+00  0.00000000000E+00  0.49415017769E+03  0.49415017769E+03  0.00000000000E+00 0. -1.
         -2   -1    0    0    0  501 -0.00000000000E+00 -0.00000000000E+00 -0.30139478691E+02  0.30139478691E+02  0.00000000000E+00 0.  1.
         25    2    1    2    0    0  0.92916355575E+01  0.59249436681E+01  0.38210583817E+03  0.40221155627E+03  0.12509126663E+03 0.  0.
          5    1    3    3  502    0 -0.15060103265E+02 -0.28558580599E+02  0.34291727616E+03  0.34445918470E+03  0.41800000000E+01 0. -1.
         -5    1    3    3    0  502  0.24351738822E+02  0.34483524267E+02  0.39188562009E+02  0.57752371570E+02  0.41800000000E+01 0. -1.
        -11    1    1    2    0    0 -0.10308073776E+02  0.29000549071E+02 -0.23480517175E+01  0.30867484158E+02  0.00000000000E+00 0.  1.
         11    1    1    2    0    0  0.10164382183E+01 -0.34925492739E+02  0.84252912543E+02  0.91210615949E+02  0.00000000000E+00 0. -1.
</event>
<event>
 7    1  0.2480409E-009  0.1106723E+03  0.7561462E-02  0.1259330E+00
         -2   -1    0    0    0  501 -0.00000000000E+00  0.00000000000E+00  0.21237957380E+03  0.21237957380E+03  0.00000000000E+00 0. -1.
          2   -1    0    0  501    0  0.00000000000E+00 -0.00000000000E+00 -0.81318481040E+02  0.81318481040E+02  0.00000000000E+00 0.  1.
         25    2    1    2    0    0 -0.46520989625E+02  0.21852311126E+02  0.12772322447E+02  0.13583595251E+03  0.12508616149E+03 0.  0.
          5    1    3    3  502    0 -0.29934401836E+02 -0.51602546906E+02  0.65192340422E+01  0.60156995212E+02  0.41800000000E+01 0. -1.
         -5    1    3    3    0  502 -0.16586587788E+02  0.73454858032E+02  0.62530884046E+01  0.75678957297E+02  0.41800000000E+01 0. -1.
        -11    1    1    2    0    0  0.20396269214E+02  0.25129354474E+02  0.53795317257E+01  0.32809017293E+02  0.00000000000E+00 0.  1.
         11    1    1    2    0    0  0.26124720410E+02 -0.46981665600E+02  0.11290923858E+03  0.12505308504E+03  0.00000000000E+00 0. -1.
</event>
<event>
 7    1  0.2480409E-009  0.1744462E+03  0.7561462E-02  0.1173289E+00
         -4   -1    0    0    0  501 -0.00000000000E+00  0.00000000000E+00  0.49618065350E+03  0.49618065350E+03  0.00000000000E+00 0. -1.
          4   -1    0    0  501    0  0.00000000000E+00 -0.00000000000E+00 -0.75566101063E+02  0.75566101063E+02  0.00000000000E+00 0.  1.
         25    2    1    2    0    0  0.14017881186E+03  0.35744122627E+02  0.11307416446E+03  0.22217323850E+03  0.12508972636E+03 0.  0.
          5    1    3    3  502    0 -0.20736677476E+02 -0.14898234706E+01 -0.12710669609E+01  0.21244231639E+02  0.41800000000E+01 0.  1.
         -5    1    3    3    0  502  0.16091548933E+03  0.37233946098E+02  0.11434523142E+03  0.20092900686E+03  0.41800000000E+01 0.  1.
        -11    1    1    2    0    0 -0.57775015069E+02 -0.52855264074E+02  0.11168244177E+03  0.13639867707E+03  0.00000000000E+00 0. -1.
         11    1    1    2    0    0 -0.82403796789E+02  0.17111141447E+02  0.19585794621E+03  0.21317483899E+03  0.00000000000E+00 0.  1.
</event>
<event>
 7    1  0.2608740E-009  0.1662517E+03  0.7561462E-02  0.1181814E+00
          1   -1    0    0  501    0  0.00000000000E+00  0.00000000000E+00  0.10103002183E+04  0.10103002183E+04  0.00000000000E+00 0. -1.
         -1   -1    0    0    0  501 -0.00000000000E+00 -0.00000000000E+00 -0.28977750231E+02  0.28977750231E+02  0.00000000000E+00 0.  1.
         25    2    1    2    0    0 -0.11260313607E+03  0.68867822457E+02  0.53787632979E+03  0.56778488256E+03  0.12508590444E+03 0.  0.
          5    1    3    3  502    0 -0.10982938933E+03  0.57883422522E+01  0.25195615684E+03  0.27494613479E+03  0.41800000000E+01 0.  1.
         -5    1    3    3    0  502 -0.27737467447E+01  0.63079480205E+02  0.28592017296E+03  0.29283874777E+03  0.41800000000E+01 0.  1.
        -11    1    1    2    0    0  0.64022129440E+02  0.11699764600E+02  0.15562098021E+03  0.16868197008E+03  0.00000000000E+00 0.  1.
         11    1    1    2    0    0  0.48581006634E+02 -0.80567587057E+02  0.28782515811E+03  0.30281111593E+03  0.00000000000E+00 0. -1.
</event>
<event>
 7    1  0.2480409E-009  0.1274579E+03  0.7561462E-02  0.1231277E+00
          2   -1    0    0  501    0  0.00000000000E+00  0.00000000000E+00  0.90660036148E+03  0.90660036148E+03  0.00000000000E+00 0. -1.
         -2   -1    0    0    0  501 -0.00000000000E+00 -0.00000000000E+00 -0.21675945578E+02  0.21675945578E+02  0.00000000000E+00 0.  1.
         25    2    1    2    0    0  0.44187655315E+01  0.88451296173E+02  0.48015040113E+03  0.50401905989E+03  0.12509055817E+03 0.  0.
          5    1    3    3  502    0 -0.26860751590E+02  0.98604924764E+02  0.44105900522E+03  0.45276367970E+03  0.41800000000E+01 0.  1.
         -5    1    3    3    0  502  0.31279517122E+02 -0.10153628590E+02  0.39091395906E+02  0.51255380193E+02  0.41800000000E+01 0.  1.
        -11    1    1    2    0    0  0.37212603905E+02 -0.53242100965E+02  0.14595100940E+03  0.15975354879E+03  0.00000000000E+00 0.  1.
         11    1    1    2    0    0 -0.41631369436E+02 -0.35209195208E+02  0.25882300536E+03  0.26450369837E+03  0.00000000000E+00 0. -1.
</event>
<event>
 7    1  0.2480409E-009  0.9215512E+02  0.7561462E-02  0.1297715E+00
         -2   -1    0    0    0  501 -0.00000000000E+00  0.00000000000E+00  0.22375278383E+02  0.22375278383E+02  0.00000000000E+00 0.  1.
          2   -1    0    0  501    0  0.00000000000E+00 -0.00000000000E+00 -0.69396395147E+03  0.69396395147E+03  0.00000000000E+00 0. -1.
         25    2    1    2    0    0 -0.48160755128E+02  0.64232819551E+00 -0.49196952349E+03  0.50990279600E+03  0.12508788272E+03 0.  0.
          5    1    3    3  502    0 -0.77368460390E+01 -0.30463763732E+02 -0.42213041384E+03  0.42331957003E+03  0.41800000000E+01 0.  1.
         -5    1    3    3    0  502 -0.40423909089E+02  0.31106091928E+02 -0.69839109654E+02  0.86583225964E+02  0.41800000000E+01 0.  1.
        -11    1    1    2    0    0  0.64043210383E+02  0.27033980014E+02 -0.11524212109E+03  0.13458497444E+03  0.00000000000E+00 0. -1.
         11    1    1    2    0    0 -0.15882455255E+02 -0.27676308209E+02 -0.64377028506E+02  0.71851459416E+02  0.00000000000E+00 0.  1.
</event>
<event>
 7    1  0.2480409E-009  0.1055698E+03  0.7561462E-02  0.1269001E+00
          2   -1    0    0  501    0  0.00000000000E+00  0.00000000000E+00  0.44167305533E+03  0.44167305533E+03  0.00000000000E+00 0. -1.
         -2   -1    0    0    0  501 -0.00000000000E+00 -0.00000000000E+00 -0.30179104103E+02  0.30179104103E+02  0.00000000000E+00 0.  1.
         25    2    1    2    0    0  0.43243940841E+01  0.54226214653E+01  0.31626836022E+03  0.34018009029E+03  0.12509481582E+03 0.  0.
          5    1    3    3  502    0  0.21170037207E+02 -0.55855803716E+02  0.12532728976E+03  0.13889723987E+03  0.41800000000E+01 0.  1.
         -5    1    3    3    0  502 -0.16845643123E+02  0.61278425182E+02  0.19094107046E+03  0.20128285042E+03  0.41800000000E+01 0.  1.
        -11    1    1    2    0    0  0.41280625599E+02  0.21746747985E+01  0.27423644378E+02  0.49607212492E+02  0.00000000000E+00 0.  1.
         11    1    1    2    0    0 -0.45605019683E+02 -0.75972962638E+01  0.67801946633E+02  0.82064856657E+02  0.00000000000E+00 0. -1.
</event>
<event>
 7    1  0.2480409E-009  0.1181691E+03  0.7561462E-02  0.1246148E+00
         -1   -1    0    0    0  501 -0.00000000000E+00  0.00000000000E+00  0.25892459459E+03  0.25892459459E+03  0.00000000000E+00 0.  1.
          1   -1    0    0  501    0  0.00000000000E+00 -0.00000000000E+00 -0.65434566088E+02  0.65434566088E+02  0.00000000000E+00 0. -1.
         25    2    1    2    0    0  0.23175899562E+02  0.32832534773E+02  0.12009265269E+03  0.17800592406E+03  0.12509502832E+03 0.  0.
          5    1    3    3  502    0 -0.28326761532E+02  0.48241467981E+02  0.12230297465E+02  0.57416872328E+02  0.41800000000E+01 0.  1.
         -5    1    3    3    0  502  0.51502661094E+02 -0.15408933208E+02  0.10786235523E+03  0.12058905173E+03  0.41800000000E+01 0.  1.
        -11    1    1    2    0    0 -0.70242930337E+02 -0.24276017676E+01  0.45817116102E+02  0.83899765438E+02  0.00000000000E+00 0.  1.
         11    1    1    2    0    0  0.47067030775E+02 -0.30404933006E+02  0.27580259709E+02  0.62453471182E+02  0.00000000000E+00 0. -1.
</event>
<event>
 7    1  0.2480409E-009  0.9116216E+02  0.7561462E-02  0.1300062E+00
          2   -1    0    0  501    0  0.00000000000E+00  0.00000000000E+00  0.36666071840E+02  0.36666071840E+02  0.00000000000E+00 0. -1.
         -2   -1    0    0    0  501 -0.00000000000E+00 -0.00000000000E+00 -0.39689567299E+03  0.39689567299E+03  0.00000000000E+00 0.  1.
         25    2    1    2    0    0 -0.48769954621E+02  0.18286654445E+02 -0.22176865877E+03  0.25988459499E+03  0.12508299044E+03 0.  0.
          5    1    3    3  502    0 -0.60280198024E+02  0.52263584926E+02 -0.78019433266E+02  0.11166776146E+03  0.41800000000E+01 0.  1.
         -5    1    3    3    0  502  0.11510243403E+02 -0.33976930480E+02 -0.14374922550E+03  0.14821683352E+03  0.41800000000E+01 0.  1.
        -11    1    1    2    0    0 -0.30226788581E+01 -0.14026949639E+02  0.92629343441E+01  0.17079047289E+02  0.00000000000E+00 0. -1.
         11    1    1    2    0    0  0.51792633480E+02 -0.42597048068E+01 -0.14772387673E+03  0.15659810255E+03  0.00000000000E+00 0.  1.
</event>
<event>
 7    1  0.2480409E-009  0.7996608E+02  0.7561462E-02  0.1329148E+00
         -3   -1    0    0    0  501 -0.00000000000E+00  0.00000000000E+00  0.93449877423E+02  0.93449877423E+02  0.00000000000E+00 0.  1.
          3   -1    0    0  501    0  0.00000000000E+00 -0.00000000000E+00 -0.13653401489E+03  0.13653401489E+03  0.00000000000E+00 0. -1.
         25    2    1    2    0    0  0.29687933968E+02  0.11256890619E+02 -0.40245035758E+02  0.13517751677E+03  0.12508080240E+03 0.  0.
          5    1    3    3  502    0  0.43447415428E+02  0.21540096871E+02  0.33665641877E+02  0.59181935788E+02  0.41800000000E+01 0.  1.
         -5    1    3    3    0  502 -0.13759481460E+02 -0.10283206252E+02 -0.73910677635E+02  0.75995580986E+02  0.41800000000E+01 0.  1.
        -11    1    1    2    0    0 -0.55495276213E+02  0.14248746871E+02 -0.90148613768E+01  0.58000174095E+02  0.00000000000E+00 0.  1.
         11    1    1    2    0    0  0.25807342245E+02 -0.25505637489E+02  0.61757596644E+01  0.36806201447E+02  0.00000000000E+00 0. -1.
</event>
<event>
 7    1  0.2480409E-009  0.1114338E+03  0.7561462E-02  0.1257938E+00
          2   -1    0    0  501    0  0.00000000000E+00  0.00000000000E+00  0.18927522743E+03  0.18927522743E+03  0.00000000000E+00 0. -1.
         -2   -1    0    0    0  501 -0.00000000000E+00 -0.00000000000E+00 -0.95818389924E+02  0.95818389924E+02  0.00000000000E+00 0.  1.
         25    2    1    2    0    0 -0.52764443423E+02  0.11323305809E+02  0.11079303256E+03  0.17559829460E+03  0.12508941305E+03 0.  0.
          5    1    3    3  502    0 -0.53132500290E+02  0.52908298343E+02  0.11073923154E+03  0.13380209424E+03  0.41800000000E+01 0. -1.
         -5    1    3    3    0  502  0.36805686693E+00 -0.41584992535E+02  0.53801024387E-01  0.41796200360E+02  0.41800000000E+01 0. -1.
        -11    1    1    2    0    0  0.72437427033E+02 -0.30410481915E+02 -0.31354104826E+01  0.78624481203E+02  0.00000000000E+00 0. -1.
         11    1    1    2    0    0 -0.19672983610E+02  0.19087176107E+02 -0.14200784573E+02  0.30870841555E+02  0.00000000000E+00 0.  1.
</event>
<event>
 7    1  0.2480409E-009  0.1254191E+03  0.7561462E-02  0.1234416E+00
          1   -1    0    0  501    0  0.00000000000E+00  0.00000000000E+00  0.21989430803E+03  0.21989430803E+03  0.00000000000E+00 0. -1.
         -1   -1    0    0    0  501 -0.00000000000E+00 -0.00000000000E+00 -0.10071612336E+03  0.10071612336E+03  0.00000000000E+00 0.  1.
         25    2    1    2    0    0  0.20180936730E+02  0.96020338175E+02  0.36745072973E+02  0.16317106525E+03  0.12508965024E+03 0.  0.
          5    1    3    3  502    0  0.46984459549E+02  0.72072080947E+02  0.72287482613E+02  0.11244944123E+03  0.41800000000E+01 0.  1.
         -5    1    3    3    0  502 -0.26803522819E+02  0.23948257228E+02 -0.35542409640E+02  0.50721624016E+02  0.41800000000E+01 0.  1.
        -11    1    1    2    0    0  0.80234772860E+01 -0.99744949653E+02  0.43240885686E+02  0.10901011588E+03  0.00000000000E+00 0.  1.
         11    1    1    2    0    0 -0.28204414016E+02  0.37246114779E+01  0.39192226012E+02  0.48429250256E+02  0.00000000000E+00 0. -1.
</event>
<event>
 7    1  0.2480409E-009  0.1309316E+03  0.7561462E-02  0.1226080E+00
         -2   -1    0    0    0  501 -0.00000000000E+00  0.00000000000E+00  0.32301021386E+02  0.32301021386E+02  0.00000000000E+00 0.  1.
          2   -1    0    0  501    0  0.00000000000E+00 -0.00000000000E+00 -0.95276500718E+03  0.95276500718E+03  0.00000000000E+00 0. -1.
         25    2    1    2    0    0  0.18715744166E+02 -0.10566395591E+03 -0.73042700648E+03  0.74878946680E+03  0.12508758190E+03 0.  0.
          5    1    3    3  502    0 -0.26616619548E+02 -0.10385216033E+03 -0.62189879466E+03  0.63108580941E+03  0.41800000000E+01 0. -1.
         -5    1    3    3    0  502  0.45332363714E+02 -0.18117955786E+01 -0.10852821181E+03  0.11770365739E+03  0.41800000000E+01 0. -1.
        -11    1    1    2    0    0  0.32918421379E+01  0.30950003215E+02 -0.24648891568E+00  0.31125547071E+02  0.00000000000E+00 0.  1.
         11    1    1    2    0    0 -0.22007586304E+02  0.74713952694E+02 -0.18979049040E+03  0.20515101469E+03  0.00000000000E+00 0. -1.
</event>
<event>
 7    1  0.2480409E-009  0.1384402E+03  0.7561462E-02  0.1215443E+00
         -1   -1    0    0    0  501 -0.00000000000E+00  0.00000000000E+00  0.21967918486E+03  0.21967918486E+03  0.00000000000E+00 0.  1.
          1   -1    0    0  501    0  0.00000000000E+00 -0.00000000000E+00 -0.12685041672E+03  0.12685041672E+03  0.00000000000E+00 0. -1.
         25    2    1    2    0    0  0.91135182660E+02  0.76353045574E+02  0.94242868599E+02  0.19663514107E+03  0.12509297077E+03 0.  0.
          5    1    3    3  502    0 -0.26566168285E+01  0.14141182305E+02  0.81985911012E+02  0.83343821933E+02  0.41800000000E+01 0.  1.
         -5    1    3    3    0  502  0.93791799488E+02  0.62211863268E+02  0.12256957587E+02  0.11329131914E+03  0.41800000000E+01 0.  1.
        -11    1    1    2    0    0 -0.70902460830E+02 -0.97139339135E+02 -0.65259562827E+01  0.12044001937E+03  0.00000000000E+00 0. -1.
         11    1    1    2    0    0 -0.20232721830E+02  0.20786293561E+02  0.51118558237E+01  0.29454441136E+02  0.00000000000E+00 0.  1.
</event>
<event>
 7    1  0.2480409E-009  0.2865460E+03  0.7561462E-02  0.1092166E+00
          2   -1    0    0  501    0  0.00000000000E+00  0.00000000000E+00  0.58014732713E+03  0.58014732713E+03  0.00000000000E+00 0. -1.
         -2   -1    0    0    0  501 -0.00000000000E+00 -0.00000000000E+00 -0.15779578018E+03  0.15779578018E+03  0.00000000000E+00 0.  1.
         25    2    1    2    0    0  0.61623453747E+02  0.27146330863E+03  0.16091070593E+03  0.34501061425E+03  0.12510112181E+03 0.  0.
          5    1    3    3  502    0  0.42894246215E+02  0.60101117720E+02 -0.71422744354E+01  0.74300371423E+02  0.41800000000E+01 0.  1.
         -5    1    3    3    0  502  0.18729207532E+02  0.21136219091E+03  0.16805298037E+03  0.27071024283E+03  0.41800000000E+01 0.  1.
        -11    1    1    2    0    0 -0.32594179655E+01 -0.16863946041E+03  0.11240528655E+03  0.20269395614E+03  0.00000000000E+00 0.  1.
         11    1    1    2    0    0 -0.58364035781E+02 -0.10282384822E+03  0.14903555446E+03  0.19023853692E+03  0.00000000000E+00 0. -1.
</event>
<event>
 7    1  0.2480409E-009  0.1233371E+03  0.7561462E-02  0.1237691E+00
          2   -1    0    0  501    0  0.00000000000E+00  0.00000000000E+00  0.10480540646E+04  0.10480540646E+04  0.00000000000E+00 0. -1.
         -2   -1    0    0    0  501 -0.00000000000E+00 -0.00000000000E+00 -0.18640467541E+02  0.18640467541E+02  0.00000000000E+00 0.  1.
         25    2    1    2    0    0 -0.71517273061E+02 -0.42609036498E+02  0.72706036781E+03  0.74242455312E+03  0.12508872173E+03 0.  0.
          5    1    3    3  502    0 -0.25188260188E+02  0.39406936727E+02  0.13569723816E+03  0.14359167092E+03  0.41800000000E+01 0.  1.
         -5    1    3    3    0  502 -0.46329012874E+02 -0.82015973225E+02  0.59136312965E+03  0.59883288221E+03  0.41800000000E+01 0.  1.
        -11    1    1    2    0    0  0.80610046208E+01  0.41175108896E+02  0.56617219303E+02  0.70468992540E+02  0.00000000000E+00 0.  1.
         11    1    1    2    0    0  0.63456268441E+02  0.14339276019E+01  0.24573600998E+03  0.25380098651E+03  0.00000000000E+00 0. -1.
</event>
<event>
 7    1  0.2480409E-009  0.1230086E+03  0.7561462E-02  0.1238215E+00
         -1   -1    0    0    0  501 -0.00000000000E+00  0.00000000000E+00  0.56566473172E+02  0.56566473172E+02  0.00000000000E+00 0.  1.
          1   -1    0    0  501    0  0.00000000000E+00 -0.00000000000E+00 -0.43914898210E+03  0.43914898210E+03  0.00000000000E+00 0. -1.
         25    2    1    2    0    0  0.56261396543E+02  0.23271156528E+00 -0.35508280842E+03  0.38065428793E+03  0.12509391347E+03 0.  0.
          5    1    3    3  502    0  0.60865738659E+02 -0.53406987327E+02 -0.17968100180E+03  0.19712858556E+03  0.41800000000E+01 0.  1.
         -5    1    3    3    0  502 -0.46043421163E+01  0.53639698892E+02 -0.17540180662E+03  0.18352570237E+03  0.41800000000E+01 0.  1.
        -11    1    1    2    0    0 -0.25410791352E+02  0.47634132894E+02 -0.65561663360E+01  0.54384761200E+02  0.00000000000E+00 0.  1.
         11    1    1    2    0    0 -0.30850605191E+02 -0.47866844459E+02 -0.20943534175E+02  0.60676406147E+02  0.00000000000E+00 0. -1.
</event>
<event>
 7    1  0.2480409E-009  0.1463685E+03  0.7561462E-02  0.1205008E+00
          2   -1    0    0  501    0  0.00000000000E+00  0.00000000000E+00  0.54630536214E+03  0.54630536214E+03  0.00000000000E+00 0.  1.
         -2   -1    0    0    0  501 -0.00000000000E+00 -0.00000000000E+00 -0.51693020294E+02  0.51693020294E+02  0.00000000000E+00 0. -1.
         25    2    1    2    0    0  0.78762804058E+02  0.88236271940E+02  0.33853781379E+03  0.37979491052E+03  0.12508838355E+03 0.  0.
          5    1    3    3  502    0  0.10848059425E+03  0.83229280795E+02  0.23537298086E+03  0.27223714851E+03  0.41800000000E+01 0.  1.
         -5    1    3    3    0  502 -0.29717790192E+02  0.50069911452E+01  0.10316483293E+03  0.10755776200E+03  0.41800000000E+01 0.  1.
        -11    1    1    2    0    0 -0.51253868946E+02 -0.82947348046E+02  0.52160788404E+02  0.11058014956E+03  0.00000000000E+00 0. -1.
         11    1    1    2    0    0 -0.27508935112E+02 -0.52889238949E+01  0.10391373965E+03  0.10762332235E+03  0.00000000000E+00 0.  1.
</event>
<event>
 7    1  0.2480409E-009  0.1932486E+03  0.7561462E-02  0.1155564E+00
         -2   -1    0    0    0  501 -0.00000000000E+00  0.00000000000E+00  0.79682396257E+02  0.79682396257E+02  0.00000000000E+00 0.  1.
          2   -1    0    0  501    0  0.00000000000E+00 -0.00000000000E+00 -0.55682901228E+03  0.55682901228E+03  0.00000000000E+00 0. -1.
         25    2    1    2    0    0  0.10325465132E+03  0.13704236406E+03 -0.32600833510E+03  0.38906445158E+03  0.12509028885E+03 0.  0.
          5    1    3    3  502    0 -0.25201765474E+02  0.49168483648E+02 -0.10498605525E+03  0.11871062700E+03  0.41800000000E+01 0. -1.
         -5    1    3    3    0  502  0.12845641679E+03  0.87873880411E+02 -0.22102227985E+03  0.27035382458E+03  0.41800000000E+01 0. -1.
        -11    1    1    2    0    0 -0.98311814209E+02 -0.10844846732E+03 -0.16024238464E+03  0.21703433994E+03  0.00000000000E+00 0.  1.
         11    1    1    2    0    0 -0.49428371071E+01 -0.28593896737E+02  0.91041037157E+01  0.30412617016E+02  0.00000000000E+00 0. -1.
</event>
<event>
 7    1  0.2480409E-009  0.5484696E+02  0.7561462E-02  0.1420824E+00
          2   -1    0    0  501    0  0.00000000000E+00  0.00000000000E+00  0.76297423787E+02  0.76297423787E+02  0.00000000000E+00 0. -1.
         -2   -1    0    0    0  501 -0.00000000000E+00 -0.00000000000E+00 -0.15655492020E+03  0.15655492020E+03  0.00000000000E+00 0.  1.
         25    2    1    2    0    0  0.10782757456E+02  0.86961916164E+00 -0.43826312806E+02  0.13298646587E+03  0.12509048850E+03 0.  0.
          5    1    3    3  502    0 -0.38998157545E+01 -0.22868829096E+02 -0.82108386488E+02  0.85425121825E+02  0.41800000000E+01 0. -1.
         -5    1    3    3    0  502  0.14682573211E+02  0.23738448258E+02  0.38282073682E+02  0.47561344043E+02  0.41800000000E+01 0. -1.
        -11    1    1    2    0    0 -0.26280831761E+02  0.19195393083E+02 -0.58047601005E+02  0.66548247280E+02  0.00000000000E+00 0.  1.
         11    1    1    2    0    0  0.15498074305E+02 -0.20065012244E+02  0.21616417399E+02  0.33317630838E+02  0.00000000000E+00 0. -1.
</event>
<event>
 7    1  0.2480409E-009  0.1487406E+03  0.7561462E-02  0.1202029E+00
          1   -1    0    0  501    0  0.00000000000E+00  0.00000000000E+00  0.59146186449E+03  0.59146186449E+03  0.00000000000E+00 0. -1.
         -1   -1    0    0    0  501 -0.00000000000E+00 -0.00000000000E+00 -0.48576049976E+02  0.48576049976E+02  0.00000000000E+00 0.  1.
         25    2    1    2    0    0  0.10167573660E+03 -0.39270671470E+02  0.15505458773E+03  0.22709024007E+03  0.12509161006E+03 0.  0.
          5    1    3    3  502    0  0.12209713533E+03 -0.12454150979E+02  0.85344527187E+02  0.14954590283E+03  0.41800000000E+01 0. -1.
         -5    1    3    3    0  502 -0.20421398727E+02 -0.26816520491E+02  0.69710060544E+02  0.77544337242E+02  0.41800000000E+01 0. -1.
        -11    1    1    2    0    0 -0.50410867524E+01 -0.24448483498E+02  0.50980268909E+02  0.56763797610E+02  0.00000000000E+00 0.  1.
         11    1    1    2    0    0 -0.96634649850E+02  0.63719154968E+02  0.33685095787E+03  0.35618387678E+03  0.00000000000E+00 0. -1.
</event>
<event>
 7    1  0.2480409E-009  0.1275746E+03  0.7561462E-02  0.1231100E+00
          3   -1    0    0  501    0  0.00000000000E+00  0.00000000000E+00  0.21381570465E+03  0.21381570465E+03  0.00000000000E+00 0. -1.
         -3   -1    0    0    0  501 -0.00000000000E+00 -0.00000000000E+00 -0.87907601028E+02  0.87907601028E+02  0.00000000000E+00 0.  1.
         25    2    1    2    0    0  0.21134242194E+02  0.79064754772E+02  0.10918247344E+03  0.18510745958E+03  0.12508424140E+03 0.  0.
          5    1    3    3  502    0 -0.30394856683E+02 -0.13980656011E+02  0.15816560337E+01  0.33753223418E+02  0.41800000000E+01 0. -1.
         -5    1    3    3    0  502  0.51529098877E+02  0.93045410782E+02  0.10760081741E+03  0.15135423617E+03  0.41800000000E+01 0. -1.
        -11    1    1    2    0    0 -0.87610968454E+01 -0.94669953683E+02  0.17562712659E+02  0.96683017248E+02  0.00000000000E+00 0. -1.
         11    1    1    2    0    0 -0.12373145348E+02  0.15605198911E+02 -0.83708247530E+00  0.19932828849E+02  0.00000000000E+00 0.  1.
</event>
<event>
 7    1  0.2480409E-009  0.1083575E+03  0.7561462E-02  0.1263642E+00
          1   -1    0    0  501    0  0.00000000000E+00  0.00000000000E+00  0.28926659377E+03  0.28926659377E+03  0.00000000000E+00 0. -1.
         -1   -1    0    0    0  501 -0.00000000000E+00 -0.00000000000E+00 -0.45960923998E+02  0.45960923998E+02  0.00000000000E+00 0.  1.
         25    2    1    2    0    0 -0.36895933045E+02 -0.11631757622E+02  0.12414601311E+03  0.18043310592E+03  0.12508903022E+03 0.  0.
          5    1    3    3  502    0  0.17434410232E+02  0.44148142308E+02  0.23545822084E+02  0.53149743809E+02  0.41800000000E+01 0.  1.
         -5    1    3    3    0  502 -0.54330343277E+02 -0.55779899930E+02  0.10060019102E+03  0.12728336211E+03  0.41800000000E+01 0.  1.
        -11    1    1    2    0    0  0.18732325887E+01  0.43616547960E+02  0.87447619166E+02  0.97739441139E+02  0.00000000000E+00 0. -1.
         11    1    1    2    0    0  0.35022700456E+02 -0.31984790338E+02  0.31712037502E+02  0.57054970711E+02  0.00000000000E+00 0.  1.
</event>
<event>
 7    1  0.2480409E-009  0.1584533E+03  0.7561462E-02  0.1190454E+00
          2   -1    0    0  501    0  0.00000000000E+00  0.00000000000E+00  0.83323799110E+02  0.83323799110E+02  0.00000000000E+00 0. -1.
         -2   -1    0    0    0  501 -0.00000000000E+00 -0.00000000000E+00 -0.48441471108E+03  0.48441471108E+03  0.00000000000E+00 0.  1.
         25    2    1    2    0    0 -0.13555071783E+03 -0.77506279274E+02 -0.29516151470E+03  0.35657984268E+03  0.12509054327E+03 0.  0.
          5    1    3    3  502    0 -0.10619907486E+02 -0.10454874854E+02  0.11111500034E+02  0.19053206455E+02  0.41800000000E+01 0. -1.
         -5    1    3    3    0  502 -0.12493081034E+03 -0.67051404419E+02 -0.30627301473E+03  0.33752663622E+03  0.41800000000E+01 0. -1.
        -11    1    1    2    0    0  0.70725369206E+02  0.59166516873E+02 -0.11015643349E+03  0.14365651537E+03  0.00000000000E+00 0.  1.
         11    1    1    2    0    0  0.64825348623E+02  0.18339762400E+02  0.42270362176E+01  0.67502152144E+02  0.00000000000E+00 0. -1.
</event>
<event>
 7    1  0.2480409E-009  0.1115962E+03  0.7561462E-02  0.1257642E+00
         -1   -1    0    0    0  501 -0.00000000000E+00  0.00000000000E+00  0.28494353130E+03  0.28494353130E+03  0.00000000000E+00 0.  1.
          1   -1    0    0  501    0  0.00000000000E+00 -0.00000000000E+00 -0.71741288690E+02  0.71741288690E+02  0.00000000000E+00 0. -1.
         25    2    1    2    0    0 -0.27701593261E+02 -0.55135722141E+02  0.27137741083E+02  0.14209805580E+03  0.12509226334E+03 0.  0.
          5    1    3    3  502    0 -0.71629219397E+02 -0.43086383034E+01  0.94100751043E+01  0.72493664199E+02  0.41800000000E+01 0. -1.
         -5    1    3    3    0  502  0.43927626137E+02 -0.50827083837E+02  0.17727665979E+02  0.69604391603E+02  0.41800000000E+01 0. -1.
        -11    1    1    2    0    0  0.26194091283E+02 -0.25315457650E+01  0.13501370485E+03  0.13755449698E+03  0.00000000000E+00 0.  1.
         11    1    1    2    0    0  0.15075019776E+01  0.57667267906E+02  0.51050796677E+02  0.77032267209E+02  0.00000000000E+00 0. -1.
</event>
<event>
 7    1  0.2480409E-009  0.8377219E+02  0.7561462E-02  0.1318675E+00
          1   -1    0    0  501    0  0.00000000000E+00  0.00000000000E+00  0.18091816923E+04  0.18091816923E+04  0.00000000000E+00 0. -1.
         -1   -1    0    0    0  501 -0.00000000000E+00 -0.00000000000E+00 -0.11270378265E+02  0.11270378265E+02  0.00000000000E+00 0.  1.
         25    2    1    2    0    0  0.23165465078E+02  0.61917273941E+02  0.13905227711E+04  0.13977035995E+04  0.12510550615E+03 0.  0.
          5    1    3    3  502    0  0.10532738081E+02  0.26561298852E+02  0.12898992372E+04  0.12902224443E+04  0.41800000000E+01 0.  1.
         -5    1    3    3    0  502  0.12632726997E+02  0.35355975089E+02  0.10062353386E+03  0.10748115524E+03  0.41800000000E+01 0.  1.
        -11    1    1    2    0    0 -0.24732356578E+02  0.11626860920E+02  0.42568562383E+02  0.50586123197E+02  0.00000000000E+00 0. -1.
         11    1    1    2    0    0  0.15668914992E+01 -0.73544134861E+02  0.36481998057E+03  0.37216234784E+03  0.00000000000E+00 0.  1.
</event>
<event>
 7    1  0.2480409E-009  0.2999459E+03  0.7561462E-02  0.1085268E+00
         -1   -1    0    0    0  501 -0.00000000000E+00  0.00000000000E+00  0.22875817157E+03  0.22875817157E+03  0.00000000000E+00 0.  1.
          1   -1    0    0  501    0  0.00000000000E+00 -0.00000000000E+00 -0.53651020498E+03  0.53651020498E+03  0.00000000000E+00 0. -1.
         25    2    1    2    0    0 -0.20162431803E+03 -0.21438319575E+03  0.13467630826E+02  0.32006529325E+03  0.12509154496E+03 0.  0.
          5    1    3    3  502    0 -0.16163726605E+02 -0.26905727447E+02 -0.39938908776E+02  0.50968353529E+02  0.41800000000E+01 0.  1.
         -5    1    3    3    0  502 -0.18546059142E+03 -0.18747746830E+03  0.53406539602E+02  0.26909693972E+03  0.41800000000E+01 0.  1.
        -11    1    1    2    0    0  0.93791679185E+02  0.45835351686E+02 -0.14437942422E+03  0.17816614911E+03  0.00000000000E+00 0.  1.
         11    1    1    2    0    0  0.10783263884E+03  0.16854784407E+03 -0.17684024001E+03  0.26703693420E+03  0.00000000000E+00 0. -1.
</event>
<event>
 7    1  0.2480409E-009  0.1606907E+03  0.7561462E-02  0.1187919E+00
          1   -1    0    0  501    0  0.00000000000E+00  0.00000000000E+00  0.85379491552E+03  0.85379491552E+03  0.00000000000E+00 0. -1.
         -1   -1    0    0    0  501 -0.00000000000E+00 -0.00000000000E+00 -0.38624051967E+02  0.38624051967E+02  0.00000000000E+00 0.  1.
         25    2    1    2    0    0  0.26571462940E+02  0.13777268514E+03  0.37086320909E+03  0.41578245681E+03  0.12509267012E+03 0.  0.
          5    1    3    3  502    0  0.63605560573E+02  0.47046813352E+02  0.23658216724E+03  0.24949481806E+03  0.41800000000E+01 0. -1.
         -5    1    3    3    0  502 -0.37034097633E+02  0.90725871792E+02  0.13428104185E+03  0.16628763875E+03  0.41800000000E+01 0. -1.
        -11    1    1    2    0    0 -0.31424403583E+02 -0.77816047688E+02  0.11781322187E+03  0.14464710735E+03  0.00000000000E+00 0.  1.
         11    1    1    2    0    0  0.48529406430E+01 -0.59956637456E+02  0.32649443259E+03  0.33198940332E+03  0.00000000000E+00 0. -1.
</event>
<event>
 7    1  0.2480409E-009  0.1944241E+03  0.7561462E-02  0.1154531E+00
         -2   -1    0    0    0  501 -0.00000000000E+00  0.00000000000E+00  0.20902522260E+03  0.20902522260E+03  0.00000000000E+00 0.  1.
          2   -1    0    0  501    0  0.00000000000E+00 -0.00000000000E+00 -0.24176760939E+03  0.24176760939E+03  0.00000000000E+00 0. -1.
         25    2    1    2    0    0  0.15475762483E+03 -0.55141592823E+02 -0.12342245017E+03  0.24056371129E+03  0.12508908938E+03 0.  0.
          5    1    3    3  502    0  0.19452397155E+02 -0.63068121626E+02 -0.65597042802E+02  0.93147346419E+02  0.41800000000E+01 0. -1.
         -5    1    3    3    0  502  0.13530522767E+03  0.79265288029E+01 -0.57825407364E+02  0.14741636487E+03  0.41800000000E+01 0. -1.
        -11    1    1    2    0    0 -0.61269098802E+02 -0.22823919126E+02  0.15640891247E+02  0.67227012661E+02  0.00000000000E+00 0.  1.
         11    1    1    2    0    0 -0.93488526025E+02  0.77965511949E+02  0.75039172122E+02  0.14300210804E+03  0.00000000000E+00 0. -1.
</event>
<event>
 7    1  0.2480409E-009  0.9338279E+02  0.7561462E-02  0.1294861E+00
          1   -1    0    0  501    0  0.00000000000E+00  0.00000000000E+00  0.10853905828E+04  0.10853905828E+04  0.00000000000E+00 0. -1.
         -1   -1    0    0    0  501 -0.00000000000E+00 -0.00000000000E+00 -0.15283440827E+02  0.15283440827E+02  0.00000000000E+00 0.  1.
         25    2    1    2    0    0  0.38044208120E+02  0.56005069191E+02  0.64559436664E+03  0.66107777688E+03  0.12509121193E+03 0.  0.
          5    1    3    3  502    0  0.14019999629E+02  0.44157967155E+02  0.65433837782E+02  0.80284157714E+02  0.41800000000E+01 0. -1.
         -5    1    3    3    0  502  0.24024208491E+02  0.11847102036E+02  0.58016052886E+03  0.58079361917E+03  0.41800000000E+01 0. -1.
        -11    1    1    2    0    0 -0.40251607314E+02  0.14360319540E+02  0.18985440475E+03  0.19460499909E+03  0.00000000000E+00 0.  1.
         11    1    1    2    0    0  0.22073991935E+01 -0.70365388731E+02  0.23465837058E+03  0.24499124765E+03  0.00000000000E+00 0. -1.
</event>
<event>
 7    1  0.2480409E-009  0.1529209E+03  0.7561462E-02  0.1196929E+00
          2   -1    0    0  501    0  0.00000000000E+00  0.00000000000E+00  0.26593967942E+03  0.26593967942E+03  0.00000000000E+00 0. -1.
         -2   -1    0    0    0  501 -0.00000000000E+00 -0.00000000000E+00 -0.10876502900E+03  0.10876502900E+03  0.00000000000E+00 0.  1.
         25    2    1    2    0    0  0.35194961819E+02 -0.11893232731E+03  0.37939535305E+02  0.18019662735E+03  0.12509129608E+03 0.  0.
          5    1    3    3  502    0  0.46584807550E+01 -0.13520057421E+03  0.48512395281E+02  0.14377698566E+03  0.41800000000E+01 0. -1.
         -5    1    3    3    0  502  0.30536481064E+02  0.16268246901E+02 -0.10572859976E+02  0.36419641694E+02  0.41800000000E+01 0. -1.
        -11    1    1    2    0    0  0.79905165106E+00  0.88519014870E+02  0.29774908126E+02  0.93395929413E+02  0.00000000000E+00 0.  1.
         11    1    1    2    0    0 -0.35994013470E+02  0.30413312438E+02  0.89460206985E+02  0.10111215166E+03  0.00000000000E+00 0. -1.
</event>
<event>
 7    1  0.2480409E-009  0.1635787E+03  0.7561462E-02  0.1184715E+00
         -2   -1    0    0    0  501 -0.00000000000E+00  0.00000000000E+00  0.32583939566E+03  0.32583939566E+03  0.00000000000E+00 0.  1.
          2   -1    0    0  501    0  0.00000000000E+00 -0.00000000000E+00 -0.10193431843E+03  0.10193431843E+03  0.00000000000E+00 0. -1.
         25    2    1    2    0    0 -0.14266759456E+03  0.22300662515E+02  0.90308003892E+02  0.21131248073E+03  0.12508423905E+03 0.  0.
          5    1    3    3  502    0 -0.50524797924E+02 -0.42074722779E+02  0.71578188884E+02  0.97282819789E+02  0.41800000000E+01 0.  1.
         -5    1    3    3    0  502 -0.92142796633E+02  0.64375385294E+02  0.18729815009E+02  0.11402966094E+03  0.41800000000E+01 0.  1.
        -11    1    1    2    0    0  0.10315570876E+03 -0.32193271247E+02  0.13824161503E+03  0.17546581174E+03  0.00000000000E+00 0.  1.
         11    1    1    2    0    0  0.39511885793E+02  0.98926087323E+01 -0.46445416995E+01  0.40995421623E+02  0.00000000000E+00 0. -1.
</event>
<event>
 7    1  0.2480409E-009  0.1128254E+03  0.7561462E-02  0.1255425E+00
         -1   -1    0    0    0  501 -0.00000000000E+00  0.00000000000E+00  0.39442404865E+02  0.39442404865E+02  0.00000000000E+00 0.  1.
          1   -1    0    0  501    0  0.00000000000E+00 -0.00000000000E+00 -0.64806056309E+03  0.64806056309E+03  0.00000000000E+00 0. -1.
         25    2    1    2    0    0 -0.21936850534E+02 -0.43961927764E+02 -0.55225563522E+03  0.56837516634E+03  0.12510062581E+03 0.  0.
          5    1    3    3  502    0 -0.82284199168E+01 -0.84419055252E+02 -0.44151549999E+03  0.44960837727E+03  0.41800000000E+01 0. -1.
         -5    1    3    3    0  502 -0.13708430617E+02  0.40457127488E+02 -0.11074013524E+03  0.11876678907E+03  0.41800000000E+01 0. -1.
        -11    1    1    2    0    0  0.27736799321E+02 -0.19612147661E+02 -0.17655858341E-02  0.33970080594E+02  0.00000000000E+00 0.  1.
         11    1    1    2    0    0 -0.57999487869E+01  0.63574075426E+02 -0.56360757412E+02  0.85157721013E+02  0.00000000000E+00 0. -1.
</event>
<event>
 7    1  0.2480409E-009  0.4476465E+03  0.7561462E-02  0.1028426E+00
          2   -1    0    0  501    0  0.00000000000E+00  0.00000000000E+00  0.18709310576E+04  0.18709310576E+04  0.00000000000E+00 0. -1.
         -2   -1    0    0    0  501 -0.00000000000E+00 -0.00000000000E+00 -0.14145091725E+03  0.14145091725E+03  0.00000000000E+00 0.  1.
         25    2    1    2    0    0 -0.43697147106E+03 -0.11169833336E+02  0.38519599841E+03  0.59589642173E+03  0.12509099304E+03 0.  0.
          5    1    3    3  502    0 -0.17886819878E+03 -0.57316381372E+02  0.20293242781E+03  0.27654663759E+03  0.41800000000E+01 0. -1.
         -5    1    3    3    0  502 -0.25810327228E+03  0.46146548035E+02  0.18226357059E+03  0.31934978413E+03  0.41800000000E+01 0. -1.
        -11    1    1    2    0    0  0.38188029579E+03 -0.19049339623E+02  0.11891607458E+04  0.12491191765E+04  0.00000000000E+00 0.  1.
         11    1    1    2    0    0  0.55091175269E+02  0.30219172959E+02  0.15512339614E+03  0.16736637666E+03  0.00000000000E+00 0. -1.
</event>
<event>
 7    1  0.2480409E-009  0.1208185E+03  0.7561462E-02  0.1241753E+00
          1   -1    0    0  501    0  0.00000000000E+00  0.00000000000E+00  0.95713770708E+03  0.95713770708E+03  0.00000000000E+00 0. -1.
         -1   -1    0    0    0  501 -0.00000000000E+00 -0.00000000000E+00 -0.16567728213E+02  0.16567728213E+02  0.00000000000E+00 0.  1.
         25    2    1    2    0    0  0.40158766333E+01  0.63739485265E+02  0.57433574318E+03  0.59125951763E+03  0.12508965606E+03 0.  0.
          5    1    3    3  502    0  0.60259947702E+02  0.30857630924E+02  0.38637606389E+03  0.39228483252E+03  0.41800000000E+01 0. -1.
         -5    1    3    3    0  502 -0.56244071069E+02  0.32881854341E+02  0.18795967929E+03  0.19897468511E+03  0.41800000000E+01 0. -1.
        -11    1    1    2    0    0 -0.12931588203E+02 -0.84732935257E+02  0.25906454404E+03  0.27287604195E+03  0.00000000000E+00 0.  1.
         11    1    1    2    0    0  0.89157115697E+01  0.20993449992E+02  0.10716969165E+03  0.10956987571E+03  0.00000000000E+00 0. -1.
</event>
<event>
 7    1  0.2480409E-009  0.1769243E+03  0.7561462E-02  0.1170813E+00
         -2   -1    0    0    0  501 -0.00000000000E+00  0.00000000000E+00  0.13855743969E+03  0.13855743969E+03  0.00000000000E+00 0.  1.
          2   -1    0    0  501    0  0.00000000000E+00 -0.00000000000E+00 -0.30567614343E+03  0.30567614343E+03  0.00000000000E+00 0. -1.
         25    2    1    2    0    0 -0.12582764664E+03  0.79065934851E+02  0.13745137497E+02  0.19473207670E+03  0.12509050395E+03 0.  0.
          5    1    3    3  502    0  0.86069456292E+01  0.41135264109E+02 -0.25810637833E+02  0.49495968439E+02  0.41800000000E+01 0. -1.
         -5    1    3    3    0  502 -0.13443459227E+03  0.37930670742E+02  0.39555775330E+02  0.14523610826E+03  0.41800000000E+01 0. -1.
        -11    1    1    2    0    0  0.91171537849E+02 -0.96769564823E+02 -0.13967413720E+03  0.19283532506E+03  0.00000000000E+00 0. -1.
         11    1    1    2    0    0  0.34656108786E+02  0.17703629972E+02 -0.41189704041E+02  0.56666181355E+02  0.00000000000E+00 0.  1.
</event>
<event>
 7    1  0.2480409E-009  0.1602086E+03  0.7561462E-02  0.1188461E+00
          2   -1    0    0  501    0  0.00000000000E+00  0.00000000000E+00  0.15711132410E+04  0.15711132410E+04  0.00000000000E+00 0. -1.
         -2   -1    0    0    0  501 -0.00000000000E+00 -0.00000000000E+00 -0.22763963018E+02  0.22763963018E+02  0.00000000000E+00 0.  1.
         25    2    1    2    0    0  0.12603236416E+03  0.45540006363E+02  0.11385064104E+04  0.11531711495E+04  0.12509518139E+03 0.  0.
          5    1    3    3  502    0  0.59488571803E+02  0.74500260105E+02  0.86210462406E+03  0.86737018289E+03  0.41800000000E+01 0.  1.
         -5    1    3    3    0  502  0.66543792362E+02 -0.28960253742E+02  0.27640178636E+03  0.28580096658E+03  0.41800000000E+01 0.  1.
        -11    1    1    2    0    0 -0.38760985819E+02  0.19561446778E+02  0.58314742504E+02  0.72702636919E+02  0.00000000000E+00 0.  1.
         11    1    1    2    0    0 -0.87271378346E+02 -0.65101453141E+02  0.35152812509E+03  0.36800341766E+03  0.00000000000E+00 0. -1.
</event>
<event>
 7    1  0.2480409E-009  0.1091419E+03  0.7561462E-02  0.1262167E+00
          2   -1    0    0  501    0  0.00000000000E+00  0.00000000000E+00  0.13622176825E+03  0.13622176825E+03  0.00000000000E+00 0. -1.
         -2   -1    0    0    0  501 -0.00000000000E+00 -0.00000000000E+00 -0.93992996807E+02  0.93992996807E+02  0.00000000000E+00 0.  1.
         25    2    1    2    0    0  0.11802255113E+02  0.21905461932E+02  0.50959918698E+02  0.13734276763E+03  0.12508788918E+03 0.  0.
          5    1    3    3  502    0  0.21254790835E+02 -0.49662003987E+02  0.13191578232E+02  0.55763526697E+02  0.41800000000E+01 0.  1.
         -5    1    3    3    0  502 -0.94525357212E+01  0.71567465920E+02  0.37768340466E+02  0.81579240934E+02  0.41800000000E+01 0.  1.
        -11    1    1    2    0    0  0.15049469029E+02  0.29882291618E+02 -0.85639544360E+01  0.34536635417E+02  0.00000000000E+00 0.  1.
         11    1    1    2    0    0 -0.26851724142E+02 -0.51787753550E+02 -0.16719282100E+00  0.58335362008E+02  0.00000000000E+00 0. -1.
</event>
<event>
 7    1  0.2480409E-009  0.8416621E+02  0.7561462E-02  0.1317627E+00
          1   -1    0    0  501    0  0.00000000000E+00  0.00000000000E+00  0.14901844377E+03  0.14901844377E+03  0.00000000000E+00 0. -1.
         -1   -1    0    0    0  501 -0.00000000000E+00 -0.00000000000E+00 -0.45296336602E+03  0.45296336602E+03  0.00000000000E+00 0.  1.
         25    2    1    2    0    0 -0.38678543419E+02  0.56349049811E+02 -0.41717264518E+03  0.44085341091E+03  0.12508984325E+03 0.  0.
          5    1    3    3  502    0 -0.27759084605E+02  0.25800280429E+02 -0.21382453591E+02  0.43713876171E+02  0.41800000000E+01 0.  1.
         -5    1    3    3    0  502 -0.10919458814E+02  0.30548769383E+02 -0.39579019159E+03  0.39713953473E+03  0.41800000000E+01 0.  1.
        -11    1    1    2    0    0 -0.14912902606E+02 -0.38046231478E+02  0.80151509148E+01  0.41643163160E+02  0.00000000000E+00 0.  1.
         11    1    1    2    0    0  0.53591446025E+02 -0.18302818333E+02  0.10521257202E+03  0.11948523573E+03  0.00000000000E+00 0. -1.
</event>
<event>
 7    1  0.2480409E-009  0.1431951E+03  0.7561462E-02  0.1209093E+00
         -1   -1    0    0    0  501 -0.00000000000E+00  0.00000000000E+00  0.47334091888E+03  0.47334091888E+03  0.00000000000E+00 0.  1.
          1   -1    0    0  501    0  0.00000000000E+00 -0.00000000000E+00 -0.59267434249E+02  0.59267434249E+02  0.00000000000E+00 0. -1.
         25    2    1    2    0    0 -0.57444423188E+02 -0.96793569906E+02  0.31343979600E+03  0.35575448453E+03  0.12509152896E+03 0.  0.
          5    1    3    3  502    0 -0.40503367914E+02  0.18749406707E+01  0.20123689853E+03  0.20532364682E+03  0.41800000000E+01 0.  1.
         -5    1    3    3    0  502 -0.16941055274E+02 -0.98668510577E+02  0.11220289747E+03  0.15043083771E+03  0.41800000000E+01 0.  1.
        -11    1    1    2    0    0 -0.78378109877E+00  0.86250420686E+02  0.60132671311E+02  0.10514602960E+03  0.00000000000E+00 0. -1.
         11    1    1    2    0    0  0.58228204286E+02  0.10543149221E+02  0.40501017321E+02  0.71707838999E+02  0.00000000000E+00 0.  1.
</event>
<event>
 7    1  0.2480409E-009  0.9305773E+02  0.7561462E-02  0.1295611E+00
         -1   -1    0    0    0  501 -0.00000000000E+00  0.00000000000E+00  0.73002175645E+03  0.73002175645E+03  0.00000000000E+00 0.  1.
          1   -1    0    0  501    0  0.00000000000E+00 -0.00000000000E+00 -0.26818899501E+02  0.26818899501E+02  0.00000000000E+00 0. -1.
         25    2    1    2    0    0 -0.43704916686E+02  0.79944428065E+02  0.53635786858E+03  0.55823626376E+03  0.12508689647E+03 0.  0.
          5    1    3    3  502    0 -0.36805746963E+02  0.71088773524E+02  0.13721838808E+03  0.15891707007E+03  0.41800000000E+01 0.  1.
         -5    1    3    3    0  502 -0.68991697229E+01  0.88556545416E+01  0.39913948050E+03  0.39931919370E+03  0.41800000000E+01 0.  1.
        -11    1    1    2    0    0  0.33749204420E+02 -0.37811055761E+02  0.13685460816E+03  0.14593789265E+03  0.00000000000E+00 0.  1.
         11    1    1    2    0    0  0.99557122660E+01 -0.42133372304E+02  0.29990380202E+02  0.52666499534E+02  0.00000000000E+00 0. -1.
</event>
<event>
 7    1  0.2480409E-009  0.9191551E+02  0.7561462E-02  0.1298278E+00
         -2   -1    0    0    0  501 -0.00000000000E+00  0.00000000000E+00  0.60536677366E+02  0.60536677366E+02  0.00000000000E+00 0.  1.
          2   -1    0    0  501    0  0.00000000000E+00 -0.00000000000E+00 -0.27889022337E+03  0.27889022337E+03  0.00000000000E+00 0. -1.
         25    2    1    2    0    0 -0.30014404468E+02 -0.45007409164E+02 -0.18543033609E+03  0.23012902400E+03  0.12509367206E+03 0.  0.
          5    1    3    3  502    0 -0.17548957783E+02 -0.85352315354E+02 -0.88260960354E+02  0.12409856235E+03  0.41800000000E+01 0. -1.
         -5    1    3    3    0  502 -0.12465446685E+02  0.40344906190E+02 -0.97169375734E+02  0.10603046165E+03  0.41800000000E+01 0. -1.
        -11    1    1    2    0    0  0.65012041397E+01  0.11773861787E+02 -0.59289004209E+02  0.60795357526E+02  0.00000000000E+00 0. -1.
         11    1    1    2    0    0  0.23513200328E+02  0.33233547377E+02  0.26365794293E+02  0.48502519209E+02  0.00000000000E+00 0.  1.
</event>
<event>
 7    1  0.2480409E-009  0.7690441E+02  0.7561462E-02  0.1338073E+00
         -2   -1    0    0    0  501 -0.00000000000E+00  0.00000000000E+00  0.53910917713E+02  0.53910917713E+02  0.00000000000E+00 0.  1.
          2   -1    0    0  501    0  0.00000000000E+00 -0.00000000000E+00 -0.35384546844E+03  0.35384546844E+03  0.00000000000E+00 0. -1.
         25    2    1    2    0    0 -0.58302410099E+02  0.69445648322E+01 -0.25470414687E+03  0.28977837586E+03  0.12509958705E+03 0.  0.
          5    1    3    3  502    0 -0.15382393622E+02  0.80734338482E+01  0.10742902060E+02  0.20848997873E+02  0.41800000000E+01 0.  1.
         -5    1    3    3    0  502 -0.42920016477E+02 -0.11288690160E+01 -0.26544704893E+03  0.26892937799E+03  0.41800000000E+01 0.  1.
        -11    1    1    2    0    0  0.13433722956E+02 -0.36621479460E+02  0.10625883508E+02  0.40429037469E+02  0.00000000000E+00 0.  1.
         11    1    1    2    0    0  0.44868687143E+02  0.29676914628E+02 -0.55856287368E+02  0.77548972826E+02  0.00000000000E+00 0. -1.
</event>
<event>
 7    1  0.2480409E-009  0.6308166E+02  0.7561462E-02  0.1385336E+00
         -2   -1    0    0    0  501 -0.00000000000E+00  0.00000000000E+00  0.36686822058E+02  0.36686822058E+02  0.00000000000E+00 0.  1.
          2   -1    0    0  501    0  0.00000000000E+00 -0.00000000000E+00 -0.50343441540E+03  0.50343441540E+03  0.00000000000E+00 0. -1.
         25    2    1    2    0    0 -0.20038718461E+02 -0.61761173211E+00 -0.41635394311E+03  0.43520094041E+03  0.12508925179E+03 0.  0.
          5    1    3    3  502    0 -0.25573900798E+02  0.15299785028E+02 -0.15277443024E+02  0.33748785004E+02  0.41800000000E+01 0.  1.
         -5    1    3    3    0  502  0.55351823369E+01 -0.15917396760E+02 -0.40107650008E+03  0.40145215541E+03  0.41800000000E+01 0.  1.
        -11    1    1    2    0    0 -0.10178651168E+02  0.32930109516E+02 -0.49937999856E+02  0.60677845067E+02  0.00000000000E+00 0. -1.
         11    1    1    2    0    0  0.30217369629E+02 -0.32312497784E+02 -0.45565038474E+00  0.44242451984E+02  0.00000000000E+00 0.  1.
</event>
<event>
 7    1  0.2480409E-009  0.1848516E+03  0.7561462E-02  0.1163189E+00
         -4   -1    0    0    0  501 -0.00000000000E+00  0.00000000000E+00  0.16487811605E+03  0.16487811605E+03  0.00000000000E+00 0. -1.
          4   -1    0    0  501    0  0.00000000000E+00 -0.00000000000E+00 -0.30552053233E+03  0.30552053233E+03  0.00000000000E+00 0.  1.
         25    2    1    2    0    0  0.12817147191E+03  0.11331950939E+03 -0.17364167481E+03  0.27398451976E+03  0.12508736314E+03 0.  0.
          5    1    3    3  502    0 -0.47435898950E+01  0.67585337170E+01  0.16337256817E+02  0.18776522133E+02  0.41800000000E+01 0. -1.
         -5    1    3    3    0  502  0.13291506181E+03  0.10656097567E+03 -0.18997893163E+03  0.25520799763E+03  0.41800000000E+01 0. -1.
        -11    1    1    2    0    0 -0.77584994254E+01 -0.56258368657E+02  0.27380833608E+02  0.63046874675E+02  0.00000000000E+00 0.  1.
         11    1    1    2    0    0 -0.12041297249E+03 -0.57061140730E+02  0.56184249230E+01  0.13336725394E+03  0.00000000000E+00 0. -1.
</event>
<event>
 7    1  0.2480409E-009  0.1332465E+03  0.7561462E-02  0.1222717E+00
          2   -1    0    0  501    0  0.00000000000E+00  0.00000000000E+00  0.49390491077E+03  0.49390491077E+03  0.00000000000E+00 0.  1.
         -2   -1    0    0    0  501 -0.00000000000E+00 -0.00000000000E+00 -0.38312964576E+02  0.38312964576E+02  0.00000000000E+00 0. -1.
         25    2    1    2    0    0 -0.81042983870E+02 -0.32393276250E+02  0.26495595851E+03  0.30572621409E+03  0.12509823520E+03 0.  0.
          5    1    3    3  502    0  0.29603991274E+02 -0.93372404033E+01  0.23709118510E+02  0.39283266898E+02  0.41800000000E+01 0. -1.
         -5    1    3    3    0  502 -0.11064697514E+03 -0.23056035847E+02  0.24124684000E+03  0.26644294719E+03  0.41800000000E+01 0. -1.
        -11    1    1    2    0    0  0.72431083907E+02 -0.14943462687E+02  0.10869566744E+03  0.13146983348E+03  0.00000000000E+00 0. -1.
         11    1    1    2    0    0  0.86118999637E+01  0.47336738938E+02  0.81940320243E+02  0.95021827786E+02  0.00000000000E+00 0.  1.
</event>
<event>
 7    1  0.2480409E-009  0.2061010E+03  0.7561462E-02  0.1144691E+00
          2   -1    0    0  501    0  0.00000000000E+00  0.00000000000E+00  0.63227556269E+03  0.63227556269E+03  0.00000000000E+00 0.  1.
         -2   -1    0    0    0  501 -0.00000000000E+00 -0.00000000000E+00 -0.76689464493E+02  0.76689464493E+02  0.00000000000E+00 0. -1.
         25    2    1    2    0    0 -0.30896148221E+02 -0.18457025215E+03  0.22590606842E+03  0.31891030707E+03  0.12509789067E+03 0.  0.
          5    1    3    3  502    0 -0.39760515004E+02 -0.20148263002E+03  0.20295468458E+03  0.28876326835E+03  0.41800000000E+01 0. -1.
         -5    1    3    3    0  502  0.88643667822E+01  0.16912377866E+02  0.22951383841E+02  0.30147038723E+02  0.41800000000E+01 0. -1.
        -11    1    1    2    0    0  0.33034500506E+01  0.34555992041E+02  0.15186424196E+03  0.15578118421E+03  0.00000000000E+00 0.  1.
         11    1    1    2    0    0  0.27592698171E+02  0.15001426011E+03  0.17781578781E+03  0.23427353590E+03  0.00000000000E+00 0. -1.
</event>
<event>
 7    1  0.2480409E-009  0.1401113E+03  0.7561462E-02  0.1213179E+00
         -1   -1    0    0    0  501 -0.00000000000E+00  0.00000000000E+00  0.74651523390E+02  0.74651523390E+02  0.00000000000E+00 0. -1.
          1   -1    0    0  501    0  0.00000000000E+00 -0.00000000000E+00 -0.30842537781E+03  0.30842537781E+03  0.00000000000E+00 0.  1.
         25    2    1    2    0    0  0.10453182645E+03 -0.35671602373E+01 -0.16188873235E+03  0.22977139037E+03  0.12508917937E+03 0.  0.
          5    1    3    3  502    0  0.18520153319E+02 -0.45856162670E+02 -0.11005275611E+03  0.12072640665E+03  0.41800000000E+01 0.  1.
         -5    1    3    3    0  502  0.86011673133E+02  0.42289002433E+02 -0.51835976233E+02  0.10904498372E+03  0.41800000000E+01 0.  1.
        -11    1    1    2    0    0 -0.11291729639E+01  0.28310324978E+02 -0.21953287146E+02  0.35842661012E+02  0.00000000000E+00 0.  1.
         11    1    1    2    0    0 -0.10340265349E+03 -0.24743164741E+02 -0.49931834931E+02  0.11746284983E+03  0.00000000000E+00 0. -1.
</event>
<event>
 7    1  0.2480409E-009  0.3257490E+03  0.7561462E-02  0.1073033E+00
         -2   -1    0    0    0  501 -0.00000000000E+00  0.00000000000E+00  0.55986162227E+02  0.55986162227E+02  0.00000000000E+00 0.  1.
          2   -1    0    0  501    0  0.00000000000E+00 -0.00000000000E+00 -0.25864249431E+04  0.25864249431E+04  0.00000000000E+00 0. -1.
         25    2    1    2    0    0 -0.22683516662E+03  0.22442368416E+03 -0.18920447059E+04  0.19228372197E+04  0.12509844663E+03 0.  0.
          5    1    3    3  502    0 -0.49630543314E+02  0.35596197921E+02 -0.71603243223E+03  0.71864469423E+03  0.41800000000E+01 0. -1.
         -5    1    3    3    0  502 -0.17720462330E+03  0.18882748624E+03 -0.11760122737E+04  0.12041925255E+04  0.41800000000E+01 0. -1.
        -11    1    1    2    0    0  0.11698716405E+03 -0.54754195295E+02 -0.27251149202E+03  0.30157342678E+03  0.00000000000E+00 0.  1.
         11    1    1    2    0    0  0.10984800256E+03 -0.16966948887E+03 -0.36588258287E+03  0.41800045881E+03  0.00000000000E+00 0. -1.
</event>
<event>
 7    1  0.2480409E-009  0.1397179E+03  0.7561462E-02  0.1213709E+00
         -1   -1    0    0    0  501 -0.00000000000E+00  0.00000000000E+00  0.86661032171E+02  0.86661032171E+02  0.00000000000E+00 0.  1.
          1   -1    0    0  501    0  0.00000000000E+00 -0.00000000000E+00 -0.22668801341E+03  0.22668801341E+03  0.00000000000E+00 0. -1.
         25    2    1    2    0    0  0.88569151557E+02 -0.93817007475E+01 -0.74004520453E+02  0.17046155535E+03  0.12509181384E+03 0.  0.
          5    1    3    3  502    0  0.89273544513E+02  0.44076126019E+02 -0.53020124711E+02  0.11287637777E+03  0.41800000000E+01 0. -1.
         -5    1    3    3    0  502 -0.70439295557E+00 -0.53457826767E+02 -0.20984395742E+02  0.57585177578E+02  0.41800000000E+01 0. -1.
        -11    1    1    2    0    0 -0.95352569697E+02 -0.18788136285E+02 -0.45054787686E+02  0.10712161550E+03  0.00000000000E+00 0.  1.
         11    1    1    2    0    0  0.67834181403E+01  0.28169837033E+02 -0.20967673095E+02  0.35765874729E+02  0.00000000000E+00 0. -1.
</event>
<event>
 7    1  0.2480409E-009  0.2193967E+03  0.7561462E-02  0.1134334E+00
          3   -1    0    0  501    0  0.00000000000E+00  0.00000000000E+00  0.10939704823E+03  0.10939704823E+03  0.00000000000E+00 0. -1.
         -3   -1    0    0    0  501 -0.00000000000E+00 -0.00000000000E+00 -0.58471350218E+03  0.58471350218E+03  0.00000000000E+00 0.  1.
         25    2    1    2    0    0 -0.16790640560E+03 -0.12054339894E+03 -0.37689377132E+03  0.44768223614E+03  0.12508875900E+03 0.  0.
          5    1    3    3  502    0 -0.85730191691E+02 -0.11445975948E+03 -0.31015704685E+03  0.34156341786E+03  0.41800000000E+01 0. -1.
         -5    1    3    3    0  502 -0.82176213904E+02 -0.60836394565E+01 -0.66736724474E+02  0.10611881828E+03  0.41800000000E+01 0. -1.
        -11    1    1    2    0    0  0.63540356023E+02  0.77773680970E+02 -0.87339936556E+02  0.13309540493E+03  0.00000000000E+00 0.  1.
         11    1    1    2    0    0  0.10436604957E+03  0.42769717966E+02 -0.11082746072E+02  0.11333290934E+03  0.00000000000E+00 0. -1.
</event>
<event>
 7    1  0.2480409E-009  0.2057828E+03  0.7561462E-02  0.1144950E+00
         -1   -1    0    0    0  501 -0.00000000000E+00  0.00000000000E+00  0.27122385066E+03  0.27122385066E+03  0.00000000000E+00 0.  1.
          1   -1    0    0  501    0  0.00000000000E+00 -0.00000000000E+00 -0.22933013804E+03  0.22933013804E+03  0.00000000000E+00 0. -1.
         25    2    1    2    0    0  0.16905142554E+03 -0.72876054265E+02 -0.10721989995E+03  0.24705084411E+03  0.12509479953E+03 0.  0.
          5    1    3    3  502    0  0.14712597075E+03 -0.97407066457E+02 -0.54418092037E+02  0.18469701948E+03  0.41800000000E+01 0.  1.
         -5    1    3    3    0  502  0.21925454785E+02  0.24531012192E+02 -0.52801807913E+02  0.62353824627E+02  0.41800000000E+01 0.  1.
        -11    1    1    2    0    0 -0.10144286176E+03  0.86047467650E+02  0.11841393994E+03  0.17809177989E+03  0.00000000000E+00 0.  1.
         11    1    1    2    0    0 -0.67608563774E+02 -0.13171413385E+02  0.30699672626E+02  0.75411364697E+02  0.00000000000E+00 0. -1.
</event>
<event>
 7    1  0.2480409E-009  0.1246597E+03  0.7561462E-02  0.1235602E+00
          1   -1    0    0  501    0  0.00000000000E+00  0.00000000000E+00  0.18284428016E+03  0.18284428016E+03  0.00000000000E+00 0. -1.
         -1   -1    0    0    0  501 -0.00000000000E+00 -0.00000000000E+00 -0.16258751730E+03  0.16258751730E+03  0.00000000000E+00 0.  1.
         25    2    1    2    0    0  0.37752341376E+02  0.11288387265E+03  0.71698401359E+02  0.18697202867E+03  0.12509944350E+03 0.  0.
          5    1    3    3  502    0  0.11648550358E+01  0.14751090190E+02 -0.34492960477E+02  0.37764907937E+02  0.41800000000E+01 0.  1.
         -5    1    3    3    0  502  0.36587486341E+02  0.98132782460E+02  0.10619136184E+03  0.14920712074E+03  0.41800000000E+01 0.  1.
        -11    1    1    2    0    0  0.11623762990E+02 -0.35305887305E+02  0.19817599922E+02  0.42123091186E+02  0.00000000000E+00 0. -1.
         11    1    1    2    0    0 -0.49376104366E+02 -0.77577985344E+02 -0.71259238423E+02  0.11633667759E+03  0.00000000000E+00 0.  1.
</event>
<event>
 7    1  0.2480409E-009  0.1786167E+03  0.7561462E-02  0.1169149E+00
          4   -1    0    0  501    0  0.00000000000E+00  0.00000000000E+00  0.22145519261E+04  0.22145519261E+04  0.00000000000E+00 0. -1.
         -4   -1    0    0    0  501 -0.00000000000E+00 -0.00000000000E+00 -0.19509033865E+02  0.19509033865E+02  0.00000000000E+00 0.  1.
         25    2    1    2    0    0 -0.21487790862E+02  0.15986557340E+03  0.15484175347E+04  0.15618139232E+04  0.12508853787E+03 0.  0.
          5    1    3    3  502    0 -0.36093632662E+02  0.24834650890E+02  0.79663711856E+03  0.79785191688E+03  0.41800000000E+01 0.  1.
         -5    1    3    3    0  502  0.14605841800E+02  0.13503092251E+03  0.75178041612E+03  0.76396200633E+03  0.41800000000E+01 0.  1.
        -11    1    1    2    0    0  0.47628818810E+02 -0.77904532608E+02  0.42073493579E+03  0.43052933324E+03  0.00000000000E+00 0.  1.
         11    1    1    2    0    0 -0.26141027948E+02 -0.81961040795E+02  0.22589042177E+03  0.24171770352E+03  0.00000000000E+00 0. -1.
</event>
<event>
 7    1  0.2480409E-009  0.1445630E+03  0.7561462E-02  0.1207318E+00
         -2   -1    0    0    0  501 -0.00000000000E+00  0.00000000000E+00  0.19162688769E+03  0.19162688769E+03  0.00000000000E+00 0.  1.
          2   -1    0    0  501    0  0.00000000000E+00 -0.00000000000E+00 -0.18105604515E+03  0.18105604515E+03  0.00000000000E+00 0. -1.
         25    2    1    2    0    0  0.84294565489E+02 -0.92199780752E+02  0.90320346869E+02  0.19852014960E+03  0.12508441708E+03 0.  0.
          5    1    3    3  502    0 -0.15149747672E+02 -0.52195403285E+02  0.71019125685E+02  0.89526887535E+02  0.41800000000E+01 0. -1.
         -5    1    3    3    0  502  0.99444313160E+02 -0.40004377467E+02  0.19301221184E+02  0.10899326207E+03  0.41800000000E+01 0. -1.
        -11    1    1    2    0    0 -0.52188657004E+02  0.73649066310E+02 -0.46228238043E+01  0.90383689835E+02  0.00000000000E+00 0.  1.
         11    1    1    2    0    0 -0.32105908485E+02  0.18550714442E+02 -0.75126680518E+02  0.83779093404E+02  0.00000000000E+00 0. -1.
</event>
<event>
 7    1  0.2480409E-009  0.1025361E+03  0.7561462E-02  0.1275051E+00
          1   -1    0    0  501    0  0.00000000000E+00  0.00000000000E+00  0.18136271384E+02  0.18136271384E+02  0.00000000000E+00 0. -1.
         -1   -1    0    0    0  501 -0.00000000000E+00 -0.00000000000E+00 -0.65286417943E+03  0.65286417943E+03  0.00000000000E+00 0.  1.
         25    2    1    2    0    0 -0.61340703101E+01 -0.10982026244E+02 -0.33458263099E+03  0.35742175384E+03  0.12508613608E+03 0.  0.
          5    1    3    3  502    0 -0.34154182596E+02 -0.55061277770E+02 -0.24672540097E+03  0.25512575013E+03  0.41800000000E+01 0. -1.
         -5    1    3    3    0  502  0.28020112286E+02  0.44079251526E+02 -0.87857230021E+02  0.10229600371E+03  0.41800000000E+01 0. -1.
        -11    1    1    2    0    0  0.32311732080E+02 -0.26663626914E+02 -0.10346775660E+03  0.11162693979E+03  0.00000000000E+00 0.  1.
         11    1    1    2    0    0 -0.26177661770E+02  0.37645653158E+02 -0.19667752046E+03  0.20195175719E+03  0.00000000000E+00 0. -1.
</event>
<event>
 7    1  0.2480409E-009  0.1162982E+03  0.7561462E-02  0.1249332E+00
         -1   -1    0    0    0  501 -0.00000000000E+00  0.00000000000E+00  0.31516454354E+02  0.31516454354E+02  0.00000000000E+00 0.  1.
          1   -1    0    0  501    0  0.00000000000E+00 -0.00000000000E+00 -0.55704580984E+03  0.55704580984E+03  0.00000000000E+00 0. -1.
         25    2    1    2    0    0  0.25626238786E+02  0.47636394688E+02 -0.42176203896E+03  0.44323496458E+03  0.12509231033E+03 0.  0.
          5    1    3    3  502    0  0.61158831799E+02 -0.13517534442E+02 -0.15512059709E+03  0.16734096476E+03  0.41800000000E+01 0. -1.
         -5    1    3    3    0  502 -0.35532593013E+02  0.61153929130E+02 -0.26664144187E+03  0.27589399982E+03  0.41800000000E+01 0. -1.
        -11    1    1    2    0    0  0.29876371641E+02 -0.85121991969E+01 -0.49321231287E+02  0.58289269795E+02  0.00000000000E+00 0. -1.
         11    1    1    2    0    0 -0.55502610427E+02 -0.39124195492E+02 -0.54446085237E+02  0.87038029819E+02  0.00000000000E+00 0.  1.
</event>
<event>
 7    1  0.2480409E-009  0.6667338E+02  0.7561462E-02  0.1371785E+00
         -1   -1    0    0    0  501 -0.00000000000E+00  0.00000000000E+00  0.18504510086E+03  0.18504510086E+03  0.00000000000E+00 0.  1.
          1   -1    0    0  501    0  0.00000000000E+00 -0.00000000000E+00 -0.81168986140E+02  0.81168986140E+02  0.00000000000E+00 0. -1.
         25    2    1    2    0    0 -0.25062565155E+02 -0.48934613309E+02  0.56395015678E+02  0.14781162345E+03  0.12508057276E+03 0.  0.
          5    1    3    3  502    0  0.18617789656E+01 -0.28768017581E+02 -0.37788967060E+02  0.47713137478E+02  0.41800000000E+01 0.  1.
         -5    1    3    3    0  502 -0.26924344120E+02 -0.20166595728E+02  0.94183982738E+02  0.10009848597E+03  0.41800000000E+01 0.  1.
        -11    1    1    2    0    0 -0.10945442723E+02  0.24412519001E+02  0.65884843089E+02  0.71109678309E+02  0.00000000000E+00 0.  1.
         11    1    1    2    0    0  0.36008007877E+02  0.24522094308E+02 -0.18403744050E+02  0.47292785238E+02  0.00000000000E+00 0. -1.
</event>
<event>
 7    1  0.2480409E-009  0.9850746E+02  0.7561462E-02  0.1283466E+00
         -2   -1    0    0    0  501 -0.00000000000E+00  0.00000000000E+00  0.65060553242E+02  0.65060553242E+02  0.00000000000E+00 0.  1.
          2   -1    0    0  501    0  0.00000000000E+00 -0.00000000000E+00 -0.18853354744E+03  0.18853354744E+03  0.00000000000E+00 0. -1.
         25    2    1    2    0    0 -0.42513795319E+01  0.19849133920E+02 -0.58954248284E+02  0.13977077758E+03  0.12509278368E+03 0.  0.
          5    1    3    3  502    0  0.48495288991E+02  0.68210611593E+01 -0.68641364426E+02  0.84424103430E+02  0.41800000000E+01 0.  1.
         -5    1    3    3    0  502 -0.52746668523E+02  0.13028072760E+02  0.96871161425E+01  0.55346674148E+02  0.41800000000E+01 0.  1.
        -11    1    1    2    0    0  0.47661703066E+02 -0.75770336851E+01 -0.28092753457E+02  0.55841312444E+02  0.00000000000E+00 0.  1.
         11    1    1    2    0    0 -0.43410323534E+02 -0.12272100235E+02 -0.36425992453E+02  0.57982010656E+02  0.00000000000E+00 0. -1.
</event>
<event>
 7    1  0.2480409E-009  0.9599791E+02  0.7561462E-02  0.1288944E+00
         -1   -1    0    0    0  501 -0.00000000000E+00  0.00000000000E+00  0.15354985876E+03  0.15354985876E+03  0.00000000000E+00 0.  1.
          1   -1    0    0  501    0  0.00000000000E+00 -0.00000000000E+00 -0.81984014447E+02  0.81984014447E+02  0.00000000000E+00 0. -1.
         25    2    1    2    0    0  0.16679747434E+02  0.16909838914E+02  0.14895463737E+02  0.12819350626E+03  0.12509014182E+03 0.  0.
          5    1    3    3  502    0 -0.16907685089E+02 -0.35345791317E+02 -0.31582703064E+02  0.50498854559E+02  0.41800000000E+01 0.  1.
         -5    1    3    3    0  502  0.33587432524E+02  0.52255630231E+02  0.46478166801E+02  0.77694651705E+02  0.41800000000E+01 0.  1.
        -11    1    1    2    0    0 -0.19642594345E+02  0.34037721495E+02  0.31882571391E+02  0.50605299680E+02  0.00000000000E+00 0.  1.
         11    1    1    2    0    0  0.29628469109E+01 -0.50947560409E+02  0.24787809189E+02  0.56735067268E+02  0.00000000000E+00 0. -1.
</event>
<event>
 7    1  0.2480409E-009  0.1425813E+03  0.7561462E-02  0.1209897E+00
         -2   -1    0    0    0  501 -0.00000000000E+00  0.00000000000E+00  0.13594505931E+02  0.13594505931E+02  0.00000000000E+00 0.  1.
          2   -1    0    0  501    0  0.00000000000E+00 -0.00000000000E+00 -0.17877904664E+04  0.17877904664E+04  0.00000000000E+00 0. -1.
         25    2    1    2    0    0  0.66299250698E+02 -0.77640828370E+02 -0.12112299112E+04  0.12219447066E+04  0.12508908566E+03 0.  0.
          5    1    3    3  502    0  0.62691696920E+02  0.70247421310E+01 -0.28976513373E+03  0.29658203080E+03  0.41800000000E+01 0.  1.
         -5    1    3    3    0  502  0.36075537781E+01 -0.84665570501E+02 -0.92146477750E+03  0.92536267584E+03  0.41800000000E+01 0.  1.
        -11    1    1    2    0    0 -0.55261249752E+02  0.98814332442E+02 -0.47272061203E+03  0.48608934885E+03  0.00000000000E+00 0. -1.
         11    1    1    2    0    0 -0.11038000946E+02 -0.21173504072E+02 -0.90245437200E+02  0.93350916841E+02  0.00000000000E+00 0.  1.
</event>
<event>
 7    1  0.2480409E-009  0.1256479E+03  0.7561462E-02  0.1234060E+00
          1   -1    0    0  501    0  0.00000000000E+00  0.00000000000E+00  0.10808391576E+03  0.10808391576E+03  0.00000000000E+00 0. -1.
         -1   -1    0    0    0  501 -0.00000000000E+00 -0.00000000000E+00 -0.16747967078E+03  0.16747967078E+03  0.00000000000E+00 0.  1.
         25    2    1    2    0    0  0.58248903633E+02  0.34724574979E+02 -0.70071525961E+02  0.15860580854E+03  0.12508818037E+03 0.  0.
          5    1    3    3  502    0  0.92691117742E+02  0.93506079021E-01 -0.39573579571E+02  0.10087215994E+03  0.41800000000E+01 0. -1.
         -5    1    3    3    0  502 -0.34442214109E+02  0.34631068900E+02 -0.30497946391E+02  0.57733648594E+02  0.41800000000E+01 0. -1.
        -11    1    1    2    0    0 -0.63577696598E+02  0.10077677557E+02 -0.13498499438E+02  0.65771517975E+02  0.00000000000E+00 0.  1.
         11    1    1    2    0    0  0.53287929647E+01 -0.44802252536E+02  0.24174270383E+02  0.51186260025E+02  0.00000000000E+00 0. -1.
</event>
<event>
 7    1  0.2480409E-009  0.1192689E+03  0.7561462E-02  0.1244308E+00
          2   -1    0    0  501    0  0.00000000000E+00  0.00000000000E+00  0.23030109648E+03  0.23030109648E+03  0.00000000000E+00 0. -1.
         -2   -1    0    0    0  501 -0.00000000000E+00 -0.00000000000E+00 -0.14393355495E+03  0.14393355495E+03  0.00000000000E+00 0.  1.
         25    2    1    2    0    0 -0.32499670057E+02 -0.10085373049E+03  0.14831817887E+03  0.22107356188E+03  0.12509010382E+03 0.  0.
          5    1    3    3  502    0 -0.18248960345E+01 -0.53247574894E+02 -0.86600536058E+01  0.54139665737E+02  0.41800000000E+01 0. -1.
         -5    1    3    3    0  502 -0.30674774022E+02 -0.47606155596E+02  0.15697823247E+03  0.16693389614E+03  0.41800000000E+01 0. -1.
        -11    1    1    2    0    0 -0.23329384975E+02  0.26082020120E+02 -0.47092519572E+02  0.58670583570E+02  0.00000000000E+00 0.  1.
         11    1    1    2    0    0  0.55829055032E+02  0.74771710370E+02 -0.14858117761E+02  0.94490505983E+02  0.00000000000E+00 0. -1.
</event>
<event>
 7    1  0.2570231E-009  0.1288257E+03  0.7561462E-02  0.1229209E+00
          2   -1    0    0  501    0  0.00000000000E+00  0.00000000000E+00  0.80493458459E+03  0.80493458459E+03  0.00000000000E+00 0. -1.
         -2   -1    0    0    0  501 -0.00000000000E+00 -0.00000000000E+00 -0.23843989338E+02  0.23843989338E+02  0.00000000000E+00 0.  1.
         25    2    1    2    0    0  0.80814839082E+02 -0.13506106366E+02  0.35154868968E+03  0.38203102348E+03  0.12509104108E+03 0.  0.
          5    1    3    3  502    0 -0.23102081070E+02  0.23573612880E+02  0.13397935074E+03  0.13804839803E+03  0.41800000000E+01 0.  1.
         -5    1    3    3    0  502  0.10391692015E+03 -0.37079719247E+02  0.21756933894E+03  0.24398262545E+03  0.41800000000E+01 0.  1.
        -11    1    1    2    0    0 -0.59004608439E+02  0.46011365461E+02  0.19314750139E+03  0.20713412771E+03  0.00000000000E+00 0.  1.
         11    1    1    2    0    0 -0.21810230643E+02 -0.32505259095E+02  0.23639440417E+03  0.23961342273E+03  0.00000000000E+00 0. -1.
</event>
<event>
 7    1  0.2480409E-009  0.1428387E+03  0.7561462E-02  0.1209559E+00
          2   -1    0    0  501    0  0.00000000000E+00  0.00000000000E+00  0.13256216546E+03  0.13256216546E+03  0.00000000000E+00 0. -1.
         -2   -1    0    0    0  501 -0.00000000000E+00 -0.00000000000E+00 -0.26299330774E+03  0.26299330774E+03  0.00000000000E+00 0.  1.
         25    2    1    2    0    0 -0.97650865917E+02 -0.32129240800E+02 -0.18832699574E+03  0.24835856927E+03  0.12508773671E+03 0.  0.
          5    1    3    3  502    0 -0.39862336038E+02  0.46637725850E+02 -0.51660962143E+02  0.80314448989E+02  0.41800000000E+01 0. -1.
         -5    1    3    3    0  502 -0.57788529878E+02 -0.78766966650E+02 -0.13666603360E+03  0.16804412028E+03  0.41800000000E+01 0. -1.
        -11    1    1    2    0    0 -0.62832956343E+01  0.20945284106E+02  0.33250584757E+02  0.39796810387E+02  0.00000000000E+00 0.  1.
         11    1    1    2    0    0  0.10393416155E+03  0.11183956694E+02  0.24645268709E+02  0.10740009355E+03  0.00000000000E+00 0. -1.
</event>
<event>
 7    1  0.2480409E-009  0.1123084E+03  0.7561462E-02  0.1256354E+00
         -3   -1    0    0    0  501 -0.00000000000E+00  0.00000000000E+00  0.25139360200E+03  0.25139360200E+03  0.00000000000E+00 0.  1.
          3   -1    0    0  501    0  0.00000000000E+00 -0.00000000000E+00 -0.83312123905E+02  0.83312123905E+02  0.00000000000E+00 0. -1.
         25    2    1    2    0    0  0.39243891951E+02  0.22683636816E+02  0.19265769179E+03  0.23413539246E+03  0.12509102829E+03 0.  0.
          5    1    3    3  502    0  0.51127158518E+02  0.67365261814E+02  0.14276010047E+03  0.16598187709E+03  0.41800000000E+01 0. -1.
         -5    1    3    3    0  502 -0.11883266566E+02 -0.44681624998E+02  0.49897591325E+02  0.68153515367E+02  0.41800000000E+01 0. -1.
        -11    1    1    2    0    0 -0.32879552853E+02  0.27543297322E+02  0.28576101433E+01  0.42986790516E+02  0.00000000000E+00 0.  1.
         11    1    1    2    0    0 -0.63643390984E+01 -0.50226934138E+02 -0.27433823846E+02  0.57583542925E+02  0.00000000000E+00 0. -1.
</event>
<event>
 7    1  0.2480409E-009  0.9890090E+02  0.7561462E-02  0.1282624E+00
          1   -1    0    0  501    0  0.00000000000E+00  0.00000000000E+00  0.50853150914E+03  0.50853150914E+03  0.00000000000E+00 0. -1.
         -1   -1    0    0    0  501 -0.00000000000E+00 -0.00000000000E+00 -0.29826610530E+02  0.29826610530E+02  0.00000000000E+00 0.  1.
         25    2    1    2    0    0  0.14734058131E+02  0.17028850960E+02  0.38145118973E+03  0.40206953551E+03  0.12509127472E+03 0.  0.
          5    1    3    3  502    0  0.37558975825E+01  0.63911215584E+02  0.11888468205E+03  0.13509178461E+03  0.41800000000E+01 0. -1.
         -5    1    3    3    0  502  0.10978160549E+02 -0.46882364623E+02  0.26256650768E+03  0.26697775090E+03  0.41800000000E+01 0. -1.
        -11    1    1    2    0    0 -0.48013941229E+02 -0.19758972492E+02  0.27041567995E+02  0.58540600833E+02  0.00000000000E+00 0.  1.
         11    1    1    2    0    0  0.33279883098E+02  0.27301215318E+01  0.70212140888E+02  0.77747983322E+02  0.00000000000E+00 0. -1.
</event>
<event>
 7    1  0.2480409E-009  0.1317513E+03  0.7561462E-02  0.1224880E+00
          2   -1    0    0  501    0  0.00000000000E+00  0.00000000000E+00  0.43173441534E+02  0.43173441534E+02  0.00000000000E+00 0. -1.
         -2   -1    0    0    0  501 -0.00000000000E+00 -0.00000000000E+00 -0.53642590543E+03  0.53642590543E+03  0.00000000000E+00 0.  1.
         25    2    1    2    0    0 -0.58884598579E+02 -0.76493457086E+02 -0.35351605143E+03  0.38722074613E+03  0.12509061791E+03 0.  0.
          5    1    3    3  502    0  0.20070223792E+02 -0.75064982322E+02 -0.15239558984E+03  0.17111240065E+03  0.41800000000E+01 0.  1.
         -5    1    3    3    0  502 -0.78954822371E+02 -0.14284747642E+01 -0.20112046158E+03  0.21610834547E+03  0.41800000000E+01 0.  1.
        -11    1    1    2    0    0  0.43909029004E+01  0.41755989895E+02 -0.11628228155E+03  0.12363014084E+03  0.00000000000E+00 0.  1.
         11    1    1    2    0    0  0.54493695678E+02  0.34737467192E+02 -0.23454130920E+02  0.68748460003E+02  0.00000000000E+00 0. -1.
</event>
<event>
 7    1  0.2480409E-009  0.1452067E+03  0.7561462E-02  0.1206490E+00
          1   -1    0    0  501    0  0.00000000000E+00  0.00000000000E+00  0.12598768554E+04  0.12598768554E+04  0.00000000000E+00 0. -1.
         -1   -1    0    0    0  501 -0.00000000000E+00 -0.00000000000E+00 -0.34460812334E+02  0.34460812334E+02  0.00000000000E+00 0.  1.
         25    2    1    2    0    0 -0.10154339898E+03  0.59479798929E+02  0.10496786494E+04  0.10636363627E+04  0.12509251247E+03 0.  0.
          5    1    3    3  502    0  0.13339259525E+02  0.78129014089E+01  0.17228108537E+02  0.23521424210E+02  0.41800000000E+01 0. -1.
         -5    1    3    3    0  502 -0.11488265850E+03  0.51666897520E+02  0.10324505408E+04  0.10401149385E+04  0.41800000000E+01 0. -1.
        -11    1    1    2    0    0  0.57089686412E+02  0.17291495272E+02  0.84612764351E+02  0.10352559101E+03  0.00000000000E+00 0.  1.
         11    1    1    2    0    0  0.44453712566E+02 -0.76771294201E+02  0.91124629356E+02  0.12717571407E+03  0.00000000000E+00 0. -1.
</event>
<event>
 7    1  0.2480409E-009  0.2754362E+03  0.7561462E-02  0.1098208E+00
         -2   -1    0    0    0  501 -0.00000000000E+00  0.00000000000E+00  0.80649889978E+02  0.80649889978E+02  0.00000000000E+00 0.  1.
          2   -1    0    0  501    0  0.00000000000E+00 -0.00000000000E+00 -0.10667415088E+04  0.10667415088E+04  0.00000000000E+00 0. -1.
         25    2    1    2    0    0 -0.18609976543E+03  0.19477200606E+03 -0.58049128077E+03  0.65206269419E+03  0.12508546304E+03 0.  0.
          5    1    3    3  502    0 -0.11710317281E+03  0.67424785486E+02 -0.17288148017E+03  0.21946465174E+03  0.41800000000E+01 0. -1.
         -5    1    3    3    0  502 -0.68996592624E+02  0.12734722057E+03 -0.40760980060E+03  0.43259804244E+03  0.41800000000E+01 0. -1.
        -11    1    1    2    0    0  0.34192824321E+02 -0.52518533848E+02 -0.16888183304E+03  0.18013444746E+03  0.00000000000E+00 0. -1.
         11    1    1    2    0    0  0.15190694111E+03 -0.14225347221E+03 -0.23671850504E+03  0.31519425715E+03  0.00000000000E+00 0.  1.
</event>
<event>
 7    1  0.2480409E-009  0.1108267E+03  0.7561462E-02  0.1259047E+00
          2   -1    0    0  501    0  0.00000000000E+00  0.00000000000E+00  0.18148699752E+03  0.18148699752E+03  0.00000000000E+00 0. -1.
         -2   -1    0    0    0  501 -0.00000000000E+00 -0.00000000000E+00 -0.82759662491E+02  0.82759662491E+02  0.00000000000E+00 0.  1.
         25    2    1    2    0    0 -0.36080317923E+02 -0.95821608097E+01  0.91621812365E+01  0.13086270748E+03  0.12508994962E+03 0.  0.
          5    1    3    3  502    0  0.92119386107E+01  0.52391666810E+02  0.81779099821E+01  0.53982378382E+02  0.41800000000E+01 0.  1.
         -5    1    3    3    0  502 -0.45292256534E+02 -0.61973827619E+02  0.98427125435E+00  0.76880329094E+02  0.41800000000E+01 0.  1.
        -11    1    1    2    0    0  0.46048529315E+02  0.39009202862E+02  0.32839025891E+02  0.68706525028E+02  0.00000000000E+00 0.  1.
         11    1    1    2    0    0 -0.99682113917E+01 -0.29427042052E+02  0.56726127901E+02  0.64677427507E+02  0.00000000000E+00 0. -1.
</event>
<event>
 7    1  0.2480409E-009  0.8153322E+02  0.7561462E-02  0.1324756E+00
         -2   -1    0    0    0  501 -0.00000000000E+00  0.00000000000E+00  0.82666895889E+02  0.82666895889E+02  0.00000000000E+00 0. -1.
          2   -1    0    0  501    0  0.00000000000E+00 -0.00000000000E+00 -0.18487328219E+03  0.18487328219E+03  0.00000000000E+00 0.  1.
         25    2    1    2    0    0  0.13591968120E+02 -0.45744884682E+01  0.67239738768E+01  0.12609001858E+03  0.12509122039E+03 0.  0.
          5    1    3    3  502    0  0.81926733765E+01  0.40867170688E+02  0.48430861428E+02  0.64033321605E+02  0.41800000000E+01 0.  1.
         -5    1    3    3    0  502  0.53992947434E+01 -0.45441659156E+02 -0.41706887551E+02  0.62056696978E+02  0.41800000000E+01 0.  1.
        -11    1    1    2    0    0 -0.43414393335E+02  0.10850139716E+02 -0.10021578901E+03  0.10975308400E+03  0.00000000000E+00 0.  1.
         11    1    1    2    0    0  0.29822425215E+02 -0.62756512476E+01 -0.87145711643E+01  0.31697075494E+02  0.00000000000E+00 0. -1.
</event>
<event>
 7    1  0.2480409E-009  0.5661980E+02  0.7561462E-02  0.1412590E+00
          1   -1    0    0  501    0  0.00000000000E+00  0.00000000000E+00  0.49817371239E+03  0.49817371239E+03  0.00000000000E+00 0. -1.
         -1   -1    0    0    0  501 -0.00000000000E+00 -0.00000000000E+00 -0.29032596313E+02  0.29032596313E+02  0.00000000000E+00 0.  1.
         25    2    1    2    0    0 -0.39569582943E+02 -0.20919420068E+02  0.30060760414E+03  0.32865695914E+03  0.12508833317E+03 0.  0.
          5    1    3    3  502    0 -0.23792927034E+02  0.39194575177E+01 -0.20357424005E+01  0.24557731393E+02  0.41800000000E+01 0. -1.
         -5    1    3    3    0  502 -0.15776655910E+02 -0.24838877586E+02  0.30264334654E+03  0.30409922775E+03  0.41800000000E+01 0. -1.
        -11    1    1    2    0    0  0.31417198312E+02 -0.50552348639E+01  0.16834359477E+03  0.17132472573E+03  0.00000000000E+00 0. -1.
         11    1    1    2    0    0  0.81523846313E+01  0.25974654932E+02  0.18991717078E+00  0.27224623827E+02  0.00000000000E+00 0.  1.
</event>
<event>
 7    1  0.2480409E-009  0.1091682E+03  0.7561462E-02  0.1262118E+00
         -2   -1    0    0    0  501 -0.00000000000E+00  0.00000000000E+00  0.20685126772E+03  0.20685126772E+03  0.00000000000E+00 0.  1.
          2   -1    0    0  501    0  0.00000000000E+00 -0.00000000000E+00 -0.86743337077E+02  0.86743337077E+02  0.00000000000E+00 0. -1.
         25    2    1    2    0    0 -0.54937766908E+02 -0.55029618948E+02  0.83245163512E+02  0.16918822534E+03  0.12509388935E+03 0.  0.
          5    1    3    3  502    0 -0.75993811303E+02 -0.58597732250E+02  0.10225451574E+03  0.14029330693E+03  0.41800000000E+01 0.  1.
         -5    1    3    3    0  502  0.21056044395E+02  0.35681133027E+01 -0.19009352224E+02  0.28894918413E+02  0.41800000000E+01 0.  1.
        -11    1    1    2    0    0 -0.55571125718E+00  0.43924489587E+02 -0.16207155238E+02  0.46822446341E+02  0.00000000000E+00 0. -1.
         11    1    1    2    0    0  0.55493478165E+02  0.11105129361E+02  0.53069922373E+02  0.77583933116E+02  0.00000000000E+00 0.  1.
</event>
<event>
 7    1  0.2480409E-009  0.9938358E+02  0.7561462E-02  0.1281598E+00
          1   -1    0    0  501    0  0.00000000000E+00  0.00000000000E+00  0.27671670538E+02  0.27671670538E+02  0.00000000000E+00 0. -1.
         -1   -1    0    0    0  501 -0.00000000000E+00 -0.00000000000E+00 -0.55156548929E+03  0.55156548929E+03  0.00000000000E+00 0.  1.
         25    2    1    2    0    0  0.21515518389E+02 -0.27506842685E+02 -0.17757731373E+03  0.22000256071E+03  0.12509148830E+03 0.  0.
          5    1    3    3  502    0  0.23262031413E+02 -0.68724500820E+02 -0.56597092706E+02  0.92113421504E+02  0.41800000000E+01 0.  1.
         -5    1    3    3    0  502 -0.17465130242E+01  0.41217658135E+02 -0.12098022102E+03  0.12788913921E+03  0.41800000000E+01 0.  1.
        -11    1    1    2    0    0 -0.34801246390E+02  0.48553264280E+02 -0.30658919750E+03  0.31235473783E+03  0.00000000000E+00 0.  1.
         11    1    1    2    0    0  0.13285728002E+02 -0.21046421595E+02 -0.39727307528E+02  0.46879861283E+02  0.00000000000E+00 0. -1.
</event>
<event>
 7    1  0.2480409E-009  0.9102145E+02  0.7561462E-02  0.1300397E+00
         -1   -1    0    0    0  501 -0.00000000000E+00  0.00000000000E+00  0.31323261150E+03  0.31323261150E+03  0.00000000000E+00 0.  1.
          1   -1    0    0  501    0  0.00000000000E+00 -0.00000000000E+00 -0.43534385078E+02  0.43534385078E+02  0.00000000000E+00 0. -1.
         25    2    1    2    0    0 -0.63352086989E+01  0.31425061171E+02  0.10953216582E+03  0.16932873035E+03  0.12508898525E+03 0.  0.
          5    1    3    3  502    0  0.25504238070E+02  0.46515323069E+02 -0.10195279733E+01  0.53222676343E+02  0.41800000000E+01 0. -1.
         -5    1    3    3    0  502 -0.31839446769E+02 -0.15090261899E+02  0.11055169380E+03  0.11610605400E+03  0.41800000000E+01 0. -1.
        -11    1    1    2    0    0 -0.34205453795E+01 -0.61569627635E+02  0.78379052150E+02  0.99728606697E+02  0.00000000000E+00 0. -1.
         11    1    1    2    0    0  0.97557540784E+01  0.30144566464E+02  0.81787008444E+02  0.87709659532E+02  0.00000000000E+00 0.  1.
</event>
<event>
 7    1  0.2480409E-009  0.9391577E+02  0.7561462E-02  0.1293637E+00
          2   -1    0    0  501    0  0.00000000000E+00  0.00000000000E+00  0.50261351080E+02  0.50261351080E+02  0.00000000000E+00 0. -1.
         -2   -1    0    0    0  501 -0.00000000000E+00 -0.00000000000E+00 -0.22729142552E+03  0.22729142552E+03  0.00000000000E+00 0.  1.
         25    2    1    2    0    0 -0.17744154586E+01 -0.10249937646E+01 -0.13299252180E+03  0.18258584788E+03  0.12508549808E+03 0.  0.
          5    1    3    3  502    0  0.60655888140E+02  0.16176774343E+01 -0.50750062636E+02  0.79213603023E+02  0.41800000000E+01 0.  1.
         -5    1    3    3    0  502 -0.62430303598E+02 -0.26426711989E+01 -0.82242459163E+02  0.10337224486E+03  0.41800000000E+01 0.  1.
        -11    1    1    2    0    0  0.31069835655E+02  0.11707026303E+02 -0.52983279234E+02  0.62526930445E+02  0.00000000000E+00 0.  1.
         11    1    1    2    0    0 -0.29295420197E+02 -0.10682032538E+02  0.89457265916E+01  0.32439998272E+02  0.00000000000E+00 0. -1.
</event>
<event>
 7    1  0.2480409E-009  0.9145424E+02  0.7561462E-02  0.1299368E+00
          1   -1    0    0  501    0  0.00000000000E+00  0.00000000000E+00  0.57380476757E+02  0.57380476757E+02  0.00000000000E+00 0. -1.
         -1   -1    0    0    0  501 -0.00000000000E+00 -0.00000000000E+00 -0.29133615927E+03  0.29133615927E+03  0.00000000000E+00 0.  1.
         25    2    1    2    0    0 -0.49444844978E+02 -0.50602284022E+02 -0.10876999565E+03  0.18023589983E+03  0.12509469929E+03 0.  0.
          5    1    3    3  502    0 -0.47062927883E+02 -0.56387540723E+02 -0.24051378178E+01  0.73605237705E+02  0.41800000000E+01 0.  1.
         -5    1    3    3    0  502 -0.23819170957E+01  0.57852567014E+01 -0.10636485783E+03  0.10663066213E+03  0.41800000000E+01 0.  1.
        -11    1    1    2    0    0 -0.12155047701E+01 -0.17165063359E+02 -0.57824817898E+02  0.60330973943E+02  0.00000000000E+00 0.  1.
         11    1    1    2    0    0  0.50660349748E+02  0.67767347381E+02 -0.67360868971E+02  0.10814976226E+03  0.00000000000E+00 0. -1.
</event>
<event>
 7    1  0.2480409E-009  0.1130872E+03  0.7561462E-02  0.1254957E+00
         -2   -1    0    0    0  501 -0.00000000000E+00  0.00000000000E+00  0.47213943619E+02  0.47213943619E+02  0.00000000000E+00 0.  1.
          2   -1    0    0  501    0  0.00000000000E+00 -0.00000000000E+00 -0.29647789744E+03  0.29647789744E+03  0.00000000000E+00 0. -1.
         25    2    1    2    0    0  0.32083755002E+02  0.41418433031E+02 -0.14804964807E+03  0.20077581463E+03  0.12508947004E+03 0.  0.
          5    1    3    3  502    0  0.38169041668E+02 -0.36701322670E+02 -0.36724843188E+02  0.64575919155E+02  0.41800000000E+01 0. -1.
         -5    1    3    3    0  502 -0.60852866662E+01  0.78119755701E+02 -0.11132480488E+03  0.13619989547E+03  0.41800000000E+01 0. -1.
        -11    1    1    2    0    0 -0.58116210003E+02 -0.34766568314E+02 -0.47074592707E+02  0.82475604975E+02  0.00000000000E+00 0.  1.
         11    1    1    2    0    0  0.26032455001E+02 -0.66518647169E+01 -0.54139713042E+02  0.60440421457E+02  0.00000000000E+00 0. -1.
</event>
<event>
 7    1  0.2480409E-009  0.1830193E+03  0.7561462E-02  0.1164912E+00
          2   -1    0    0  501    0  0.00000000000E+00  0.00000000000E+00  0.51446736194E+03  0.51446736194E+03  0.00000000000E+00 0. -1.
         -2   -1    0    0    0  501 -0.00000000000E+00 -0.00000000000E+00 -0.84412585196E+02  0.84412585196E+02  0.00000000000E+00 0.  1.
         25    2    1    2    0    0  0.16274572602E+03  0.11304494219E+02  0.23927046849E+03  0.31545525250E+03  0.12509075230E+03 0.  0.
          5    1    3    3  502    0  0.12226934637E+03  0.33433877693E+02  0.80858184853E+02  0.15040989228E+03  0.41800000000E+01 0. -1.
         -5    1    3    3    0  502  0.40476379652E+02 -0.22129383474E+02  0.15841228364E+03  0.16504536022E+03  0.41800000000E+01 0. -1.
        -11    1    1    2    0    0 -0.12566235003E+03  0.37922805190E+02  0.72264056252E+02  0.14983744256E+03  0.00000000000E+00 0.  1.
         11    1    1    2    0    0 -0.37083375991E+02 -0.49227299409E+02  0.11852025200E+03  0.13358725207E+03  0.00000000000E+00 0. -1.
</event>
<event>
 7    1  0.2480409E-009  0.1234174E+03  0.7561462E-02  0.1237563E+00
         -2   -1    0    0    0  501 -0.00000000000E+00  0.00000000000E+00  0.69659555732E+03  0.69659555732E+03  0.00000000000E+00 0.  1.
          2   -1    0    0  501    0  0.00000000000E+00 -0.00000000000E+00 -0.30954463985E+02  0.30954463985E+02  0.00000000000E+00 0. -1.
         25    2    1    2    0    0  0.46931470595E+01  0.98946394481E+02  0.36962787980E+03  0.40259730225E+03  0.12508958246E+03 0.  0.
          5    1    3    3  502    0 -0.15166540983E+02  0.42144251849E+01 -0.38689231173E+01  0.16739961503E+02  0.41800000000E+01 0.  1.
         -5    1    3    3    0  502  0.19859688042E+02  0.94731969296E+02  0.37349680292E+03  0.38585734074E+03  0.41800000000E+01 0.  1.
        -11    1    1    2    0    0 -0.42561648248E+02 -0.22010593541E+02  0.94515725456E+02  0.10596783705E+03  0.00000000000E+00 0.  1.
         11    1    1    2    0    0  0.37868501189E+02 -0.76935800940E+02  0.20149748808E+03  0.21898488201E+03  0.00000000000E+00 0. -1.
</event>
<event>
 7    1  0.2480409E-009  0.1065733E+03  0.7561462E-02  0.1267050E+00
         -1   -1    0    0    0  501 -0.00000000000E+00  0.00000000000E+00  0.50357671284E+02  0.50357671284E+02  0.00000000000E+00 0.  1.
          1   -1    0    0  501    0  0.00000000000E+00 -0.00000000000E+00 -0.30556827398E+03  0.30556827398E+03  0.00000000000E+00 0. -1.
         25    2    1    2    0    0  0.56594303503E+02  0.37593151526E+01 -0.12006335879E+03  0.18242810131E+03  0.12509098443E+03 0.  0.
          5    1    3    3  502    0 -0.36788712488E+01  0.50902496461E+02 -0.82459197217E+02  0.97064874416E+02  0.41800000000E+01 0.  1.
         -5    1    3    3    0  502  0.60273174752E+02 -0.47143181308E+02 -0.37604161568E+02  0.85363226894E+02  0.41800000000E+01 0.  1.
        -11    1    1    2    0    0 -0.55174115805E+02  0.22079801709E+02 -0.13512912891E+03  0.14761972151E+03  0.00000000000E+00 0. -1.
         11    1    1    2    0    0 -0.14201876981E+01 -0.25839116862E+02 -0.18115004119E-01  0.25878122449E+02  0.00000000000E+00 0.  1.
</event>
<event>
 7    1  0.2480409E-009  0.1005712E+03  0.7561462E-02  0.1279099E+00
          1   -1    0    0  501    0  0.00000000000E+00  0.00000000000E+00  0.60295777675E+03  0.60295777675E+03  0.00000000000E+00 0. -1.
         -1   -1    0    0    0  501 -0.00000000000E+00 -0.00000000000E+00 -0.26467465712E+02  0.26467465712E+02  0.00000000000E+00 0.  1.
         25    2    1    2    0    0  0.35846309729E+02  0.22596529893E+02  0.45619245589E+03  0.47492630927E+03  0.12509149187E+03 0.  0.
          5    1    3    3  502    0  0.68199627569E+02  0.25885789510E+02  0.41909298703E+03  0.42541470059E+03  0.41800000000E+01 0. -1.
         -5    1    3    3    0  502 -0.32353317840E+02 -0.32892596171E+01  0.37099468856E+02  0.49511608674E+02  0.41800000000E+01 0. -1.
        -11    1    1    2    0    0  0.13579513400E+02 -0.40502799706E+02  0.39993583487E+02  0.58518088557E+02  0.00000000000E+00 0.  1.
         11    1    1    2    0    0 -0.49425823129E+02  0.17906269812E+02  0.80304271666E+02  0.95980844643E+02  0.00000000000E+00 0. -1.
</event>
<event>
 7    1  0.2480409E-009  0.1019301E+03  0.7561462E-02  0.1276289E+00
         -2   -1    0    0    0  501 -0.00000000000E+00  0.00000000000E+00  0.29241994523E+02  0.29241994523E+02  0.00000000000E+00 0.  1.
          2   -1    0    0  501    0  0.00000000000E+00 -0.00000000000E+00 -0.73483502744E+03  0.73483502744E+03  0.00000000000E+00 0. -1.
         25    2    1    2    0    0 -0.23719825534E+02  0.73259502065E+02 -0.54583173544E+03  0.56525075994E+03  0.12508618405E+03 0.  0.
          5    1    3    3  502    0  0.99084370191E+01  0.19784042577E+02 -0.82925273291E+01  0.23996330435E+02  0.41800000000E+01 0. -1.
         -5    1    3    3    0  502 -0.33628262553E+02  0.53475459488E+02 -0.53753920811E+03  0.54125442951E+03  0.41800000000E+01 0. -1.
        -11    1    1    2    0    0  0.30542195924E+02 -0.92609696094E+02 -0.13727673139E+03  0.16838729917E+03  0.00000000000E+00 0. -1.
         11    1    1    2    0    0 -0.68223703893E+01  0.19350194030E+02 -0.22484566091E+02  0.30438962844E+02  0.00000000000E+00 0.  1.
</event>
<event>
 7    1  0.2480409E-009  0.2060472E+03  0.7561462E-02  0.1144735E+00
         -1   -1    0    0    0  501 -0.00000000000E+00  0.00000000000E+00  0.20536922262E+03  0.20536922262E+03  0.00000000000E+00 0.  1.
          1   -1    0    0  501    0  0.00000000000E+00 -0.00000000000E+00 -0.43691562062E+03  0.43691562062E+03  0.00000000000E+00 0. -1.
         25    2    1    2    0    0 -0.17132470571E+03  0.80522810147E+02  0.10078454555E+03  0.24827727992E+03  0.12509198759E+03 0.  0.
          5    1    3    3  502    0 -0.17509189389E+03  0.68986430601E+02  0.12140147935E+03  0.22399127327E+03  0.41800000000E+01 0.  1.
         -5    1    3    3    0  502  0.37671881774E+01  0.11536379546E+02 -0.20616933793E+02  0.24286006646E+02  0.41800000000E+01 0.  1.
        -11    1    1    2    0    0  0.16685575780E+03 -0.41761887575E+02 -0.25838921213E+03  0.31040277723E+03  0.00000000000E+00 0.  1.
         11    1    1    2    0    0  0.44689479171E+01 -0.38760922572E+02 -0.73941731417E+02  0.83604786101E+02  0.00000000000E+00 0. -1.
</event>
<event>
 7    1  0.2480409E-009  0.9434688E+02  0.7561462E-02  0.1292654E+00
          2   -1    0    0  501    0  0.00000000000E+00  0.00000000000E+00  0.34472466269E+02  0.34472466269E+02  0.00000000000E+00 0. -1.
         -2   -1    0    0    0  501 -0.00000000000E+00 -0.00000000000E+00 -0.35207065314E+03  0.35207065314E+03  0.00000000000E+00 0.  1.
         25    2    1    2    0    0 -0.57315802414E+01 -0.32888457446E+01 -0.18042819567E+03  0.21965040642E+03  0.12509316421E+03 0.  0.
          5    1    3    3  502    0  0.27286927917E+02 -0.37098183577E+02 -0.16247087413E+03  0.16892338204E+03  0.41800000000E+01 0.  1.
         -5    1    3    3    0  502 -0.33018508158E+02  0.33809337832E+02 -0.17957321535E+02  0.50727024379E+02  0.41800000000E+01 0.  1.
        -11    1    1    2    0    0  0.47956570364E+02  0.16580465056E+02 -0.76126535467E+02  0.91487670561E+02  0.00000000000E+00 0. -1.
         11    1    1    2    0    0 -0.42224990123E+02 -0.13291619312E+02 -0.61043455733E+02  0.75405042422E+02  0.00000000000E+00 0.  1.
</event>
<event>
 7    1  0.2480409E-009  0.1219716E+03  0.7561462E-02  0.1239880E+00
          4   -1    0    0  501    0  0.00000000000E+00  0.00000000000E+00  0.21321905817E+03  0.21321905817E+03  0.00000000000E+00 0. -1.
         -4   -1    0    0    0  501 -0.00000000000E+00 -0.00000000000E+00 -0.86149030526E+02  0.86149030526E+02  0.00000000000E+00 0.  1.
         25    2    1    2    0    0 -0.50002120011E+02 -0.47570597503E+02  0.10284579435E+03  0.17603555610E+03  0.12509230928E+03 0.  0.
          5    1    3    3  502    0  0.25508672361E+02  0.15600087962E+02 -0.42670724895E+01  0.30491563057E+02  0.41800000000E+01 0.  1.
         -5    1    3    3    0  502 -0.75510792372E+02 -0.63170685465E+02  0.10711286684E+03  0.14554399304E+03  0.41800000000E+01 0.  1.
        -11    1    1    2    0    0 -0.37673563574E+01  0.59924249320E+02  0.31298527033E+02  0.67710460232E+02  0.00000000000E+00 0. -1.
         11    1    1    2    0    0  0.53769476369E+02 -0.12353651816E+02 -0.70742937434E+01  0.55622072364E+02  0.00000000000E+00 0.  1.
</event>
<event>
 7    1  0.2480409E-009  0.1807802E+03  0.7561462E-02  0.1167050E+00
          4   -1    0    0  501    0  0.00000000000E+00  0.00000000000E+00  0.34884893663E+02  0.34884893663E+02  0.00000000000E+00 0. -1.
         -4   -1    0    0    0  501 -0.00000000000E+00 -0.00000000000E+00 -0.12258972557E+04  0.12258972557E+04  0.00000000000E+00 0.  1.
         25    2    1    2    0    0  0.13807639344E+03  0.77790522960E+02 -0.84798675672E+03  0.87169129323E+03  0.12509082793E+03 0.  0.
          5    1    3    3  502    0 -0.36733126472E+01  0.57778107743E+02 -0.27712739839E+03  0.28314107843E+03  0.41800000000E+01 0.  1.
         -5    1    3    3    0  502  0.14174970609E+03  0.20012415217E+02 -0.57085935833E+03  0.58855021480E+03  0.41800000000E+01 0.  1.
        -11    1    1    2    0    0 -0.60416098149E+02 -0.20523572022E+02 -0.51456472450E+02  0.81970058443E+02  0.00000000000E+00 0. -1.
         11    1    1    2    0    0 -0.77660295293E+02 -0.57266950938E+02 -0.29156913291E+03  0.30712079773E+03  0.00000000000E+00 0.  1.
</event>
<event>
 7    1  0.2480409E-009  0.3385552E+02  0.7561462E-02  0.1559005E+00
          2   -1    0    0  501    0  0.00000000000E+00  0.00000000000E+00  0.13257443737E+03  0.13257443737E+03  0.00000000000E+00 0. -1.
         -2   -1    0    0    0  501 -0.00000000000E+00 -0.00000000000E+00 -0.88713274665E+02  0.88713274665E+02  0.00000000000E+00 0.  1.
         25    2    1    2    0    0 -0.12398525232E+01  0.62190371183E+01  0.29956988963E+02  0.12878305881E+03  0.12508973336E+03 0.  0.
          5    1    3    3  502    0 -0.22578555637E+01 -0.34688751830E+01  0.78690480403E+02  0.78910044435E+02  0.41800000000E+01 0. -1.
         -5    1    3    3    0  502  0.10180030405E+01  0.96879123013E+01 -0.48733491440E+02  0.49873014376E+02  0.41800000000E+01 0. -1.
        -11    1    1    2    0    0 -0.20423908615E+02 -0.17416758502E+02  0.45357647295E+02  0.52704797580E+02  0.00000000000E+00 0. -1.
         11    1    1    2    0    0  0.21663761138E+02  0.11197721384E+02 -0.31453473552E+02  0.39799855644E+02  0.00000000000E+00 0.  1.
</event>
<event>
 7    1  0.2480409E-009  0.8113754E+02  0.7561462E-02  0.1325854E+00
         -2   -1    0    0    0  501 -0.00000000000E+00  0.00000000000E+00  0.25297409921E+02  0.25297409921E+02  0.00000000000E+00 0.  1.
          2   -1    0    0  501    0  0.00000000000E+00 -0.00000000000E+00 -0.65921883167E+03  0.65921883167E+03  0.00000000000E+00 0. -1.
         25    2    1    2    0    0  0.90245712455E+01 -0.56575722728E+02 -0.46086573166E+03  0.48096597837E+03  0.12509514156E+03 0.  0.
          5    1    3    3  502    0 -0.43187666693E+01 -0.16657173263E+02  0.45118806533E+00  0.17714094313E+02  0.41800000000E+01 0.  1.
         -5    1    3    3    0  502  0.13343337915E+02 -0.39918549465E+02 -0.46131691973E+03  0.46325188406E+03  0.41800000000E+01 0.  1.
        -11    1    1    2    0    0  0.32988627009E+02  0.15312863071E+01 -0.29997980222E+02  0.44614719175E+02  0.00000000000E+00 0.  1.
         11    1    1    2    0    0 -0.42013198254E+02  0.55044436421E+02 -0.14305770987E+03  0.15893554404E+03  0.00000000000E+00 0. -1.
</event>
<event>
 7    1  0.2480409E-009  0.4271101E+03  0.7561462E-02  0.1034777E+00
          2   -1    0    0  501    0  0.00000000000E+00  0.00000000000E+00  0.63801936369E+03  0.63801936369E+03  0.00000000000E+00 0. -1.
         -2   -1    0    0    0  501 -0.00000000000E+00 -0.00000000000E+00 -0.31451351572E+03  0.31451351572E+03  0.00000000000E+00 0.  1.
         25    2    1    2    0    0 -0.11647024410E+03 -0.40175213936E+03  0.52726463659E+02  0.43976966023E+03  0.12508866797E+03 0.  0.
          5    1    3    3  502    0 -0.59347179347E+02 -0.24292103572E+03  0.91885718861E+02  0.26644544474E+03  0.41800000000E+01 0. -1.
         -5    1    3    3    0  502 -0.57123064749E+02 -0.15883110364E+03 -0.39159255202E+02  0.17332421549E+03  0.41800000000E+01 0. -1.
        -11    1    1    2    0    0  0.19478777541E+02  0.27492257064E+03  0.17810225924E+03  0.32814974839E+03  0.00000000000E+00 0.  1.
         11    1    1    2    0    0  0.96991466556E+02  0.12682956872E+03  0.92677125064E+02  0.18461347079E+03  0.00000000000E+00 0. -1.
</event>
<event>
 7    1  0.2480409E-009  0.1147295E+03  0.7561462E-02  0.1252054E+00
         -1   -1    0    0    0  501 -0.00000000000E+00  0.00000000000E+00  0.82212827296E+02  0.82212827296E+02  0.00000000000E+00 0.  1.
          1   -1    0    0  501    0  0.00000000000E+00 -0.00000000000E+00 -0.25901667706E+03  0.25901667706E+03  0.00000000000E+00 0. -1.
         25    2    1    2    0    0  0.46187838196E+02 -0.77513829359E+02 -0.92351095638E+02  0.17976274773E+03  0.12507681827E+03 0.  0.
          5    1    3    3  502    0  0.24992942592E+02 -0.56429686037E+02  0.18747088377E+02  0.64636540503E+02  0.41800000000E+01 0.  1.
         -5    1    3    3    0  502  0.21194895604E+02 -0.21084143322E+02 -0.11109818401E+03  0.11512620723E+03  0.41800000000E+01 0.  1.
        -11    1    1    2    0    0  0.20500477327E+02  0.66794595831E+02 -0.38525551723E+02  0.79787252982E+02  0.00000000000E+00 0.  1.
         11    1    1    2    0    0 -0.66688315523E+02  0.10719233528E+02 -0.45927202403E+02  0.81679503642E+02  0.00000000000E+00 0. -1.
</event>
<event>
 7    1  0.2480409E-009  0.1220924E+03  0.7561462E-02  0.1239685E+00
         -1   -1    0    0    0  501 -0.00000000000E+00  0.00000000000E+00  0.14588586673E+03  0.14588586673E+03  0.00000000000E+00 0.  1.
          1   -1    0    0  501    0  0.00000000000E+00 -0.00000000000E+00 -0.13381570135E+03  0.13381570135E+03  0.00000000000E+00 0. -1.
         25    2    1    2    0    0 -0.72549144630E+02 -0.38094596614E+02  0.35619074384E+02  0.15372309071E+03  0.12508994156E+03 0.  0.
          5    1    3    3  502    0 -0.14860965169E+02 -0.71838969380E+02  0.44912661060E+02  0.86117973332E+02  0.41800000000E+01 0. -1.
         -5    1    3    3    0  502 -0.57688179460E+02  0.33744372765E+02 -0.92935866765E+01  0.67605117381E+02  0.41800000000E+01 0. -1.
        -11    1    1    2    0    0  0.50896513154E+02 -0.92052364908E+01  0.22594449451E+02  0.56442010737E+02  0.00000000000E+00 0.  1.
         11    1    1    2    0    0  0.21652631476E+02  0.47299833105E+02 -0.46143358462E+02  0.69536466632E+02  0.00000000000E+00 0. -1.
</event>
<event>
 7    1  0.2480409E-009  0.1428084E+03  0.7561462E-02  0.1209599E+00
         -2   -1    0    0    0  501 -0.00000000000E+00  0.00000000000E+00  0.53570287568E+02  0.53570287568E+02  0.00000000000E+00 0.  1.
          2   -1    0    0  501    0  0.00000000000E+00 -0.00000000000E+00 -0.53298515183E+03  0.53298515183E+03  0.00000000000E+00 0. -1.
         25    2    1    2    0    0 -0.79324302238E+02  0.86562531014E+02 -0.18928585252E+03  0.25546286499E+03  0.12508686871E+03 0.  0.
          5    1    3    3  502    0  0.21385773099E+02 -0.54588424292E+01 -0.45120392000E+00  0.22468338539E+02  0.41800000000E+01 0.  1.
         -5    1    3    3    0  502 -0.10071007534E+03  0.92021373443E+02 -0.18883464860E+03  0.23299452646E+03  0.41800000000E+01 0.  1.
        -11    1    1    2    0    0  0.36486972716E+02 -0.82534263563E+01 -0.12459913881E+02  0.39429274385E+02  0.00000000000E+00 0. -1.
         11    1    1    2    0    0  0.42837329522E+02 -0.78309104658E+02 -0.27766909785E+03  0.29166330002E+03  0.00000000000E+00 0.  1.
</event>
<event>
 7    1  0.2480409E-009  0.9833997E+02  0.7561462E-02  0.1283826E+00
         -2   -1    0    0    0  501 -0.00000000000E+00  0.00000000000E+00  0.10774382374E+03  0.10774382374E+03  0.00000000000E+00 0.  1.
          2   -1    0    0  501    0  0.00000000000E+00 -0.00000000000E+00 -0.25677715423E+03  0.25677715423E+03  0.00000000000E+00 0. -1.
         25    2    1    2    0    0 -0.37583357927E+02 -0.20999795854E+02  0.50288084923E+02  0.14152149554E+03  0.12508373993E+03 0.  0.
          5    1    3    3  502    0 -0.33198809885E+02 -0.64695187778E+02  0.62252158436E+02  0.95814570548E+02  0.41800000000E+01 0. -1.
         -5    1    3    3    0  502 -0.43845480418E+01  0.43695391924E+02 -0.11964073514E+02  0.45706924989E+02  0.41800000000E+01 0. -1.
        -11    1    1    2    0    0  0.10847829119E+02 -0.24591774341E+02 -0.14033693875E+02  0.30321202575E+02  0.00000000000E+00 0. -1.
         11    1    1    2    0    0  0.26735528808E+02  0.45591570195E+02 -0.18528772154E+03  0.19267827985E+03  0.00000000000E+00 0.  1.
</event>
<event>
 7    1  0.2480409E-009  0.1321274E+03  0.7561462E-02  0.1224333E+00
          2   -1    0    0  501    0  0.00000000000E+00  0.00000000000E+00  0.12773438623E+03  0.12773438623E+03  0.00000000000E+00 0. -1.
         -2   -1    0    0    0  501 -0.00000000000E+00 -0.00000000000E+00 -0.15904567409E+03  0.15904567409E+03  0.00000000000E+00 0.  1.
         25    2    1    2    0    0 -0.51082316002E+01 -0.47175076517E+02 -0.24864465845E+02  0.13607783351E+03  0.12508938099E+03 0.  0.
          5    1    3    3  502    0 -0.32621904145E+02 -0.70959365017E+02 -0.48941613453E+02  0.92261443957E+02  0.41800000000E+01 0.  1.
         -5    1    3    3    0  502  0.27513672544E+02  0.23784288500E+02  0.24077147608E+02  0.43816389551E+02  0.41800000000E+01 0.  1.
        -11    1    1    2    0    0  0.19331707215E+02  0.96337116572E+02  0.45224940532E+01  0.98361617950E+02  0.00000000000E+00 0. -1.
         11    1    1    2    0    0 -0.14223475614E+02 -0.49162040055E+02 -0.10969316063E+02  0.52340608860E+02  0.00000000000E+00 0.  1.
</event>
<event>
 7    1  0.2480409E-009  0.1030402E+03  0.7561462E-02  0.1274030E+00
         -1   -1    0    0    0  501 -0.00000000000E+00  0.00000000000E+00  0.69700460836E+03  0.69700460836E+03  0.00000000000E+00 0.  1.
          1   -1    0    0  501    0  0.00000000000E+00 -0.00000000000E+00 -0.18324020494E+02  0.18324020494E+02  0.00000000000E+00 0. -1.
         25    2    1    2    0    0  0.69427901881E+01 -0.37082767205E+02  0.41134913889E+03  0.43160142058E+03  0.12509331805E+03 0.  0.
          5    1    3    3  502    0 -0.14924409775E+02  0.37067766565E+02  0.62763323567E+02  0.74521570772E+02  0.41800000000E+01 0.  1.
         -5    1    3    3    0  502  0.21867199963E+02 -0.74150533771E+02  0.34858581532E+03  0.35707984980E+03  0.41800000000E+01 0.  1.
        -11    1    1    2    0    0  0.30383673443E+02  0.40911548730E+02  0.99948725079E+02  0.11219032969E+03  0.00000000000E+00 0. -1.
         11    1    1    2    0    0 -0.37326463631E+02 -0.38287815248E+01  0.16738272390E+03  0.17153687859E+03  0.00000000000E+00 0.  1.
</event>
<event>
 7    1  0.2480409E-009  0.1105168E+03  0.7561462E-02  0.1259616E+00
          2   -1    0    0  501    0  0.00000000000E+00  0.00000000000E+00  0.20542985350E+03  0.20542985350E+03  0.00000000000E+00 0. -1.
         -2   -1    0    0    0  501 -0.00000000000E+00 -0.00000000000E+00 -0.78582893608E+02  0.78582893608E+02  0.00000000000E+00 0.  1.
         25    2    1    2    0    0  0.15321746530E+02  0.62793164502E+02  0.69447654856E+02  0.15699411634E+03  0.12508572411E+03 0.  0.
          5    1    3    3  502    0 -0.13391790762E+02 -0.25191033155E+02  0.56521464728E+02  0.63451371823E+02  0.41800000000E+01 0. -1.
         -5    1    3    3    0  502  0.28713537292E+02  0.87984197657E+02  0.12926190128E+02  0.93542744520E+02  0.41800000000E+01 0. -1.
        -11    1    1    2    0    0 -0.46103853380E+02 -0.42345327680E+02  0.63948558649E+02  0.89488045158E+02  0.00000000000E+00 0. -1.
         11    1    1    2    0    0  0.30782106850E+02 -0.20447836821E+02 -0.65492536182E+01  0.37530585603E+02  0.00000000000E+00 0.  1.
</event>
<event>
 7    1  0.2480409E-009  0.1836949E+03  0.7561462E-02  0.1164274E+00
          4   -1    0    0  501    0  0.00000000000E+00  0.00000000000E+00  0.22107122940E+03  0.22107122940E+03  0.00000000000E+00 0. -1.
         -4   -1    0    0    0  501 -0.00000000000E+00 -0.00000000000E+00 -0.17406003217E+03  0.17406003217E+03  0.00000000000E+00 0.  1.
         25    2    1    2    0    0 -0.16515126961E+03 -0.28462543637E+01  0.46699975500E+02  0.21239447922E+03  0.12508990397E+03 0.  0.
          5    1    3    3  502    0  0.17996496498E+02 -0.22858798087E+00  0.20027764489E+02  0.27249034645E+02  0.41800000000E+01 0.  1.
         -5    1    3    3    0  502 -0.18314776611E+03 -0.26176663828E+01  0.26672211012E+02  0.18514544458E+03  0.41800000000E+01 0.  1.
        -11    1    1    2    0    0  0.10405699153E+03 -0.45621095992E+01 -0.37273841144E+02  0.11062553757E+03  0.00000000000E+00 0.  1.
         11    1    1    2    0    0  0.61094278082E+02  0.74083639629E+01  0.37585062881E+02  0.72111244773E+02  0.00000000000E+00 0. -1.
</event>
<event>
 7    1  0.2480409E-009  0.1320371E+03  0.7561462E-02  0.1224464E+00
          1   -1    0    0  501    0  0.00000000000E+00  0.00000000000E+00  0.44034737065E+03  0.44034737065E+03  0.00000000000E+00 0. -1.
         -1   -1    0    0    0  501 -0.00000000000E+00 -0.00000000000E+00 -0.44203028701E+02  0.44203028701E+02  0.00000000000E+00 0.  1.
         25    2    1    2    0    0  0.87072596460E+02  0.11191855727E+02  0.21679746342E+03  0.26524660396E+03  0.12509087129E+03 0.  0.
          5    1    3    3  502    0  0.82384900244E+02  0.59337365863E+02  0.16845852750E+03  0.19673317632E+03  0.41800000000E+01 0.  1.
         -5    1    3    3    0  502  0.46876962158E+01 -0.48145510136E+02  0.48338935920E+02  0.68513427647E+02  0.41800000000E+01 0.  1.
        -11    1    1    2    0    0 -0.36071899150E+02 -0.41177613372E+02  0.39644711096E+02  0.67590538311E+02  0.00000000000E+00 0.  1.
         11    1    1    2    0    0 -0.51000697310E+02  0.29985757644E+02  0.13970216743E+03  0.15171325708E+03  0.00000000000E+00 0. -1.
</event>
<event>
 7    1  0.2480409E-009  0.1074089E+03  0.7561462E-02  0.1265445E+00
         -1   -1    0    0    0  501 -0.00000000000E+00  0.00000000000E+00  0.12734227910E+02  0.12734227910E+02  0.00000000000E+00 0.  1.
          1   -1    0    0  501    0  0.00000000000E+00 -0.00000000000E+00 -0.14284051848E+04  0.14284051848E+04  0.00000000000E+00 0. -1.
         25    2    1    2    0    0  0.22447678140E+02  0.75161649603E+02 -0.83867487577E+03  0.85157499788E+03  0.12510498770E+03 0.  0.
          5    1    3    3  502    0  0.92614843940E+01  0.83823398670E+02 -0.27516331692E+03  0.28782713673E+03  0.41800000000E+01 0. -1.
         -5    1    3    3    0  502  0.13186193746E+02 -0.86617490669E+01 -0.56351155884E+03  0.56374786115E+03  0.41800000000E+01 0. -1.
        -11    1    1    2    0    0 -0.32212333290E+02  0.56124857768E+01 -0.88669196047E+02  0.94505876749E+02  0.00000000000E+00 0. -1.
         11    1    1    2    0    0  0.97646551503E+01 -0.80774135380E+02 -0.48832688506E+03  0.49505853806E+03  0.00000000000E+00 0.  1.
</event>
<event>
 7    1  0.2480409E-009  0.1059737E+03  0.7561462E-02  0.1268213E+00
          1   -1    0    0  501    0  0.00000000000E+00  0.00000000000E+00  0.76781884676E+02  0.76781884676E+02  0.00000000000E+00 0. -1.
         -1   -1    0    0    0  501 -0.00000000000E+00 -0.00000000000E+00 -0.18569765174E+03  0.18569765174E+03  0.00000000000E+00 0.  1.
         25    2    1    2    0    0  0.98270510619E+01 -0.32505241913E+02 -0.18382796556E+02  0.13091221429E+03  0.12508764510E+03 0.  0.
          5    1    3    3  502    0 -0.25596825322E+02 -0.69028622511E+02  0.66763129963E+01  0.74041837818E+02  0.41800000000E+01 0. -1.
         -5    1    3    3    0  502  0.35423876384E+02  0.36523380597E+02 -0.25059109553E+02  0.56870376471E+02  0.41800000000E+01 0. -1.
        -11    1    1    2    0    0 -0.41367809724E+02  0.36745427948E+02 -0.29424097218E+02  0.62668170976E+02  0.00000000000E+00 0. -1.
         11    1    1    2    0    0  0.31540758662E+02 -0.42401860345E+01 -0.61108873291E+02  0.68899151152E+02  0.00000000000E+00 0.  1.
</event>
<event>
 7    1  0.2480409E-009  0.7954601E+02  0.7561462E-02  0.1330345E+00
         -3   -1    0    0    0  501 -0.00000000000E+00  0.00000000000E+00  0.17914966571E+02  0.17914966571E+02  0.00000000000E+00 0.  1.
          3   -1    0    0  501    0  0.00000000000E+00 -0.00000000000E+00 -0.72824858941E+03  0.72824858941E+03  0.00000000000E+00 0. -1.
         25    2    1    2    0    0  0.76307241982E+01  0.27303134617E+02 -0.49334347326E+03  0.50974364034E+03  0.12508839732E+03 0.  0.
          5    1    3    3  502    0  0.34998421475E+02  0.15333812772E+00 -0.34692969901E+02  0.49456926500E+02  0.41800000000E+01 0. -1.
         -5    1    3    3    0  502 -0.27367697276E+02  0.27149796489E+02 -0.45865050336E+03  0.46028671384E+03  0.41800000000E+01 0. -1.
        -11    1    1    2    0    0 -0.26750542275E+01  0.28711150506E+02 -0.32016867911E+02  0.43087885877E+02  0.00000000000E+00 0.  1.
         11    1    1    2    0    0 -0.49556699708E+01 -0.56014285123E+02 -0.18497328167E+03  0.19333202977E+03  0.00000000000E+00 0. -1.
</event>
<event>
 7    1  0.2480409E-009  0.2395176E+03  0.7561462E-02  0.1120115E+00
          1   -1    0    0  501    0  0.00000000000E+00  0.00000000000E+00  0.17704161211E+04  0.17704161211E+04  0.00000000000E+00 0.  1.
         -1   -1    0    0    0  501 -0.00000000000E+00 -0.00000000000E+00 -0.39710932843E+02  0.39710932843E+02  0.00000000000E+00 0. -1.
         25    2    1    2    0    0  0.11373195947E+03  0.18801942354E+03  0.12363782927E+04  0.12619687021E+04  0.12508980915E+03 0.  0.
          5    1    3    3  502    0  0.13002727907E+02 -0.17754807332E+02  0.15222863438E+03  0.15386790972E+03  0.41800000000E+01 0. -1.
         -5    1    3    3    0  502  0.10072923156E+03  0.20577423087E+03  0.10841496583E+04  0.11081007924E+04  0.41800000000E+01 0. -1.
        -11    1    1    2    0    0 -0.30418338758E+02 -0.10714729747E+03  0.16599082704E+03  0.19989690680E+03  0.00000000000E+00 0. -1.
         11    1    1    2    0    0 -0.83313620709E+02 -0.80872126075E+02  0.32833606860E+03  0.34826144506E+03  0.00000000000E+00 0.  1.
</event>
<event>
 7    1  0.2480409E-009  0.8777169E+02  0.7561462E-02  0.1308339E+00
         -4   -1    0    0    0  501 -0.00000000000E+00  0.00000000000E+00  0.24361175200E+03  0.24361175200E+03  0.00000000000E+00 0.  1.
          4   -1    0    0  501    0  0.00000000000E+00 -0.00000000000E+00 -0.80414498347E+02  0.80414498347E+02  0.00000000000E+00 0. -1.
         25    2    1    2    0    0  0.64583786814E+02  0.62028396313E+01  0.19924873665E+02  0.14231401618E+03  0.12508692127E+03 0.  0.
          5    1    3    3  502    0  0.40781037327E+02  0.29932395277E+02  0.67164184552E+02  0.84187536957E+02  0.41800000000E+01 0. -1.
         -5    1    3    3    0  502  0.23802749488E+02 -0.23729555645E+02 -0.47239310886E+02  0.58126479227E+02  0.41800000000E+01 0. -1.
        -11    1    1    2    0    0 -0.66737482039E+02 -0.25540244146E+02  0.14552771748E+03  0.16212498924E+03  0.00000000000E+00 0.  1.
         11    1    1    2    0    0  0.21536952243E+01  0.19337404515E+02 -0.22553374962E+01  0.19587244924E+02  0.00000000000E+00 0. -1.
</event>
<event>
 7    1  0.2480409E-009  0.1912921E+03  0.7561462E-02  0.1157301E+00
          1   -1    0    0  501    0  0.00000000000E+00  0.00000000000E+00  0.25524389609E+03  0.25524389609E+03  0.00000000000E+00 0. -1.
         -1   -1    0    0    0  501 -0.00000000000E+00 -0.00000000000E+00 -0.14776321365E+03  0.14776321365E+03  0.00000000000E+00 0.  1.
         25    2    1    2    0    0  0.15843960407E+02  0.15928225869E+03  0.65721917919E+02  0.21351493572E+03  0.12508952100E+03 0.  0.
          5    1    3    3  502    0 -0.50066034022E+02  0.34271615573E+02  0.29349534548E+02  0.67527912561E+02  0.41800000000E+01 0.  1.
         -5    1    3    3    0  502  0.65909994429E+02  0.12501064312E+03  0.36372383371E+02  0.14598702316E+03  0.41800000000E+01 0.  1.
        -11    1    1    2    0    0  0.30900220302E+02 -0.10129194728E+03  0.44705231093E+02  0.11494972764E+03  0.00000000000E+00 0. -1.
         11    1    1    2    0    0 -0.46744180709E+02 -0.57990311415E+02 -0.29464665677E+01  0.74542446387E+02  0.00000000000E+00 0.  1.
</event>
<event>
 7    1  0.2480409E-009  0.1095480E+03  0.7561462E-02  0.1261409E+00
          1   -1    0    0  501    0  0.00000000000E+00  0.00000000000E+00  0.87532102452E+03  0.87532102452E+03  0.00000000000E+00 0. -1.
         -1   -1    0    0    0  501 -0.00000000000E+00 -0.00000000000E+00 -0.17666695079E+02  0.17666695079E+02  0.00000000000E+00 0.  1.
         25    2    1    2    0    0 -0.52083341122E+02 -0.31999108848E+02  0.50264767755E+03  0.52157314713E+03  0.12508893908E+03 0.  0.
          5    1    3    3  502    0  0.27432894853E+02 -0.15704758100E+01  0.28443922251E+02  0.39768822302E+02  0.41800000000E+01 0.  1.
         -5    1    3    3    0  502 -0.79516235975E+02 -0.30428633038E+02  0.47420375529E+03  0.48180432483E+03  0.41800000000E+01 0.  1.
        -11    1    1    2    0    0 -0.13508709393E+02  0.37868508576E+02  0.94183800658E+02  0.10240653044E+03  0.00000000000E+00 0.  1.
         11    1    1    2    0    0  0.65592050516E+02 -0.58693997279E+01  0.26082285123E+03  0.26900804202E+03  0.00000000000E+00 0. -1.
</event>
<event>
 7    1  0.2726197E-009  0.1774392E+03  0.7561462E-02  0.1170305E+00
          1   -1    0    0  501    0  0.00000000000E+00  0.00000000000E+00  0.12328339238E+03  0.12328339238E+03  0.00000000000E+00 0. -1.
         -1   -1    0    0    0  501 -0.00000000000E+00 -0.00000000000E+00 -0.27709074830E+03  0.27709074830E+03  0.00000000000E+00 0.  1.
         25    2    1    2    0    0 -0.76065212814E+02  0.12411088725E+03 -0.45776796982E+02  0.19731279056E+03  0.12508954090E+03 0.  0.
          5    1    3    3  502    0 -0.68868996491E+02  0.80155873968E+01 -0.41348500388E+02  0.80835383362E+02  0.41800000000E+01 0.  1.
         -5    1    3    3    0  502 -0.71962163237E+01  0.11609529985E+03 -0.44282965946E+01  0.11647740720E+03  0.41800000000E+01 0.  1.
        -11    1    1    2    0    0  0.85383789973E+02 -0.60280663914E+02 -0.84475264075E+02  0.13438831896E+03  0.00000000000E+00 0.  1.
         11    1    1    2    0    0 -0.93185771586E+01 -0.63830223337E+02 -0.23555294861E+02  0.68673031151E+02  0.00000000000E+00 0. -1.
</event>
<event>
 7    1  0.2480409E-009  0.8379645E+02  0.7561462E-02  0.1318610E+00
          1   -1    0    0  501    0  0.00000000000E+00  0.00000000000E+00  0.32533946644E+03  0.32533946644E+03  0.00000000000E+00 0. -1.
         -1   -1    0    0    0  501 -0.00000000000E+00 -0.00000000000E+00 -0.45788502616E+02  0.45788502616E+02  0.00000000000E+00 0.  1.
         25    2    1    2    0    0  0.28959546459E+02 -0.43504461905E+02  0.17995770165E+03  0.22530760238E+03  0.12508975886E+03 0.  0.
          5    1    3    3  502    0  0.22961259180E+02  0.78309508262E+01  0.17090627202E+03  0.17267011737E+03  0.41800000000E+01 0.  1.
         -5    1    3    3    0  502  0.59982872785E+01 -0.51335412731E+02  0.90514296249E+01  0.52637485016E+02  0.41800000000E+01 0.  1.
        -11    1    1    2    0    0 -0.14012952346E+02  0.64134011548E+02  0.30900622697E+02  0.72556066278E+02  0.00000000000E+00 0. -1.
         11    1    1    2    0    0 -0.14946594112E+02 -0.20629549643E+02  0.68692639479E+02  0.73264300397E+02  0.00000000000E+00 0.  1.
</event>
<event>
 7    1  0.2480409E-009  0.1196549E+03  0.7561462E-02  0.1243667E+00
          1   -1    0    0  501    0  0.00000000000E+00  0.00000000000E+00  0.61111699253E+03  0.61111699253E+03  0.00000000000E+00 0. -1.
         -1   -1    0    0    0  501 -0.00000000000E+00 -0.00000000000E+00 -0.36337206123E+02  0.36337206123E+02  0.00000000000E+00 0.  1.
         25    2    1    2    0    0 -0.55108327984E+02 -0.84791082557E+02  0.30533972989E+03  0.34511700310E+03  0.12508772796E+03 0.  0.
          5    1    3    3  502    0 -0.53979365071E+02 -0.59648051324E+02  0.65224720772E+02  0.10365036652E+03  0.41800000000E+01 0.  1.
         -5    1    3    3    0  502 -0.11289629127E+01 -0.25143031232E+02  0.24011500912E+03  0.24146663658E+03  0.41800000000E+01 0.  1.
        -11    1    1    2    0    0 -0.19003101240E+02 -0.20063346882E+01  0.18204070510E+02  0.26391881683E+02  0.00000000000E+00 0.  1.
         11    1    1    2    0    0  0.74111429224E+02  0.86797417245E+02  0.25123598601E+03  0.27594531387E+03  0.00000000000E+00 0. -1.
</event>
<event>
 7    1  0.2480409E-009  0.1461742E+03  0.7561462E-02  0.1205254E+00
          4   -1    0    0  501    0  0.00000000000E+00  0.00000000000E+00  0.24490246573E+02  0.24490246573E+02  0.00000000000E+00 0.  1.
         -4   -1    0    0    0  501 -0.00000000000E+00 -0.00000000000E+00 -0.10835508282E+04  0.10835508282E+04  0.00000000000E+00 0. -1.
         25    2    1    2    0    0  0.57897375313E+01  0.95020026901E+02 -0.32000412174E+03  0.35653016814E+03  0.12509514895E+03 0.  0.
          5    1    3    3  502    0  0.61502984016E+02  0.75351131160E+02 -0.21390478013E+03  0.23501731292E+03  0.41800000000E+01 0. -1.
         -5    1    3    3    0  502 -0.55713246484E+02  0.19668895740E+02 -0.10609934161E+03  0.12151285522E+03  0.41800000000E+01 0. -1.
        -11    1    1    2    0    0  0.43974140126E+02 -0.62111242984E+02 -0.38243697999E+03  0.38993534742E+03  0.00000000000E+00 0.  1.
         11    1    1    2    0    0 -0.49763877658E+02 -0.32908783917E+02 -0.35661947993E+03  0.36157555924E+03  0.00000000000E+00 0. -1.
</event>
<event>
 7    1  0.2738377E-009  0.1150866E+03  0.7561462E-02  0.1251430E+00
          1   -1    0    0  501    0  0.00000000000E+00  0.00000000000E+00  0.80764968738E+03  0.80764968738E+03  0.00000000000E+00 0. -1.
         -1   -1    0    0    0  501 -0.00000000000E+00 -0.00000000000E+00 -0.24746350877E+02  0.24746350877E+02  0.00000000000E+00 0.  1.
         25    2    1    2    0    0  0.78133411621E+02  0.25240926368E+02  0.53295990496E+03  0.55356598159E+03  0.12508837397E+03 0.  0.
          5    1    3    3  502    0 -0.32726881325E+02 -0.42562714448E+01  0.15634099432E+03  0.15984099447E+03  0.41800000000E+01 0. -1.
         -5    1    3    3    0  502  0.11086029295E+03  0.29497197812E+02  0.37661891063E+03  0.39372498712E+03  0.41800000000E+01 0. -1.
        -11    1    1    2    0    0 -0.53733291507E+02 -0.17762152700E+02  0.24669558687E+03  0.25310368086E+03  0.00000000000E+00 0. -1.
         11    1    1    2    0    0 -0.24400120114E+02 -0.74787736673E+01  0.32478446743E+01  0.25726375807E+02  0.00000000000E+00 0.  1.
</event>
<event>
 7    1  0.2480409E-009  0.1254930E+03  0.7561462E-02  0.1234301E+00
         -1   -1    0    0    0  501 -0.00000000000E+00  0.00000000000E+00  0.40484851814E+03  0.40484851814E+03  0.00000000000E+00 0.  1.
          1   -1    0    0  501    0  0.00000000000E+00 -0.00000000000E+00 -0.71424886226E+02  0.71424886226E+02  0.00000000000E+00 0. -1.
         25    2    1    2    0    0 -0.68240827669E+02 -0.33685587119E+02  0.33091975355E+03  0.36186820220E+03  0.12509669513E+03 0.  0.
          5    1    3    3  502    0 -0.25737627490E+02  0.45796398012E+02  0.16206110496E+03  0.17041422969E+03  0.41800000000E+01 0. -1.
         -5    1    3    3    0  502 -0.42503200180E+02 -0.79481985131E+02  0.16885864859E+03  0.19145397251E+03  0.41800000000E+01 0. -1.
        -11    1    1    2    0    0  0.44272147040E+02 -0.20514195941E+02 -0.17530051856E+02  0.51847448893E+02  0.00000000000E+00 0.  1.
         11    1    1    2    0    0  0.23968680629E+02  0.54199783060E+02  0.20033930221E+02  0.62557753276E+02  0.00000000000E+00 0. -1.
</event>
<event>
 7    1  0.2480409E-009  0.6535440E+02  0.7561462E-02  0.1376643E+00
          2   -1    0    0  501    0  0.00000000000E+00  0.00000000000E+00  0.28893877970E+03  0.28893877970E+03  0.00000000000E+00 0. -1.
         -2   -1    0    0    0  501 -0.00000000000E+00 -0.00000000000E+00 -0.74718132852E+02  0.74718132852E+02  0.00000000000E+00 0.  1.
         25    2    1    2    0    0 -0.13962236872E+02 -0.43989569093E+02  0.22022443234E+03  0.25743272289E+03  0.12507109966E+03 0.  0.
          5    1    3    3  502    0 -0.28287159005E+01 -0.48797521304E+02  0.14286607391E+02  0.51095785245E+02  0.41800000000E+01 0. -1.
         -5    1    3    3    0  502 -0.11133520971E+02  0.48079522110E+01  0.20593782495E+03  0.20633693765E+03  0.41800000000E+01 0. -1.
        -11    1    1    2    0    0 -0.14892978889E+02 -0.14847911934E+01 -0.39882176511E+02  0.42598044888E+02  0.00000000000E+00 0.  1.
         11    1    1    2    0    0  0.28855215760E+02  0.45474360286E+02  0.33878391018E+02  0.63626144768E+02  0.00000000000E+00 0. -1.
</event>
<event>
 7    1  0.2480409E-009  0.1029816E+03  0.7561462E-02  0.1274148E+00
         -2   -1    0    0    0  501 -0.00000000000E+00  0.00000000000E+00  0.63366420124E+03  0.63366420124E+03  0.00000000000E+00 0.  1.
          2   -1    0    0  501    0  0.00000000000E+00 -0.00000000000E+00 -0.30452461989E+02  0.30452461989E+02  0.00000000000E+00 0. -1.
         25    2    1    2    0    0 -0.70988278507E+02  0.28262603120E+02  0.24973197506E+03  0.28957058823E+03  0.12508779229E+03 0.  0.
          5    1    3    3  502    0 -0.61365609899E+02  0.56650882551E+02  0.75286707496E+02  0.11251942631E+03  0.41800000000E+01 0.  1.
         -5    1    3    3    0  502 -0.96226686079E+01 -0.28388279431E+02  0.17444526756E+03  0.17705116191E+03  0.41800000000E+01 0.  1.
        -11    1    1    2    0    0  0.15118509348E+02 -0.32705500663E+02  0.31912987342E+02  0.48131672105E+02  0.00000000000E+00 0. -1.
         11    1    1    2    0    0  0.55869769159E+02  0.44428975427E+01  0.32156677685E+03  0.32641440290E+03  0.00000000000E+00 0.  1.
</event>
<event>
 7    1  0.2480409E-009  0.9364294E+02  0.7561462E-02  0.1294262E+00
          2   -1    0    0  501    0  0.00000000000E+00  0.00000000000E+00  0.10627383339E+04  0.10627383339E+04  0.00000000000E+00 0.  1.
         -2   -1    0    0    0  501 -0.00000000000E+00 -0.00000000000E+00 -0.17013967768E+02  0.17013967768E+02  0.00000000000E+00 0. -1.
         25    2    1    2    0    0  0.42842416933E+02  0.53210011513E+02  0.75266203358E+03  0.76603771251E+03  0.12508741816E+03 0.  0.
          5    1    3    3  502    0  0.97238230266E+01 -0.30506504888E+01  0.59810084355E+03  0.59820226568E+03  0.41800000000E+01 0. -1.
         -5    1    3    3    0  502  0.33118593907E+02  0.56260662002E+02  0.15456119003E+03  0.16783544684E+03  0.41800000000E+01 0. -1.
        -11    1    1    2    0    0 -0.37196376281E+02 -0.77473733341E+02  0.20732334900E+03  0.22442976809E+03  0.00000000000E+00 0. -1.
         11    1    1    2    0    0 -0.56460406527E+01  0.24263721828E+02  0.85738983570E+02  0.89284821082E+02  0.00000000000E+00 0.  1.
</event>
<event>
 7    1  0.2480409E-009  0.9319997E+02  0.7561462E-02  0.1295282E+00
          3   -1    0    0  501    0  0.00000000000E+00  0.00000000000E+00  0.15596919341E+03  0.15596919341E+03  0.00000000000E+00 0. -1.
         -3   -1    0    0    0  501 -0.00000000000E+00 -0.00000000000E+00 -0.11259555995E+03  0.11259555995E+03  0.00000000000E+00 0.  1.
         25    2    1    2    0    0  0.23421975463E+02 -0.15907363180E+02  0.95085770436E+02  0.15965650069E+03  0.12508901365E+03 0.  0.
          5    1    3    3  502    0 -0.42426729475E+02 -0.46818870442E+01 -0.59225820884E+00  0.42892547256E+02  0.41800000000E+01 0.  1.
         -5    1    3    3    0  502  0.65848704938E+02 -0.11225476136E+02  0.95678028645E+02  0.11676395344E+03  0.41800000000E+01 0.  1.
        -11    1    1    2    0    0  0.25281820272E+02  0.11199370749E+02  0.10658589644E+02  0.29634471053E+02  0.00000000000E+00 0. -1.
         11    1    1    2    0    0 -0.48703795734E+02  0.47079924316E+01 -0.62370726627E+02  0.79273781616E+02  0.00000000000E+00 0.  1.
</event>
<event>
 7    1  0.2480409E-009  0.1789978E+03  0.7561462E-02  0.1168776E+00
         -2   -1    0    0    0  501 -0.00000000000E+00  0.00000000000E+00  0.50141083697E+02  0.50141083697E+02  0.00000000000E+00 0.  1.
          2   -1    0    0  501    0  0.00000000000E+00 -0.00000000000E+00 -0.83481834544E+03  0.83481834544E+03  0.00000000000E+00 0. -1.
         25    2    1    2    0    0  0.87705746277E+02  0.14526761476E+03 -0.48500781269E+03  0.52884342372E+03  0.12509120919E+03 0.  0.
          5    1    3    3  502    0  0.54619713673E+02  0.38862803620E+02 -0.33646984008E+03  0.34310793682E+03  0.41800000000E+01 0.  1.
         -5    1    3    3    0  502  0.33086032604E+02  0.10640481114E+03 -0.14853797261E+03  0.18573548690E+03  0.41800000000E+01 0.  1.
        -11    1    1    2    0    0 -0.83828871281E+02 -0.86601766660E+02 -0.25575327327E+03  0.28273111332E+03  0.00000000000E+00 0. -1.
         11    1    1    2    0    0 -0.38768749962E+01 -0.58665848098E+02 -0.43916175780E+02  0.73384892096E+02  0.00000000000E+00 0.  1.
</event>
<event>
 7    1  0.2480409E-009  0.1687430E+03  0.7561462E-02  0.1179165E+00
         -1   -1    0    0    0  501 -0.00000000000E+00  0.00000000000E+00  0.10806342159E+04  0.10806342159E+04  0.00000000000E+00 0.  1.
          1   -1    0    0  501    0  0.00000000000E+00 -0.00000000000E+00 -0.31668436086E+02  0.31668436086E+02  0.00000000000E+00 0. -1.
         25    2    1    2    0    0  0.14643746726E+03  0.26749255556E+02  0.59053897735E+03  0.62172846443E+03  0.12510213915E+03 0.  0.
          5    1    3    3  502    0  0.15096467321E+03  0.48272397272E+02  0.40638706104E+03  0.43622066970E+03  0.41800000000E+01 0.  1.
         -5    1    3    3    0  502 -0.45272059486E+01 -0.21523141716E+02  0.18415191631E+03  0.18550779473E+03  0.41800000000E+01 0.  1.
        -11    1    1    2    0    0 -0.10143549537E+03  0.48642787483E+01  0.38881961485E+03  0.40186255588E+03  0.00000000000E+00 0.  1.
         11    1    1    2    0    0 -0.45001971892E+02 -0.31613534304E+02  0.69607187568E+02  0.88711631631E+02  0.00000000000E+00 0. -1.
</event>
<event>
 7    1  0.2480409E-009  0.1039522E+03  0.7561462E-02  0.1272198E+00
          1   -1    0    0  501    0  0.00000000000E+00  0.00000000000E+00  0.33775530258E+03  0.33775530258E+03  0.00000000000E+00 0. -1.
         -1   -1    0    0    0  501 -0.00000000000E+00 -0.00000000000E+00 -0.48299144241E+02  0.48299144241E+02  0.00000000000E+00 0.  1.
         25    2    1    2    0    0 -0.20652628631E+02  0.65062001820E+02  0.18209357182E+03  0.23122537275E+03  0.12509000342E+03 0.  0.
          5    1    3    3  502    0 -0.41228861238E+02 -0.12344867486E+02  0.14805200953E+02  0.45704279094E+02  0.41800000000E+01 0.  1.
         -5    1    3    3    0  502  0.20576232607E+02  0.77406869306E+02  0.16728837087E+03  0.18552109366E+03  0.41800000000E+01 0.  1.
        -11    1    1    2    0    0 -0.13745893234E+02 -0.38989582115E+01  0.77093896178E+02  0.78406761722E+02  0.00000000000E+00 0. -1.
         11    1    1    2    0    0  0.34398521866E+02 -0.61163043609E+02  0.30268690346E+02  0.76422312353E+02  0.00000000000E+00 0.  1.
</event>
<event>
 7    1  0.2480409E-009  0.8694378E+02  0.7561462E-02  0.1310426E+00
         -1   -1    0    0    0  501 -0.00000000000E+00  0.00000000000E+00  0.32936394631E+02  0.32936394631E+02  0.00000000000E+00 0.  1.
          1   -1    0    0  501    0  0.00000000000E+00 -0.00000000000E+00 -0.43602966434E+03  0.43602966434E+03  0.00000000000E+00 0. -1.
         25    2    1    2    0    0 -0.78306009302E+01 -0.47396653547E+02 -0.19327735904E+03  0.23518150216E+03  0.12508573205E+03 0.  0.
          5    1    3    3  502    0  0.59968044670E+01  0.15213219306E+02  0.11589703079E+02  0.20474308851E+02  0.41800000000E+01 0. -1.
         -5    1    3    3    0  502 -0.13827405397E+02 -0.62609872853E+02 -0.20486706211E+03  0.21470719331E+03  0.41800000000E+01 0. -1.
        -11    1    1    2    0    0  0.43133031793E+02  0.34273041216E+02 -0.17118828283E+03  0.17983472402E+03  0.00000000000E+00 0. -1.
         11    1    1    2    0    0 -0.35302430863E+02  0.13123612331E+02 -0.38627627851E+02  0.53949832797E+02  0.00000000000E+00 0.  1.
</event>
<event>
 7    1  0.2480409E-009  0.1349631E+03  0.7561462E-02  0.1220272E+00
          1   -1    0    0  501    0  0.00000000000E+00  0.00000000000E+00  0.94707429233E+03  0.94707429233E+03  0.00000000000E+00 0. -1.
         -1   -1    0    0    0  501 -0.00000000000E+00 -0.00000000000E+00 -0.23893155616E+02  0.23893155616E+02  0.00000000000E+00 0.  1.
         25    2    1    2    0    0  0.46766528939E+02  0.88168717902E+02  0.38816449207E+03  0.41985910088E+03  0.12509660523E+03 0.  0.
          5    1    3    3  502    0 -0.22071069567E+02 -0.57361427728E+01  0.12082711792E+02  0.26143828526E+02  0.41800000000E+01 0. -1.
         -5    1    3    3    0  502  0.68837598506E+02  0.93904860674E+02  0.37608178028E+03  0.39371527236E+03  0.41800000000E+01 0. -1.
        -11    1    1    2    0    0 -0.61127833592E+02 -0.25999913000E+02  0.32010986645E+03  0.32692955528E+03  0.00000000000E+00 0. -1.
         11    1    1    2    0    0  0.14361304654E+02 -0.62168804902E+02  0.21490677819E+03  0.22417879178E+03  0.00000000000E+00 0.  1.
</event>
<event>
 7    1  0.2480409E-009  0.1249460E+03  0.7561462E-02  0.1235154E+00
         -1   -1    0    0    0  501 -0.00000000000E+00  0.00000000000E+00  0.10965933027E+02  0.10965933027E+02  0.00000000000E+00 0.  1.
          1   -1    0    0  501    0  0.00000000000E+00 -0.00000000000E+00 -0.30628997836E+04  0.30628997836E+04  0.00000000000E+00 0. -1.
         25    2    1    2    0    0 -0.97008642397E+02 -0.47046810841E+02 -0.24483435021E+04  0.24539069472E+04  0.12509725129E+03 0.  0.
          5    1    3    3  502    0 -0.14905035176E+02 -0.12517642644E+02 -0.48761846067E+02  0.52669170136E+02  0.41800000000E+01 0.  1.
         -5    1    3    3    0  502 -0.82103607220E+02 -0.34529168197E+02 -0.23995816560E+04  0.24012377771E+04  0.41800000000E+01 0.  1.
        -11    1    1    2    0    0  0.74650950172E+01 -0.24871830125E+02 -0.89201838981E+02  0.92904809644E+02  0.00000000000E+00 0.  1.
         11    1    1    2    0    0  0.89543547380E+02  0.71918640966E+02 -0.51438850954E+03  0.52705395980E+03  0.00000000000E+00 0. -1.
</event>
<event>
 7    1  0.2480409E-009  0.1490196E+03  0.7561462E-02  0.1201683E+00
         -1   -1    0    0    0  501 -0.00000000000E+00  0.00000000000E+00  0.40821936614E+02  0.40821936614E+02  0.00000000000E+00 0.  1.
          1   -1    0    0  501    0  0.00000000000E+00 -0.00000000000E+00 -0.67484557129E+03  0.67484557129E+03  0.00000000000E+00 0. -1.
         25    2    1    2    0    0 -0.39822865837E+02  0.11268767731E+03 -0.25045135318E+03  0.30439898242E+03  0.12509391245E+03 0.  0.
          5    1    3    3  502    0 -0.40479901474E+02  0.13595590919E+03 -0.23938078662E+03  0.27828630055E+03  0.41800000000E+01 0.  1.
         -5    1    3    3    0  502  0.65703563692E+00 -0.23268231886E+02 -0.11070566553E+02  0.26112681875E+02  0.41800000000E+01 0. -1.
        -11    1    1    2    0    0  0.54616465635E+02 -0.83972366437E+02 -0.35246620455E+03  0.36642426502E+03  0.00000000000E+00 0. -1.
         11    1    1    2    0    0 -0.14793599798E+02 -0.28715310870E+02 -0.31106076945E+02  0.44844260460E+02  0.00000000000E+00 0.  1.
</event>
<event>
 7    1  0.2480409E-009  0.1249908E+03  0.7561462E-02  0.1235084E+00
         -2   -1    0    0    0  501 -0.00000000000E+00  0.00000000000E+00  0.12336384593E+03  0.12336384593E+03  0.00000000000E+00 0.  1.
          2   -1    0    0  501    0  0.00000000000E+00 -0.00000000000E+00 -0.15610458147E+03  0.15610458147E+03  0.00000000000E+00 0. -1.
         25    2    1    2    0    0  0.22702461033E+02  0.65328503480E+02 -0.68426683990E+02  0.15846753441E+03  0.12508610345E+03 0.  0.
          5    1    3    3  502    0  0.72964082027E+01  0.97811383023E+02 -0.72506570474E+02  0.12204498918E+03  0.41800000000E+01 0. -1.
         -5    1    3    3    0  502  0.15406052830E+02 -0.32482879543E+02  0.40798864844E+01  0.36422545229E+02  0.41800000000E+01 0. -1.
        -11    1    1    2    0    0 -0.55456162933E+02 -0.18481685294E+02  0.17628653812E+02  0.61055123731E+02  0.00000000000E+00 0.  1.
         11    1    1    2    0    0  0.32753701900E+02 -0.46846818187E+02  0.18057294643E+02  0.59945769260E+02  0.00000000000E+00 0. -1.
</event>
<event>
 7    1  0.2480409E-009  0.1075129E+03  0.7561462E-02  0.1265246E+00
         -1   -1    0    0    0  501 -0.00000000000E+00  0.00000000000E+00  0.78137893479E+02  0.78137893479E+02  0.00000000000E+00 0.  1.
          1   -1    0    0  501    0  0.00000000000E+00 -0.00000000000E+00 -0.22278090266E+03  0.22278090266E+03  0.00000000000E+00 0. -1.
         25    2    1    2    0    0  0.40449835157E+01  0.63647767156E+02 -0.12136399953E+03  0.18559211982E+03  0.12509122432E+03 0.  0.
          5    1    3    3  502    0  0.57144062364E+02  0.10381417704E+02 -0.82077369600E+02  0.10063490795E+03  0.41800000000E+01 0. -1.
         -5    1    3    3    0  502 -0.53099078848E+02  0.53266349452E+02 -0.39286629929E+02  0.84957211875E+02  0.41800000000E+01 0. -1.
        -11    1    1    2    0    0  0.20252638674E+02 -0.10026205405E+02  0.28882349260E+02  0.36672663754E+02  0.00000000000E+00 0.  1.
         11    1    1    2    0    0 -0.24297622190E+02 -0.53621561751E+02 -0.52161358912E+02  0.78654012563E+02  0.00000000000E+00 0. -1.
</event>
<event>
 7    1  0.2480409E-009  0.7905547E+02  0.7561462E-02  0.1331753E+00
          2   -1    0    0  501    0  0.00000000000E+00  0.00000000000E+00  0.88984925508E+03  0.88984925508E+03  0.00000000000E+00 0. -1.
         -2   -1    0    0    0  501 -0.00000000000E+00 -0.00000000000E+00 -0.16188753328E+02  0.16188753328E+02  0.00000000000E+00 0.  1.
         25    2    1    2    0    0 -0.45388900297E+02  0.25470006311E+02  0.46952664340E+03  0.48868398343E+03  0.12509153972E+03 0.  0.
          5    1    3    3  502    0 -0.38232128561E+02  0.29519012281E+02  0.47532338771E+03  0.47778955937E+03  0.41800000000E+01 0. -1.
         -5    1    3    3    0  502 -0.71567717355E+01 -0.40490059699E+01 -0.57967443110E+01  0.10894424061E+02  0.41800000000E+01 0. -1.
        -11    1    1    2    0    0 -0.48863746668E+00  0.29104331703E+02  0.72144650725E+02  0.77795575187E+02  0.00000000000E+00 0.  1.
         11    1    1    2    0    0  0.45877537763E+02 -0.54574338014E+02  0.33198920762E+03  0.33955844978E+03  0.00000000000E+00 0. -1.
</event>
<event>
 7    1  0.2480409E-009  0.9257267E+02  0.7561462E-02  0.1296739E+00
         -2   -1    0    0    0  501 -0.00000000000E+00  0.00000000000E+00  0.68189045772E+02  0.68189045772E+02  0.00000000000E+00 0. -1.
          2   -1    0    0  501    0  0.00000000000E+00 -0.00000000000E+00 -0.18584279400E+03  0.18584279400E+03  0.00000000000E+00 0.  1.
         25    2    1    2    0    0  0.18627115342E+02 -0.18194523772E+02 -0.56368159566E+02  0.13963700462E+03  0.12507243311E+03 0.  0.
          5    1    3    3  502    0 -0.12315204257E+02  0.29997471678E+02 -0.72888033886E+02  0.79885232970E+02  0.41800000000E+01 0.  1.
         -5    1    3    3    0  502  0.30942319600E+02 -0.48191995450E+02  0.16519874320E+02  0.59751771649E+02  0.41800000000E+01 0.  1.
        -11    1    1    2    0    0 -0.31375717832E+02 -0.31060220345E+02 -0.38775429845E+02  0.58759738912E+02  0.00000000000E+00 0.  1.
         11    1    1    2    0    0  0.12748602489E+02  0.49254744117E+02 -0.22510158815E+02  0.55635096237E+02  0.00000000000E+00 0. -1.
</event>
<event>
 7    1  0.2480409E-009  0.1002092E+03  0.7561462E-02  0.1279857E+00
         -2   -1    0    0    0  501 -0.00000000000E+00  0.00000000000E+00  0.30543145837E+02  0.30543145837E+02  0.00000000000E+00 0.  1.
          2   -1    0    0  501    0  0.00000000000E+00 -0.00000000000E+00 -0.87976518931E+03  0.87976518931E+03  0.00000000000E+00 0. -1.
         25    2    1    2    0    0  0.24622625184E+01 -0.38259890564E+02 -0.77370261177E+03  0.78468674577E+03  0.12509066934E+03 0.  0.
          5    1    3    3  502    0 -0.14060026158E+02  0.40545539025E+02 -0.15990033286E+03  0.16561163582E+03  0.41800000000E+01 0.  1.
         -5    1    3    3    0  502  0.16522288677E+02 -0.78805429589E+02 -0.61380227892E+03  0.61907510995E+03  0.41800000000E+01 0.  1.
        -11    1    1    2    0    0 -0.43418896515E+01  0.57338676259E+02 -0.11301216099E+02  0.58602843670E+02  0.00000000000E+00 0.  1.
         11    1    1    2    0    0  0.18796271331E+01 -0.19078785695E+02 -0.64218215603E+02  0.67018745713E+02  0.00000000000E+00 0. -1.
</event>
<event>
 7    1  0.2480409E-009  0.8834918E+02  0.7561462E-02  0.1306899E+00
         -1   -1    0    0    0  501 -0.00000000000E+00  0.00000000000E+00  0.90442749964E+02  0.90442749964E+02  0.00000000000E+00 0.  1.
          1   -1    0    0  501    0  0.00000000000E+00 -0.00000000000E+00 -0.14058420301E+03  0.14058420301E+03  0.00000000000E+00 0. -1.
         25    2    1    2    0    0 -0.26141354468E+02  0.98324199851E+01 -0.20335473128E+02  0.12977057802E+03  0.12508726777E+03 0.  0.
          5    1    3    3  502    0  0.58828248745E+01  0.56161145014E+02 -0.40704206059E+02  0.69735117614E+02  0.41800000000E+01 0. -1.
         -5    1    3    3    0  502 -0.32024179343E+02 -0.46328725029E+02  0.20368732931E+02  0.60035460410E+02  0.41800000000E+01 0. -1.
        -11    1    1    2    0    0 -0.11685883679E+02 -0.21109747281E+02 -0.51024817540E+02  0.56442123566E+02  0.00000000000E+00 0. -1.
         11    1    1    2    0    0  0.37827238147E+02  0.11277327296E+02  0.21218837625E+02  0.44814251382E+02  0.00000000000E+00 0.  1.
</event>
<event>
 7    1  0.2480409E-009  0.2265880E+03  0.7561462E-02  0.1129065E+00
         -2   -1    0    0    0  501 -0.00000000000E+00  0.00000000000E+00  0.11559986748E+03  0.11559986748E+03  0.00000000000E+00 0.  1.
          2   -1    0    0  501    0  0.00000000000E+00 -0.00000000000E+00 -0.52381911009E+03  0.52381911009E+03  0.00000000000E+00 0. -1.
         25    2    1    2    0    0 -0.12086807067E+03  0.17041395425E+03 -0.30390623145E+03  0.38943144559E+03  0.12509135456E+03 0.  0.
          5    1    3    3  502    0 -0.42677919667E+02 -0.85132687391E+01 -0.88202763299E+02  0.98443285324E+02  0.41800000000E+01 0.  1.
         -5    1    3    3    0  502 -0.78190151007E+02  0.17892722299E+03 -0.21570346815E+03  0.29098816026E+03  0.41800000000E+01 0.  1.
        -11    1    1    2    0    0  0.80186318604E+02 -0.72438953751E+02 -0.10852023575E+02  0.10860485315E+03  0.00000000000E+00 0.  1.
         11    1    1    2    0    0  0.40681752070E+02 -0.97975000500E+02 -0.93460987583E+02  0.14138267883E+03  0.00000000000E+00 0. -1.
</event>
<event>
 7    1  0.2480409E-009  0.1061771E+03  0.7561462E-02  0.1267818E+00
          2   -1    0    0  501    0  0.00000000000E+00  0.00000000000E+00  0.21687096550E+03  0.21687096550E+03  0.00000000000E+00 0. -1.
         -2   -1    0    0    0  501 -0.00000000000E+00 -0.00000000000E+00 -0.95572917650E+02  0.95572917650E+02  0.00000000000E+00 0.  1.
         25    2    1    2    0    0 -0.67329081967E+01  0.88833211277E+02  0.33812599208E+02  0.15725030938E+03  0.12509075288E+03 0.  0.
          5    1    3    3  502    0 -0.12681815799E+01  0.64015745534E+02 -0.42330545609E+02  0.76869834476E+02  0.41800000000E+01 0.  1.
         -5    1    3    3    0  502 -0.54647266168E+01  0.24817465743E+02  0.76143144817E+02  0.80380474902E+02  0.41800000000E+01 0.  1.
        -11    1    1    2    0    0  0.43586066936E+02 -0.65965810055E+02  0.33308100257E+02  0.85794305580E+02  0.00000000000E+00 0.  1.
         11    1    1    2    0    0 -0.36853158739E+02 -0.22867401221E+02  0.54177348388E+02  0.69399268195E+02  0.00000000000E+00 0. -1.
</event>
<event>
 7    1  0.2480409E-009  0.1296117E+03  0.7561462E-02  0.1228033E+00
          1   -1    0    0  501    0  0.00000000000E+00  0.00000000000E+00  0.14035882067E+03  0.14035882067E+03  0.00000000000E+00 0. -1.
         -1   -1    0    0    0  501 -0.00000000000E+00 -0.00000000000E+00 -0.14301366555E+03  0.14301366555E+03  0.00000000000E+00 0.  1.
         25    2    1    2    0    0  0.12299899233E+01  0.93387570903E+02  0.10943692168E+02  0.15648522452E+03  0.12508041342E+03 0.  0.
          5    1    3    3  502    0  0.46407069896E+02  0.31148878900E+02 -0.35691063857E+02  0.66446920413E+02  0.41800000000E+01 0.  1.
         -5    1    3    3    0  502 -0.45177079973E+02  0.62238692004E+02  0.46634756026E+02  0.90038304109E+02  0.41800000000E+01 0.  1.
        -11    1    1    2    0    0  0.24956785470E+02 -0.96600687733E+02 -0.10949879442E+02  0.10037147937E+03  0.00000000000E+00 0.  1.
         11    1    1    2    0    0 -0.26186775393E+02  0.32131168291E+01 -0.26486576096E+01  0.26515782327E+02  0.00000000000E+00 0. -1.
</event>
<event>
 7    1  0.2480409E-009  0.1833326E+03  0.7561462E-02  0.1164616E+00
          4   -1    0    0  501    0  0.00000000000E+00  0.00000000000E+00  0.77457617144E+02  0.77457617144E+02  0.00000000000E+00 0. -1.
         -4   -1    0    0    0  501 -0.00000000000E+00 -0.00000000000E+00 -0.54832849203E+03  0.54832849203E+03  0.00000000000E+00 0.  1.
         25    2    1    2    0    0  0.15987502581E+03 -0.23034518570E+02 -0.14363027535E+03  0.24973624534E+03  0.12509165966E+03 0.  0.
          5    1    3    3  502    0  0.13108834561E+03  0.22040351121E+02 -0.14409444089E+03  0.19608827535E+03  0.41800000000E+01 0. -1.
         -5    1    3    3    0  502  0.28786680200E+02 -0.45074869691E+02  0.46416554584E+00  0.53647969992E+02  0.41800000000E+01 0. -1.
        -11    1    1    2    0    0 -0.65651547710E+02  0.49424386931E+02 -0.10588594875E+03  0.13403257023E+03  0.00000000000E+00 0. -1.
         11    1    1    2    0    0 -0.94223478098E+02 -0.26389868362E+02 -0.22135465079E+03  0.24201729361E+03  0.00000000000E+00 0.  1.
</event>
<event>
 7    1  0.2480409E-009  0.1014828E+03  0.7561462E-02  0.1277208E+00
         -1   -1    0    0    0  501 -0.00000000000E+00  0.00000000000E+00  0.20120020961E+02  0.20120020961E+02  0.00000000000E+00 0.  1.
          1   -1    0    0  501    0  0.00000000000E+00 -0.00000000000E+00 -0.81297799874E+03  0.81297799874E+03  0.00000000000E+00 0. -1.
         25    2    1    2    0    0 -0.83693038630E+01 -0.30576905248E+02 -0.62641568984E+03  0.63956976862E+03  0.12509148684E+03 0.  0.
          5    1    3    3  502    0 -0.27342342517E+02  0.42295647745E+02 -0.18599927357E+03  0.19274264624E+03  0.41800000000E+01 0.  1.
         -5    1    3    3    0  502  0.18973038654E+02 -0.72872552994E+02 -0.44041641627E+03  0.44682712238E+03  0.41800000000E+01 0.  1.
        -11    1    1    2    0    0 -0.25869966713E+02 -0.63651877327E+01 -0.88354698113E+01  0.28068422103E+02  0.00000000000E+00 0.  1.
         11    1    1    2    0    0  0.34239270576E+02  0.36942092981E+02 -0.15760681813E+03  0.16545982898E+03  0.00000000000E+00 0. -1.
</event>
<event>
 7    1  0.2480409E-009  0.7305374E+02  0.7561462E-02  0.1350006E+00
          1   -1    0    0  501    0  0.00000000000E+00  0.00000000000E+00  0.12877995820E+03  0.12877995820E+03  0.00000000000E+00 0. -1.
         -1   -1    0    0    0  501 -0.00000000000E+00 -0.00000000000E+00 -0.97369152858E+02  0.97369152858E+02  0.00000000000E+00 0.  1.
         25    2    1    2    0    0  0.27557907845E+02  0.67481435154E+01  0.23395443766E+02  0.13038949880E+03  0.12509635839E+03 0.  0.
          5    1    3    3  502    0  0.41199038283E+02 -0.14545335566E+02 -0.41630817498E+02  0.60494007205E+02  0.41800000000E+01 0.  1.
         -5    1    3    3    0  502 -0.13641130438E+02  0.21293479082E+02  0.65026261263E+02  0.69895491592E+02  0.41800000000E+01 0.  1.
        -11    1    1    2    0    0 -0.37277909710E+02 -0.32251194706E+02 -0.23043474030E+02  0.54413084894E+02  0.00000000000E+00 0.  1.
         11    1    1    2    0    0  0.97200018644E+01  0.25503051190E+02  0.31058835608E+02  0.41346527370E+02  0.00000000000E+00 0. -1.
</event>
<event>
 7    1  0.2480409E-009  0.2644284E+03  0.7561462E-02  0.1104511E+00
         -2   -1    0    0    0  501 -0.00000000000E+00  0.00000000000E+00  0.53551886841E+03  0.53551886841E+03  0.00000000000E+00 0.  1.
          2   -1    0    0  501    0  0.00000000000E+00 -0.00000000000E+00 -0.15123900719E+03  0.15123900719E+03  0.00000000000E+00 0. -1.
         25    2    1    2    0    0 -0.24918577740E+03  0.63464899796E+02  0.26513215674E+03  0.38995333533E+03  0.12508876061E+03 0.  0.
          5    1    3    3  502    0 -0.11446678364E+03  0.24182877195E+02  0.38269901780E+02  0.12316458049E+03  0.41800000000E+01 0. -1.
         -5    1    3    3    0  502 -0.13471899376E+03  0.39282022601E+02  0.22686225496E+03  0.26678875483E+03  0.41800000000E+01 0. -1.
        -11    1    1    2    0    0  0.36545262732E+02 -0.44980163694E+02  0.32494816083E+02  0.66443091638E+02  0.00000000000E+00 0.  1.
         11    1    1    2    0    0  0.21264051467E+03 -0.18484736101E+02  0.86652888393E+02  0.23036144863E+03  0.00000000000E+00 0. -1.
</event>
<event>
 7    1  0.2480409E-009  0.1024385E+03  0.7561462E-02  0.1275250E+00
          2   -1    0    0  501    0  0.00000000000E+00  0.00000000000E+00  0.13099026192E+04  0.13099026192E+04  0.00000000000E+00 0. -1.
         -2   -1    0    0    0  501 -0.00000000000E+00 -0.00000000000E+00 -0.12916944958E+02  0.12916944958E+02  0.00000000000E+00 0.  1.
         25    2    1    2    0    0 -0.17499351065E+02  0.15941884421E+02  0.10579595913E+04  0.10655919813E+04  0.12508957923E+03 0.  0.
          5    1    3    3  502    0 -0.12127496510E+02  0.62553602034E+02  0.33070805037E+03  0.33681644301E+03  0.41800000000E+01 0. -1.
         -5    1    3    3    0  502 -0.53718545554E+01 -0.46611717613E+02  0.72725154095E+03  0.72877553832E+03  0.41800000000E+01 0. -1.
        -11    1    1    2    0    0 -0.34426666793E+02 -0.23157523360E+02  0.12551870810E+03  0.13219838259E+03  0.00000000000E+00 0. -1.
         11    1    1    2    0    0  0.51926017858E+02  0.72156389384E+01  0.11350737481E+03  0.12502920024E+03  0.00000000000E+00 0.  1.
</event>
<event>
 7    1  0.2480409E-009  0.9467811E+02  0.7561462E-02  0.1291903E+00
          2   -1    0    0  501    0  0.00000000000E+00  0.00000000000E+00  0.18574757571E+04  0.18574757571E+04  0.00000000000E+00 0.  1.
         -2   -1    0    0    0  501 -0.00000000000E+00 -0.00000000000E+00 -0.11453713556E+02  0.11453713556E+02  0.00000000000E+00 0. -1.
         25    2    1    2    0    0  0.63689358471E+02  0.13050510534E+02  0.14661057092E+04  0.14728675229E+04  0.12508452883E+03 0.  0.
          5    1    3    3  502    0  0.67849142623E+02  0.23419089582E+02  0.38265204995E+03  0.38934820360E+03  0.41800000000E+01 0. -1.
         -5    1    3    3    0  502 -0.41597841521E+01 -0.10368579047E+02  0.10834536592E+04  0.10835193193E+04  0.41800000000E+01 0. -1.
        -11    1    1    2    0    0 -0.78807935093E+02  0.84344550528E+01  0.33288729309E+03  0.34219260741E+03  0.00000000000E+00 0. -1.
         11    1    1    2    0    0  0.15118576622E+02 -0.21484965587E+02  0.47029041324E+02  0.53869340382E+02  0.00000000000E+00 0.  1.
</event>
<event>
 7    1  0.2480409E-009  0.1224181E+03  0.7561462E-02  0.1239160E+00
          1   -1    0    0  501    0  0.00000000000E+00  0.00000000000E+00  0.55838962847E+02  0.55838962847E+02  0.00000000000E+00 0. -1.
         -1   -1    0    0    0  501 -0.00000000000E+00 -0.00000000000E+00 -0.38827295313E+03  0.38827295313E+03  0.00000000000E+00 0.  1.
         25    2    1    2    0    0  0.86436441801E+02  0.30746237915E+02 -0.12043352977E+03  0.19638577428E+03  0.12508616082E+03 0.  0.
          5    1    3    3  502    0  0.11259872900E+03  0.30055473711E+00 -0.73710299339E+02  0.13464488380E+03  0.41800000000E+01 0. -1.
         -5    1    3    3    0  502 -0.26162287196E+02  0.30445683177E+02 -0.46723230428E+02  0.61740890479E+02  0.41800000000E+01 0. -1.
        -11    1    1    2    0    0 -0.63613752904E+02 -0.24148099584E+02 -0.21334294977E+03  0.22393091454E+03  0.00000000000E+00 0.  1.
         11    1    1    2    0    0 -0.22822688897E+02 -0.65981383301E+01  0.13424892535E+01  0.23795227154E+02  0.00000000000E+00 0. -1.
</event>
<event>
 7    1  0.2480409E-009  0.2221116E+03  0.7561462E-02  0.1132319E+00
         -2   -1    0    0    0  501 -0.00000000000E+00  0.00000000000E+00  0.82305100647E+02  0.82305100647E+02  0.00000000000E+00 0.  1.
          2   -1    0    0  501    0  0.00000000000E+00 -0.00000000000E+00 -0.75825200494E+03  0.75825200494E+03  0.00000000000E+00 0. -1.
         25    2    1    2    0    0 -0.20488424249E+03  0.50126804057E+02 -0.21743634235E+03  0.32774491265E+03  0.12509162836E+03 0.  0.
          5    1    3    3  502    0 -0.18738182987E+02  0.35705940352E+02  0.75336782718E+00  0.40547177967E+02  0.41800000000E+01 0. -1.
         -5    1    3    3    0  502 -0.18614605951E+03  0.14420863705E+02 -0.21818971018E+03  0.28719773469E+03  0.41800000000E+01 0. -1.
        -11    1    1    2    0    0  0.98017539495E+02  0.19834794288E+01 -0.29341848516E+03  0.30936350734E+03  0.00000000000E+00 0. -1.
         11    1    1    2    0    0  0.10686670300E+03 -0.52110283486E+02 -0.16509207678E+03  0.20344868559E+03  0.00000000000E+00 0.  1.
</event>
<event>
 7    1  0.2480409E-009  0.1343734E+03  0.7561462E-02  0.1221107E+00
          1   -1    0    0  501    0  0.00000000000E+00  0.00000000000E+00  0.49683904114E+03  0.49683904114E+03  0.00000000000E+00 0. -1.
         -1   -1    0    0    0  501 -0.00000000000E+00 -0.00000000000E+00 -0.11928704563E+03  0.11928704563E+03  0.00000000000E+00 0.  1.
         25    2    1    2    0    0  0.10751621844E+03 -0.79930185166E+01  0.43430038830E+03  0.46463730509E+03  0.12508945772E+03 0.  0.
          5    1    3    3  502    0  0.70550197468E+02  0.53759326439E+02  0.29064956420E+03  0.30391123229E+03  0.41800000000E+01 0. -1.
         -5    1    3    3    0  502  0.36966020968E+02 -0.61752344956E+02  0.14365082410E+03  0.16072607280E+03  0.41800000000E+01 0. -1.
        -11    1    1    2    0    0 -0.20470058183E+02  0.30038772024E+00  0.24665730686E+02  0.32054824676E+02  0.00000000000E+00 0. -1.
         11    1    1    2    0    0 -0.87046160253E+02  0.76926307964E+01 -0.81414123481E+02  0.11943395700E+03  0.00000000000E+00 0.  1.
</event>
<event>
 7    1  0.2480409E-009  0.8964483E+02  0.7561462E-02  0.1303714E+00
          3   -1    0    0  501    0  0.00000000000E+00  0.00000000000E+00  0.88142170001E+02  0.88142170001E+02  0.00000000000E+00 0. -1.
         -3   -1    0    0    0  501 -0.00000000000E+00 -0.00000000000E+00 -0.14748834408E+03  0.14748834408E+03  0.00000000000E+00 0.  1.
         25    2    1    2    0    0 -0.24658215925E+01  0.86031338354E+01  0.54144505337E+01  0.12551980162E+03  0.12508321285E+03 0.  0.
          5    1    3    3  502    0 -0.19786323919E+02  0.56146547941E+02 -0.26769080247E+02  0.65406341567E+02  0.41800000000E+01 0. -1.
         -5    1    3    3    0  502  0.17320502326E+02 -0.47543414106E+02  0.32183530781E+02  0.60113460050E+02  0.41800000000E+01 0. -1.
        -11    1    1    2    0    0  0.35282604391E+02 -0.70903812225E+01 -0.68166380697E+02  0.77083014574E+02  0.00000000000E+00 0.  1.
         11    1    1    2    0    0 -0.32816782798E+02 -0.15127526130E+01  0.34057560797E+01  0.33027697894E+02  0.00000000000E+00 0. -1.
</event>
<event>
 7    1  0.3163403E-009  0.1281921E+03  0.7561462E-02  0.1230163E+00
          1   -1    0    0  501    0  0.00000000000E+00  0.00000000000E+00  0.59584781658E+03  0.59584781658E+03  0.00000000000E+00 0. -1.
         -1   -1    0    0    0  501 -0.00000000000E+00 -0.00000000000E+00 -0.37521082399E+02  0.37521082399E+02  0.00000000000E+00 0.  1.
         25    2    1    2    0    0 -0.84347436889E+02  0.57630170378E+02  0.28480109791E+03  0.32740681638E+03  0.12509129224E+03 0.  0.
          5    1    3    3  502    0 -0.85058227340E+00  0.34632141095E+02  0.59643777892E+01  0.35399927817E+02  0.41800000000E+01 0. -1.
         -5    1    3    3    0  502 -0.83496854615E+02  0.22998029283E+02  0.27883672012E+03  0.29200688857E+03  0.41800000000E+01 0. -1.
        -11    1    1    2    0    0  0.27035163914E+02 -0.70964970008E+02  0.12574212703E+03  0.14689455254E+03  0.00000000000E+00 0.  1.
         11    1    1    2    0    0  0.57312272974E+02  0.13334799630E+02  0.14778350924E+03  0.15906753005E+03  0.00000000000E+00 0. -1.
</event>
<event>
 7    1  0.2480409E-009  0.1330622E+03  0.7561462E-02  0.1222981E+00
          1   -1    0    0  501    0  0.00000000000E+00  0.00000000000E+00  0.15738411984E+03  0.15738411984E+03  0.00000000000E+00 0. -1.
         -1   -1    0    0    0  501 -0.00000000000E+00 -0.00000000000E+00 -0.21230413433E+03  0.21230413433E+03  0.00000000000E+00 0.  1.
         25    2    1    2    0    0 -0.60389922761E+02  0.88417853949E+02  0.72217888567E+02  0.17979675843E+03  0.12508713461E+03 0.  0.
          5    1    3    3  502    0 -0.56952871157E+01  0.99147748989E+02  0.73927691546E+02  0.12387690827E+03  0.41800000000E+01 0. -1.
         -5    1    3    3    0  502 -0.54694635645E+02 -0.10729895040E+02 -0.17098029790E+01  0.55919850162E+02  0.41800000000E+01 0. -1.
        -11    1    1    2    0    0  0.33803793593E+02 -0.24931736744E+02  0.35848201343E+01  0.42156125222E+02  0.00000000000E+00 0. -1.
         11    1    1    2    0    0  0.26586129168E+02 -0.63486117205E+02 -0.13072272319E+03  0.14773537051E+03  0.00000000000E+00 0.  1.
</event>
<event>
 7    1  0.2480409E-009  0.9810349E+02  0.7561462E-02  0.1284335E+00
         -1   -1    0    0    0  501 -0.00000000000E+00  0.00000000000E+00  0.31157912830E+02  0.31157912830E+02  0.00000000000E+00 0.  1.
          1   -1    0    0  501    0  0.00000000000E+00 -0.00000000000E+00 -0.74937376099E+03  0.74937376099E+03  0.00000000000E+00 0. -1.
         25    2    1    2    0    0  0.47006503908E+02 -0.16187692707E+02 -0.63125545177E+03  0.64544737169E+03  0.12508881417E+03 0.  0.
          5    1    3    3  502    0  0.32649329004E+02  0.39402579340E+02 -0.11436183461E+03  0.12535806140E+03  0.41800000000E+01 0.  1.
         -5    1    3    3    0  502  0.14357174904E+02 -0.55590272047E+02 -0.51689361716E+03  0.52008931029E+03  0.41800000000E+01 0.  1.
        -11    1    1    2    0    0 -0.65892209673E+02  0.68996590227E+01 -0.92067371743E+02  0.11342746374E+03  0.00000000000E+00 0. -1.
         11    1    1    2    0    0  0.18885705765E+02  0.92880336844E+01  0.51069753493E+01  0.21656838393E+02  0.00000000000E+00 0.  1.
</event>
<event>
 7    1  0.2480409E-009  0.1231961E+03  0.7561462E-02  0.1237916E+00
          2   -1    0    0  501    0  0.00000000000E+00  0.00000000000E+00  0.36919395427E+03  0.36919395427E+03  0.00000000000E+00 0. -1.
         -2   -1    0    0    0  501 -0.00000000000E+00 -0.00000000000E+00 -0.11644775331E+03  0.11644775331E+03  0.00000000000E+00 0.  1.
         25    2    1    2    0    0  0.68451320423E+02 -0.70104018204E+02  0.30768609633E+03  0.34629219802E+03  0.12508955153E+03 0.  0.
          5    1    3    3  502    0 -0.23364639231E+02 -0.45800664643E+02  0.17907807768E+03  0.18635996768E+03  0.41800000000E+01 0.  1.
         -5    1    3    3    0  502  0.91815959654E+02 -0.24303353560E+02  0.12860801865E+03  0.15993223034E+03  0.41800000000E+01 0.  1.
        -11    1    1    2    0    0 -0.48582888420E+02  0.36763416821E+02 -0.74211440340E+02  0.96016580552E+02  0.00000000000E+00 0.  1.
         11    1    1    2    0    0 -0.19868432003E+02  0.33340601383E+02  0.19271544966E+02  0.43332929005E+02  0.00000000000E+00 0. -1.
</event>
<event>
 7    1  0.2480409E-009  0.9700183E+02  0.7561462E-02  0.1286730E+00
         -2   -1    0    0    0  501 -0.00000000000E+00  0.00000000000E+00  0.38065132370E+02  0.38065132370E+02  0.00000000000E+00 0.  1.
          2   -1    0    0  501    0  0.00000000000E+00 -0.00000000000E+00 -0.29843556760E+03  0.29843556760E+03  0.00000000000E+00 0. -1.
         25    2    1    2    0    0 -0.72333295831E+00 -0.21259525874E+02 -0.12635817141E+03  0.17907145166E+03  0.12509079369E+03 0.  0.
          5    1    3    3  502    0 -0.25198518736E+02 -0.60483227149E+02 -0.30146431765E+02  0.72245870893E+02  0.41800000000E+01 0. -1.
         -5    1    3    3    0  502  0.24475185777E+02  0.39223701275E+02 -0.96211739644E+02  0.10682558076E+03  0.41800000000E+01 0. -1.
        -11    1    1    2    0    0 -0.32799088514E+02  0.32884292585E+02 -0.85856148208E+02  0.97613703399E+02  0.00000000000E+00 0.  1.
         11    1    1    2    0    0  0.33522421472E+02 -0.11624766711E+02 -0.48156115618E+02  0.59815544918E+02  0.00000000000E+00 0. -1.
</event>
<event>
 7    1  0.2480409E-009  0.1248766E+03  0.7561462E-02  0.1235262E+00
          3   -1    0    0  501    0  0.00000000000E+00  0.00000000000E+00  0.12558795015E+03  0.12558795015E+03  0.00000000000E+00 0. -1.
         -3   -1    0    0    0  501 -0.00000000000E+00 -0.00000000000E+00 -0.15431484777E+03  0.15431484777E+03  0.00000000000E+00 0.  1.
         25    2    1    2    0    0 -0.25269582700E+02  0.70724533495E+02 -0.52209916488E+02  0.15496704186E+03  0.12509355393E+03 0.  0.
          5    1    3    3  502    0 -0.21373697872E+01  0.10157566353E+03 -0.55846638007E+02  0.11601078893E+03  0.41800000000E+01 0. -1.
         -5    1    3    3    0  502 -0.23132212913E+02 -0.30851130035E+02  0.36367215191E+01  0.38956252927E+02  0.41800000000E+01 0. -1.
        -11    1    1    2    0    0 -0.26961887104E+02 -0.89988036873E+01  0.32959802190E+02  0.43523216614E+02  0.00000000000E+00 0. -1.
         11    1    1    2    0    0  0.52231469804E+02 -0.61725729808E+02 -0.94767833230E+01  0.81412539454E+02  0.00000000000E+00 0.  1.
</event>
<event>
 7    1  0.2480409E-009  0.1330297E+03  0.7561462E-02  0.1223028E+00
         -2   -1    0    0    0  501 -0.00000000000E+00  0.00000000000E+00  0.13509309647E+03  0.13509309647E+03  0.00000000000E+00 0.  1.
          2   -1    0    0  501    0  0.00000000000E+00 -0.00000000000E+00 -0.21024566875E+03  0.21024566875E+03  0.00000000000E+00 0. -1.
         25    2    1    2    0    0 -0.10587709141E+03 -0.35696052553E+02  0.22198607553E+02  0.16918742292E+03  0.12508972478E+03 0.  0.
          5    1    3    3  502    0 -0.14149398395E+02 -0.22879877387E+02 -0.46440038476E+02  0.53831624885E+02  0.41800000000E+01 0.  1.
         -5    1    3    3    0  502 -0.91727693019E+02 -0.12816175167E+02  0.68638646029E+02  0.11535579804E+03  0.41800000000E+01 0.  1.
        -11    1    1    2    0    0  0.89475232311E+02 -0.16874281080E+02 -0.68784004262E+02  0.11411309216E+03  0.00000000000E+00 0. -1.
         11    1    1    2    0    0  0.16401859103E+02  0.52570333633E+02 -0.28567175575E+02  0.62038250142E+02  0.00000000000E+00 0.  1.
</event>
<event>
 7    1  0.2480409E-009  0.1014511E+03  0.7561462E-02  0.1277274E+00
          2   -1    0    0  501    0  0.00000000000E+00  0.00000000000E+00  0.28685600139E+02  0.28685600139E+02  0.00000000000E+00 0. -1.
         -2   -1    0    0    0  501 -0.00000000000E+00 -0.00000000000E+00 -0.42190270105E+03  0.42190270105E+03  0.00000000000E+00 0.  1.
         25    2    1    2    0    0 -0.23884681937E+02 -0.26170394912E+01 -0.21160607031E+03  0.24698589035E+03  0.12509026387E+03 0.  0.
          5    1    3    3  502    0 -0.54730640089E+02  0.33138343822E+02 -0.17710442997E+03  0.18835350889E+03  0.41800000000E+01 0. -1.
         -5    1    3    3    0  502  0.30845958152E+02 -0.35755383313E+02 -0.34501640337E+02  0.58632381464E+02  0.41800000000E+01 0. -1.
        -11    1    1    2    0    0 -0.33684934848E+02  0.28778472404E+01 -0.55753767870E+02  0.65203063365E+02  0.00000000000E+00 0.  1.
         11    1    1    2    0    0  0.57569616785E+02 -0.26080774919E+00 -0.12585726273E+03  0.13839934747E+03  0.00000000000E+00 0. -1.
</event>
<event>
 7    1  0.2480409E-009  0.1172336E+03  0.7561462E-02  0.1247732E+00
         -2   -1    0    0    0  501 -0.00000000000E+00  0.00000000000E+00  0.15634410211E+02  0.15634410211E+02  0.00000000000E+00 0. -1.
          2   -1    0    0  501    0  0.00000000000E+00 -0.00000000000E+00 -0.99266543964E+03  0.99266543964E+03  0.00000000000E+00 0.  1.
         25    2    1    2    0    0  0.47858452783E+02 -0.34045636138E+02 -0.60191643547E+03  0.61757639802E+03  0.12509066814E+03 0.  0.
          5    1    3    3  502    0  0.14321636691E+02 -0.74005807748E+02 -0.46327214607E+03  0.46938312984E+03  0.41800000000E+01 0.  1.
         -5    1    3    3    0  502  0.33536816092E+02  0.39960171610E+02 -0.13864428941E+03  0.14819326818E+03  0.41800000000E+01 0.  1.
        -11    1    1    2    0    0 -0.23524947897E+02 -0.30000399730E+02 -0.95289424918E+02  0.10263294626E+03  0.00000000000E+00 0. -1.
         11    1    1    2    0    0 -0.24333504887E+02  0.64046035868E+02 -0.27982516903E+03  0.28809050556E+03  0.00000000000E+00 0.  1.
</event>
<event>
 7    1  0.2480409E-009  0.9441311E+02  0.7561462E-02  0.1292503E+00
          2   -1    0    0  501    0  0.00000000000E+00  0.00000000000E+00  0.23047807673E+02  0.23047807673E+02  0.00000000000E+00 0. -1.
         -2   -1    0    0    0  501 -0.00000000000E+00 -0.00000000000E+00 -0.57256577954E+03  0.57256577954E+03  0.00000000000E+00 0.  1.
         25    2    1    2    0    0 -0.48224807291E+01 -0.92293648121E+01 -0.41189598607E+03  0.43059824398E+03  0.12509239339E+03 0.  0.
          5    1    3    3  502    0 -0.71073291106E+01 -0.65975724190E+02 -0.18233167706E+03  0.19407633335E+03  0.41800000000E+01 0.  1.
         -5    1    3    3    0  502  0.22848483816E+01  0.56746359378E+02 -0.22956430901E+03  0.23652191062E+03  0.41800000000E+01 0.  1.
        -11    1    1    2    0    0 -0.17452298419E+02  0.30147215323E+02 -0.12848248139E+03  0.13312094252E+03  0.00000000000E+00 0.  1.
         11    1    1    2    0    0  0.22274779148E+02 -0.20917850511E+02 -0.91395044038E+01  0.31894400713E+02  0.00000000000E+00 0. -1.
</event>
<event>
 7    1  0.2480409E-009  0.1092092E+03  0.7561462E-02  0.1262041E+00
         -2   -1    0    0    0  501 -0.00000000000E+00  0.00000000000E+00  0.56503152226E+02  0.56503152226E+02  0.00000000000E+00 0.  1.
          2   -1    0    0  501    0  0.00000000000E+00 -0.00000000000E+00 -0.35177453587E+03  0.35177453587E+03  0.00000000000E+00 0. -1.
         25    2    1    2    0    0  0.21258002692E+02 -0.42466692574E+02 -0.54822807132E+02  0.14460185320E+03  0.12509529612E+03 0.  0.
          5    1    3    3  502    0 -0.48848336021E+02 -0.38277309972E+00 -0.35350540472E+02  0.60443689157E+02  0.41800000000E+01 0. -1.
         -5    1    3    3    0  502  0.70106338713E+02 -0.42083919474E+02 -0.19472266660E+02  0.84158164042E+02  0.41800000000E+01 0. -1.
        -11    1    1    2    0    0  0.57997496705E+01  0.56663475202E+02 -0.68752999098E+02  0.89282480942E+02  0.00000000000E+00 0.  1.
         11    1    1    2    0    0 -0.27057752362E+02 -0.14196782628E+02 -0.17169557742E+03  0.17439335396E+03  0.00000000000E+00 0. -1.
</event>
<event>
 7    1  0.2480409E-009  0.1152531E+03  0.7561462E-02  0.1251140E+00
         -3   -1    0    0    0  501 -0.00000000000E+00  0.00000000000E+00  0.16297303029E+03  0.16297303029E+03  0.00000000000E+00 0.  1.
          3   -1    0    0  501    0  0.00000000000E+00 -0.00000000000E+00 -0.18427558361E+03  0.18427558361E+03  0.00000000000E+00 0. -1.
         25    2    1    2    0    0 -0.10180100225E+03 -0.99877237763E+01 -0.99780090706E+02  0.18991333029E+03  0.12509119808E+03 0.  0.
          5    1    3    3  502    0 -0.12767973052E+02 -0.47169133543E+00 -0.99369554257E+02  0.10027474429E+03  0.41800000000E+01 0. -1.
         -5    1    3    3    0  502 -0.89033029193E+02 -0.95160324409E+01 -0.41053644887E+00  0.89638586004E+02  0.41800000000E+01 0. -1.
        -11    1    1    2    0    0 -0.11549730389E+02 -0.58954885435E+01 -0.67616938465E+01  0.14624416600E+02  0.00000000000E+00 0. -1.
         11    1    1    2    0    0  0.11335073263E+03  0.15883212320E+02  0.85239231231E+02  0.14271086701E+03  0.00000000000E+00 0.  1.
</event>
<event>
 7    1  0.2480409E-009  0.8916979E+02  0.7561462E-02  0.1304875E+00
         -2   -1    0    0    0  501 -0.00000000000E+00  0.00000000000E+00  0.11269596766E+03  0.11269596766E+03  0.00000000000E+00 0.  1.
          2   -1    0    0  501    0  0.00000000000E+00 -0.00000000000E+00 -0.15458682071E+03  0.15458682071E+03  0.00000000000E+00 0. -1.
         25    2    1    2    0    0  0.95755694609E+01  0.42179041687E+02  0.37050700240E+02  0.13744312199E+03  0.12508834601E+03 0.  0.
          5    1    3    3  502    0  0.28911575674E+02  0.68220639490E+02 -0.15246960909E+02  0.75761976461E+02  0.41800000000E+01 0.  1.
         -5    1    3    3    0  502 -0.19336006213E+02 -0.26041597803E+02  0.52297661149E+02  0.61681145531E+02  0.41800000000E+01 0.  1.
        -11    1    1    2    0    0  0.19967749056E+02 -0.48880578725E-01 -0.75691221407E+02  0.78280740861E+02  0.00000000000E+00 0. -1.
         11    1    1    2    0    0 -0.29543318516E+02 -0.42130161108E+02 -0.32503318835E+01  0.51558925525E+02  0.00000000000E+00 0.  1.
</event>
<event>
 7    1  0.2480409E-009  0.1589378E+03  0.7561462E-02  0.1189901E+00
          2   -1    0    0  501    0  0.00000000000E+00  0.00000000000E+00  0.12616825899E+03  0.12616825899E+03  0.00000000000E+00 0. -1.
         -2   -1    0    0    0  501 -0.00000000000E+00 -0.00000000000E+00 -0.43690006423E+03  0.43690006423E+03  0.00000000000E+00 0.  1.
         25    2    1    2    0    0 -0.13078072334E+03  0.27593770300E+02  0.30803288423E+02  0.18563755119E+03  0.12508974409E+03 0.  0.
          5    1    3    3  502    0 -0.14326375306E+03  0.31169086012E+02 -0.55802207940E+01  0.14678087793E+03  0.41800000000E+01 0. -1.
         -5    1    3    3    0  502  0.12483029720E+02 -0.35753157117E+01  0.36383509217E+02  0.38856673254E+02  0.41800000000E+01 0. -1.
        -11    1    1    2    0    0 -0.11360431124E+02  0.38256988158E+01 -0.11042089474E+02  0.16297947930E+02  0.00000000000E+00 0.  1.
         11    1    1    2    0    0  0.14214115446E+03 -0.31419469116E+02 -0.33049300419E+03  0.36113282411E+03  0.00000000000E+00 0. -1.
</event>
<event>
 7    1  0.2480409E-009  0.7298681E+02  0.7561462E-02  0.1350221E+00
          2   -1    0    0  501    0  0.00000000000E+00  0.00000000000E+00  0.12112126452E+04  0.12112126452E+04  0.00000000000E+00 0. -1.
         -2   -1    0    0    0  501 -0.00000000000E+00 -0.00000000000E+00 -0.21020429440E+02  0.21020429440E+02  0.00000000000E+00 0.  1.
         25    2    1    2    0    0 -0.46946840927E+02 -0.41798766617E+02  0.10152523668E+04  0.10248588525E+04  0.12508859448E+03 0.  0.
          5    1    3    3  502    0 -0.80623581333E+01 -0.19640826089E+02  0.91187926793E+03  0.91213597415E+03  0.41800000000E+01 0.  1.
         -5    1    3    3    0  502 -0.38884482793E+02 -0.22157940528E+02  0.10337309891E+03  0.11272287837E+03  0.41800000000E+01 0.  1.
        -11    1    1    2    0    0  0.73805700914E+01  0.39030781273E+02  0.14790928568E+02  0.42386864351E+02  0.00000000000E+00 0.  1.
         11    1    1    2    0    0  0.39566270835E+02  0.27679853443E+01  0.16014892033E+03  0.16498735774E+03  0.00000000000E+00 0. -1.
</event>
<event>
 7    1  0.2480409E-009  0.1107619E+03  0.7561462E-02  0.1259165E+00
         -1   -1    0    0    0  501 -0.00000000000E+00  0.00000000000E+00  0.26196681764E+03  0.26196681764E+03  0.00000000000E+00 0.  1.
          1   -1    0    0  501    0  0.00000000000E+00 -0.00000000000E+00 -0.10230910389E+03  0.10230910389E+03  0.00000000000E+00 0. -1.
         25    2    1    2    0    0  0.15271687110E+02 -0.90895755052E+02 -0.58257986181E+01  0.15548698237E+03  0.12508796522E+03 0.  0.
          5    1    3    3  502    0  0.35579346825E+02 -0.71535242474E+02 -0.56133640490E+02  0.97732486057E+02  0.41800000000E+01 0.  1.
         -5    1    3    3    0  502 -0.20307659716E+02 -0.19360512578E+02  0.50307841872E+02  0.57754496312E+02  0.41800000000E+01 0.  1.
        -11    1    1    2    0    0 -0.87424781356E+01 -0.92884930977E+01  0.66820391223E+02  0.68026992519E+02  0.00000000000E+00 0.  1.
         11    1    1    2    0    0 -0.65292089739E+01  0.10018424815E+03  0.98663121142E+02  0.14076194664E+03  0.00000000000E+00 0. -1.
</event>
<event>
 7    1  0.2480409E-009  0.2063747E+03  0.7561462E-02  0.1144469E+00
         -2   -1    0    0    0  501 -0.00000000000E+00  0.00000000000E+00  0.36217300057E+02  0.36217300057E+02  0.00000000000E+00 0.  1.
          2   -1    0    0  501    0  0.00000000000E+00 -0.00000000000E+00 -0.16905042829E+04  0.16905042829E+04  0.00000000000E+00 0. -1.
         25    2    1    2    0    0 -0.75051436760E+02  0.18576315246E+03 -0.11880892808E+04  0.12113394451E+04  0.12508575128E+03 0.  0.
          5    1    3    3  502    0 -0.75772202253E+02  0.12503224633E+03 -0.10537192139E+04  0.10638214810E+04  0.41800000000E+01 0. -1.
         -5    1    3    3    0  502  0.72076549287E+00  0.60730906135E+02 -0.13437006684E+03  0.14751796408E+03  0.41800000000E+01 0. -1.
        -11    1    1    2    0    0  0.70475765463E+02 -0.11623245951E+03 -0.38550249907E+03  0.40876520761E+03  0.00000000000E+00 0. -1.
         11    1    1    2    0    0  0.45756712969E+01 -0.69530692958E+02 -0.80695203005E+02  0.10661693026E+03  0.00000000000E+00 0.  1.
</event>
<event>
 7    1  0.2480409E-009  0.8611358E+02  0.7561462E-02  0.1312546E+00
         -2   -1    0    0    0  501 -0.00000000000E+00  0.00000000000E+00  0.40049164295E+02  0.40049164295E+02  0.00000000000E+00 0.  1.
          2   -1    0    0  501    0  0.00000000000E+00 -0.00000000000E+00 -0.29871537600E+03  0.29871537600E+03  0.00000000000E+00 0. -1.
         25    2    1    2    0    0  0.14335465313E+02  0.24571813792E+02 -0.14640806616E+03  0.19465860189E+03  0.12508944742E+03 0.  0.
          5    1    3    3  502    0 -0.35702470720E+02 -0.43291964132E+01  0.10564396535E+01  0.36221496681E+02  0.41800000000E+01 0.  1.
         -5    1    3    3    0  502  0.50037936033E+02  0.28901010206E+02 -0.14746450581E+03  0.15843710521E+03  0.41800000000E+01 0.  1.
        -11    1    1    2    0    0 -0.84994989702E+01  0.25909456689E+02 -0.78490819732E+02  0.83092419695E+02  0.00000000000E+00 0. -1.
         11    1    1    2    0    0 -0.58359663430E+01 -0.50481270481E+02 -0.33767325819E+02  0.61013518711E+02  0.00000000000E+00 0.  1.
</event>
<event>
 7    1  0.2480409E-009  0.1120349E+03  0.7561462E-02  0.1256847E+00
         -3   -1    0    0    0  501 -0.00000000000E+00  0.00000000000E+00  0.17498031040E+03  0.17498031040E+03  0.00000000000E+00 0.  1.
          3   -1    0    0  501    0  0.00000000000E+00 -0.00000000000E+00 -0.84515649415E+02  0.84515649415E+02  0.00000000000E+00 0. -1.
         25    2    1    2    0    0  0.12099475248E+02 -0.33819540329E+02  0.42408481999E+01  0.13021410903E+03  0.12509025057E+03 0.  0.
          5    1    3    3  502    0 -0.55898088540E+02 -0.76060581989E+01 -0.42476086009E+01  0.56727092316E+02  0.41800000000E+01 0.  1.
         -5    1    3    3    0  502  0.67997563788E+02 -0.26213482130E+02  0.84884568007E+01  0.73487016713E+02  0.41800000000E+01 0.  1.
        -11    1    1    2    0    0 -0.16728918591E+02 -0.27944701434E+02  0.18299655806E+02  0.37358271615E+02  0.00000000000E+00 0.  1.
         11    1    1    2    0    0  0.46294433427E+01  0.61764241763E+02  0.67924156979E+02  0.91923579170E+02  0.00000000000E+00 0. -1.
</event>
<event>
 7    1  0.2695094E-009  0.1738660E+03  0.7561462E-02  0.1173875E+00
         -1   -1    0    0    0  501 -0.00000000000E+00  0.00000000000E+00  0.50736753660E+02  0.50736753660E+02  0.00000000000E+00 0.  1.
          1   -1    0    0  501    0  0.00000000000E+00 -0.00000000000E+00 -0.75212099998E+03  0.75212099998E+03  0.00000000000E+00 0. -1.
         25    2    1    2    0    0 -0.44671207826E+02 -0.14428520780E+03 -0.24624814330E+03  0.31480134329E+03  0.12509196482E+03 0.  0.
          5    1    3    3  502    0  0.13771122899E+01 -0.14635420552E+03 -0.21003328044E+03  0.25603300803E+03  0.41800000000E+01 0. -1.
         -5    1    3    3    0  502 -0.46048320116E+02  0.20689977183E+01 -0.36214862860E+02  0.58768335259E+02  0.41800000000E+01 0. -1.
        -11    1    1    2    0    0  0.90244090881E+01  0.87614945967E+02 -0.13640880495E+03  0.16237358401E+03  0.00000000000E+00 0.  1.
         11    1    1    2    0    0  0.35646798738E+02  0.56670261830E+02 -0.31872729807E+03  0.32568282633E+03  0.00000000000E+00 0. -1.
</event>
<event>
 7    1  0.2480409E-009  0.8302859E+02  0.7561462E-02  0.1320670E+00
         -4   -1    0    0    0  501 -0.00000000000E+00  0.00000000000E+00  0.20697397082E+03  0.20697397082E+03  0.00000000000E+00 0.  1.
          4   -1    0    0  501    0  0.00000000000E+00 -0.00000000000E+00 -0.11759221960E+03  0.11759221960E+03  0.00000000000E+00 0. -1.
         25    2    1    2    0    0 -0.44544044652E+02  0.16018756210E+02  0.11511026691E+03  0.17647097229E+03  0.12510338944E+03 0.  0.
          5    1    3    3  502    0 -0.51675566580E+02  0.38549237312E+01 -0.79003379474E+01  0.52584335671E+02  0.41800000000E+01 0. -1.
         -5    1    3    3    0  502  0.71315219277E+01  0.12163832479E+02  0.12301060485E+03  0.12388663662E+03  0.41800000000E+01 0. -1.
        -11    1    1    2    0    0  0.14703184283E+02  0.36281941917E+02  0.42036479908E+02  0.57442393582E+02  0.00000000000E+00 0.  1.
         11    1    1    2    0    0  0.29840860369E+02 -0.52300698127E+02 -0.67764995588E+02  0.90652824552E+02  0.00000000000E+00 0. -1.
</event>
<event>
 7    1  0.2480409E-009  0.1366807E+03  0.7561462E-02  0.1217866E+00
          1   -1    0    0  501    0  0.00000000000E+00  0.00000000000E+00  0.12782461733E+04  0.12782461733E+04  0.00000000000E+00 0. -1.
         -1   -1    0    0    0  501 -0.00000000000E+00 -0.00000000000E+00 -0.25650782995E+02  0.25650782995E+02  0.00000000000E+00 0.  1.
         25    2    1    2    0    0  0.77671337850E+02  0.73711514650E+02  0.10209649743E+04  0.10341582241E+04  0.12509008553E+03 0.  0.
          5    1    3    3  502    0  0.75540219107E+02  0.12532102307E+02  0.83096801107E+03  0.83449906298E+03  0.41800000000E+01 0.  1.
         -5    1    3    3    0  502  0.21311187428E+01  0.61179412343E+02  0.18999696325E+03  0.19965916109E+03  0.41800000000E+01 0.  1.
        -11    1    1    2    0    0  0.78287144588E+01 -0.44166088056E+02  0.52420016937E+02  0.68991233356E+02  0.00000000000E+00 0. -1.
         11    1    1    2    0    0 -0.85500052309E+02 -0.29545426594E+02  0.17921039906E+03  0.20074749888E+03  0.00000000000E+00 0.  1.
</event>
<event>
 7    1  0.2480409E-009  0.9712321E+02  0.7561462E-02  0.1286464E+00
          2   -1    0    0  501    0  0.00000000000E+00  0.00000000000E+00  0.46947027645E+03  0.46947027645E+03  0.00000000000E+00 0.  1.
         -2   -1    0    0    0  501 -0.00000000000E+00 -0.00000000000E+00 -0.37637535666E+02  0.37637535666E+02  0.00000000000E+00 0. -1.
         25    2    1    2    0    0 -0.54075736182E+02 -0.33599488246E+02  0.15976472131E+03  0.21266311778E+03  0.12509086551E+03 0.  0.
          5    1    3    3  502    0 -0.68151780492E+02 -0.10361160633E+02  0.16987299135E+03  0.18337481949E+03  0.41800000000E+01 0.  1.
         -5    1    3    3    0  502  0.14076044309E+02 -0.23238327613E+02 -0.10108270035E+02  0.29288298291E+02  0.41800000000E+01 0.  1.
        -11    1    1    2    0    0  0.16989847964E+02 -0.23870337743E+02  0.26418968545E+02  0.39451360645E+02  0.00000000000E+00 0. -1.
         11    1    1    2    0    0  0.37085888219E+02  0.57469825990E+02  0.24564905093E+03  0.25499333369E+03  0.00000000000E+00 0.  1.
</event>
<event>
 7    1  0.2480409E-009  0.9761486E+02  0.7561462E-02  0.1285393E+00
          2   -1    0    0  501    0  0.00000000000E+00  0.00000000000E+00  0.43930890017E+03  0.43930890017E+03  0.00000000000E+00 0. -1.
         -2   -1    0    0    0  501 -0.00000000000E+00 -0.00000000000E+00 -0.35913035721E+02  0.35913035721E+02  0.00000000000E+00 0.  1.
         25    2    1    2    0    0 -0.39583071486E+02 -0.43955864531E+02  0.20600538686E+03  0.24816294456E+03  0.12509072731E+03 0.  0.
          5    1    3    3  502    0 -0.72900278339E+02 -0.58173326462E+02  0.18187564441E+03  0.20443778741E+03  0.41800000000E+01 0.  1.
         -5    1    3    3    0  502  0.33317206853E+02  0.14217461931E+02  0.24129742455E+02  0.43725157143E+02  0.41800000000E+01 0.  1.
        -11    1    1    2    0    0  0.10304448819E+02 -0.23975674535E+01 -0.87643213285E+01  0.13738388679E+02  0.00000000000E+00 0.  1.
         11    1    1    2    0    0  0.29278622667E+02  0.46353431985E+02  0.20615479891E+03  0.21332060265E+03  0.00000000000E+00 0. -1.
</event>
<event>
 7    1  0.2480409E-009  0.1869961E+03  0.7561462E-02  0.1161199E+00
          1   -1    0    0  501    0  0.00000000000E+00  0.00000000000E+00  0.51023016408E+03  0.51023016408E+03  0.00000000000E+00 0. -1.
         -1   -1    0    0    0  501 -0.00000000000E+00 -0.00000000000E+00 -0.10815673433E+03  0.10815673433E+03  0.00000000000E+00 0.  1.
         25    2    1    2    0    0 -0.13949456739E+03  0.12345459957E+03  0.86196277767E+02  0.24036767733E+03  0.12508816698E+03 0.  0.
          5    1    3    3  502    0 -0.64137255949E+02  0.42739342657E+02  0.10287529486E+03  0.12861196563E+03  0.41800000000E+01 0. -1.
         -5    1    3    3    0  502 -0.75357311444E+02  0.80715256912E+02 -0.16679017094E+02  0.11175571170E+03  0.41800000000E+01 0. -1.
        -11    1    1    2    0    0  0.12556015043E+03 -0.10992346063E+03  0.31733779467E+03  0.35854120335E+03  0.00000000000E+00 0. -1.
         11    1    1    2    0    0  0.13934416968E+02 -0.13531138942E+02 -0.14606426864E+01  0.19478017721E+02  0.00000000000E+00 0.  1.
</event>
<event>
 7    1  0.2480409E-009  0.8267261E+02  0.7561462E-02  0.1321634E+00
         -2   -1    0    0    0  501 -0.00000000000E+00  0.00000000000E+00  0.71848770583E+02  0.71848770583E+02  0.00000000000E+00 0.  1.
          2   -1    0    0  501    0  0.00000000000E+00 -0.00000000000E+00 -0.32215938583E+03  0.32215938583E+03  0.00000000000E+00 0. -1.
         25    2    1    2    0    0  0.39787879407E+02  0.55758888773E+02 -0.24027405820E+03  0.27941185405E+03  0.12508889686E+03 0.  0.
          5    1    3    3  502    0  0.26568846230E+02  0.17806630762E+02  0.33778474839E+01  0.32432421167E+02  0.41800000000E+01 0. -1.
         -5    1    3    3    0  502  0.13219033176E+02  0.37952258011E+02 -0.24365190568E+03  0.24697943288E+03  0.41800000000E+01 0. -1.
        -11    1    1    2    0    0 -0.46105096989E+02 -0.66085055635E+02 -0.34226618625E+02  0.87546421795E+02  0.00000000000E+00 0. -1.
         11    1    1    2    0    0  0.63172175820E+01  0.10326166862E+02  0.24190061572E+02  0.27049880570E+02  0.00000000000E+00 0.  1.
</event>
<event>
 7    1  0.2480409E-009  0.9592189E+02  0.7561462E-02  0.1289113E+00
         -2   -1    0    0    0  501 -0.00000000000E+00  0.00000000000E+00  0.15667654861E+03  0.15667654861E+03  0.00000000000E+00 0.  1.
          2   -1    0    0  501    0  0.00000000000E+00 -0.00000000000E+00 -0.93198881431E+02  0.93198881431E+02  0.00000000000E+00 0. -1.
         25    2    1    2    0    0  0.22320062299E+00 -0.30552280525E+02  0.78049792979E+02  0.15057444821E+03  0.12508957833E+03 0.  0.
          5    1    3    3  502    0  0.20138794204E+02 -0.68549621120E+02  0.80108536751E+02  0.10742193281E+03  0.41800000000E+01 0.  1.
         -5    1    3    3    0  502 -0.19915593581E+02  0.37997340595E+02 -0.20587437720E+01  0.43152515406E+02  0.41800000000E+01 0.  1.
        -11    1    1    2    0    0 -0.15165949342E+02 -0.19633262310E+02  0.23803468502E+02  0.34381333905E+02  0.00000000000E+00 0.  1.
         11    1    1    2    0    0  0.14942748719E+02  0.50185542834E+02 -0.38375594299E+02  0.64919647925E+02  0.00000000000E+00 0. -1.
</event>
<event>
 7    1  0.2889652E-009  0.1131576E+03  0.7561462E-02  0.1254832E+00
          1   -1    0    0  501    0  0.00000000000E+00  0.00000000000E+00  0.45438064257E+03  0.45438064257E+03  0.00000000000E+00 0. -1.
         -1   -1    0    0    0  501 -0.00000000000E+00 -0.00000000000E+00 -0.51512190641E+02  0.51512190641E+02  0.00000000000E+00 0.  1.
         25    2    1    2    0    0  0.96143265737E+02 -0.22429513133E+02  0.14692798450E+03  0.21675450772E+03  0.12509225948E+03 0.  0.
          5    1    3    3  502    0  0.10919548889E+02  0.17971930695E+02 -0.17149254999E+02  0.27455348985E+02  0.41800000000E+01 0.  1.
         -5    1    3    3    0  502  0.85223716848E+02 -0.40401443828E+02  0.16407723950E+03  0.18929915874E+03  0.41800000000E+01 0.  1.
        -11    1    1    2    0    0 -0.59261602707E+01 -0.12413155601E+02 -0.17795349458E+01  0.13869843263E+02  0.00000000000E+00 0.  1.
         11    1    1    2    0    0 -0.90217105466E+02  0.34842668733E+02  0.25772000237E+03  0.27526848222E+03  0.00000000000E+00 0. -1.
</event>
<event>
 7    1  0.2480409E-009  0.7976075E+02  0.7561462E-02  0.1329732E+00
         -2   -1    0    0    0  501 -0.00000000000E+00  0.00000000000E+00  0.13924383335E+02  0.13924383335E+02  0.00000000000E+00 0.  1.
          2   -1    0    0  501    0  0.00000000000E+00 -0.00000000000E+00 -0.99523348943E+03  0.99523348943E+03  0.00000000000E+00 0. -1.
         25    2    1    2    0    0 -0.41069958246E+02  0.98751936552E+01 -0.63900268215E+03  0.65249797855E+03  0.12507966778E+03 0.  0.
          5    1    3    3  502    0 -0.34988426762E+02 -0.25687718944E+02 -0.58944509903E+03  0.59105587390E+03  0.41800000000E+01 0. -1.
         -5    1    3    3    0  502 -0.60815314841E+01  0.35562912599E+02 -0.49557583126E+02  0.61442104644E+02  0.41800000000E+01 0. -1.
        -11    1    1    2    0    0  0.41810022114E+02 -0.34959139498E+02 -0.31456874322E+03  0.31925493511E+03  0.00000000000E+00 0. -1.
         11    1    1    2    0    0 -0.74006386854E+00  0.25083945843E+02 -0.27737680726E+02  0.37404959105E+02  0.00000000000E+00 0.  1.
</event>
<event>
 7    1  0.2480409E-009  0.5591200E+03  0.7561462E-02  0.9994048E-01
          1   -1    0    0  501    0  0.00000000000E+00  0.00000000000E+00  0.23150677263E+04  0.23150677263E+04  0.00000000000E+00 0. -1.
         -1   -1    0    0    0  501 -0.00000000000E+00 -0.00000000000E+00 -0.17126680476E+03  0.17126680476E+03  0.00000000000E+00 0.  1.
         25    2    1    2    0    0 -0.35366090887E+03 -0.42292987102E+03  0.16375118627E+04  0.17323505240E+04  0.12509006069E+03 0.  0.
          5    1    3    3  502    0 -0.11223476796E+03 -0.61244614305E+02  0.30757274670E+03  0.33311561482E+03  0.41800000000E+01 0.  1.
         -5    1    3    3    0  502 -0.24142614091E+03 -0.36168525672E+03  0.13299391160E+04  0.13992349092E+04  0.41800000000E+01 0.  1.
        -11    1    1    2    0    0  0.80206088321E+02  0.56025324640E+02  0.59885197653E+02  0.11470872026E+03  0.00000000000E+00 0.  1.
         11    1    1    2    0    0  0.27345482055E+03  0.36690454638E+03  0.44640386123E+03  0.63927528684E+03  0.00000000000E+00 0. -1.
</event>
<event>
 7    1  0.2746672E-009  0.9391445E+02  0.7561462E-02  0.1293640E+00
          3   -1    0    0  501    0  0.00000000000E+00  0.00000000000E+00  0.26410999357E+03  0.26410999357E+03  0.00000000000E+00 0. -1.
         -3   -1    0    0    0  501 -0.00000000000E+00 -0.00000000000E+00 -0.56172249492E+02  0.56172249492E+02  0.00000000000E+00 0.  1.
         25    2    1    2    0    0  0.25039196064E+02 -0.24431140913E+02  0.60204641738E+02  0.14316276986E+03  0.12508851986E+03 0.  0.
          5    1    3    3  502    0  0.37667211993E+01 -0.71787712686E+02  0.55410618142E+02  0.90859632864E+02  0.41800000000E+01 0.  1.
         -5    1    3    3    0  502  0.21272474864E+02  0.47356571773E+02  0.47940235964E+01  0.52303136992E+02  0.41800000000E+01 0.  1.
        -11    1    1    2    0    0 -0.20854797730E+02 -0.13975245691E+02  0.71986985171E+00  0.25114702728E+02  0.00000000000E+00 0.  1.
         11    1    1    2    0    0 -0.41843983333E+01  0.38406386604E+02  0.14701323249E+03  0.15200477047E+03  0.00000000000E+00 0. -1.
</event>
<event>
 7    1  0.2480409E-009  0.1147854E+03  0.7561462E-02  0.1251956E+00
          1   -1    0    0  501    0  0.00000000000E+00  0.00000000000E+00  0.28878094009E+03  0.28878094009E+03  0.00000000000E+00 0.  1.
         -1   -1    0    0    0  501 -0.00000000000E+00 -0.00000000000E+00 -0.48064335842E+02  0.48064335842E+02  0.00000000000E+00 0. -1.
         25    2    1    2    0    0  0.33513972561E+01 -0.45205742853E+02  0.12921546507E+03  0.18547051624E+03  0.12509150622E+03 0.  0.
          5    1    3    3  502    0  0.25291559961E+02 -0.83160768280E+02  0.70044029248E+02  0.11170951087E+03  0.41800000000E+01 0. -1.
         -5    1    3    3    0  502 -0.21940162705E+02  0.37955025426E+02  0.59171435825E+02  0.73761005363E+02  0.41800000000E+01 0. -1.
        -11    1    1    2    0    0 -0.21779917425E+02  0.66718224481E+02  0.96495200939E+02  0.11931894269E+03  0.00000000000E+00 0. -1.
         11    1    1    2    0    0  0.18428520169E+02 -0.21512481628E+02  0.15005938235E+02  0.32055817003E+02  0.00000000000E+00 0.  1.
</event>
<event>
 7    1  0.2480409E-009  0.8524731E+02  0.7561462E-02  0.1314787E+00
          2   -1    0    0  501    0  0.00000000000E+00  0.00000000000E+00  0.65322673956E+02  0.65322673956E+02  0.00000000000E+00 0. -1.
         -2   -1    0    0    0  501 -0.00000000000E+00 -0.00000000000E+00 -0.23980734989E+03  0.23980734989E+03  0.00000000000E+00 0.  1.
         25    2    1    2    0    0  0.59765871364E+02  0.19267396281E+02 -0.10510032177E+03  0.17502415837E+03  0.12507672220E+03 0.  0.
          5    1    3    3  502    0  0.27671013139E+02  0.50111629803E+02 -0.11563010464E+03  0.12909164926E+03  0.41800000000E+01 0. -1.
         -5    1    3    3    0  502  0.32094858225E+02 -0.30844233522E+02  0.10529782865E+02  0.45932509111E+02  0.41800000000E+01 0. -1.
        -11    1    1    2    0    0 -0.25028255084E+02 -0.22296868272E+02  0.16538155237E+02  0.37377459330E+02  0.00000000000E+00 0. -1.
         11    1    1    2    0    0 -0.34737616280E+02  0.30294719911E+01 -0.85922509401E+02  0.92728406150E+02  0.00000000000E+00 0.  1.
</event>
<event>
 7    1  0.2480409E-009  0.9285895E+02  0.7561462E-02  0.1296072E+00
         -2   -1    0    0    0  501 -0.00000000000E+00  0.00000000000E+00  0.17158385798E+02  0.17158385798E+02  0.00000000000E+00 0.  1.
          2   -1    0    0  501    0  0.00000000000E+00 -0.00000000000E+00 -0.70290150737E+03  0.70290150737E+03  0.00000000000E+00 0. -1.
         25    2    1    2    0    0 -0.65667885325E+01  0.16647853944E+02 -0.39955328573E+03  0.41905896894E+03  0.12508923838E+03 0.  0.
          5    1    3    3  502    0  0.43198078859E+02  0.32200195538E+02 -0.88927083749E+02  0.10405971955E+03  0.41800000000E+01 0. -1.
         -5    1    3    3    0  502 -0.49764867391E+02 -0.15552341594E+02 -0.31062620198E+03  0.31499924939E+03  0.41800000000E+01 0. -1.
        -11    1    1    2    0    0  0.25848168951E+02  0.23436234466E+02 -0.20916600509E+03  0.21205613080E+03  0.00000000000E+00 0. -1.
         11    1    1    2    0    0 -0.19281380419E+02 -0.40084088410E+02 -0.77023830752E+02  0.88944793430E+02  0.00000000000E+00 0.  1.
</event>
<event>
 7    1  0.2667084E-009  0.1123109E+03  0.7561462E-02  0.1256349E+00
         -2   -1    0    0    0  501 -0.00000000000E+00  0.00000000000E+00  0.35271121965E+02  0.35271121965E+02  0.00000000000E+00 0.  1.
          2   -1    0    0  501    0  0.00000000000E+00 -0.00000000000E+00 -0.57259717109E+03  0.57259717109E+03  0.00000000000E+00 0. -1.
         25    2    1    2    0    0 -0.52488465727E+02  0.56251324261E+02 -0.18775834506E+03  0.23836894534E+03  0.12508919796E+03 0.  0.
          5    1    3    3  502    0 -0.80895336282E+02  0.49477168004E+00 -0.12962730110E+03  0.15285617365E+03  0.41800000000E+01 0.  1.
         -5    1    3    3    0  502  0.28406870555E+02  0.55756552581E+02 -0.58131043956E+02  0.85512771689E+02  0.41800000000E+01 0.  1.
        -11    1    1    2    0    0  0.45403591420E+01 -0.20750701448E+02 -0.79017170251E+01  0.22663706750E+02  0.00000000000E+00 0.  1.
         11    1    1    2    0    0  0.47948106585E+02 -0.35500622813E+02 -0.34166598704E+03  0.34683564096E+03  0.00000000000E+00 0. -1.
</event>
<event>
 7    1  0.2480409E-009  0.9147869E+02  0.7561462E-02  0.1299310E+00
          2   -1    0    0  501    0  0.00000000000E+00  0.00000000000E+00  0.62170612903E+03  0.62170612903E+03  0.00000000000E+00 0. -1.
         -2   -1    0    0    0  501 -0.00000000000E+00 -0.00000000000E+00 -0.24766098837E+02  0.24766098837E+02  0.00000000000E+00 0.  1.
         25    2    1    2    0    0 -0.53940582189E+01  0.36671033973E+02  0.20965221071E+03  0.24693389434E+03  0.12509371736E+03 0.  0.
          5    1    3    3  502    0 -0.42131771529E+02  0.38127184932E+02  0.20101794808E+03  0.20893648856E+03  0.41800000000E+01 0.  1.
         -5    1    3    3    0  502  0.36737713310E+02 -0.14561509589E+01  0.86342626298E+01  0.37997405780E+02  0.41800000000E+01 0.  1.
        -11    1    1    2    0    0 -0.55651594662E+01  0.25371742709E+02  0.49255937906E+02  0.55685220184E+02  0.00000000000E+00 0.  1.
         11    1    1    2    0    0  0.10959217685E+02 -0.62042776681E+02  0.33803188158E+03  0.34385311335E+03  0.00000000000E+00 0. -1.
</event>
<event>
 7    1  0.2480409E-009  0.9654414E+02  0.7561462E-02  0.1287736E+00
          2   -1    0    0  501    0  0.00000000000E+00  0.00000000000E+00  0.83767054627E+03  0.83767054627E+03  0.00000000000E+00 0.  1.
         -2   -1    0    0    0  501 -0.00000000000E+00 -0.00000000000E+00 -0.14732303370E+02  0.14732303370E+02  0.00000000000E+00 0. -1.
         25    2    1    2    0    0  0.18599605327E+02  0.12577854887E+02  0.49678493645E+03  0.51278415909E+03  0.12509265756E+03 0.  0.
          5    1    3    3  502    0 -0.35396968911E+02 -0.30044978605E+02  0.10360240324E+03  0.11360711467E+03  0.41800000000E+01 0.  1.
         -5    1    3    3    0  502  0.53996574238E+02  0.42622833492E+02  0.39318253322E+03  0.39917704442E+03  0.41800000000E+01 0.  1.
        -11    1    1    2    0    0 -0.47530472130E+02 -0.93614326557E+01  0.28571651707E+03  0.28979425517E+03  0.00000000000E+00 0.  1.
         11    1    1    2    0    0  0.28930866803E+02 -0.32164222313E+01  0.40436789375E+02  0.49824435380E+02  0.00000000000E+00 0. -1.
</event>
<event>
 7    1  0.2480409E-009  0.1476978E+03  0.7561462E-02  0.1203331E+00
         -2   -1    0    0    0  501 -0.00000000000E+00  0.00000000000E+00  0.13594861846E+03  0.13594861846E+03  0.00000000000E+00 0.  1.
          2   -1    0    0  501    0  0.00000000000E+00 -0.00000000000E+00 -0.20504166263E+03  0.20504166263E+03  0.00000000000E+00 0. -1.
         25    2    1    2    0    0  0.94543581403E+02 -0.61149616350E+02  0.17745547388E+02  0.16923423235E+03  0.12509019379E+03 0.  0.
          5    1    3    3  502    0 -0.20296243440E+02  0.41651732809E+01  0.29767259104E+02  0.36508194708E+02  0.41800000000E+01 0. -1.
         -5    1    3    3    0  502  0.11483982484E+03 -0.65314789631E+02 -0.12021711717E+02  0.13272603764E+03  0.41800000000E+01 0. -1.
        -11    1    1    2    0    0 -0.60350767951E+02  0.82162194382E+02 -0.38606804051E+02  0.10901067240E+03  0.00000000000E+00 0. -1.
         11    1    1    2    0    0 -0.34192813451E+02 -0.21012578032E+02 -0.48231787504E+02  0.62745376348E+02  0.00000000000E+00 0.  1.
</event>
<event>
 7    1  0.2480409E-009  0.9874308E+02  0.7561462E-02  0.1282961E+00
         -1   -1    0    0    0  501 -0.00000000000E+00  0.00000000000E+00  0.29238610350E+03  0.29238610350E+03  0.00000000000E+00 0.  1.
          1   -1    0    0  501    0  0.00000000000E+00 -0.00000000000E+00 -0.58221407661E+02  0.58221407661E+02  0.00000000000E+00 0. -1.
         25    2    1    2    0    0  0.33241437456E+02  0.58939790387E+02  0.91440549797E+02  0.16908018661E+03  0.12509133984E+03 0.  0.
          5    1    3    3  502    0  0.41597283644E+02  0.84847164675E+02  0.26023727197E+02  0.98102406378E+02  0.41800000000E+01 0.  1.
         -5    1    3    3    0  502 -0.83558461882E+01 -0.25907374289E+02  0.65416822601E+02  0.70977780236E+02  0.41800000000E+01 0.  1.
        -11    1    1    2    0    0 -0.37643625059E+02 -0.36302451374E+02  0.18951133571E+02  0.55624238844E+02  0.00000000000E+00 0. -1.
         11    1    1    2    0    0  0.44021876035E+01 -0.22637339013E+02  0.12377301248E+03  0.12590308571E+03  0.00000000000E+00 0.  1.
</event>
<event>
 7    1  0.2480409E-009  0.1339479E+03  0.7561462E-02  0.1221713E+00
         -1   -1    0    0    0  501 -0.00000000000E+00  0.00000000000E+00  0.15704071343E+02  0.15704071343E+02  0.00000000000E+00 0.  1.
          1   -1    0    0  501    0  0.00000000000E+00 -0.00000000000E+00 -0.15464612860E+04  0.15464612860E+04  0.00000000000E+00 0. -1.
         25    2    1    2    0    0 -0.71188858586E+02  0.55705939880E+02 -0.10884981067E+04  0.10993852106E+04  0.12509479515E+03 0.  0.
          5    1    3    3  502    0 -0.55433558197E+02 -0.27776226615E+02 -0.30381936168E+03  0.31010977906E+03  0.41800000000E+01 0. -1.
         -5    1    3    3    0  502 -0.15755300389E+02  0.83482166495E+02 -0.78467874500E+03  0.78927543156E+03  0.41800000000E+01 0. -1.
        -11    1    1    2    0    0  0.52684383535E+02  0.89519587764E+01 -0.94373628659E+02  0.10845350903E+03  0.00000000000E+00 0.  1.
         11    1    1    2    0    0  0.18504475051E+02 -0.64657898657E+02 -0.34788547934E+03  0.35432663771E+03  0.00000000000E+00 0. -1.
</event>
<event>
 7    1  0.2480409E-009  0.1159105E+03  0.7561462E-02  0.1250000E+00
          2   -1    0    0  501    0  0.00000000000E+00  0.00000000000E+00  0.55748194117E+03  0.55748194117E+03  0.00000000000E+00 0.  1.
         -2   -1    0    0    0  501 -0.00000000000E+00 -0.00000000000E+00 -0.29782040204E+02  0.29782040204E+02  0.00000000000E+00 0. -1.
         25    2    1    2    0    0  0.67348299629E+02  0.17215029574E+01  0.27740316510E+03  0.31167243269E+03  0.12509369391E+03 0.  0.
          5    1    3    3  502    0  0.75094260179E+02  0.51413200741E+02  0.19090135921E+03  0.21152604207E+03  0.41800000000E+01 0. -1.
         -5    1    3    3    0  502 -0.77459605502E+01 -0.49691697783E+02  0.86501805885E+02  0.10014639062E+03  0.41800000000E+01 0. -1.
        -11    1    1    2    0    0 -0.77335560302E+02  0.60863073971E+01  0.25117750645E+03  0.26288395115E+03  0.00000000000E+00 0.  1.
         11    1    1    2    0    0  0.99872606724E+01 -0.78078103545E+01 -0.88077058499E+00  0.12707597534E+02  0.00000000000E+00 0. -1.
</event>
<event>
 7    1  0.2480409E-009  0.3168203E+03  0.7561462E-02  0.1077122E+00
          2   -1    0    0  501    0  0.00000000000E+00  0.00000000000E+00  0.11077982052E+04  0.11077982052E+04  0.00000000000E+00 0. -1.
         -2   -1    0    0    0  501 -0.00000000000E+00 -0.00000000000E+00 -0.11869021925E+03  0.11869021925E+03  0.00000000000E+00 0.  1.
         25    2    1    2    0    0 -0.28508539731E+02  0.31028875387E+03  0.24845986417E+03  0.41769342869E+03  0.12507457236E+03 0.  0.
          5    1    3    3  502    0 -0.53475085519E+01  0.14973837803E+03  0.43105760353E+02  0.15596716539E+03  0.41800000000E+01 0. -1.
         -5    1    3    3    0  502 -0.23161031179E+02  0.16055037584E+03  0.20535410381E+03  0.26172626330E+03  0.41800000000E+01 0. -1.
        -11    1    1    2    0    0 -0.25136806482E+02 -0.15876392900E+03  0.42921034860E+03  0.45832234021E+03  0.00000000000E+00 0.  1.
         11    1    1    2    0    0  0.53645346212E+02 -0.15152482487E+03  0.31143777316E+03  0.35047265553E+03  0.00000000000E+00 0. -1.
</event>
<event>
 7    1  0.2480409E-009  0.9051477E+02  0.7561462E-02  0.1301610E+00
          1   -1    0    0  501    0  0.00000000000E+00  0.00000000000E+00  0.38001732363E+03  0.38001732363E+03  0.00000000000E+00 0. -1.
         -1   -1    0    0    0  501 -0.00000000000E+00 -0.00000000000E+00 -0.46890955192E+02  0.46890955192E+02  0.00000000000E+00 0.  1.
         25    2    1    2    0    0 -0.72093331424E+02  0.88530969770E+01  0.14620225092E+03  0.20566541931E+03  0.12508933113E+03 0.  0.
          5    1    3    3  502    0 -0.25157929216E+02  0.37911175435E+02  0.14310085363E+03  0.15021819242E+03  0.41800000000E+01 0. -1.
         -5    1    3    3    0  502 -0.46935402208E+02 -0.29058078458E+02  0.31013972909E+01  0.55447226885E+02  0.41800000000E+01 0. -1.
        -11    1    1    2    0    0  0.52860452246E+02  0.91354677925E+01  0.18737707452E+03  0.19490472605E+03  0.00000000000E+00 0. -1.
         11    1    1    2    0    0  0.19232879179E+02 -0.17988564770E+02 -0.45295700272E+00  0.26338133457E+02  0.00000000000E+00 0.  1.
</event>
<event>
 7    1  0.2480409E-009  0.9645704E+02  0.7561462E-02  0.1287928E+00
          2   -1    0    0  501    0  0.00000000000E+00  0.00000000000E+00  0.28244575143E+03  0.28244575143E+03  0.00000000000E+00 0. -1.
         -2   -1    0    0    0  501 -0.00000000000E+00 -0.00000000000E+00 -0.42794039500E+02  0.42794039500E+02  0.00000000000E+00 0.  1.
         25    2    1    2    0    0 -0.45323910884E+01 -0.32228302794E+01  0.11399919760E+03  0.16934083750E+03  0.12509825334E+03 0.  0.
          5    1    3    3  502    0 -0.20874193811E+02  0.46363439770E+02  0.10425074956E+03  0.11606460141E+03  0.41800000000E+01 0.  1.
         -5    1    3    3    0  502  0.16341802723E+02 -0.49586270049E+02  0.97484480364E+01  0.53276236098E+02  0.41800000000E+01 0.  1.
        -11    1    1    2    0    0  0.17492622262E+02 -0.40393680595E+02  0.42921869044E+02  0.61481119930E+02  0.00000000000E+00 0.  1.
         11    1    1    2    0    0 -0.12960231174E+02  0.43616510874E+02  0.82730645284E+02  0.94417833495E+02  0.00000000000E+00 0. -1.
</event>
<event>
 7    1  0.2480409E-009  0.1133885E+03  0.7561462E-02  0.1254421E+00
          2   -1    0    0  501    0  0.00000000000E+00  0.00000000000E+00  0.48271008952E+03  0.48271008952E+03  0.00000000000E+00 0. -1.
         -2   -1    0    0    0  501 -0.00000000000E+00 -0.00000000000E+00 -0.41464469038E+02  0.41464469038E+02  0.00000000000E+00 0.  1.
         25    2    1    2    0    0 -0.51184378285E+01  0.91836330790E+02  0.24560141187E+03  0.29056482601E+03  0.12509098507E+03 0.  0.
          5    1    3    3  502    0  0.19518221575E+02  0.55455178198E+02  0.22415824079E+02  0.63056953079E+02  0.41800000000E+01 0. -1.
         -5    1    3    3    0  502 -0.24636659404E+02  0.36381152592E+02  0.22318558779E+03  0.22750787293E+03  0.41800000000E+01 0. -1.
        -11    1    1    2    0    0 -0.13925334044E+02 -0.10142798142E+03  0.13571602347E+03  0.17000114521E+03  0.00000000000E+00 0.  1.
         11    1    1    2    0    0  0.19043771872E+02  0.95916506335E+01  0.59928185141E+02  0.63608587339E+02  0.00000000000E+00 0. -1.
</event>
<event>
 7    1  0.2480409E-009  0.7497110E+02  0.7561462E-02  0.1343961E+00
          1   -1    0    0  501    0  0.00000000000E+00  0.00000000000E+00  0.18005351400E+02  0.18005351400E+02  0.00000000000E+00 0. -1.
         -1   -1    0    0    0  501 -0.00000000000E+00 -0.00000000000E+00 -0.79092617463E+03  0.79092617463E+03  0.00000000000E+00 0.  1.
         25    2    1    2    0    0 -0.40129089508E+02 -0.14063168950E+02 -0.52705691717E+03  0.54336191404E+03  0.12508021087E+03 0.  0.
          5    1    3    3  502    0  0.22178232787E+02 -0.17954243558E+02 -0.27325746521E+02  0.39729053528E+02  0.41800000000E+01 0. -1.
         -5    1    3    3    0  502 -0.62307322295E+02  0.38910746074E+01 -0.49973117064E+03  0.50363286051E+03  0.41800000000E+01 0. -1.
        -11    1    1    2    0    0 -0.34295685821E+01  0.14574746944E+02  0.89076687908E+00  0.14999288476E+02  0.00000000000E+00 0. -1.
         11    1    1    2    0    0  0.43558658090E+02 -0.51157799396E+00 -0.24675467295E+03  0.25057032352E+03  0.00000000000E+00 0.  1.
</event>
<event>
 7    1  0.2480409E-009  0.1312591E+03  0.7561462E-02  0.1225599E+00
         -1   -1    0    0    0  501 -0.00000000000E+00  0.00000000000E+00  0.48409863227E+02  0.48409863227E+02  0.00000000000E+00 0.  1.
          1   -1    0    0  501    0  0.00000000000E+00 -0.00000000000E+00 -0.49144327964E+03  0.49144327964E+03  0.00000000000E+00 0. -1.
         25    2    1    2    0    0  0.14732431081E+02 -0.10890009965E+03 -0.27496658112E+03  0.32145092525E+03  0.12509116830E+03 0.  0.
          5    1    3    3  502    0 -0.22159447404E+02 -0.25586963642E+02 -0.20140449796E+03  0.20427182384E+03  0.41800000000E+01 0.  1.
         -5    1    3    3    0  502  0.36891878485E+02 -0.83313136003E+02 -0.73562083163E+02  0.11717910141E+03  0.41800000000E+01 0.  1.
        -11    1    1    2    0    0  0.27943042044E+02  0.82299273254E+02 -0.86794157900E+02  0.12283000376E+03  0.00000000000E+00 0.  1.
         11    1    1    2    0    0 -0.42675473125E+02  0.26600826391E+02 -0.81272677390E+02  0.95572213855E+02  0.00000000000E+00 0. -1.
</event>
<event>
 7    1  0.2480409E-009  0.2581538E+03  0.7561462E-02  0.1108258E+00
          4   -1    0    0  501    0  0.00000000000E+00  0.00000000000E+00  0.17605505477E+04  0.17605505477E+04  0.00000000000E+00 0. -1.
         -4   -1    0    0    0  501 -0.00000000000E+00 -0.00000000000E+00 -0.39691856762E+02  0.39691856762E+02  0.00000000000E+00 0.  1.
         25    2    1    2    0    0 -0.20539086660E+03  0.11904592785E+03  0.10257332093E+04  0.10602513491E+04  0.12508783142E+03 0.  0.
          5    1    3    3  502    0 -0.90176155361E+02 -0.13616356286E+02  0.30305272965E+03  0.31650525035E+03  0.41800000000E+01 0. -1.
         -5    1    3    3    0  502 -0.11521471123E+03  0.13266228413E+03  0.72268047963E+03  0.74374609871E+03  0.41800000000E+01 0. -1.
        -11    1    1    2    0    0  0.10936420970E+03 -0.19771934658E+02  0.38017878335E+03  0.39609009969E+03  0.00000000000E+00 0. -1.
         11    1    1    2    0    0  0.96026656893E+02 -0.99273993189E+02  0.31494669832E+03  0.34390095572E+03  0.00000000000E+00 0.  1.
</event>
<event>
 7    1  0.2480409E-009  0.1468809E+03  0.7561462E-02  0.1204359E+00
          2   -1    0    0  501    0  0.00000000000E+00  0.00000000000E+00  0.22694846547E+03  0.22694846547E+03  0.00000000000E+00 0. -1.
         -2   -1    0    0    0  501 -0.00000000000E+00 -0.00000000000E+00 -0.10974233458E+03  0.10974233458E+03  0.00000000000E+00 0.  1.
         25    2    1    2    0    0 -0.85741819080E+02 -0.50250587458E+02  0.12339830449E+03  0.20187028613E+03  0.12509072625E+03 0.  0.
          5    1    3    3  502    0 -0.11354203876E+03 -0.15798723412E+02  0.80974801000E+02  0.14041290904E+03  0.41800000000E+01 0. -1.
         -5    1    3    3    0  502  0.27800219684E+02 -0.34451864046E+02  0.42423503488E+02  0.61457377091E+02  0.41800000000E+01 0. -1.
        -11    1    1    2    0    0  0.28921207289E+02  0.68945993148E+02 -0.59527853281E+01  0.75002812316E+02  0.00000000000E+00 0. -1.
         11    1    1    2    0    0  0.56820611791E+02 -0.18695405690E+02 -0.23938827590E+00  0.59817701602E+02  0.00000000000E+00 0.  1.
</event>
<event>
 7    1  0.2480409E-009  0.1070325E+03  0.7561462E-02  0.1266166E+00
          3   -1    0    0  501    0  0.00000000000E+00  0.00000000000E+00  0.15549884276E+02  0.15549884276E+02  0.00000000000E+00 0. -1.
         -3   -1    0    0    0  501 -0.00000000000E+00 -0.00000000000E+00 -0.12593882794E+04  0.12593882794E+04  0.00000000000E+00 0.  1.
         25    2    1    2    0    0 -0.37944903571E+02  0.44412562562E+02 -0.96816854955E+03  0.97796021596E+03  0.12507418694E+03 0.  0.
          5    1    3    3  502    0 -0.39104075285E+02 -0.17433783663E+02 -0.74780460354E+03  0.74904089541E+03  0.41800000000E+01 0. -1.
         -5    1    3    3    0  502  0.11591717134E+01  0.61846346225E+02 -0.22036394601E+03  0.22891932055E+03  0.41800000000E+01 0. -1.
        -11    1    1    2    0    0  0.23684332259E+02 -0.73192770712E+02 -0.21467875974E+03  0.22804626540E+03  0.00000000000E+00 0.  1.
         11    1    1    2    0    0  0.14260571312E+02  0.28780208150E+02 -0.60991085793E+02  0.68931682277E+02  0.00000000000E+00 0. -1.
</event>
<event>
 7    1  0.2480409E-009  0.1204174E+03  0.7561462E-02  0.1242410E+00
          1   -1    0    0  501    0  0.00000000000E+00  0.00000000000E+00  0.29083029152E+03  0.29083029152E+03  0.00000000000E+00 0. -1.
         -1   -1    0    0    0  501 -0.00000000000E+00 -0.00000000000E+00 -0.61221452312E+02  0.61221452312E+02  0.00000000000E+00 0.  1.
         25    2    1    2    0    0 -0.65643987955E+02  0.39427203504E+02  0.14437134496E+03  0.20579112019E+03  0.12507302816E+03 0.  0.
          5    1    3    3  502    0 -0.43467512612E+02 -0.34741364901E+02  0.20082394546E+02  0.59305666328E+02  0.41800000000E+01 0. -1.
         -5    1    3    3    0  502 -0.22176475343E+02  0.74168568406E+02  0.12428895041E+03  0.14648545386E+03  0.41800000000E+01 0. -1.
        -11    1    1    2    0    0  0.73814827539E+02 -0.70912052880E+01  0.26561815447E+02  0.78768293093E+02  0.00000000000E+00 0.  1.
         11    1    1    2    0    0 -0.81708395842E+01 -0.32335998216E+02  0.58675678801E+02  0.67492330549E+02  0.00000000000E+00 0. -1.
</event>
<event>
 7    1  0.2480409E-009  0.1348009E+03  0.7561462E-02  0.1220501E+00
         -1   -1    0    0    0  501 -0.00000000000E+00  0.00000000000E+00  0.42837519241E+02  0.42837519241E+02  0.00000000000E+00 0.  1.
          1   -1    0    0  501    0  0.00000000000E+00 -0.00000000000E+00 -0.42468837327E+03  0.42468837327E+03  0.00000000000E+00 0. -1.
         25    2    1    2    0    0  0.23303246661E+02  0.73129033375E+02 -0.20798645724E+03  0.25455330592E+03  0.12509245515E+03 0.  0.
          5    1    3    3  502    0 -0.40396588923E+02  0.72267703352E+02 -0.11966518241E+03  0.14557380817E+03  0.41800000000E+01 0. -1.
         -5    1    3    3    0  502  0.63699835584E+02  0.86133002236E+00 -0.88321274827E+02  0.10897949775E+03  0.41800000000E+01 0. -1.
        -11    1    1    2    0    0  0.12076664055E+02  0.19930381387E+02 -0.29166441997E+02  0.37332924553E+02  0.00000000000E+00 0.  1.
         11    1    1    2    0    0 -0.35379910716E+02 -0.93059414761E+02 -0.14469795479E+03  0.17563966203E+03  0.00000000000E+00 0. -1.
</event>
<event>
 7    1  0.2480409E-009  0.1306541E+03  0.7561462E-02  0.1226488E+00
         -1   -1    0    0    0  501 -0.00000000000E+00  0.00000000000E+00  0.39049006281E+03  0.39049006281E+03  0.00000000000E+00 0.  1.
          1   -1    0    0  501    0  0.00000000000E+00 -0.00000000000E+00 -0.52689393641E+02  0.52689393641E+02  0.00000000000E+00 0. -1.
         25    2    1    2    0    0  0.84549192429E+01 -0.78982646331E+02  0.10646691300E+03  0.18246514373E+03  0.12509428858E+03 0.  0.
          5    1    3    3  502    0 -0.49914514199E+02 -0.68919712372E+02  0.42583788134E+02  0.95248290762E+02  0.41800000000E+01 0.  1.
         -5    1    3    3    0  502  0.58369433442E+02 -0.10062933958E+02  0.63883124862E+02  0.87216852972E+02  0.41800000000E+01 0.  1.
        -11    1    1    2    0    0 -0.40178360019E+02  0.10915306477E+02  0.11442250040E+03  0.12176187058E+03  0.00000000000E+00 0.  1.
         11    1    1    2    0    0  0.31723440776E+02  0.68067339854E+02  0.11691125577E+03  0.13895244214E+03  0.00000000000E+00 0. -1.
</event>
<event>
 7    1  0.2480409E-009  0.9919964E+02  0.7561462E-02  0.1281988E+00
         -1   -1    0    0    0  501 -0.00000000000E+00  0.00000000000E+00  0.33497598665E+03  0.33497598665E+03  0.00000000000E+00 0.  1.
          1   -1    0    0  501    0  0.00000000000E+00 -0.00000000000E+00 -0.74649650067E+02  0.74649650067E+02  0.00000000000E+00 0. -1.
         25    2    1    2    0    0 -0.17953851704E+02  0.21486208485E+01 -0.96497311477E+01  0.12676025651E+03  0.12509231773E+03 0.  0.
          5    1    3    3  502    0  0.46719146273E+02  0.13758715416E+02  0.22122835159E+02  0.53655131291E+02  0.41800000000E+01 0. -1.
         -5    1    3    3    0  502 -0.64672997977E+02 -0.11610094568E+02 -0.31772566307E+02  0.73105125216E+02  0.41800000000E+01 0. -1.
        -11    1    1    2    0    0 -0.32171108404E+02 -0.81698205190E+01  0.89328232200E+02  0.95295641303E+02  0.00000000000E+00 0. -1.
         11    1    1    2    0    0  0.50124960108E+02  0.60211996706E+01  0.18064783553E+03  0.18756973890E+03  0.00000000000E+00 0.  1.
</event>
<event>
 7    1  0.2779960E-009  0.8752246E+02  0.7561462E-02  0.1308965E+00
          2   -1    0    0  501    0  0.00000000000E+00  0.00000000000E+00  0.22619811449E+03  0.22619811449E+03  0.00000000000E+00 0. -1.
         -2   -1    0    0    0  501 -0.00000000000E+00 -0.00000000000E+00 -0.75587212281E+02  0.75587212281E+02  0.00000000000E+00 0.  1.
         25    2    1    2    0    0 -0.42905156436E+02  0.37148189936E+02  0.13565671087E+03  0.19305654570E+03  0.12508895303E+03 0.  0.
          5    1    3    3  502    0 -0.20950050938E+02 -0.36923809407E+01 -0.20664148256E+02  0.29950254331E+02  0.41800000000E+01 0.  1.
         -5    1    3    3    0  502 -0.21955105498E+02  0.40840570877E+02  0.15632085913E+03  0.16310629137E+03  0.41800000000E+01 0.  1.
        -11    1    1    2    0    0  0.24958974027E+02  0.29004817167E+02 -0.12869326327E+01  0.38286890694E+02  0.00000000000E+00 0. -1.
         11    1    1    2    0    0  0.17946182409E+02 -0.66153007103E+02  0.16241123972E+02  0.70441890376E+02  0.00000000000E+00 0.  1.
</event>
<event>
 7    1  0.2480409E-009  0.9283047E+02  0.7561462E-02  0.1296139E+00
          2   -1    0    0  501    0  0.00000000000E+00  0.00000000000E+00  0.56465163202E+02  0.56465163202E+02  0.00000000000E+00 0. -1.
         -2   -1    0    0    0  501 -0.00000000000E+00 -0.00000000000E+00 -0.32449810571E+03  0.32449810571E+03  0.00000000000E+00 0.  1.
         25    2    1    2    0    0  0.60077420107E+01 -0.75309839458E+02 -0.17414730803E+03  0.22733797554E+03  0.12509038869E+03 0.  0.
          5    1    3    3  502    0 -0.23630050353E+02 -0.74173778578E+02 -0.35801154837E+02  0.85786501246E+02  0.41800000000E+01 0. -1.
         -5    1    3    3    0  502  0.29637792364E+02 -0.11360608800E+01 -0.13834615320E+03  0.14155147429E+03  0.41800000000E+01 0. -1.
        -11    1    1    2    0    0  0.65833814309E+01  0.30611752665E+02  0.15391810389E+02  0.34890229855E+02  0.00000000000E+00 0. -1.
         11    1    1    2    0    0 -0.12591123442E+02  0.44698086794E+02 -0.10927744486E+03  0.11873506352E+03  0.00000000000E+00 0.  1.
</event>
<event>
 7    1  0.2480409E-009  0.9321854E+02  0.7561462E-02  0.1295240E+00
          1   -1    0    0  501    0  0.00000000000E+00  0.00000000000E+00  0.64024539879E+03  0.64024539879E+03  0.00000000000E+00 0. -1.
         -1   -1    0    0    0  501 -0.00000000000E+00 -0.00000000000E+00 -0.22419042903E+02  0.22419042903E+02  0.00000000000E+00 0.  1.
         25    2    1    2    0    0  0.16321019400E+02  0.44243006337E+02  0.28960203020E+03  0.31896744581E+03  0.12508827407E+03 0.  0.
          5    1    3    3  502    0  0.23262946114E+02  0.62841416059E+02  0.64992484872E+02  0.93443585783E+02  0.41800000000E+01 0. -1.
         -5    1    3    3    0  502 -0.69419267131E+01 -0.18598409721E+02  0.22460954532E+03  0.22552386003E+03  0.41800000000E+01 0. -1.
        -11    1    1    2    0    0  0.24373135558E+02  0.13887424878E+02  0.59811361453E+02  0.66062918990E+02  0.00000000000E+00 0. -1.
         11    1    1    2    0    0 -0.40694154958E+02 -0.58130431215E+02  0.26841296424E+03  0.27763407689E+03  0.00000000000E+00 0.  1.
</event>
<event>
 7    1  0.2480409E-009  0.1129778E+03  0.7561462E-02  0.1255153E+00
          4   -1    0    0  501    0  0.00000000000E+00  0.00000000000E+00  0.20339039163E+03  0.20339039163E+03  0.00000000000E+00 0.  1.
         -4   -1    0    0    0  501 -0.00000000000E+00 -0.00000000000E+00 -0.98480745760E+02  0.98480745760E+02  0.00000000000E+00 0. -1.
         25    2    1    2    0    0  0.55934051533E+02  0.99984982306E+01  0.13231900034E+03  0.19074614422E+03  0.12508871091E+03 0.  0.
          5    1    3    3  502    0  0.70747174497E+02 -0.31696122044E+02  0.37906552723E+02  0.86395520667E+02  0.41800000000E+01 0. -1.
         -5    1    3    3    0  502 -0.14813122964E+02  0.41694620275E+02  0.94412447613E+02  0.10435062355E+03  0.41800000000E+01 0. -1.
        -11    1    1    2    0    0 -0.98145679139E+01 -0.44949434320E+02  0.23222046167E+01  0.46067016653E+02  0.00000000000E+00 0.  1.
         11    1    1    2    0    0 -0.46119483619E+02  0.34950936089E+02 -0.29731559083E+02  0.65057976515E+02  0.00000000000E+00 0. -1.
</event>
<event>
 7    1  0.3108333E-009  0.1551194E+03  0.7561462E-02  0.1194320E+00
          1   -1    0    0  501    0  0.00000000000E+00  0.00000000000E+00  0.73244666187E+03  0.73244666187E+03  0.00000000000E+00 0. -1.
         -1   -1    0    0    0  501 -0.00000000000E+00 -0.00000000000E+00 -0.41367703648E+02  0.41367703648E+02  0.00000000000E+00 0.  1.
         25    2    1    2    0    0  0.11110526304E+03  0.48876770205E+02  0.50164575478E+03  0.53106398254E+03  0.12508865705E+03 0.  0.
          5    1    3    3  502    0 -0.23922220898E+02  0.11854235364E+02  0.37363254556E+02  0.46111611767E+02  0.41800000000E+01 0.  1.
         -5    1    3    3    0  502  0.13502748394E+03  0.37022534841E+02  0.46428250022E+03  0.48495237077E+03  0.41800000000E+01 0.  1.
        -11    1    1    2    0    0 -0.21565062180E+02 -0.49072096684E+02  0.11282438959E+03  0.12490982934E+03  0.00000000000E+00 0. -1.
         11    1    1    2    0    0 -0.89540200859E+02  0.19532647895E+00  0.76608813863E+02  0.11784055365E+03  0.00000000000E+00 0.  1.
</event>
<event>
 7    1  0.2480409E-009  0.1505969E+03  0.7561462E-02  0.1199742E+00
          2   -1    0    0  501    0  0.00000000000E+00  0.00000000000E+00  0.32641795019E+03  0.32641795019E+03  0.00000000000E+00 0. -1.
         -2   -1    0    0    0  501 -0.00000000000E+00 -0.00000000000E+00 -0.10258694948E+03  0.10258694948E+03  0.00000000000E+00 0.  1.
         25    2    1    2    0    0 -0.11057630927E+03 -0.87979604996E+02  0.48984276851E+02  0.19497226473E+03  0.12508874277E+03 0.  0.
          5    1    3    3  502    0 -0.83990349516E+02 -0.46244365785E+02  0.89236322756E+02  0.13104775419E+03  0.41800000000E+01 0.  1.
         -5    1    3    3    0  502 -0.26585959756E+02 -0.41735239211E+02 -0.40252045905E+02  0.63924510539E+02  0.41800000000E+01 0.  1.
        -11    1    1    2    0    0  0.89333545259E+02  0.97540894059E+02  0.14851376063E+03  0.19887444637E+03  0.00000000000E+00 0.  1.
         11    1    1    2    0    0  0.21242764013E+02 -0.95612890632E+01  0.26332963223E+02  0.35158188571E+02  0.00000000000E+00 0. -1.
</event>
<event>
 7    1  0.2480409E-009  0.1042747E+03  0.7561462E-02  0.1271555E+00
          1   -1    0    0  501    0  0.00000000000E+00  0.00000000000E+00  0.97233771671E+02  0.97233771671E+02  0.00000000000E+00 0. -1.
         -1   -1    0    0    0  501 -0.00000000000E+00 -0.00000000000E+00 -0.19996766133E+03  0.19996766133E+03  0.00000000000E+00 0.  1.
         25    2    1    2    0    0  0.71165281066E+02  0.27288385406E+02 -0.12009642823E+02  0.14697389232E+03  0.12509172753E+03 0.  0.
          5    1    3    3  502    0  0.25791814203E+02 -0.13340370203E+02 -0.61660535408E+02  0.68283798838E+02  0.41800000000E+01 0.  1.
         -5    1    3    3    0  502  0.45373466863E+02  0.40628755609E+02  0.49650892585E+02  0.78690093480E+02  0.41800000000E+01 0.  1.
        -11    1    1    2    0    0 -0.68856821373E+02  0.19306309236E+02 -0.66534502207E+02  0.97677200052E+02  0.00000000000E+00 0.  1.
         11    1    1    2    0    0 -0.23084596933E+01 -0.46594694642E+02 -0.24189744624E+02  0.52550340626E+02  0.00000000000E+00 0. -1.
</event>
<event>
 7    1  0.2480409E-009  0.1193562E+03  0.7561462E-02  0.1244163E+00
          4   -1    0    0  501    0  0.00000000000E+00  0.00000000000E+00  0.19057600288E+03  0.19057600288E+03  0.00000000000E+00 0. -1.
         -4   -1    0    0    0  501 -0.00000000000E+00 -0.00000000000E+00 -0.14793820632E+03  0.14793820632E+03  0.00000000000E+00 0.  1.
         25    2    1    2    0    0  0.51543154347E+02  0.74670815079E+02 -0.68398280983E+02  0.16899263317E+03  0.12509099823E+03 0.  0.
          5    1    3    3  502    0  0.66917988268E+02  0.76602267167E+02 -0.32032686291E+01  0.10185115522E+03  0.41800000000E+01 0. -1.
         -5    1    3    3    0  502 -0.15374833921E+02 -0.19314520881E+01 -0.65195012354E+02  0.67141477949E+02  0.41800000000E+01 0. -1.
        -11    1    1    2    0    0  0.20744299731E+02 -0.27886457227E+02  0.60244835398E+02  0.69551568351E+02  0.00000000000E+00 0. -1.
         11    1    1    2    0    0 -0.72287454078E+02 -0.46784357853E+02  0.50791242143E+02  0.99970007678E+02  0.00000000000E+00 0.  1.
</event>
<event>
 7    1  0.2480409E-009  0.1191663E+03  0.7561462E-02  0.1244479E+00
          1   -1    0    0  501    0  0.00000000000E+00  0.00000000000E+00  0.86155332440E+03  0.86155332440E+03  0.00000000000E+00 0. -1.
         -1   -1    0    0    0  501 -0.00000000000E+00 -0.00000000000E+00 -0.31772682423E+02  0.31772682423E+02  0.00000000000E+00 0.  1.
         25    2    1    2    0    0 -0.53787759672E+02  0.71012463690E+01  0.74701332855E+03  0.75935503817E+03  0.12509040798E+03 0.  0.
          5    1    3    3  502    0 -0.92931569143E+02  0.10181804023E+02  0.44211995839E+03  0.45191534128E+03  0.41800000000E+01 0.  1.
         -5    1    3    3    0  502  0.39143809471E+02 -0.30805576535E+01  0.30489337016E+03  0.30743969689E+03  0.41800000000E+01 0.  1.
        -11    1    1    2    0    0  0.37487305432E+02 -0.48194071885E+02  0.50593789486E+02  0.79295007207E+02  0.00000000000E+00 0.  1.
         11    1    1    2    0    0  0.16300454239E+02  0.41092825516E+02  0.32173523936E+02  0.54675961443E+02  0.00000000000E+00 0. -1.
</event>
<event>
 7    1  0.2480409E-009  0.1277881E+03  0.7561462E-02  0.1230775E+00
         -2   -1    0    0    0  501 -0.00000000000E+00  0.00000000000E+00  0.67506788049E+02  0.67506788049E+02  0.00000000000E+00 0.  1.
          2   -1    0    0  501    0  0.00000000000E+00 -0.00000000000E+00 -0.38770322744E+03  0.38770322744E+03  0.00000000000E+00 0. -1.
         25    2    1    2    0    0  0.96899072175E+02 -0.31829296470E+01 -0.31812031537E+03  0.35531070730E+03  0.12508238261E+03 0.  0.
          5    1    3    3  502    0  0.64210236259E+02  0.58130094270E+02 -0.20356417851E+03  0.22126434298E+03  0.41800000000E+01 0. -1.
         -5    1    3    3    0  502  0.32688835916E+02 -0.61313023917E+02 -0.11455613686E+03  0.13404636432E+03  0.41800000000E+01 0. -1.
        -11    1    1    2    0    0 -0.18400365559E+02 -0.78075877807E+01  0.40648430579E+01  0.20397422110E+02  0.00000000000E+00 0.  1.
         11    1    1    2    0    0 -0.78498706616E+02  0.10990517428E+02 -0.61409670776E+01  0.79501886080E+02  0.00000000000E+00 0. -1.
</event>
<event>
 7    1  0.2480409E-009  0.1731909E+03  0.7561462E-02  0.1174561E+00
         -1   -1    0    0    0  501 -0.00000000000E+00  0.00000000000E+00  0.18178335530E+03  0.18178335530E+03  0.00000000000E+00 0.  1.
          1   -1    0    0  501    0  0.00000000000E+00 -0.00000000000E+00 -0.20206499567E+03  0.20206499567E+03  0.00000000000E+00 0. -1.
         25    2    1    2    0    0  0.15040994309E+03 -0.29055172195E+02 -0.42495610760E+02  0.20228667608E+03  0.12508664348E+03 0.  0.
          5    1    3    3  502    0  0.76841093087E+02 -0.68321668261E+02  0.10421728290E+02  0.10343349922E+03  0.41800000000E+01 0.  1.
         -5    1    3    3    0  502  0.73568849999E+02  0.39266496067E+02 -0.52917339051E+02  0.98853176862E+02  0.41800000000E+01 0.  1.
        -11    1    1    2    0    0 -0.12655310833E+03  0.58368816905E+01 -0.19513578405E+02  0.12818166077E+03  0.00000000000E+00 0.  1.
         11    1    1    2    0    0 -0.23856834758E+02  0.23218290504E+02  0.41727548795E+02  0.53380014116E+02  0.00000000000E+00 0. -1.
</event>
<event>
 7    1  0.2480409E-009  0.1700299E+03  0.7561462E-02  0.1177817E+00
          1   -1    0    0  501    0  0.00000000000E+00  0.00000000000E+00  0.98988662655E+02  0.98988662655E+02  0.00000000000E+00 0. -1.
         -1   -1    0    0    0  501 -0.00000000000E+00 -0.00000000000E+00 -0.34330932940E+03  0.34330932940E+03  0.00000000000E+00 0.  1.
         25    2    1    2    0    0  0.52174364598E+00 -0.13481188426E+03 -0.20394665816E+03  0.27461659340E+03  0.12508204365E+03 0.  0.
          5    1    3    3  502    0 -0.35718894024E+02 -0.13631039876E+03 -0.12828787958E+03  0.19060854296E+03  0.41800000000E+01 0.  1.
         -5    1    3    3    0  502  0.36240637670E+02  0.14985144947E+01 -0.75658778574E+02  0.84008050446E+02  0.41800000000E+01 0.  1.
        -11    1    1    2    0    0 -0.45146801883E+02  0.55234935732E+02 -0.21576793860E+02  0.74529791888E+02  0.00000000000E+00 0. -1.
         11    1    1    2    0    0  0.44625058237E+02  0.79576948533E+02 -0.18797214723E+02  0.93151606759E+02  0.00000000000E+00 0.  1.
</event>
<event>
 7    1  0.2480409E-009  0.1080584E+03  0.7561462E-02  0.1264208E+00
          3   -1    0    0  501    0  0.00000000000E+00  0.00000000000E+00  0.21359505014E+03  0.21359505014E+03  0.00000000000E+00 0. -1.
         -3   -1    0    0    0  501 -0.00000000000E+00 -0.00000000000E+00 -0.68458623371E+02  0.68458623371E+02  0.00000000000E+00 0.  1.
         25    2    1    2    0    0 -0.38154322583E+02  0.26131424652E+02  0.10148738974E+03  0.16758858322E+03  0.12509052428E+03 0.  0.
          5    1    3    3  502    0  0.98925234587E+01  0.67913030053E+02  0.43465431652E+02  0.81343455914E+02  0.41800000000E+01 0. -1.
         -5    1    3    3    0  502 -0.48046846041E+02 -0.41781605401E+02  0.58021958086E+02  0.86245127309E+02  0.41800000000E+01 0. -1.
        -11    1    1    2    0    0  0.41495759380E+02 -0.46838079169E+02  0.60891888045E+02  0.87312803966E+02  0.00000000000E+00 0. -1.
         11    1    1    2    0    0 -0.33414367973E+01  0.20706654517E+02 -0.17242851017E+02  0.27152286319E+02  0.00000000000E+00 0.  1.
</event>
<event>
 7    1  0.2480409E-009  0.8985959E+02  0.7561462E-02  0.1303192E+00
          2   -1    0    0  501    0  0.00000000000E+00  0.00000000000E+00  0.36057845950E+03  0.36057845950E+03  0.00000000000E+00 0. -1.
         -2   -1    0    0    0  501 -0.00000000000E+00 -0.00000000000E+00 -0.38344867710E+02  0.38344867710E+02  0.00000000000E+00 0.  1.
         25    2    1    2    0    0 -0.43414721772E+02  0.19898207798E+02  0.18109737724E+03  0.22522093224E+03  0.12508969395E+03 0.  0.
          5    1    3    3  502    0 -0.91595288712E+01  0.54073876953E+02  0.16520179417E+03  0.17411773700E+03  0.41800000000E+01 0.  1.
         -5    1    3    3    0  502 -0.34255192901E+02 -0.34175669154E+02  0.15895583067E+02  0.51103195242E+02  0.41800000000E+01 0.  1.
        -11    1    1    2    0    0  0.58291810569E+02 -0.12877255017E+02  0.14499664153E+03  0.15680492636E+03  0.00000000000E+00 0. -1.
         11    1    1    2    0    0 -0.14877088797E+02 -0.70209527814E+01 -0.38604269814E+01  0.16897468612E+02  0.00000000000E+00 0.  1.
</event>
<event>
 7    1  0.2480409E-009  0.1229801E+03  0.7561462E-02  0.1238260E+00
          1   -1    0    0  501    0  0.00000000000E+00  0.00000000000E+00  0.12946471911E+04  0.12946471911E+04  0.00000000000E+00 0. -1.
         -1   -1    0    0    0  501 -0.00000000000E+00 -0.00000000000E+00 -0.16611683337E+02  0.16611683337E+02  0.00000000000E+00 0.  1.
         25    2    1    2    0    0 -0.69041891383E+02  0.45065932655E+02  0.92151725035E+03  0.93361652733E+03  0.12509219145E+03 0.  0.
          5    1    3    3  502    0  0.16772196477E+02 -0.94988677655E+01  0.27595027498E+02  0.33918918115E+02  0.41800000000E+01 0. -1.
         -5    1    3    3    0  502 -0.85814087860E+02  0.54564800421E+02  0.89392222285E+03  0.89969760922E+03  0.41800000000E+01 0. -1.
        -11    1    1    2    0    0  0.53525883084E+02 -0.74175787758E+02  0.25615887368E+03  0.27200080186E+03  0.00000000000E+00 0.  1.
         11    1    1    2    0    0  0.15516008299E+02  0.29109855103E+02  0.10035938369E+03  0.10564154520E+03  0.00000000000E+00 0. -1.
</event>
<event>
 7    1  0.2480409E-009  0.1747761E+03  0.7561462E-02  0.1172957E+00
          1   -1    0    0  501    0  0.00000000000E+00  0.00000000000E+00  0.88077197075E+03  0.88077197075E+03  0.00000000000E+00 0. -1.
         -1   -1    0    0    0  501 -0.00000000000E+00 -0.00000000000E+00 -0.41127124315E+02  0.41127124315E+02  0.00000000000E+00 0.  1.
         25    2    1    2    0    0 -0.57648222570E+01 -0.14933104065E+03  0.32707944898E+03  0.38073862810E+03  0.12509174273E+03 0.  0.
          5    1    3    3  502    0 -0.53656898261E+02 -0.52847577300E+02  0.20196664751E+03  0.21559204128E+03  0.41800000000E+01 0.  1.
         -5    1    3    3    0  502  0.47892076004E+02 -0.96483463351E+02  0.12511280147E+03  0.16514658681E+03  0.41800000000E+01 0.  1.
        -11    1    1    2    0    0 -0.31143221532E+02  0.38540871814E+02  0.89803042314E+02  0.10256649285E+03  0.00000000000E+00 0. -1.
         11    1    1    2    0    0  0.36908043789E+02  0.11079016884E+03  0.42276235513E+03  0.43859397411E+03  0.00000000000E+00 0.  1.
</event>
<event>
 7    1  0.2480409E-009  0.6183749E+02  0.7561462E-02  0.1390278E+00
          1   -1    0    0  501    0  0.00000000000E+00  0.00000000000E+00  0.42681256377E+02  0.42681256377E+02  0.00000000000E+00 0. -1.
         -1   -1    0    0    0  501 -0.00000000000E+00 -0.00000000000E+00 -0.33624986203E+03  0.33624986203E+03  0.00000000000E+00 0.  1.
         25    2    1    2    0    0  0.44439589879E+02  0.16878494836E+02 -0.19114075642E+03  0.23332915795E+03  0.12509175211E+03 0.  0.
          5    1    3    3  502    0  0.43653598232E+02  0.34952375033E+02 -0.20345977312E+03  0.21104657504E+03  0.41800000000E+01 0. -1.
         -5    1    3    3    0  502  0.78599164698E+00 -0.18073880197E+02  0.12319016702E+02  0.22282582901E+02  0.41800000000E+01 0. -1.
        -11    1    1    2    0    0 -0.32668981070E+02 -0.17833913435E+02 -0.11932049286E+03  0.12499076290E+03  0.00000000000E+00 0.  1.
         11    1    1    2    0    0 -0.11770608808E+02  0.95541859854E+00  0.16892643628E+02  0.20611197567E+02  0.00000000000E+00 0. -1.
</event>
<event>
 7    1  0.2480409E-009  0.1569078E+03  0.7561462E-02  0.1192233E+00
          2   -1    0    0  501    0  0.00000000000E+00  0.00000000000E+00  0.41062770377E+03  0.41062770377E+03  0.00000000000E+00 0. -1.
         -2   -1    0    0    0  501 -0.00000000000E+00 -0.00000000000E+00 -0.93648522226E+02  0.93648522226E+02  0.00000000000E+00 0.  1.
         25    2    1    2    0    0 -0.12737591414E+03  0.77672329242E+01  0.35115689391E+02  0.18211425143E+03  0.12509010961E+03 0.  0.
          5    1    3    3  502    0 -0.22330323839E+02  0.49955811144E+02  0.41275943768E+02  0.68668787405E+02  0.41800000000E+01 0. -1.
         -5    1    3    3    0  502 -0.10504559031E+03 -0.42188578219E+02 -0.61602543771E+01  0.11344546403E+03  0.41800000000E+01 0. -1.
        -11    1    1    2    0    0  0.75088577627E+01  0.21072914632E+02  0.11809264622E+02  0.25296430715E+02  0.00000000000E+00 0.  1.
         11    1    1    2    0    0  0.11986705638E+03 -0.28840147556E+02  0.27005422754E+03  0.29686554385E+03  0.00000000000E+00 0. -1.
</event>
<event>
 7    1  0.2608480E-009  0.1820308E+03  0.7561462E-02  0.1165852E+00
         -1   -1    0    0    0  501 -0.00000000000E+00  0.00000000000E+00  0.26097395697E+02  0.26097395697E+02  0.00000000000E+00 0.  1.
          1   -1    0    0  501    0  0.00000000000E+00 -0.00000000000E+00 -0.15063658388E+04  0.15063658388E+04  0.00000000000E+00 0. -1.
         25    2    1    2    0    0 -0.77919144853E+02 -0.12867300064E+03 -0.10448102286E+04  0.10629690453E+04  0.12508654281E+03 0.  0.
          5    1    3    3  502    0 -0.43578521952E+01  0.24718093518E+02 -0.14174527999E+03  0.14401101286E+03  0.41800000000E+01 0. -1.
         -5    1    3    3    0  502 -0.73561292658E+02 -0.15339109416E+03 -0.90306494864E+03  0.91895803246E+03  0.41800000000E+01 0. -1.
        -11    1    1    2    0    0  0.40722072242E+02  0.12453134478E+03 -0.27343819558E+03  0.30320750288E+03  0.00000000000E+00 0.  1.
         11    1    1    2    0    0  0.37197072611E+02  0.41416558634E+01 -0.16202001890E+03  0.16628668632E+03  0.00000000000E+00 0. -1.
</event>
<event>
 7    1  0.2480409E-009  0.1210833E+03  0.7561462E-02  0.1241321E+00
          4   -1    0    0  501    0  0.00000000000E+00  0.00000000000E+00  0.15675258239E+03  0.15675258239E+03  0.00000000000E+00 0. -1.
         -4   -1    0    0    0  501 -0.00000000000E+00 -0.00000000000E+00 -0.14901189720E+03  0.14901189720E+03  0.00000000000E+00 0.  1.
         25    2    1    2    0    0 -0.10509444049E+03 -0.11680653855E+02 -0.27522872354E+01  0.16381816435E+03  0.12509011468E+03 0.  0.
          5    1    3    3  502    0 -0.63056348555E+02 -0.48628766049E+02 -0.46813504813E+02  0.92465326547E+02  0.41800000000E+01 0. -1.
         -5    1    3    3    0  502 -0.42038091939E+02  0.36948112195E+02  0.44061217578E+02  0.71352837807E+02  0.41800000000E+01 0. -1.
        -11    1    1    2    0    0  0.67645411452E+02  0.22362297552E+01 -0.39813640025E+02  0.78524062211E+02  0.00000000000E+00 0.  1.
         11    1    1    2    0    0  0.37449029042E+02  0.94444240994E+01  0.50306612453E+02  0.63422253029E+02  0.00000000000E+00 0. -1.
</event>
<event>
 7    1  0.2712649E-009  0.2219394E+03  0.7561462E-02  0.1132445E+00
         -1   -1    0    0    0  501 -0.00000000000E+00  0.00000000000E+00  0.38099290755E+02  0.38099290755E+02  0.00000000000E+00 0.  1.
          1   -1    0    0  501    0  0.00000000000E+00 -0.00000000000E+00 -0.18083626889E+04  0.18083626889E+04  0.00000000000E+00 0. -1.
         25    2    1    2    0    0  0.20169282027E+03  0.45391016487E+01 -0.13569253499E+04  0.13775320086E+04  0.12508969741E+03 0.  0.
          5    1    3    3  502    0  0.19637660828E+03  0.36793220210E+02 -0.10504231021E+04  0.10692631478E+04  0.41800000000E+01 0. -1.
         -5    1    3    3    0  502  0.53162119895E+01 -0.32254118561E+02 -0.30650224775E+03  0.30826886081E+03  0.41800000000E+01 0. -1.
        -11    1    1    2    0    0 -0.15179797313E+03  0.23880601833E+02 -0.35616274763E+03  0.38789793836E+03  0.00000000000E+00 0.  1.
         11    1    1    2    0    0 -0.49894847139E+02 -0.28419703482E+02 -0.57175300622E+02  0.81032032667E+02  0.00000000000E+00 0. -1.
</event>
<event>
 7    1  0.2480409E-009  0.1471972E+03  0.7561462E-02  0.1203960E+00
         -1   -1    0    0    0  501 -0.00000000000E+00  0.00000000000E+00  0.77936451981E+02  0.77936451981E+02  0.00000000000E+00 0.  1.
          1   -1    0    0  501    0  0.00000000000E+00 -0.00000000000E+00 -0.36337559842E+03  0.36337559842E+03  0.00000000000E+00 0. -1.
         25    2    1    2    0    0 -0.10852288909E+03 -0.32813028517E+02 -0.23462456956E+03  0.28905446476E+03  0.12509949104E+03 0.  0.
          5    1    3    3  502    0 -0.51005335642E+02  0.36399986861E+02 -0.16063736946E+03  0.17247707145E+03  0.41800000000E+01 0.  1.
         -5    1    3    3    0  502 -0.57517553452E+02 -0.69213015378E+02 -0.73987200095E+02  0.11657739331E+03  0.41800000000E+01 0.  1.
        -11    1    1    2    0    0  0.11840350703E+02  0.42705075537E+02 -0.28025485852E+02  0.52434199132E+02  0.00000000000E+00 0.  1.
         11    1    1    2    0    0  0.96682538391E+02 -0.98920470202E+01 -0.22789091026E+02  0.99823386507E+02  0.00000000000E+00 0. -1.
</event>
<event>
 7    1  0.2480409E-009  0.9858540E+02  0.7561462E-02  0.1283299E+00
         -2   -1    0    0    0  501 -0.00000000000E+00  0.00000000000E+00  0.48161095364E+02  0.48161095364E+02  0.00000000000E+00 0.  1.
          2   -1    0    0  501    0  0.00000000000E+00 -0.00000000000E+00 -0.39976169435E+03  0.39976169435E+03  0.00000000000E+00 0. -1.
         25    2    1    2    0    0 -0.82594287310E+02  0.19211799864E+02 -0.19530387951E+03  0.24694583068E+03  0.12509088053E+03 0.  0.
          5    1    3    3  502    0 -0.85959696568E+02 -0.82608896746E+00 -0.20625306497E+03  0.22348948760E+03  0.41800000000E+01 0. -1.
         -5    1    3    3    0  502  0.33654092584E+01  0.20037888831E+02  0.10949185468E+02  0.23456343080E+02  0.41800000000E+01 0. -1.
        -11    1    1    2    0    0  0.61907260386E+02  0.32390843269E+00 -0.16067463674E+03  0.17218871246E+03  0.00000000000E+00 0. -1.
         11    1    1    2    0    0  0.20687026924E+02 -0.19535708297E+02  0.43779172599E+01  0.28788246580E+02  0.00000000000E+00 0.  1.
</event>
<event>
 7    1  0.2480409E-009  0.1650919E+03  0.7561462E-02  0.1183065E+00
         -1   -1    0    0    0  501 -0.00000000000E+00  0.00000000000E+00  0.23397337197E+02  0.23397337197E+02  0.00000000000E+00 0.  1.
          1   -1    0    0  501    0  0.00000000000E+00 -0.00000000000E+00 -0.13585960378E+04  0.13585960378E+04  0.00000000000E+00 0. -1.
         25    2    1    2    0    0 -0.13524621936E+03 -0.27624490765E+02 -0.80689002701E+03  0.82811478297E+03  0.12509166939E+03 0.  0.
          5    1    3    3  502    0 -0.15015297670E+03 -0.14783842074E+02 -0.54684534009E+03  0.56729337804E+03  0.41800000000E+01 0. -1.
         -5    1    3    3    0  502  0.14906757338E+02 -0.12840648691E+02 -0.26004468692E+03  0.26082140493E+03  0.41800000000E+01 0. -1.
        -11    1    1    2    0    0  0.50269145176E+02 -0.28027251237E+02 -0.27507352367E+03  0.28103017132E+03  0.00000000000E+00 0.  1.
         11    1    1    2    0    0  0.84977074183E+02  0.55651742002E+02 -0.25323514996E+03  0.27284842074E+03  0.00000000000E+00 0. -1.
</event>
<event>
 7    1  0.2480409E-009  0.1057296E+03  0.7561462E-02  0.1268689E+00
         -2   -1    0    0    0  501 -0.00000000000E+00  0.00000000000E+00  0.57746443981E+02  0.57746443981E+02  0.00000000000E+00 0.  1.
          2   -1    0    0  501    0  0.00000000000E+00 -0.00000000000E+00 -0.32317839915E+03  0.32317839915E+03  0.00000000000E+00 0. -1.
         25    2    1    2    0    0 -0.76640120150E+02 -0.31505455055E+02 -0.13402816319E+03  0.20118996897E+03  0.12509018096E+03 0.  0.
          5    1    3    3  502    0 -0.74736200796E+02 -0.35456624332E+02 -0.15695916980E+03  0.17747204090E+03  0.41800000000E+01 0. -1.
         -5    1    3    3    0  502 -0.19039193540E+01  0.39511692779E+01  0.22931006613E+02  0.23717928069E+02  0.41800000000E+01 0. -1.
        -11    1    1    2    0    0  0.38908694428E+02  0.62583025733E+02 -0.76381199553E+02  0.10613486353E+03  0.00000000000E+00 0.  1.
         11    1    1    2    0    0  0.37731425722E+02 -0.31077570679E+02 -0.55022592428E+02  0.73600010623E+02  0.00000000000E+00 0. -1.
</event>
<event>
 7    1  0.2480409E-009  0.8162370E+02  0.7561462E-02  0.1324506E+00
         -3   -1    0    0    0  501 -0.00000000000E+00  0.00000000000E+00  0.20480375277E+03  0.20480375277E+03  0.00000000000E+00 0.  1.
          3   -1    0    0  501    0  0.00000000000E+00 -0.00000000000E+00 -0.64618848311E+02  0.64618848311E+02  0.00000000000E+00 0. -1.
         25    2    1    2    0    0  0.22771991691E+02  0.25083584356E+02  0.10600332747E+03  0.16742766717E+03  0.12509024138E+03 0.  0.
          5    1    3    3  502    0 -0.39615425938E+02  0.18949768314E+02 -0.10611574693E+00  0.44113029277E+02  0.41800000000E+01 0. -1.
         -5    1    3    3    0  502  0.62387417629E+02  0.61338160418E+01  0.10610944322E+03  0.12331463789E+03  0.41800000000E+01 0. -1.
        -11    1    1    2    0    0 -0.93020908646E+01 -0.37104802201E+02  0.59598450486E+02  0.70818574831E+02  0.00000000000E+00 0.  1.
         11    1    1    2    0    0 -0.13469900827E+02  0.12021217845E+02 -0.25416873503E+02  0.31176359079E+02  0.00000000000E+00 0. -1.
</event>
<event>
 7    1  0.2480409E-009  0.1080784E+03  0.7561462E-02  0.1264170E+00
          1   -1    0    0  501    0  0.00000000000E+00  0.00000000000E+00  0.46563218513E+03  0.46563218513E+03  0.00000000000E+00 0. -1.
         -1   -1    0    0    0  501 -0.00000000000E+00 -0.00000000000E+00 -0.35084902787E+02  0.35084902787E+02  0.00000000000E+00 0.  1.
         25    2    1    2    0    0  0.11198255844E+02  0.66955316216E+02  0.23334827891E+03  0.27332680357E+03  0.12509079493E+03 0.  0.
          5    1    3    3  502    0 -0.13819149017E+02  0.88319713256E+02  0.22013143505E+03  0.23762714855E+03  0.41800000000E+01 0.  1.
         -5    1    3    3    0  502  0.25017404861E+02 -0.21364397039E+02  0.13216843852E+02  0.35699655016E+02  0.41800000000E+01 0.  1.
        -11    1    1    2    0    0 -0.36992943083E+02 -0.51574385358E+02  0.61393716852E+02  0.88303927047E+02  0.00000000000E+00 0.  1.
         11    1    1    2    0    0  0.25794687239E+02 -0.15380930859E+02  0.13580528658E+03  0.13908635730E+03  0.00000000000E+00 0. -1.
</event>
<event>
 7    1  0.2480409E-009  0.1060706E+03  0.7561462E-02  0.1268024E+00
         -1   -1    0    0    0  501 -0.00000000000E+00  0.00000000000E+00  0.11338390638E+02  0.11338390638E+02  0.00000000000E+00 0.  1.
          1   -1    0    0  501    0  0.00000000000E+00 -0.00000000000E+00 -0.13239288545E+04  0.13239288545E+04  0.00000000000E+00 0. -1.
         25    2    1    2    0    0  0.31064862937E+02  0.27093605061E+02 -0.93614664150E+03  0.94536622255E+03  0.12509065195E+03 0.  0.
          5    1    3    3  502    0  0.44086372159E+02  0.61635623822E+02 -0.81807196432E+03  0.82158491316E+03  0.41800000000E+01 0. -1.
         -5    1    3    3    0  502 -0.13021509221E+02 -0.34542018761E+02 -0.11807467719E+03  0.12378130939E+03  0.41800000000E+01 0. -1.
        -11    1    1    2    0    0 -0.54942860304E+02  0.91437121461E+01 -0.25277798770E+03  0.25884172082E+03  0.00000000000E+00 0. -1.
         11    1    1    2    0    0  0.23877997367E+02 -0.36237317207E+02 -0.12366583461E+03  0.13105930172E+03  0.00000000000E+00 0.  1.
</event>
<event>
 7    1  0.2480409E-009  0.1482475E+03  0.7561462E-02  0.1202643E+00
         -1   -1    0    0    0  501 -0.00000000000E+00  0.00000000000E+00  0.12504494760E+03  0.12504494760E+03  0.00000000000E+00 0.  1.
          1   -1    0    0  501    0  0.00000000000E+00 -0.00000000000E+00 -0.22552097617E+03  0.22552097617E+03  0.00000000000E+00 0. -1.
         25    2    1    2    0    0  0.11678507977E+03 -0.34494116566E+02 -0.94760444473E+02  0.19863288118E+03  0.12508749223E+03 0.  0.
          5    1    3    3  502    0  0.13048646802E+03 -0.27636632928E+02 -0.11270320018E+03  0.17467107816E+03  0.41800000000E+01 0.  1.
         -5    1    3    3    0  502 -0.13701388246E+02 -0.68574836383E+01  0.17942755703E+02  0.23961803019E+02  0.41800000000E+01 0.  1.
        -11    1    1    2    0    0  0.36273076244E+00 -0.18561282768E+02  0.12016241123E+02  0.22114313065E+02  0.00000000000E+00 0.  1.
         11    1    1    2    0    0 -0.11714781053E+03  0.53055399334E+02 -0.17731825213E+02  0.12981872953E+03  0.00000000000E+00 0. -1.
</event>
<event>
 7    1  0.2480409E-009  0.1118486E+03  0.7561462E-02  0.1257184E+00
          2   -1    0    0  501    0  0.00000000000E+00  0.00000000000E+00  0.48202472874E+03  0.48202472874E+03  0.00000000000E+00 0.  1.
         -2   -1    0    0    0  501 -0.00000000000E+00 -0.00000000000E+00 -0.98105923732E+02  0.98105923732E+02  0.00000000000E+00 0. -1.
         25    2    1    2    0    0  0.37806914675E+01  0.35453435760E+02  0.44689915033E+03  0.46544371669E+03  0.12509101928E+03 0.  0.
          5    1    3    3  502    0  0.33001394408E+02 -0.38220501473E+02  0.16878532419E+03  0.17622671996E+03  0.41800000000E+01 0.  1.
         -5    1    3    3    0  502 -0.29220702940E+02  0.73673937232E+02  0.27811382614E+03  0.28921699673E+03  0.41800000000E+01 0.  1.
        -11    1    1    2    0    0  0.31353722333E+02  0.12888826912E+02 -0.34912282310E+02  0.48662564867E+02  0.00000000000E+00 0.  1.
         11    1    1    2    0    0 -0.35134413801E+02 -0.48342262672E+02 -0.28068063013E+02  0.66024370915E+02  0.00000000000E+00 0. -1.
</event>
<event>
 7    1  0.2480409E-009  0.9735511E+02  0.7561462E-02  0.1285958E+00
         -3   -1    0    0    0  501 -0.00000000000E+00  0.00000000000E+00  0.37666154318E+02  0.37666154318E+02  0.00000000000E+00 0.  1.
          3   -1    0    0  501    0  0.00000000000E+00 -0.00000000000E+00 -0.40698260399E+03  0.40698260399E+03  0.00000000000E+00 0. -1.
         25    2    1    2    0    0 -0.28763622342E+02  0.39588502766E+02 -0.26494395365E+03  0.29704702561E+03  0.12508813425E+03 0.  0.
          5    1    3    3  502    0  0.48123115582E+02  0.99930353949E+01 -0.12801086572E+03  0.13718581979E+03  0.41800000000E+01 0.  1.
         -5    1    3    3    0  502 -0.76886737925E+02  0.29595467371E+02 -0.13693308793E+03  0.15986120582E+03  0.41800000000E+01 0.  1.
        -11    1    1    2    0    0 -0.94165472157E+01 -0.14205947145E+02  0.13102050622E+02  0.21497535353E+02  0.00000000000E+00 0.  1.
         11    1    1    2    0    0  0.38180169558E+02 -0.25382555621E+02 -0.11747454665E+03  0.12610419734E+03  0.00000000000E+00 0. -1.
</event>
<event>
 7    1  0.2480409E-009  0.1377295E+03  0.7561462E-02  0.1216417E+00
          2   -1    0    0  501    0  0.00000000000E+00  0.00000000000E+00  0.89979400546E+03  0.89979400546E+03  0.00000000000E+00 0.  1.
         -2   -1    0    0    0  501 -0.00000000000E+00 -0.00000000000E+00 -0.26826796217E+02  0.26826796217E+02  0.00000000000E+00 0. -1.
         25    2    1    2    0    0 -0.52886847855E+00  0.11182183343E+03  0.47203929964E+03  0.50097142132E+03  0.12508741920E+03 0.  0.
          5    1    3    3  502    0 -0.52175369162E+01 -0.13055790693E+02  0.21123397321E+03  0.21174262727E+03  0.41800000000E+01 0.  1.
         -5    1    3    3    0  502  0.46886684376E+01  0.12487762412E+03  0.26080532643E+03  0.28922879406E+03  0.41800000000E+01 0.  1.
        -11    1    1    2    0    0  0.38741239440E+02 -0.54620843099E+02  0.26468644209E+03  0.27302606608E+03  0.00000000000E+00 0.  1.
         11    1    1    2    0    0 -0.38212370961E+02 -0.57200990334E+02  0.13624146752E+03  0.15262331428E+03  0.00000000000E+00 0. -1.
</event>
<event>
 7    1  0.2480409E-009  0.9010226E+02  0.7561462E-02  0.1302604E+00
         -1   -1    0    0    0  501 -0.00000000000E+00  0.00000000000E+00  0.52468818674E+02  0.52468818674E+02  0.00000000000E+00 0.  1.
          1   -1    0    0  501    0  0.00000000000E+00 -0.00000000000E+00 -0.22943274191E+03  0.22943274191E+03  0.00000000000E+00 0. -1.
         25    2    1    2    0    0  0.30509633602E+02  0.18889602565E+02 -0.14612111941E+03  0.19567690867E+03  0.12510162358E+03 0.  0.
          5    1    3    3  502    0 -0.28976270055E+02  0.28195602803E+02 -0.12546666299E+03  0.13188620916E+03  0.41800000000E+01 0.  1.
         -5    1    3    3    0  502  0.59485903657E+02 -0.93060002374E+01 -0.20654456418E+02  0.63790699512E+02  0.41800000000E+01 0.  1.
        -11    1    1    2    0    0 -0.51652607908E+02 -0.12476047181E+01 -0.12563518849E+02  0.53173211555E+02  0.00000000000E+00 0.  1.
         11    1    1    2    0    0  0.21142974305E+02 -0.17641997847E+02 -0.18279284978E+02  0.33051440359E+02  0.00000000000E+00 0. -1.
</event>
<event>
 7    1  0.2480409E-009  0.1266573E+03  0.7561462E-02  0.1232502E+00
         -1   -1    0    0    0  501 -0.00000000000E+00  0.00000000000E+00  0.53314637836E+02  0.53314637836E+02  0.00000000000E+00 0.  1.
          1   -1    0    0  501    0  0.00000000000E+00 -0.00000000000E+00 -0.47750374394E+03  0.47750374394E+03  0.00000000000E+00 0. -1.
         25    2    1    2    0    0 -0.42450375579E+02 -0.99520444298E+02 -0.30277777610E+03  0.34500659260E+03  0.12509521981E+03 0.  0.
          5    1    3    3  502    0 -0.53006335264E+02 -0.11437821797E+03 -0.30083448077E+03  0.32620684472E+03  0.41800000000E+01 0.  1.
         -5    1    3    3    0  502  0.10555959686E+02  0.14857773675E+02 -0.19432953264E+01  0.18799747876E+02  0.41800000000E+01 0.  1.
        -11    1    1    2    0    0  0.13349160575E+02  0.22691922203E+02 -0.96404712256E+02  0.99934938667E+02  0.00000000000E+00 0. -1.
         11    1    1    2    0    0  0.29101215004E+02  0.76828522094E+02 -0.25006617753E+02  0.85876850509E+02  0.00000000000E+00 0.  1.
</event>
<event>
 7    1  0.2480409E-009  0.1777725E+03  0.7561462E-02  0.1169976E+00
          2   -1    0    0  501    0  0.00000000000E+00  0.00000000000E+00  0.11926769151E+04  0.11926769151E+04  0.00000000000E+00 0. -1.
         -2   -1    0    0    0  501 -0.00000000000E+00 -0.00000000000E+00 -0.34827257409E+02  0.34827257409E+02  0.00000000000E+00 0.  1.
         25    2    1    2    0    0  0.95697585633E+02 -0.13894983420E+03  0.74000557757E+03  0.76923410754E+03  0.12509105905E+03 0.  0.
          5    1    3    3  502    0  0.34141412083E+02 -0.90089374225E+02  0.18450148928E+03  0.20818262010E+03  0.41800000000E+01 0.  1.
         -5    1    3    3    0  502  0.61556173550E+02 -0.48860459977E+02  0.55550408829E+03  0.56105148744E+03  0.41800000000E+01 0.  1.
        -11    1    1    2    0    0 -0.93214040014E+01 -0.64179103410E+01  0.54614259554E+01  0.12566038324E+02  0.00000000000E+00 0.  1.
         11    1    1    2    0    0 -0.86376181632E+02  0.14536774454E+03  0.41238265417E+03  0.44570402664E+03  0.00000000000E+00 0. -1.
</event>
<event>
 7    1  0.2480409E-009  0.1235177E+03  0.7561462E-02  0.1237404E+00
          2   -1    0    0  501    0  0.00000000000E+00  0.00000000000E+00  0.10348171890E+03  0.10348171890E+03  0.00000000000E+00 0. -1.
         -2   -1    0    0    0  501 -0.00000000000E+00 -0.00000000000E+00 -0.20629273823E+03  0.20629273823E+03  0.00000000000E+00 0.  1.
         25    2    1    2    0    0 -0.49955770885E+02  0.48491551598E+02  0.14218247652E+02  0.14386314300E+03  0.12508971072E+03 0.  0.
          5    1    3    3  502    0  0.24835762067E+02 -0.23166565468E+02 -0.13131188323E+02  0.36652494319E+02  0.41800000000E+01 0. -1.
         -5    1    3    3    0  502 -0.74791532952E+02  0.71658117066E+02  0.27349435975E+02  0.10721064868E+03  0.41800000000E+01 0. -1.
        -11    1    1    2    0    0 -0.12298302408E+02  0.15558964246E+02 -0.15123823414E+01  0.19890120936E+02  0.00000000000E+00 0. -1.
         11    1    1    2    0    0  0.62254073292E+02 -0.64050515844E+02 -0.11551688464E+03  0.14602119319E+03  0.00000000000E+00 0.  1.
</event>
<event>
 7    1  0.2480409E-009  0.2345547E+03  0.7561462E-02  0.1123474E+00
         -2   -1    0    0    0  501 -0.00000000000E+00  0.00000000000E+00  0.56104298380E+02  0.56104298380E+02  0.00000000000E+00 0.  1.
          2   -1    0    0  501    0  0.00000000000E+00 -0.00000000000E+00 -0.13450399339E+04  0.13450399339E+04  0.00000000000E+00 0. -1.
         25    2    1    2    0    0 -0.72419981474E+02  0.20185270390E+03 -0.10056319282E+04  0.10358251624E+04  0.12509606029E+03 0.  0.
          5    1    3    3  502    0 -0.94664666095E+02  0.19213136963E+03 -0.78105832791E+03  0.80990459080E+03  0.41800000000E+01 0.  1.
         -5    1    3    3    0  502  0.22244684622E+02  0.97213342696E+01 -0.22457360025E+03  0.22592057158E+03  0.41800000000E+01 0.  1.
        -11    1    1    2    0    0  0.12100754936E+02 -0.15062856287E+03 -0.19594887491E+03  0.24744969953E+03  0.00000000000E+00 0. -1.
         11    1    1    2    0    0  0.60319226537E+02 -0.51224141035E+02 -0.87354832407E+02  0.11786937032E+03  0.00000000000E+00 0.  1.
</event>
<event>
 7    1  0.2480409E-009  0.1321546E+03  0.7561462E-02  0.1224293E+00
          4   -1    0    0  501    0  0.00000000000E+00  0.00000000000E+00  0.11566472971E+04  0.11566472971E+04  0.00000000000E+00 0. -1.
         -4   -1    0    0    0  501 -0.00000000000E+00 -0.00000000000E+00 -0.20753487212E+02  0.20753487212E+02  0.00000000000E+00 0.  1.
         25    2    1    2    0    0  0.97475717882E+02  0.85402745718E+01  0.50911473712E+03  0.53330915932E+03  0.12508553870E+03 0.  0.
          5    1    3    3  502    0  0.74713820851E+01 -0.33559146550E+02  0.29728195567E+03  0.29929261841E+03  0.41800000000E+01 0.  1.
         -5    1    3    3    0  502  0.90004335797E+02  0.42099421122E+02  0.21183278146E+03  0.23401654091E+03  0.41800000000E+01 0.  1.
        -11    1    1    2    0    0 -0.29053632457E+01 -0.32528800024E+02  0.54348436720E+02  0.63405966127E+02  0.00000000000E+00 0.  1.
         11    1    1    2    0    0 -0.94570354637E+02  0.23988525452E+02  0.57243063604E+03  0.58068565886E+03  0.00000000000E+00 0. -1.
</event>
<event>
 7    1  0.2480409E-009  0.2284032E+03  0.7561462E-02  0.1127769E+00
          2   -1    0    0  501    0  0.00000000000E+00  0.00000000000E+00  0.15901234208E+04  0.15901234208E+04  0.00000000000E+00 0. -1.
         -2   -1    0    0    0  501 -0.00000000000E+00 -0.00000000000E+00 -0.43266120417E+02  0.43266120417E+02  0.00000000000E+00 0.  1.
         25    2    1    2    0    0 -0.16002804039E+01  0.20865529127E+03  0.42655017477E+03  0.49105227362E+03  0.12509073649E+03 0.  0.
          5    1    3    3  502    0 -0.45138626986E+01 -0.15725562328E+02  0.16564896698E+02  0.23654523238E+02  0.41800000000E+01 0.  1.
         -5    1    3    3    0  502  0.29135822947E+01  0.22438085360E+03  0.40998527807E+03  0.46739775038E+03  0.41800000000E+01 0.  1.
        -11    1    1    2    0    0  0.23990947154E+02 -0.52409654329E+02  0.18393464954E+03  0.19275448818E+03  0.00000000000E+00 0. -1.
         11    1    1    2    0    0 -0.22390666750E+02 -0.15624563694E+03  0.93637247610E+03  0.94958277945E+03  0.00000000000E+00 0.  1.
</event>
<event>
 7    1  0.2480409E-009  0.1128590E+03  0.7561462E-02  0.1255365E+00
         -1   -1    0    0    0  501 -0.00000000000E+00  0.00000000000E+00  0.39332014332E+02  0.39332014332E+02  0.00000000000E+00 0.  1.
          1   -1    0    0  501    0  0.00000000000E+00 -0.00000000000E+00 -0.53217523250E+03  0.53217523250E+03  0.00000000000E+00 0. -1.
         25    2    1    2    0    0  0.45951430028E+02 -0.60139654375E+02 -0.38004816936E+03  0.40719645408E+03  0.12507609375E+03 0.  0.
          5    1    3    3  502    0  0.32414194564E+02 -0.87534734020E+02 -0.16229739473E+03  0.18727233219E+03  0.41800000000E+01 0.  1.
         -5    1    3    3    0  502  0.13537235464E+02  0.27395079646E+02 -0.21775077463E+03  0.21992412188E+03  0.41800000000E+01 0.  1.
        -11    1    1    2    0    0 -0.41837153510E+02  0.75076137492E+02 -0.49573177069E+02  0.99218313427E+02  0.00000000000E+00 0.  1.
         11    1    1    2    0    0 -0.41142765178E+01 -0.14936483118E+02 -0.63221871738E+02  0.65092479330E+02  0.00000000000E+00 0. -1.
</event>
<event>
 7    1  0.2480409E-009  0.8077645E+02  0.7561462E-02  0.1326862E+00
         -3   -1    0    0    0  501 -0.00000000000E+00  0.00000000000E+00  0.14070786024E+03  0.14070786024E+03  0.00000000000E+00 0.  1.
          3   -1    0    0  501    0  0.00000000000E+00 -0.00000000000E+00 -0.13786419972E+03  0.13786419972E+03  0.00000000000E+00 0. -1.
         25    2    1    2    0    0 -0.93489163895E+01  0.72339855566E+02 -0.45030589832E+02  0.15164567224E+03  0.12509276137E+03 0.  0.
          5    1    3    3  502    0 -0.26033997027E+01  0.58278878449E+02  0.36228463822E+02  0.68798105746E+02  0.41800000000E+01 0. -1.
         -5    1    3    3    0  502 -0.67455166868E+01  0.14060977117E+02 -0.81259053654E+02  0.82847566492E+02  0.41800000000E+01 0. -1.
        -11    1    1    2    0    0 -0.19153567488E+02 -0.22909886057E+02 -0.21724554396E+02  0.36928014980E+02  0.00000000000E+00 0.  1.
         11    1    1    2    0    0  0.28502483877E+02 -0.49429969509E+02  0.69598804754E+02  0.89998372741E+02  0.00000000000E+00 0. -1.
</event>
<event>
 7    1  0.2480409E-009  0.1049229E+03  0.7561462E-02  0.1270272E+00
          2   -1    0    0  501    0  0.00000000000E+00  0.00000000000E+00  0.66976297068E+03  0.66976297068E+03  0.00000000000E+00 0. -1.
         -2   -1    0    0    0  501 -0.00000000000E+00 -0.00000000000E+00 -0.20843789670E+02  0.20843789670E+02  0.00000000000E+00 0.  1.
         25    2    1    2    0    0  0.38386601275E+02  0.93710385672E+01  0.43896286376E+03  0.45814418295E+03  0.12508536721E+03 0.  0.
          5    1    3    3  502    0  0.66097705267E+02  0.42094060677E+02  0.19144149159E+03  0.20690126555E+03  0.41800000000E+01 0.  1.
         -5    1    3    3    0  502 -0.27711103992E+02 -0.32723022110E+02  0.24752137217E+03  0.25124291739E+03  0.41800000000E+01 0.  1.
        -11    1    1    2    0    0  0.24661022201E+02 -0.94061112815E+00  0.18867652475E+02  0.31065078065E+02  0.00000000000E+00 0.  1.
         11    1    1    2    0    0 -0.63047623476E+02 -0.84304274391E+01  0.19108866477E+03  0.20139749933E+03  0.00000000000E+00 0. -1.
</event>
<event>
 7    1  0.2480409E-009  0.1708005E+03  0.7561462E-02  0.1177016E+00
         -2   -1    0    0    0  501 -0.00000000000E+00  0.00000000000E+00  0.32502306213E+02  0.32502306213E+02  0.00000000000E+00 0. -1.
          2   -1    0    0  501    0  0.00000000000E+00 -0.00000000000E+00 -0.12749813086E+04  0.12749813086E+04  0.00000000000E+00 0.  1.
         25    2    1    2    0    0  0.73333657139E+02 -0.14447846275E+03 -0.46902666934E+03  0.51174748839E+03  0.12509046268E+03 0.  0.
          5    1    3    3  502    0  0.34215420646E+02 -0.80812481444E+02 -0.91409166732E+02  0.12678509506E+03  0.41800000000E+01 0.  1.
         -5    1    3    3    0  502  0.39118236493E+02 -0.63665981305E+02 -0.37761750261E+03  0.38496239333E+03  0.41800000000E+01 0.  1.
        -11    1    1    2    0    0  0.14552883416E+02  0.38897165133E+02 -0.97678334723E+02  0.10614062816E+03  0.00000000000E+00 0. -1.
         11    1    1    2    0    0 -0.87886540556E+02  0.10558129762E+03 -0.67577399830E+03  0.68959549824E+03  0.00000000000E+00 0.  1.
</event>
<event>
 7    1  0.2480409E-009  0.1213818E+03  0.7561462E-02  0.1240835E+00
         -1   -1    0    0    0  501 -0.00000000000E+00  0.00000000000E+00  0.63088665538E+03  0.63088665538E+03  0.00000000000E+00 0.  1.
          1   -1    0    0  501    0  0.00000000000E+00 -0.00000000000E+00 -0.30440436801E+02  0.30440436801E+02  0.00000000000E+00 0. -1.
         25    2    1    2    0    0 -0.58989812113E+02 -0.71200454914E+02  0.35084548019E+03  0.38378281820E+03  0.12508955937E+03 0.  0.
          5    1    3    3  502    0  0.19267910076E+02 -0.26203400160E+01  0.19702086774E+03  0.19802225447E+03  0.41800000000E+01 0.  1.
         -5    1    3    3    0  502 -0.78257722189E+02 -0.68580114898E+02  0.15382461244E+03  0.18576056372E+03  0.41800000000E+01 0.  1.
        -11    1    1    2    0    0  0.20822581448E+02 -0.14193222556E+02  0.79818873142E+02  0.83702329564E+02  0.00000000000E+00 0.  1.
         11    1    1    2    0    0  0.38167230665E+02  0.85393677470E+02  0.16978186526E+03  0.19384194443E+03  0.00000000000E+00 0. -1.
</event>
<event>
 7    1  0.2480409E-009  0.1387363E+03  0.7561462E-02  0.1215040E+00
         -3   -1    0    0    0  501 -0.00000000000E+00  0.00000000000E+00  0.15004549342E+03  0.15004549342E+03  0.00000000000E+00 0.  1.
          3   -1    0    0  501    0  0.00000000000E+00 -0.00000000000E+00 -0.14137764627E+03  0.14137764627E+03  0.00000000000E+00 0. -1.
         25    2    1    2    0    0  0.14672382678E+02 -0.93387081580E+02 -0.46276642664E+01  0.15686269199E+03  0.12509221816E+03 0.  0.
          5    1    3    3  502    0 -0.41112060743E+02 -0.75738577776E+01  0.26656349606E+02  0.49755383975E+02  0.41800000000E+01 0.  1.
         -5    1    3    3    0  502  0.55784443421E+02 -0.85813223803E+02 -0.31284013873E+02  0.10710730802E+03  0.41800000000E+01 0.  1.
        -11    1    1    2    0    0  0.14805835460E+02 -0.14774793867E+02 -0.34837665393E+01  0.21204809049E+02  0.00000000000E+00 0. -1.
         11    1    1    2    0    0 -0.29478218138E+02  0.10816187545E+03  0.16779277952E+02  0.11335563865E+03  0.00000000000E+00 0.  1.
</event>
<event>
 7    1  0.2815771E-009  0.1506540E+03  0.7561462E-02  0.1199672E+00
          1   -1    0    0  501    0  0.00000000000E+00  0.00000000000E+00  0.11289749097E+04  0.11289749097E+04  0.00000000000E+00 0. -1.
         -1   -1    0    0    0  501 -0.00000000000E+00 -0.00000000000E+00 -0.29141382859E+02  0.29141382859E+02  0.00000000000E+00 0.  1.
         25    2    1    2    0    0  0.14231465548E+03  0.15232177700E+02  0.50484394672E+03  0.53944433584E+03  0.12508917031E+03 0.  0.
          5    1    3    3  502    0  0.82509342495E+02 -0.24527195834E+02  0.41744345025E+03  0.42624626860E+03  0.41800000000E+01 0.  1.
         -5    1    3    3    0  502  0.59805312981E+02  0.39759373534E+02  0.87400496463E+02  0.11319806724E+03  0.41800000000E+01 0.  1.
        -11    1    1    2    0    0 -0.12179507576E+03 -0.11516876605E+02  0.58056801166E+03  0.59331770165E+03  0.00000000000E+00 0. -1.
         11    1    1    2    0    0 -0.20519579718E+02 -0.37153010953E+01  0.14421568494E+02  0.25354255104E+02  0.00000000000E+00 0.  1.
</event>
<event>
 7    1  0.2480409E-009  0.1085406E+03  0.7561462E-02  0.1263297E+00
         -3   -1    0    0    0  501 -0.00000000000E+00  0.00000000000E+00  0.15119783991E+02  0.15119783991E+02  0.00000000000E+00 0.  1.
          3   -1    0    0  501    0  0.00000000000E+00 -0.00000000000E+00 -0.83337747800E+03  0.83337747800E+03  0.00000000000E+00 0. -1.
         25    2    1    2    0    0 -0.27479992778E+02  0.45668449526E+01 -0.50917447630E+03  0.52505342823E+03  0.12508576699E+03 0.  0.
          5    1    3    3  502    0 -0.73875237513E+02  0.21567662046E+02 -0.34752893457E+03  0.35597267806E+03  0.41800000000E+01 0. -1.
         -5    1    3    3    0  502  0.46395244735E+02 -0.17000817094E+02 -0.16164554173E+03  0.16908075017E+03  0.41800000000E+01 0. -1.
        -11    1    1    2    0    0 -0.28993287969E+02 -0.15532897923E+02 -0.16602709367E+03  0.16925388474E+03  0.00000000000E+00 0. -1.
         11    1    1    2    0    0  0.56473280747E+02  0.10966052970E+02 -0.14305612403E+03  0.15418994902E+03  0.00000000000E+00 0.  1.
</event>
<event>
 7    1  0.2480409E-009  0.1126737E+03  0.7561462E-02  0.1255697E+00
         -1   -1    0    0    0  501 -0.00000000000E+00  0.00000000000E+00  0.40353670046E+02  0.40353670046E+02  0.00000000000E+00 0.  1.
          1   -1    0    0  501    0  0.00000000000E+00 -0.00000000000E+00 -0.38539228525E+03  0.38539228525E+03  0.00000000000E+00 0. -1.
         25    2    1    2    0    0 -0.36332711582E+02 -0.25608286377E+02 -0.12042890174E+03  0.17924649835E+03  0.12510130509E+03 0.  0.
          5    1    3    3  502    0  0.45333288772E+02 -0.47879593346E+01 -0.59952705810E+02  0.75430968173E+02  0.41800000000E+01 0. -1.
         -5    1    3    3    0  502 -0.81666000354E+02 -0.20820327042E+02 -0.60476195932E+02  0.10381553018E+03  0.41800000000E+01 0. -1.
        -11    1    1    2    0    0 -0.26490607178E+02  0.17723129852E+02 -0.12053612764E+03  0.12467886616E+03  0.00000000000E+00 0.  1.
         11    1    1    2    0    0  0.62823318760E+02  0.78851565245E+01 -0.10407358582E+03  0.12182059078E+03  0.00000000000E+00 0. -1.
</event>
<event>
 7    1  0.2480409E-009  0.1294131E+03  0.7561462E-02  0.1228329E+00
         -2   -1    0    0    0  501 -0.00000000000E+00  0.00000000000E+00  0.65713934725E+02  0.65713934725E+02  0.00000000000E+00 0.  1.
          2   -1    0    0  501    0  0.00000000000E+00 -0.00000000000E+00 -0.28745808374E+03  0.28745808374E+03  0.00000000000E+00 0. -1.
         25    2    1    2    0    0  0.76213622831E+02 -0.16662877241E+02 -0.17090651954E+03  0.22570325469E+03  0.12508698164E+03 0.  0.
          5    1    3    3  502    0  0.10165827470E+03  0.18817073136E+02 -0.12360974669E+03  0.16119965550E+03  0.41800000000E+01 0.  1.
         -5    1    3    3    0  502 -0.25444651867E+02 -0.35479950377E+02 -0.47296772846E+02  0.64503599195E+02  0.41800000000E+01 0.  1.
        -11    1    1    2    0    0 -0.64025635635E+02 -0.24510501868E+02 -0.12056710829E+02  0.69608986462E+02  0.00000000000E+00 0.  1.
         11    1    1    2    0    0 -0.12187987196E+02  0.41173379109E+02 -0.38780918654E+02  0.57859777314E+02  0.00000000000E+00 0. -1.
</event>
<event>
 7    1  0.2480409E-009  0.1067879E+03  0.7561462E-02  0.1266636E+00
          1   -1    0    0  501    0  0.00000000000E+00  0.00000000000E+00  0.60611729185E+03  0.60611729185E+03  0.00000000000E+00 0. -1.
         -1   -1    0    0    0  501 -0.00000000000E+00 -0.00000000000E+00 -0.43392186672E+02  0.43392186672E+02  0.00000000000E+00 0.  1.
         25    2    1    2    0    0 -0.64581494821E+02  0.72943337257E+02  0.44471302365E+03  0.47212995538E+03  0.12508205880E+03 0.  0.
          5    1    3    3  502    0 -0.49057325635E+02  0.14508201365E+02  0.38006613853E+03  0.38351642880E+03  0.41800000000E+01 0. -1.
         -5    1    3    3    0  502 -0.15524169185E+02  0.58435135892E+02  0.64646885124E+02  0.88613526574E+02  0.41800000000E+01 0. -1.
        -11    1    1    2    0    0  0.21902601116E+02 -0.46590123446E+02  0.11630642173E+03  0.12719098739E+03  0.00000000000E+00 0. -1.
         11    1    1    2    0    0  0.42678893705E+02 -0.26353213810E+02  0.17056597989E+01  0.50188535756E+02  0.00000000000E+00 0.  1.
</event>
<event>
 7    1  0.2480409E-009  0.9804582E+02  0.7561462E-02  0.1284460E+00
         -1   -1    0    0    0  501 -0.00000000000E+00  0.00000000000E+00  0.11197679352E+03  0.11197679352E+03  0.00000000000E+00 0.  1.
          1   -1    0    0  501    0  0.00000000000E+00 -0.00000000000E+00 -0.12833085185E+03  0.12833085185E+03  0.00000000000E+00 0. -1.
         25    2    1    2    0    0  0.40061146968E+02 -0.28595378528E+02 -0.21845387824E+02  0.13618986848E+03  0.12509143911E+03 0.  0.
          5    1    3    3  502    0 -0.71807084288E+01  0.32538844778E+02 -0.44331104274E+02  0.55615269478E+02  0.41800000000E+01 0.  1.
         -5    1    3    3    0  502  0.47241855397E+02 -0.61134223305E+02  0.22485716450E+02  0.80574599005E+02  0.41800000000E+01 0.  1.
        -11    1    1    2    0    0 -0.89203676844E+01 -0.23112517021E+02  0.30055496591E+02  0.38949894454E+02  0.00000000000E+00 0.  1.
         11    1    1    2    0    0 -0.31140779284E+02  0.51707895548E+02 -0.24564167094E+02  0.65167882438E+02  0.00000000000E+00 0. -1.
</event>
<event>
 7    1  0.2480409E-009  0.1739720E+03  0.7561462E-02  0.1173768E+00
          1   -1    0    0  501    0  0.00000000000E+00  0.00000000000E+00  0.57143624308E+03  0.57143624308E+03  0.00000000000E+00 0. -1.
         -1   -1    0    0    0  501 -0.00000000000E+00 -0.00000000000E+00 -0.78996072861E+02  0.78996072861E+02  0.00000000000E+00 0.  1.
         25    2    1    2    0    0 -0.11527210777E+03  0.95867334677E+02  0.41413152247E+03  0.45785464535E+03  0.12509098159E+03 0.  0.
          5    1    3    3  502    0 -0.13281446305E+01  0.52892772742E+02  0.23692756784E+03  0.24279941141E+03  0.41800000000E+01 0. -1.
         -5    1    3    3    0  502 -0.11394396314E+03  0.42974561934E+02  0.17720395463E+03  0.21505523394E+03  0.41800000000E+01 0. -1.
        -11    1    1    2    0    0  0.80647493707E+02 -0.11042494367E+02  0.19483520689E+02  0.83699238357E+02  0.00000000000E+00 0. -1.
         11    1    1    2    0    0  0.34624614060E+02 -0.84824840310E+02  0.58825127055E+02  0.10887843223E+03  0.00000000000E+00 0.  1.
</event>
<event>
 7    1  0.2480409E-009  0.1005189E+03  0.7561462E-02  0.1279208E+00
          1   -1    0    0  501    0  0.00000000000E+00  0.00000000000E+00  0.84459879542E+02  0.84459879542E+02  0.00000000000E+00 0. -1.
         -1   -1    0    0    0  501 -0.00000000000E+00 -0.00000000000E+00 -0.21971020621E+03  0.21971020621E+03  0.00000000000E+00 0.  1.
         25    2    1    2    0    0  0.54476891715E+02 -0.49154333579E+02 -0.75969325144E+02  0.16370234973E+03  0.12507294154E+03 0.  0.
          5    1    3    3  502    0  0.77572128252E+01  0.12901350076E+02 -0.84054752936E+02  0.85494403769E+02  0.41800000000E+01 0.  1.
         -5    1    3    3    0  502  0.46719678890E+02 -0.62055683655E+02  0.80854277924E+01  0.78207945965E+02  0.41800000000E+01 0.  1.
        -11    1    1    2    0    0 -0.21698279650E+02 -0.20996885461E+02 -0.55212622601E+02  0.62929470309E+02  0.00000000000E+00 0.  1.
         11    1    1    2    0    0 -0.32778612065E+02  0.70151219040E+02 -0.40683789210E+01  0.77538265707E+02  0.00000000000E+00 0. -1.
</event>
<event>
 7    1  0.2480409E-009  0.9857620E+02  0.7561462E-02  0.1283319E+00
         -2   -1    0    0    0  501 -0.00000000000E+00  0.00000000000E+00  0.21745740382E+02  0.21745740382E+02  0.00000000000E+00 0.  1.
          2   -1    0    0  501    0  0.00000000000E+00 -0.00000000000E+00 -0.61901900297E+03  0.61901900297E+03  0.00000000000E+00 0. -1.
         25    2    1    2    0    0  0.30666264507E+02 -0.10996614954E+02 -0.26439784210E+03  0.29430456684E+03  0.12509042265E+03 0.  0.
          5    1    3    3  502    0  0.45304386972E+02 -0.44921999169E+02 -0.63924195773E+02  0.90411551770E+02  0.41800000000E+01 0.  1.
         -5    1    3    3    0  502 -0.14638122465E+02  0.33925384215E+02 -0.20047364633E+03  0.20389301507E+03  0.41800000000E+01 0.  1.
        -11    1    1    2    0    0 -0.15173137577E+02 -0.39974474321E+02 -0.15285012754E+03  0.15871781308E+03  0.00000000000E+00 0.  1.
         11    1    1    2    0    0 -0.15493126930E+02  0.50971089275E+02 -0.18002529295E+03  0.18774236343E+03  0.00000000000E+00 0. -1.
</event>
<event>
 7    1  0.3380582E-009  0.1623936E+03  0.7561462E-02  0.1186021E+00
          1   -1    0    0  501    0  0.00000000000E+00  0.00000000000E+00  0.70406126830E+03  0.70406126830E+03  0.00000000000E+00 0. -1.
         -1   -1    0    0    0  501 -0.00000000000E+00 -0.00000000000E+00 -0.52712104013E+02  0.52712104013E+02  0.00000000000E+00 0.  1.
         25    2    1    2    0    0 -0.70166377943E+02 -0.12673734044E+03  0.21342430677E+03  0.28667697814E+03  0.12509229001E+03 0.  0.
          5    1    3    3  502    0 -0.11374601809E+02 -0.10994574835E+03  0.19231904551E+03  0.22185927254E+03  0.41800000000E+01 0. -1.
         -5    1    3    3    0  502 -0.58791776134E+02 -0.16791592092E+02  0.21105261251E+02  0.64817705594E+02  0.41800000000E+01 0. -1.
        -11    1    1    2    0    0  0.56605851247E+02  0.51780741967E+02  0.11451801851E+03  0.13783992236E+03  0.00000000000E+00 0.  1.
         11    1    1    2    0    0  0.13560526696E+02  0.74956598475E+02  0.32340683901E+03  0.33225647181E+03  0.00000000000E+00 0. -1.
</event>
<event>
 7    1  0.2753160E-009  0.1211581E+03  0.7561462E-02  0.1241199E+00
         -2   -1    0    0    0  501 -0.00000000000E+00  0.00000000000E+00  0.57222509645E+02  0.57222509645E+02  0.00000000000E+00 0.  1.
          2   -1    0    0  501    0  0.00000000000E+00 -0.00000000000E+00 -0.29251382007E+03  0.29251382007E+03  0.00000000000E+00 0. -1.
         25    2    1    2    0    0  0.81900035053E+01  0.69421541473E+02 -0.12004766212E+03  0.18693683856E+03  0.12509002300E+03 0.  0.
          5    1    3    3  502    0 -0.32967598381E+02 -0.20626048862E+02 -0.13370153838E+02  0.41334366432E+02  0.41800000000E+01 0. -1.
         -5    1    3    3    0  502  0.41157601886E+02  0.90047590335E+02 -0.10667750828E+03  0.14560247213E+03  0.41800000000E+01 0. -1.
        -11    1    1    2    0    0  0.33110395895E+02 -0.45846791645E+02 -0.96162227968E+02  0.11155895620E+03  0.00000000000E+00 0. -1.
         11    1    1    2    0    0 -0.41300399401E+02 -0.23574749827E+02 -0.19081420340E+02  0.51240534953E+02  0.00000000000E+00 0.  1.
</event>
<event>
 7    1  0.2480409E-009  0.2249088E+03  0.7561462E-02  0.1130275E+00
          2   -1    0    0  501    0  0.00000000000E+00  0.00000000000E+00  0.12926726384E+04  0.12926726384E+04  0.00000000000E+00 0. -1.
         -2   -1    0    0    0  501 -0.00000000000E+00 -0.00000000000E+00 -0.45831246270E+02  0.45831246270E+02  0.00000000000E+00 0.  1.
         25    2    1    2    0    0 -0.18137330997E+03  0.11372168910E+03  0.53800054351E+03  0.59238598897E+03  0.12509066704E+03 0.  0.
          5    1    3    3  502    0 -0.11650271364E+03  0.99263422134E+02  0.48082503459E+03  0.50461499735E+03  0.41800000000E+01 0.  1.
         -5    1    3    3    0  502 -0.64870596325E+02  0.14458266966E+02  0.57175508911E+02  0.87770991623E+02  0.41800000000E+01 0.  1.
        -11    1    1    2    0    0  0.81827468370E+02 -0.39471298835E+01  0.19971719774E+03  0.21586633246E+03  0.00000000000E+00 0. -1.
         11    1    1    2    0    0  0.99545841598E+02 -0.10977455922E+03  0.50912365090E+03  0.53025156326E+03  0.00000000000E+00 0.  1.
</event>
<event>
 7    1  0.2480409E-009  0.9667065E+02  0.7561462E-02  0.1287457E+00
         -1   -1    0    0    0  501 -0.00000000000E+00  0.00000000000E+00  0.56201312845E+03  0.56201312845E+03  0.00000000000E+00 0.  1.
          1   -1    0    0  501    0  0.00000000000E+00 -0.00000000000E+00 -0.28730654333E+02  0.28730654333E+02  0.00000000000E+00 0. -1.
         25    2    1    2    0    0  0.16042300269E+02  0.63262015725E+01  0.44751245272E+03  0.46499165590E+03  0.12510982575E+03 0.  0.
          5    1    3    3  502    0 -0.86073505626E+00  0.62308175260E+02  0.16418978213E+03  0.17566674849E+03  0.41800000000E+01 0.  1.
         -5    1    3    3    0  502  0.16903035326E+02 -0.55981973687E+02  0.28332267058E+03  0.28932490741E+03  0.41800000000E+01 0.  1.
        -11    1    1    2    0    0 -0.40891540193E+02  0.10538982091E+02  0.88059364397E+01  0.43136211232E+02  0.00000000000E+00 0. -1.
         11    1    1    2    0    0  0.24849239923E+02 -0.16865183664E+02  0.76964084965E+02  0.82615915654E+02  0.00000000000E+00 0.  1.
</event>
<event>
 7    1  0.2480409E-009  0.1172368E+03  0.7561462E-02  0.1247726E+00
         -1   -1    0    0    0  501 -0.00000000000E+00  0.00000000000E+00  0.50877525230E+02  0.50877525230E+02  0.00000000000E+00 0.  1.
          1   -1    0    0  501    0  0.00000000000E+00 -0.00000000000E+00 -0.37920877055E+03  0.37920877055E+03  0.00000000000E+00 0. -1.
         25    2    1    2    0    0  0.71736234978E+02 -0.10909422013E+02 -0.25252010116E+03  0.29099656284E+03  0.12508994841E+03 0.  0.
          5    1    3    3  502    0  0.54386414250E+02  0.54296474980E+02 -0.13800641423E+03  0.15801655615E+03  0.41800000000E+01 0.  1.
         -5    1    3    3    0  502  0.17349820728E+02 -0.65205896994E+02 -0.11451368694E+03  0.13298000669E+03  0.41800000000E+01 0.  1.
        -11    1    1    2    0    0 -0.74559785408E+02 -0.40619362152E+01 -0.14694149153E+02  0.76102424043E+02  0.00000000000E+00 0.  1.
         11    1    1    2    0    0  0.28235504297E+01  0.14971358228E+02 -0.61116995004E+02  0.62987308901E+02  0.00000000000E+00 0. -1.
</event>
<event>
 7    1  0.2480409E-009  0.7972599E+02  0.7561462E-02  0.1329831E+00
         -2   -1    0    0    0  501 -0.00000000000E+00  0.00000000000E+00  0.21009392719E+02  0.21009392719E+02  0.00000000000E+00 0. -1.
          2   -1    0    0  501    0  0.00000000000E+00 -0.00000000000E+00 -0.89917212708E+03  0.89917212708E+03  0.00000000000E+00 0.  1.
         25    2    1    2    0    0  0.70254393317E+01 -0.12646544646E+02 -0.75175617564E+03  0.76223048675E+03  0.12509466583E+03 0.  0.
          5    1    3    3  502    0 -0.41091501384E+01 -0.37620505105E+02 -0.71605808275E+03  0.71706961851E+03  0.41800000000E+01 0. -1.
         -5    1    3    3    0  502  0.11134589470E+02  0.24973960459E+02 -0.35698092896E+02  0.45160868239E+02  0.41800000000E+01 0. -1.
        -11    1    1    2    0    0 -0.43684710852E+02  0.30163721305E+02 -0.82738657909E+02  0.98305084089E+02  0.00000000000E+00 0.  1.
         11    1    1    2    0    0  0.36659271520E+02 -0.17517176659E+02 -0.43667900804E+02  0.59645948958E+02  0.00000000000E+00 0. -1.
</event>
<event>
 7    1  0.2480409E-009  0.1514611E+03  0.7561462E-02  0.1198689E+00
          1   -1    0    0  501    0  0.00000000000E+00  0.00000000000E+00  0.80581833433E+02  0.80581833433E+02  0.00000000000E+00 0. -1.
         -1   -1    0    0    0  501 -0.00000000000E+00 -0.00000000000E+00 -0.30752723912E+03  0.30752723912E+03  0.00000000000E+00 0.  1.
         25    2    1    2    0    0 -0.71984666229E+02  0.79081750328E+02 -0.17068771752E+03  0.23710203909E+03  0.12508942649E+03 0.  0.
          5    1    3    3  502    0  0.93508567400E+00  0.89677622160E+02 -0.80685822901E+02  0.12070884275E+03  0.41800000000E+01 0. -1.
         -5    1    3    3    0  502 -0.72919751903E+02 -0.10595871832E+02 -0.90001894622E+02  0.11639319634E+03  0.41800000000E+01 0. -1.
        -11    1    1    2    0    0  0.81892673521E+02 -0.91928348644E+02 -0.54665906791E+02  0.13470557756E+03  0.00000000000E+00 0.  1.
         11    1    1    2    0    0 -0.99080072916E+01  0.12846598315E+02 -0.15917813766E+01  0.16301455908E+02  0.00000000000E+00 0. -1.
</event>
<event>
 7    1  0.2480409E-009  0.7287721E+02  0.7561462E-02  0.1350574E+00
         -1   -1    0    0    0  501 -0.00000000000E+00  0.00000000000E+00  0.48383424267E+03  0.48383424267E+03  0.00000000000E+00 0.  1.
          1   -1    0    0  501    0  0.00000000000E+00 -0.00000000000E+00 -0.36280987246E+02  0.36280987246E+02  0.00000000000E+00 0. -1.
         25    2    1    2    0    0 -0.18387622158E+02 -0.40720741980E+02  0.35484332145E+03  0.37889101186E+03  0.12509329566E+03 0.  0.
          5    1    3    3  502    0 -0.25979973608E+02 -0.41876629123E+02  0.36334492573E+03  0.36669553930E+03  0.41800000000E+01 0.  1.
         -5    1    3    3    0  502  0.75923514505E+01  0.11558871421E+01 -0.85016042790E+01  0.12195472559E+02  0.41800000000E+01 0.  1.
        -11    1    1    2    0    0  0.45867643513E+02  0.38675236318E+02  0.96274125465E+02  0.11343862596E+03  0.00000000000E+00 0.  1.
         11    1    1    2    0    0 -0.27480021355E+02  0.20455056626E+01 -0.35641914843E+01  0.27785592095E+02  0.00000000000E+00 0. -1.
</event>
<event>
 7    1  0.2480409E-009  0.7131997E+02  0.7561462E-02  0.1355661E+00
          3   -1    0    0  501    0  0.00000000000E+00  0.00000000000E+00  0.13971165510E+03  0.13971165510E+03  0.00000000000E+00 0. -1.
         -3   -1    0    0    0  501 -0.00000000000E+00 -0.00000000000E+00 -0.99239112017E+02  0.99239112017E+02  0.00000000000E+00 0.  1.
         25    2    1    2    0    0 -0.16577842662E+02 -0.36786915522E+02  0.54277909478E+02  0.14220111076E+03  0.12508781884E+03 0.  0.
          5    1    3    3  502    0  0.33862525364E+02 -0.43816382839E+01 -0.25139876650E+02  0.42606985061E+02  0.41800000000E+01 0. -1.
         -5    1    3    3    0  502 -0.50440368026E+02 -0.32405277239E+02  0.79417786128E+02  0.99594125695E+02  0.41800000000E+01 0. -1.
        -11    1    1    2    0    0 -0.72225894699E+01  0.76717773415E+01  0.34189926979E+02  0.35776711322E+02  0.00000000000E+00 0. -1.
         11    1    1    2    0    0  0.23800432132E+02  0.29115138181E+02 -0.47995293373E+02  0.60972945040E+02  0.00000000000E+00 0.  1.
</event>
<event>
 7    1  0.2480409E-009  0.1207968E+03  0.7561462E-02  0.1241788E+00
         -2   -1    0    0    0  501 -0.00000000000E+00  0.00000000000E+00  0.96456376099E+01  0.96456376099E+01  0.00000000000E+00 0.  1.
          2   -1    0    0  501    0  0.00000000000E+00 -0.00000000000E+00 -0.17291213244E+04  0.17291213244E+04  0.00000000000E+00 0. -1.
         25    2    1    2    0    0 -0.51003415493E+02  0.25155144988E+02 -0.12239246495E+04  0.12316149496E+04  0.12509878775E+03 0.  0.
          5    1    3    3  502    0 -0.52872639289E+02 -0.42338311144E+02 -0.51070277992E+03  0.51519205195E+03  0.41800000000E+01 0.  1.
         -5    1    3    3    0  502  0.18692237968E+01  0.67493456132E+02 -0.71322186960E+03  0.71642289766E+03  0.41800000000E+01 0.  1.
        -11    1    1    2    0    0  0.76605355661E+02 -0.12850943305E+02 -0.39983192819E+03  0.40730712989E+03  0.00000000000E+00 0. -1.
         11    1    1    2    0    0 -0.25601940169E+02 -0.12304201683E+02 -0.95719109075E+02  0.99844882501E+02  0.00000000000E+00 0.  1.
</event>
<event>
 7    1  0.2480409E-009  0.2103160E+03  0.7561462E-02  0.1141316E+00
          2   -1    0    0  501    0  0.00000000000E+00  0.00000000000E+00  0.44364124636E+03  0.44364124636E+03  0.00000000000E+00 0. -1.
         -2   -1    0    0    0  501 -0.00000000000E+00 -0.00000000000E+00 -0.10179081572E+03  0.10179081572E+03  0.00000000000E+00 0.  1.
         25    2    1    2    0    0  0.76386603484E+02  0.16377659489E+03  0.13985828649E+03  0.26051048681E+03  0.12509071593E+03 0.  0.
          5    1    3    3  502    0 -0.24022353629E+02  0.94802755451E+02  0.61186565373E+02  0.11543787982E+03  0.41800000000E+01 0. -1.
         -5    1    3    3    0  502  0.10040895711E+03  0.68973839440E+02  0.78671721118E+02  0.14507260699E+03  0.41800000000E+01 0. -1.
        -11    1    1    2    0    0  0.31513235184E+01 -0.96862984961E+02  0.10175760680E+03  0.14052394542E+03  0.00000000000E+00 0.  1.
         11    1    1    2    0    0 -0.79537927002E+02 -0.66913609931E+02  0.10023453735E+03  0.14439762984E+03  0.00000000000E+00 0. -1.
</event>
<event>
 7    1  0.2480409E-009  0.1385176E+03  0.7561462E-02  0.1215338E+00
          1   -1    0    0  501    0  0.00000000000E+00  0.00000000000E+00  0.39921263640E+03  0.39921263640E+03  0.00000000000E+00 0. -1.
         -1   -1    0    0    0  501 -0.00000000000E+00 -0.00000000000E+00 -0.53430825772E+02  0.53430825772E+02  0.00000000000E+00 0.  1.
         25    2    1    2    0    0  0.74986872697E+02  0.58997478775E+02  0.21499620834E+03  0.26641070398E+03  0.12509020751E+03 0.  0.
          5    1    3    3  502    0  0.10102026175E+03  0.72804757342E+02  0.15051289180E+03  0.19538994082E+03  0.41800000000E+01 0.  1.
         -5    1    3    3    0  502 -0.26033389058E+02 -0.13807278567E+02  0.64483316549E+02  0.71020763164E+02  0.41800000000E+01 0.  1.
        -11    1    1    2    0    0 -0.77101233611E+02 -0.14894697851E+02  0.46979695502E+02  0.91507070972E+02  0.00000000000E+00 0. -1.
         11    1    1    2    0    0  0.21143609139E+01 -0.44102780924E+02  0.83805906786E+02  0.94725687221E+02  0.00000000000E+00 0.  1.
</event>
<event>
 7    1  0.2480409E-009  0.1096062E+03  0.7561462E-02  0.1261301E+00
         -1   -1    0    0    0  501 -0.00000000000E+00  0.00000000000E+00  0.52239289434E+02  0.52239289434E+02  0.00000000000E+00 0.  1.
          1   -1    0    0  501    0  0.00000000000E+00 -0.00000000000E+00 -0.37629641855E+03  0.37629641855E+03  0.00000000000E+00 0. -1.
         25    2    1    2    0    0 -0.45498993069E+01 -0.87502833957E+02 -0.13852697670E+03  0.20619669337E+03  0.12509958254E+03 0.  0.
          5    1    3    3  502    0  0.20796235195E+02 -0.60426208782E+02 -0.13740119194E+01  0.64055994371E+02  0.41800000000E+01 0.  1.
         -5    1    3    3    0  502 -0.25346134501E+02 -0.27076625175E+02 -0.13715296478E+03  0.14214069900E+03  0.41800000000E+01 0.  1.
        -11    1    1    2    0    0  0.21550204726E+02  0.96316844290E+02 -0.17383768706E+03  0.19990219423E+03  0.00000000000E+00 0. -1.
         11    1    1    2    0    0 -0.17000305420E+02 -0.88140103330E+01 -0.11692465361E+02  0.22436820379E+02  0.00000000000E+00 0.  1.
</event>
<event>
 7    1  0.2480409E-009  0.1208265E+03  0.7561462E-02  0.1241740E+00
          1   -1    0    0  501    0  0.00000000000E+00  0.00000000000E+00  0.71804565046E+03  0.71804565046E+03  0.00000000000E+00 0. -1.
         -1   -1    0    0    0  501 -0.00000000000E+00 -0.00000000000E+00 -0.31199875180E+02  0.31199875180E+02  0.00000000000E+00 0.  1.
         25    2    1    2    0    0  0.10030113659E+03 -0.22598767359E+02  0.40086490772E+03  0.43233220142E+03  0.12508971125E+03 0.  0.
          5    1    3    3  502    0  0.43021073501E+02  0.41244927817E+00  0.34880422327E+03  0.35147239074E+03  0.41800000000E+01 0.  1.
         -5    1    3    3    0  502  0.57280063092E+02 -0.23011216637E+02  0.52060684443E+02  0.80859810683E+02  0.41800000000E+01 0.  1.
        -11    1    1    2    0    0 -0.59501460204E+02 -0.32653898258E+02  0.14347090391E+03  0.15871547217E+03  0.00000000000E+00 0.  1.
         11    1    1    2    0    0 -0.40799676389E+02  0.55252665617E+02  0.14250996365E+03  0.15819785204E+03  0.00000000000E+00 0. -1.
</event>
<event>
 7    1  0.2480409E-009  0.8139897E+02  0.7561462E-02  0.1325128E+00
         -2   -1    0    0    0  501 -0.00000000000E+00  0.00000000000E+00  0.68323650421E+02  0.68323650421E+02  0.00000000000E+00 0.  1.
          2   -1    0    0  501    0  0.00000000000E+00 -0.00000000000E+00 -0.21343608727E+03  0.21343608727E+03  0.00000000000E+00 0. -1.
         25    2    1    2    0    0 -0.31842146560E+02  0.20954894359E+02 -0.13399930811E+03  0.18723498620E+03  0.12509234825E+03 0.  0.
          5    1    3    3  502    0 -0.75107483608E+02  0.26667633884E+02 -0.55131673014E+02  0.97001394630E+02  0.41800000000E+01 0. -1.
         -5    1    3    3    0  502  0.43265337049E+02 -0.57127395247E+01 -0.78867635095E+02  0.90233591574E+02  0.41800000000E+01 0. -1.
        -11    1    1    2    0    0  0.10737272862E+02 -0.23045282644E+01 -0.47362932759E+02  0.48619412569E+02  0.00000000000E+00 0. -1.
         11    1    1    2    0    0  0.21104873698E+02 -0.18650366095E+02  0.36249804022E+02  0.45905338915E+02  0.00000000000E+00 0.  1.
</event>
<event>
 7    1  0.2480409E-009  0.1161557E+03  0.7561462E-02  0.1249577E+00
         -2   -1    0    0    0  501 -0.00000000000E+00  0.00000000000E+00  0.40593517845E+02  0.40593517845E+02  0.00000000000E+00 0.  1.
          2   -1    0    0  501    0  0.00000000000E+00 -0.00000000000E+00 -0.34309714581E+03  0.34309714581E+03  0.00000000000E+00 0. -1.
         25    2    1    2    0    0  0.48667022782E+02 -0.41726671181E+02 -0.17904613144E+03  0.22762915259E+03  0.12509164533E+03 0.  0.
          5    1    3    3  502    0 -0.13989031288E+02  0.35296309421E+02 -0.30371640273E+02  0.48799911762E+02  0.41800000000E+01 0. -1.
         -5    1    3    3    0  502  0.62656054070E+02 -0.77022980602E+02 -0.14867449117E+03  0.17882924083E+03  0.41800000000E+01 0. -1.
        -11    1    1    2    0    0 -0.16583037569E+02  0.56885080879E+02 -0.67673083592E+02  0.89947516944E+02  0.00000000000E+00 0.  1.
         11    1    1    2    0    0 -0.32083985213E+02 -0.15158409698E+02 -0.55784412933E+02  0.66113994116E+02  0.00000000000E+00 0. -1.
</event>
<event>
 7    1  0.2480409E-009  0.2599523E+03  0.7561462E-02  0.1107172E+00
         -2   -1    0    0    0  501 -0.00000000000E+00  0.00000000000E+00  0.62429633765E+02  0.62429633765E+02  0.00000000000E+00 0.  1.
          2   -1    0    0  501    0  0.00000000000E+00 -0.00000000000E+00 -0.12954581686E+04  0.12954581686E+04  0.00000000000E+00 0. -1.
         25    2    1    2    0    0  0.22373271169E+03  0.11369061059E+03 -0.44441945695E+03  0.52549048735E+03  0.12509883041E+03 0.  0.
          5    1    3    3  502    0  0.20947839339E+03  0.86662404655E+02 -0.43911368864E+03  0.49419618941E+03  0.41800000000E+01 0.  1.
         -5    1    3    3    0  502  0.14254318305E+02  0.27028205937E+02 -0.53057683074E+01  0.31294297944E+02  0.41800000000E+01 0.  1.
        -11    1    1    2    0    0 -0.13599691557E+03 -0.10931162782E+03 -0.58929721725E+03  0.61458555407E+03  0.00000000000E+00 0. -1.
         11    1    1    2    0    0 -0.87735796124E+02 -0.43789827719E+01 -0.19931186068E+03  0.21781176098E+03  0.00000000000E+00 0.  1.
</event>
<event>
 7    1  0.2480409E-009  0.1354219E+03  0.7561462E-02  0.1219625E+00
         -1   -1    0    0    0  501 -0.00000000000E+00  0.00000000000E+00  0.19723485549E+02  0.19723485549E+02  0.00000000000E+00 0.  1.
          1   -1    0    0  501    0  0.00000000000E+00 -0.00000000000E+00 -0.16516507951E+04  0.16516507951E+04  0.00000000000E+00 0. -1.
         25    2    1    2    0    0 -0.20049590010E+02  0.12402730345E+03 -0.11808311069E+04  0.11940664107E+04  0.12509089492E+03 0.  0.
          5    1    3    3  502    0 -0.14343456181E+02  0.13256884981E+03 -0.11728255958E+04  0.11803887433E+04  0.41800000000E+01 0. -1.
         -5    1    3    3    0  502 -0.57061338297E+01 -0.85415463578E+01 -0.80055111099E+01  0.13677667403E+02  0.41800000000E+01 0. -1.
        -11    1    1    2    0    0  0.87398850947E+01 -0.21679517693E+02 -0.11952881465E+02  0.26253732195E+02  0.00000000000E+00 0.  1.
         11    1    1    2    0    0  0.11309704916E+02 -0.10234778576E+03 -0.43914332120E+03  0.45105413780E+03  0.00000000000E+00 0. -1.
</event>
<event>
 7    1  0.2480409E-009  0.9860298E+02  0.7561462E-02  0.1283261E+00
         -2   -1    0    0    0  501 -0.00000000000E+00  0.00000000000E+00  0.47918756638E+02  0.47918756638E+02  0.00000000000E+00 0. -1.
          2   -1    0    0  501    0  0.00000000000E+00 -0.00000000000E+00 -0.26612100557E+03  0.26612100557E+03  0.00000000000E+00 0.  1.
         25    2    1    2    0    0  0.23872947995E+02 -0.20685915541E+02 -0.17014801498E+03  0.21353293321E+03  0.12509253302E+03 0.  0.
          5    1    3    3  502    0  0.63094804907E+02 -0.27421998223E+02 -0.15691817329E+03  0.17138758969E+03  0.41800000000E+01 0. -1.
         -5    1    3    3    0  502 -0.39221856912E+02  0.67360826818E+01 -0.13229841692E+02  0.42145343523E+02  0.41800000000E+01 0. -1.
        -11    1    1    2    0    0 -0.39959526062E+02  0.44322692624E+02 -0.33070657321E+02  0.68227070728E+02  0.00000000000E+00 0. -1.
         11    1    1    2    0    0  0.16086578067E+02 -0.23636777083E+02 -0.14983576628E+02  0.32279758260E+02  0.00000000000E+00 0.  1.
</event>
<event>
 7    1  0.2480409E-009  0.1105218E+03  0.7561462E-02  0.1259607E+00
          1   -1    0    0  501    0  0.00000000000E+00  0.00000000000E+00  0.33362990743E+03  0.33362990743E+03  0.00000000000E+00 0. -1.
         -1   -1    0    0    0  501 -0.00000000000E+00 -0.00000000000E+00 -0.39435128111E+02  0.39435128111E+02  0.00000000000E+00 0.  1.
         25    2    1    2    0    0 -0.54270246380E+00  0.28843737646E+02  0.12996446735E+03  0.18266922470E+03  0.12508008296E+03 0.  0.
          5    1    3    3  502    0 -0.50851576681E+02  0.51368495020E+02  0.82924155719E+02  0.11008402760E+03  0.41800000000E+01 0.  1.
         -5    1    3    3    0  502  0.50308874217E+02 -0.22524757374E+02  0.47040311631E+02  0.72585197100E+02  0.41800000000E+01 0.  1.
        -11    1    1    2    0    0 -0.38645097155E+02  0.81230129928E+01  0.93408788676E+02  0.10141315830E+03  0.00000000000E+00 0.  1.
         11    1    1    2    0    0  0.39187799619E+02 -0.36966750639E+02  0.70821523297E+02  0.88982652545E+02  0.00000000000E+00 0. -1.
</event>
<event>
 7    1  0.2480409E-009  0.9552196E+02  0.7561462E-02  0.1290005E+00
          1   -1    0    0  501    0  0.00000000000E+00  0.00000000000E+00  0.30598557607E+03  0.30598557607E+03  0.00000000000E+00 0. -1.
         -1   -1    0    0    0  501 -0.00000000000E+00 -0.00000000000E+00 -0.39451686936E+02  0.39451686936E+02  0.00000000000E+00 0.  1.
         25    2    1    2    0    0 -0.19672029591E+02 -0.27443327070E+01  0.13850789700E+03  0.18768676959E+03  0.12508943136E+03 0.  0.
          5    1    3    3  502    0 -0.71157042703E+02 -0.13879616408E+02  0.92679641381E+02  0.11774105828E+03  0.41800000000E+01 0.  1.
         -5    1    3    3    0  502  0.51485013112E+02  0.11135283701E+02  0.45828255618E+02  0.69945711314E+02  0.41800000000E+01 0.  1.
        -11    1    1    2    0    0  0.82073402810E+01  0.32592612192E+02  0.12022998938E+03  0.12483945350E+03  0.00000000000E+00 0. -1.
         11    1    1    2    0    0  0.11464689310E+02 -0.29848279484E+02  0.77960027531E+01  0.32911039912E+02  0.00000000000E+00 0.  1.
</event>
<event>
 7    1  0.2480409E-009  0.2240939E+03  0.7561462E-02  0.1130867E+00
          1   -1    0    0  501    0  0.00000000000E+00  0.00000000000E+00  0.10567161357E+04  0.10567161357E+04  0.00000000000E+00 0. -1.
         -1   -1    0    0    0  501 -0.00000000000E+00 -0.00000000000E+00 -0.48218058098E+02  0.48218058098E+02  0.00000000000E+00 0.  1.
         25    2    1    2    0    0  0.16761123870E+03 -0.10076883817E+03  0.48102220500E+03  0.53411385834E+03  0.12508943155E+03 0.  0.
          5    1    3    3  502    0  0.82266567966E+02  0.18894020508E+02  0.19442613932E+03  0.21199945346E+03  0.41800000000E+01 0. -1.
         -5    1    3    3    0  502  0.85344670733E+02 -0.11966285868E+03  0.28659606568E+03  0.32211440488E+03  0.41800000000E+01 0. -1.
        -11    1    1    2    0    0 -0.17648070177E+03  0.79436412327E+02  0.44709582840E+03  0.48718606453E+03  0.00000000000E+00 0.  1.
         11    1    1    2    0    0  0.88694630716E+01  0.21332425840E+02  0.80380044207E+02  0.83634270931E+02  0.00000000000E+00 0. -1.
</event>
<event>
 7    1  0.2480409E-009  0.3162365E+02  0.7561462E-02  0.1580805E+00
         -2   -1    0    0    0  501 -0.00000000000E+00  0.00000000000E+00  0.33609091470E+03  0.33609091470E+03  0.00000000000E+00 0.  1.
          2   -1    0    0  501    0  0.00000000000E+00 -0.00000000000E+00 -0.42872554368E+02  0.42872554368E+02  0.00000000000E+00 0. -1.
         25    2    1    2    0    0  0.62798030338E+01  0.14318744160E+02  0.24124102835E+03  0.27219317469E+03  0.12508968074E+03 0.  0.
          5    1    3    3  502    0 -0.99849200559E+01  0.18426398964E+01 -0.13043277722E+02  0.17049734427E+02  0.41800000000E+01 0. -1.
         -5    1    3    3    0  502  0.16264723090E+02  0.12476104264E+02  0.25428430607E+03  0.25514344026E+03  0.41800000000E+01 0. -1.
        -11    1    1    2    0    0 -0.16572060259E+02 -0.46186971002E+01  0.76527704776E+02  0.78437587561E+02  0.00000000000E+00 0.  1.
         11    1    1    2    0    0  0.10292257225E+02 -0.97000470598E+01 -0.24550372789E+02  0.28332706821E+02  0.00000000000E+00 0. -1.
</event>
<event>
 7    1  0.2480409E-009  0.1147836E+03  0.7561462E-02  0.1251959E+00
         -3   -1    0    0    0  501 -0.00000000000E+00  0.00000000000E+00  0.35426242817E+02  0.35426242817E+02  0.00000000000E+00 0.  1.
          3   -1    0    0  501    0  0.00000000000E+00 -0.00000000000E+00 -0.97477292458E+03  0.97477292458E+03  0.00000000000E+00 0. -1.
         25    2    1    2    0    0  0.33833633036E+02 -0.90509693122E+02 -0.80310390919E+03  0.81851024475E+03  0.12508562079E+03 0.  0.
          5    1    3    3  502    0  0.52419963744E+02 -0.25949674054E+02 -0.63088002367E+03  0.63359949089E+03  0.41800000000E+01 0. -1.
         -5    1    3    3    0  502 -0.18586330708E+02 -0.64560019068E+02 -0.17222388552E+03  0.18491075386E+03  0.41800000000E+01 0. -1.
        -11    1    1    2    0    0 -0.41527371452E+02  0.66490408573E+02 -0.32396139392E+02  0.84823386276E+02  0.00000000000E+00 0.  1.
         11    1    1    2    0    0  0.76937384158E+01  0.24019284549E+02 -0.10384663318E+03  0.10686553637E+03  0.00000000000E+00 0. -1.
</event>
<event>
 7    1  0.2480409E-009  0.1083961E+03  0.7561462E-02  0.1263569E+00
          2   -1    0    0  501    0  0.00000000000E+00  0.00000000000E+00  0.36822911252E+03  0.36822911252E+03  0.00000000000E+00 0. -1.
         -2   -1    0    0    0  501 -0.00000000000E+00 -0.00000000000E+00 -0.40397799580E+02  0.40397799580E+02  0.00000000000E+00 0.  1.
         25    2    1    2    0    0  0.48540057780E+02 -0.69876743897E+02  0.22241083619E+03  0.26898537080E+03  0.12509057959E+03 0.  0.
          5    1    3    3  502    0  0.40585789922E+02 -0.95563041805E+02  0.21789227678E+03  0.24140012010E+03  0.41800000000E+01 0.  1.
         -5    1    3    3    0  502  0.79542678577E+01  0.25686297907E+02  0.45185594125E+01  0.27585250706E+02  0.41800000000E+01 0.  1.
        -11    1    1    2    0    0 -0.84793085446E+01  0.19818926621E+02  0.79523279002E+01  0.22976684809E+02  0.00000000000E+00 0.  1.
         11    1    1    2    0    0 -0.40060749235E+02  0.50057817276E+02  0.97468148852E+02  0.11666485649E+03  0.00000000000E+00 0. -1.
</event>
<event>
 7    1  0.2480409E-009  0.4092629E+02  0.7561462E-02  0.1501504E+00
          1   -1    0    0  501    0  0.00000000000E+00  0.00000000000E+00  0.78912564614E+02  0.78912564614E+02  0.00000000000E+00 0. -1.
         -1   -1    0    0    0  501 -0.00000000000E+00 -0.00000000000E+00 -0.20647014158E+03  0.20647014158E+03  0.00000000000E+00 0.  1.
         25    2    1    2    0    0  0.17368554388E+02 -0.10085316016E+02 -0.51198590493E+01  0.12678288784E+03  0.12507720581E+03 0.  0.
          5    1    3    3  502    0  0.13833188318E+02 -0.63192931710E+01 -0.64821425695E+02  0.66712668920E+02  0.41800000000E+01 0.  1.
         -5    1    3    3    0  502  0.35353660699E+01 -0.37660228453E+01  0.59701566646E+02  0.60070218922E+02  0.41800000000E+01 0.  1.
        -11    1    1    2    0    0 -0.13105997272E+02 -0.22787435802E+02 -0.12266595858E+03  0.12545107329E+03  0.00000000000E+00 0.  1.
         11    1    1    2    0    0 -0.42625571161E+01  0.32872751819E+02  0.22824066659E+00  0.33148745061E+02  0.00000000000E+00 0. -1.
</event>
<event>
 7    1  0.2480409E-009  0.1855892E+03  0.7561462E-02  0.1162501E+00
          1   -1    0    0  501    0  0.00000000000E+00  0.00000000000E+00  0.94737246847E+02  0.94737246847E+02  0.00000000000E+00 0. -1.
         -1   -1    0    0    0  501 -0.00000000000E+00 -0.00000000000E+00 -0.52272131721E+03  0.52272131721E+03  0.00000000000E+00 0.  1.
         25    2    1    2    0    0  0.93723853388E+02 -0.15787054329E+03 -0.13600932264E+03  0.26048206760E+03  0.12508038441E+03 0.  0.
          5    1    3    3  502    0  0.62527685598E+02 -0.13233804878E+03 -0.15713026561E+03  0.21478003490E+03  0.41800000000E+01 0.  1.
         -5    1    3    3    0  502  0.31196167790E+02 -0.25532494515E+02  0.21120942975E+02  0.45702032702E+02  0.41800000000E+01 0.  1.
        -11    1    1    2    0    0 -0.64193408013E+02  0.12111043115E+03 -0.13237184263E+03  0.19055402092E+03  0.00000000000E+00 0.  1.
         11    1    1    2    0    0 -0.29530445375E+02  0.36760112140E+02 -0.15960290509E+03  0.16642247553E+03  0.00000000000E+00 0. -1.
</event>
<event>
 7    1  0.2480409E-009  0.1620165E+03  0.7561462E-02  0.1186439E+00
         -2   -1    0    0    0  501 -0.00000000000E+00  0.00000000000E+00  0.48688776688E+02  0.48688776688E+02  0.00000000000E+00 0.  1.
          2   -1    0    0  501    0  0.00000000000E+00 -0.00000000000E+00 -0.65231000987E+03  0.65231000987E+03  0.00000000000E+00 0. -1.
         25    2    1    2    0    0  0.14138891940E+03  0.33305294825E+01 -0.34084728454E+03  0.38964552357E+03  0.12507934964E+03 0.  0.
          5    1    3    3  502    0  0.12216570820E+03 -0.28517086438E+02 -0.15201596985E+03  0.19713957484E+03  0.41800000000E+01 0. -1.
         -5    1    3    3    0  502  0.19223211192E+02  0.31847615920E+02 -0.18883131468E+03  0.19250594872E+03  0.41800000000E+01 0. -1.
        -11    1    1    2    0    0 -0.55763160793E+02  0.36496645380E+02 -0.69772676438E+02  0.96487105890E+02  0.00000000000E+00 0.  1.
         11    1    1    2    0    0 -0.85625758602E+02 -0.39827174863E+02 -0.19300127221E+03  0.21486615710E+03  0.00000000000E+00 0. -1.
</event>
<event>
 7    1  0.2480409E-009  0.1851962E+03  0.7561462E-02  0.1162867E+00
          2   -1    0    0  501    0  0.00000000000E+00  0.00000000000E+00  0.12236539986E+03  0.12236539986E+03  0.00000000000E+00 0. -1.
         -2   -1    0    0    0  501 -0.00000000000E+00 -0.00000000000E+00 -0.37091206707E+03  0.37091206707E+03  0.00000000000E+00 0.  1.
         25    2    1    2    0    0  0.16596856354E+03 -0.53167129152E+02 -0.62883122977E+02  0.22354827747E+03  0.12508891837E+03 0.  0.
          5    1    3    3  502    0  0.47382324029E+02 -0.10172875526E+02  0.38200551659E+02  0.61849224521E+02  0.41800000000E+01 0.  1.
         -5    1    3    3    0  502  0.11858623951E+03 -0.42994253626E+02 -0.10108367464E+03  0.16169905295E+03  0.41800000000E+01 0.  1.
        -11    1    1    2    0    0 -0.15234936049E+03  0.74999557833E+02 -0.15797186903E+03  0.23192751610E+03  0.00000000000E+00 0. -1.
         11    1    1    2    0    0 -0.13619203049E+02 -0.21832428681E+02 -0.27691675198E+02  0.37801673364E+02  0.00000000000E+00 0.  1.
</event>
<event>
 7    1  0.2480409E-009  0.1226226E+03  0.7561462E-02  0.1238832E+00
         -2   -1    0    0    0  501 -0.00000000000E+00  0.00000000000E+00  0.16661470838E+03  0.16661470838E+03  0.00000000000E+00 0.  1.
          2   -1    0    0  501    0  0.00000000000E+00 -0.00000000000E+00 -0.99486208872E+02  0.99486208872E+02  0.00000000000E+00 0. -1.
         25    2    1    2    0    0  0.68189613700E+02 -0.14563930282E+02  0.13765366667E+02  0.14387063390E+03  0.12508933807E+03 0.  0.
          5    1    3    3  502    0  0.85810227903E+02 -0.50803623898E+02 -0.34103947389E+01  0.99867445178E+02  0.41800000000E+01 0. -1.
         -5    1    3    3    0  502 -0.17620614203E+02  0.36239693617E+02  0.17175761406E+02  0.44003188727E+02  0.41800000000E+01 0. -1.
        -11    1    1    2    0    0 -0.85689413966E+02  0.73805272152E+01  0.56709266061E+02  0.10301984617E+03  0.00000000000E+00 0.  1.
         11    1    1    2    0    0  0.17499800266E+02  0.71834030667E+01 -0.33461332203E+01  0.19210437176E+02  0.00000000000E+00 0. -1.
</event>
<event>
 7    1  0.2480409E-009  0.1162867E+03  0.7561462E-02  0.1249352E+00
          1   -1    0    0  501    0  0.00000000000E+00  0.00000000000E+00  0.12983550886E+03  0.12983550886E+03  0.00000000000E+00 0. -1.
         -1   -1    0    0    0  501 -0.00000000000E+00 -0.00000000000E+00 -0.13840988205E+03  0.13840988205E+03  0.00000000000E+00 0.  1.
         25    2    1    2    0    0 -0.37863078013E+02 -0.45375946132E+02  0.45913915219E+02  0.14576442335E+03  0.12508633154E+03 0.  0.
          5    1    3    3  502    0 -0.70969970114E+02  0.11159352866E+02  0.16519297628E+02  0.73835136680E+02  0.41800000000E+01 0. -1.
         -5    1    3    3    0  502  0.33106892101E+02 -0.56535298997E+02  0.29394617591E+02  0.71929286668E+02  0.41800000000E+01 0. -1.
        -11    1    1    2    0    0  0.45234808424E+02  0.62016440377E+02 -0.65756437397E+02  0.10107490207E+03  0.00000000000E+00 0.  1.
         11    1    1    2    0    0 -0.73717304105E+01 -0.16640494245E+02  0.11268148984E+02  0.21406065484E+02  0.00000000000E+00 0. -1.
</event>
<event>
 7    1  0.2480409E-009  0.1190430E+03  0.7561462E-02  0.1244684E+00
          1   -1    0    0  501    0  0.00000000000E+00  0.00000000000E+00  0.40090438756E+02  0.40090438756E+02  0.00000000000E+00 0. -1.
         -1   -1    0    0    0  501 -0.00000000000E+00 -0.00000000000E+00 -0.47804379429E+03  0.47804379429E+03  0.00000000000E+00 0.  1.
         25    2    1    2    0    0 -0.16993684652E+02 -0.83627008219E+02 -0.23545307290E+03  0.27994825564E+03  0.12510241594E+03 0.  0.
          5    1    3    3  502    0  0.26578773287E+02 -0.56381986201E+02 -0.32249156278E+02  0.70305334350E+02  0.41800000000E+01 0. -1.
         -5    1    3    3    0  502 -0.43572457939E+02 -0.27245022018E+02 -0.20320391662E+03  0.20964292129E+03  0.41800000000E+01 0. -1.
        -11    1    1    2    0    0  0.52499898146E+02  0.66233026822E+02 -0.15344098981E+03  0.17517759703E+03  0.00000000000E+00 0. -1.
         11    1    1    2    0    0 -0.35506213494E+02  0.17393981397E+02 -0.49059292821E+02  0.63008380376E+02  0.00000000000E+00 0.  1.
</event>
<event>
 7    1  0.2480409E-009  0.1139396E+03  0.7561462E-02  0.1253443E+00
          2   -1    0    0  501    0  0.00000000000E+00  0.00000000000E+00  0.86339284505E+03  0.86339284505E+03  0.00000000000E+00 0. -1.
         -2   -1    0    0    0  501 -0.00000000000E+00 -0.00000000000E+00 -0.23632813701E+02  0.23632813701E+02  0.00000000000E+00 0.  1.
         25    2    1    2    0    0 -0.52039733110E+02 -0.57526426573E+02  0.67675845853E+03  0.69258002012E+03  0.12509056519E+03 0.  0.
          5    1    3    3  502    0 -0.73506268816E+02  0.10965508232E+02  0.30692179859E+03  0.31581937366E+03  0.41800000000E+01 0.  1.
         -5    1    3    3    0  502  0.21466535706E+02 -0.68491934806E+02  0.36983665994E+03  0.37676064646E+03  0.41800000000E+01 0.  1.
        -11    1    1    2    0    0  0.41489617300E+02  0.27650115527E+02  0.15345901927E+03  0.16135547040E+03  0.00000000000E+00 0. -1.
         11    1    1    2    0    0  0.10550115810E+02  0.29876311046E+02  0.95425535453E+01  0.33090168230E+02  0.00000000000E+00 0.  1.
</event>
<event>
 7    1  0.2480409E-009  0.1113309E+03  0.7561462E-02  0.1258125E+00
         -1   -1    0    0    0  501 -0.00000000000E+00  0.00000000000E+00  0.33813186130E+03  0.33813186130E+03  0.00000000000E+00 0.  1.
          1   -1    0    0  501    0  0.00000000000E+00 -0.00000000000E+00 -0.81155735568E+02  0.81155735568E+02  0.00000000000E+00 0. -1.
         25    2    1    2    0    0 -0.13362189828E+02 -0.61813212451E+02  0.27564363429E+03  0.30923547819E+03  0.12509095288E+03 0.  0.
          5    1    3    3  502    0  0.37358041704E+02 -0.56184429683E+02  0.23297667301E+03  0.24258589404E+03  0.41800000000E+01 0. -1.
         -5    1    3    3    0  502 -0.50720231532E+02 -0.56287827683E+01  0.42666961278E+02  0.66649584146E+02  0.41800000000E+01 0. -1.
        -11    1    1    2    0    0  0.47725077736E+02  0.26511634517E+02  0.60603313717E+01  0.54929749918E+02  0.00000000000E+00 0.  1.
         11    1    1    2    0    0 -0.34362887908E+02  0.35301577934E+02 -0.24727839934E+02  0.55122368761E+02  0.00000000000E+00 0. -1.
</event>
<event>
 7    1  0.2480409E-009  0.1076790E+03  0.7561462E-02  0.1264929E+00
          1   -1    0    0  501    0  0.00000000000E+00  0.00000000000E+00  0.11169958056E+04  0.11169958056E+04  0.00000000000E+00 0. -1.
         -1   -1    0    0    0  501 -0.00000000000E+00 -0.00000000000E+00 -0.17526756492E+02  0.17526756492E+02  0.00000000000E+00 0.  1.
         25    2    1    2    0    0 -0.16301412265E+02 -0.85888870666E+02  0.56505784511E+03  0.58530363434E+03  0.12508933569E+03 0.  0.
          5    1    3    3  502    0  0.10893736934E+02 -0.72792460243E+01  0.40174073593E+03  0.40197605928E+03  0.41800000000E+01 0. -1.
         -5    1    3    3    0  502 -0.27195149199E+02 -0.78609624641E+02  0.16331710918E+03  0.18332757506E+03  0.41800000000E+01 0. -1.
        -11    1    1    2    0    0  0.87242069513E+00 -0.15620260645E+02  0.24469208834E+02  0.29042999870E+02  0.00000000000E+00 0.  1.
         11    1    1    2    0    0  0.15428991570E+02  0.10150913131E+03  0.50994199519E+03  0.52017592792E+03  0.00000000000E+00 0. -1.
</event>
<event>
 7    1  0.2480409E-009  0.9608263E+02  0.7561462E-02  0.1288756E+00
          1   -1    0    0  501    0  0.00000000000E+00  0.00000000000E+00  0.83773864043E+02  0.83773864043E+02  0.00000000000E+00 0. -1.
         -1   -1    0    0    0  501 -0.00000000000E+00 -0.00000000000E+00 -0.32932841222E+03  0.32932841222E+03  0.00000000000E+00 0.  1.
         25    2    1    2    0    0  0.55632133934E+02  0.48494332152E+02 -0.83306743628E+01  0.14547943380E+03  0.12509288927E+03 0.  0.
          5    1    3    3  502    0  0.57109413154E+02  0.33424307986E+02 -0.61258068402E+02  0.90270110111E+02  0.41800000000E+01 0. -1.
         -5    1    3    3    0  502 -0.14772792195E+01  0.15070024166E+02  0.52927394039E+02  0.55209323687E+02  0.41800000000E+01 0. -1.
        -11    1    1    2    0    0  0.19975736948E+02 -0.22767018162E+02 -0.13251507898E+03  0.13593238518E+03  0.00000000000E+00 0.  1.
         11    1    1    2    0    0 -0.75607870882E+02 -0.25727313990E+02 -0.10470879483E+03  0.13169045728E+03  0.00000000000E+00 0. -1.
</event>
<event>
 7    1  0.2480409E-009  0.2890151E+03  0.7561462E-02  0.1090865E+00
          1   -1    0    0  501    0  0.00000000000E+00  0.00000000000E+00  0.55987427756E+03  0.55987427756E+03  0.00000000000E+00 0. -1.
         -1   -1    0    0    0  501 -0.00000000000E+00 -0.00000000000E+00 -0.17596202555E+03  0.17596202555E+03  0.00000000000E+00 0.  1.
         25    2    1    2    0    0 -0.19912212567E+03 -0.20533055444E+03  0.27575340027E+03  0.41653065426E+03  0.12509033001E+03 0.  0.
          5    1    3    3  502    0 -0.13562804005E+03 -0.14575564075E+03  0.10573804887E+03  0.22547212564E+03  0.41800000000E+01 0.  1.
         -5    1    3    3    0  502 -0.63494085619E+02 -0.59574913688E+02  0.17001535140E+03  0.19105852863E+03  0.41800000000E+01 0.  1.
        -11    1    1    2    0    0  0.19009238559E+03  0.16922369567E+03  0.65706282366E+02  0.26284803552E+03  0.00000000000E+00 0. -1.
         11    1    1    2    0    0  0.90297400767E+01  0.36106858773E+02  0.42452569373E+02  0.56457613328E+02  0.00000000000E+00 0.  1.
</event>
<event>
 7    1  0.2480409E-009  0.8991976E+02  0.7561462E-02  0.1303046E+00
         -2   -1    0    0    0  501 -0.00000000000E+00  0.00000000000E+00  0.15465782791E+03  0.15465782791E+03  0.00000000000E+00 0.  1.
          2   -1    0    0  501    0  0.00000000000E+00 -0.00000000000E+00 -0.16207846073E+03  0.16207846073E+03  0.00000000000E+00 0. -1.
         25    2    1    2    0    0  0.49659000947E+02 -0.52219781851E+02 -0.93960842905E+02  0.17224476156E+03  0.12508675347E+03 0.  0.
          5    1    3    3  502    0  0.26409321970E+02 -0.70728117446E+01  0.28434445973E+02  0.39666951870E+02  0.41800000000E+01 0.  1.
         -5    1    3    3    0  502  0.23249678977E+02 -0.45146970107E+02 -0.12239528888E+03  0.13257780969E+03  0.41800000000E+01 0.  1.
        -11    1    1    2    0    0 -0.47146734686E+02 -0.17700526688E+01  0.60895169072E+01  0.47571313774E+02  0.00000000000E+00 0. -1.
         11    1    1    2    0    0 -0.25122662610E+01  0.53989834520E+02  0.80450693179E+02  0.96920213301E+02  0.00000000000E+00 0.  1.
</event>
<event>
 7    1  0.2480409E-009  0.5482839E+02  0.7561462E-02  0.1420912E+00
          2   -1    0    0  501    0  0.00000000000E+00  0.00000000000E+00  0.70930182891E+03  0.70930182891E+03  0.00000000000E+00 0. -1.
         -2   -1    0    0    0  501 -0.00000000000E+00 -0.00000000000E+00 -0.33491590576E+02  0.33491590576E+02  0.00000000000E+00 0.  1.
         25    2    1    2    0    0 -0.63162373700E+01  0.76716559739E+01  0.62552189081E+03  0.63798437731E+03  0.12509068970E+03 0.  0.
          5    1    3    3  502    0 -0.25938168743E+02 -0.64352836316E+01  0.24601604941E+02  0.36563818712E+02  0.41800000000E+01 0. -1.
         -5    1    3    3    0  502  0.19621931373E+02  0.14106939606E+02  0.60092028587E+03  0.60142055860E+03  0.41800000000E+01 0. -1.
        -11    1    1    2    0    0 -0.64654127929E+01  0.23509678767E+02  0.63953989616E+02  0.68444279134E+02  0.00000000000E+00 0. -1.
         11    1    1    2    0    0  0.12781650163E+02 -0.31181334741E+02 -0.13665642094E+02  0.36364763040E+02  0.00000000000E+00 0.  1.
</event>
<event>
 7    1  0.2480409E-009  0.8988822E+02  0.7561462E-02  0.1303123E+00
         -1   -1    0    0    0  501 -0.00000000000E+00  0.00000000000E+00  0.10365959609E+03  0.10365959609E+03  0.00000000000E+00 0.  1.
          1   -1    0    0  501    0  0.00000000000E+00 -0.00000000000E+00 -0.17900453870E+03  0.17900453870E+03  0.00000000000E+00 0. -1.
         25    2    1    2    0    0 -0.28861999053E+02 -0.49118595378E+02 -0.10835760053E+03  0.17502672664E+03  0.12508930428E+03 0.  0.
          5    1    3    3  502    0 -0.58182696874E+02 -0.63109179193E+02 -0.11297607917E+03  0.14194739018E+03  0.41800000000E+01 0.  1.
         -5    1    3    3    0  502  0.29320697821E+02  0.13990583814E+02  0.46184786392E+01  0.33079336467E+02  0.41800000000E+01 0.  1.
        -11    1    1    2    0    0  0.25263114014E+02  0.21335170216E+02 -0.26162803801E+02  0.42165231182E+02  0.00000000000E+00 0. -1.
         11    1    1    2    0    0  0.35988850389E+01  0.27783425162E+02  0.59175461720E+02  0.65472176969E+02  0.00000000000E+00 0.  1.
</event>
<event>
 7    1  0.2480409E-009  0.1984253E+03  0.7561462E-02  0.1151074E+00
          1   -1    0    0  501    0  0.00000000000E+00  0.00000000000E+00  0.38629354444E+03  0.38629354444E+03  0.00000000000E+00 0. -1.
         -1   -1    0    0    0  501 -0.00000000000E+00 -0.00000000000E+00 -0.11558513326E+03  0.11558513326E+03  0.00000000000E+00 0.  1.
         25    2    1    2    0    0 -0.12501534268E+03 -0.11520851331E+03  0.18573849406E+03  0.28115577666E+03  0.12509174683E+03 0.  0.
          5    1    3    3  502    0 -0.13927848788E+03 -0.11152419074E+03  0.19412164628E+03  0.26369836606E+03  0.41800000000E+01 0.  1.
         -5    1    3    3    0  502  0.14263145200E+02 -0.36843225715E+01 -0.83831522157E+01  0.17457410601E+02  0.41800000000E+01 0.  1.
        -11    1    1    2    0    0  0.13414806881E+03  0.59743939933E+02  0.69219744464E+02  0.16234659142E+03  0.00000000000E+00 0. -1.
         11    1    1    2    0    0 -0.91327261216E+01  0.55464573376E+02  0.15750172657E+02  0.58376309621E+02  0.00000000000E+00 0.  1.
</event>
<event>
 7    1  0.2480409E-009  0.1555364E+03  0.7561462E-02  0.1193830E+00
         -1   -1    0    0    0  501 -0.00000000000E+00  0.00000000000E+00  0.31514762734E+02  0.31514762734E+02  0.00000000000E+00 0.  1.
          1   -1    0    0  501    0  0.00000000000E+00 -0.00000000000E+00 -0.80052934041E+03  0.80052934041E+03  0.00000000000E+00 0. -1.
         25    2    1    2    0    0 -0.86259057567E+02  0.75374019619E+02 -0.35388144323E+03  0.39243007927E+03  0.12508966146E+03 0.  0.
          5    1    3    3  502    0 -0.50578581755E+02  0.10890394541E+03 -0.23983982718E+03  0.26825151884E+03  0.41800000000E+01 0.  1.
         -5    1    3    3    0  502 -0.35680475812E+02 -0.33529925795E+02 -0.11404161605E+03  0.12417856043E+03  0.41800000000E+01 0.  1.
        -11    1    1    2    0    0 -0.11503824685E+02 -0.33517661136E+02 -0.69853613814E+02  0.78328149176E+02  0.00000000000E+00 0.  1.
         11    1    1    2    0    0  0.97762882252E+02 -0.41856358483E+02 -0.34527952063E+03  0.36128587470E+03  0.00000000000E+00 0. -1.
</event>
<event>
 7    1  0.2480409E-009  0.7244122E+02  0.7561462E-02  0.1351983E+00
          3   -1    0    0  501    0  0.00000000000E+00  0.00000000000E+00  0.19654278345E+03  0.19654278345E+03  0.00000000000E+00 0. -1.
         -3   -1    0    0    0  501 -0.00000000000E+00 -0.00000000000E+00 -0.67518414544E+02  0.67518414544E+02  0.00000000000E+00 0.  1.
         25    2    1    2    0    0 -0.80852518944E+01 -0.36564543796E+02  0.62582390411E+02  0.14479892954E+03  0.12509131563E+03 0.  0.
          5    1    3    3  502    0 -0.16290425888E+02 -0.14584095423E+02  0.98892304943E+02  0.10136682984E+03  0.41800000000E+01 0.  1.
         -5    1    3    3    0  502  0.82051739939E+01 -0.21980448374E+02 -0.36309914533E+02  0.43432099700E+02  0.41800000000E+01 0.  1.
        -11    1    1    2    0    0  0.49919936710E+02  0.18873332288E+02  0.40100690096E+02  0.66755285177E+02  0.00000000000E+00 0.  1.
         11    1    1    2    0    0 -0.41834684816E+02  0.17691211508E+02  0.26341288400E+02  0.52506983277E+02  0.00000000000E+00 0. -1.
</event>
<event>
 7    1  0.2480409E-009  0.1467267E+03  0.7561462E-02  0.1204554E+00
         -1   -1    0    0    0  501 -0.00000000000E+00  0.00000000000E+00  0.49685909155E+02  0.49685909155E+02  0.00000000000E+00 0.  1.
          1   -1    0    0  501    0  0.00000000000E+00 -0.00000000000E+00 -0.82373340346E+03  0.82373340346E+03  0.00000000000E+00 0. -1.
         25    2    1    2    0    0 -0.61317992210E+02  0.10541020677E+03 -0.64934842303E+03  0.67243731874E+03  0.12508942912E+03 0.  0.
          5    1    3    3  502    0 -0.74843232314E+02  0.87609853490E+02 -0.63535805617E+03  0.64573549368E+03  0.41800000000E+01 0.  1.
         -5    1    3    3    0  502  0.13525240104E+02  0.17800353280E+02 -0.13990366862E+02  0.26701825063E+02  0.41800000000E+01 0.  1.
        -11    1    1    2    0    0  0.47972274756E+02  0.11792517803E+01 -0.54703322096E+02  0.72768009650E+02  0.00000000000E+00 0.  1.
         11    1    1    2    0    0  0.13345717454E+02 -0.10658945855E+03 -0.69995749176E+02  0.12821398423E+03  0.00000000000E+00 0. -1.
</event>
<event>
 7    1  0.2480409E-009  0.1463123E+03  0.7561462E-02  0.1205079E+00
          1   -1    0    0  501    0  0.00000000000E+00  0.00000000000E+00  0.14027002027E+04  0.14027002027E+04  0.00000000000E+00 0. -1.
         -1   -1    0    0    0  501 -0.00000000000E+00 -0.00000000000E+00 -0.19861428375E+02  0.19861428375E+02  0.00000000000E+00 0.  1.
         25    2    1    2    0    0  0.11425747621E+01  0.12658817443E+03  0.72555662547E+03  0.74706477761E+03  0.12508994285E+03 0.  0.
          5    1    3    3  502    0 -0.25372708545E+02  0.56195425150E+02  0.10412646551E+03  0.12108465372E+03  0.41800000000E+01 0. -1.
         -5    1    3    3    0  502  0.26515283308E+02  0.70392749278E+02  0.62143015996E+03  0.62598012389E+03  0.41800000000E+01 0. -1.
        -11    1    1    2    0    0 -0.36900737976E+02 -0.11008575593E+03  0.47130858588E+03  0.48539913601E+03  0.00000000000E+00 0.  1.
         11    1    1    2    0    0  0.35758163214E+02 -0.16502418496E+02  0.18597356298E+03  0.19009771745E+03  0.00000000000E+00 0. -1.
</event>
<event>
 7    1  0.2480409E-009  0.1130559E+03  0.7561462E-02  0.1255013E+00
          1   -1    0    0  501    0  0.00000000000E+00  0.00000000000E+00  0.70335440018E+02  0.70335440018E+02  0.00000000000E+00 0. -1.
         -1   -1    0    0    0  501 -0.00000000000E+00 -0.00000000000E+00 -0.19803249599E+03  0.19803249599E+03  0.00000000000E+00 0.  1.
         25    2    1    2    0    0 -0.30516537647E+02 -0.46597062231E+02 -0.54729316202E+02  0.14746213801E+03  0.12508892363E+03 0.  0.
          5    1    3    3  502    0 -0.49108922164E+02  0.29659302409E+02 -0.31069744389E+02  0.65377074513E+02  0.41800000000E+01 0. -1.
         -5    1    3    3    0  502  0.18592384516E+02 -0.76256364640E+02 -0.23659571812E+02  0.82085063492E+02  0.41800000000E+01 0. -1.
        -11    1    1    2    0    0 -0.22917944573E+02  0.88580387093E+01 -0.24103117219E+01  0.24688188184E+02  0.00000000000E+00 0. -1.
         11    1    1    2    0    0  0.53434482221E+02  0.37739023521E+02 -0.70557428054E+02  0.96217609823E+02  0.00000000000E+00 0.  1.
</event>
<event>
 7    1  0.2480409E-009  0.7311884E+02  0.7561462E-02  0.1349797E+00
          1   -1    0    0  501    0  0.00000000000E+00  0.00000000000E+00  0.17333108377E+03  0.17333108377E+03  0.00000000000E+00 0. -1.
         -1   -1    0    0    0  501 -0.00000000000E+00 -0.00000000000E+00 -0.69239556256E+02  0.69239556256E+02  0.00000000000E+00 0.  1.
         25    2    1    2    0    0 -0.15520805359E+02  0.76040456138E+01  0.72789109694E+02  0.14575004423E+03  0.12508438749E+03 0.  0.
          5    1    3    3  502    0 -0.22175009562E+02  0.50168070870E+02 -0.65241399497E+01  0.55394974375E+02  0.41800000000E+01 0.  1.
         -5    1    3    3    0  502  0.66542042026E+01 -0.42564025257E+02  0.79313249644E+02  0.90355069856E+02  0.41800000000E+01 0.  1.
        -11    1    1    2    0    0  0.16867070954E+02  0.16622295753E+02 -0.25652891976E+02  0.34912313950E+02  0.00000000000E+00 0.  1.
         11    1    1    2    0    0 -0.13462655950E+01 -0.24226341367E+02  0.56955309801E+02  0.61908281850E+02  0.00000000000E+00 0. -1.
</event>
<event>
 7    1  0.2480409E-009  0.1558224E+03  0.7561462E-02  0.1193496E+00
         -1   -1    0    0    0  501 -0.00000000000E+00  0.00000000000E+00  0.17089992868E+03  0.17089992868E+03  0.00000000000E+00 0.  1.
          1   -1    0    0  501    0  0.00000000000E+00 -0.00000000000E+00 -0.18338601514E+03  0.18338601514E+03  0.00000000000E+00 0. -1.
         25    2    1    2    0    0  0.48431371802E+02  0.10532740747E+03  0.70671380222E+02  0.18461519834E+03  0.12509543131E+03 0.  0.
          5    1    3    3  502    0  0.32783049275E+02 -0.20537683842E+02  0.36124186502E+02  0.53093822878E+02  0.41800000000E+01 0.  1.
         -5    1    3    3    0  502  0.15648322527E+02  0.12586509131E+03  0.34547193720E+02  0.13152137546E+03  0.41800000000E+01 0.  1.
        -11    1    1    2    0    0 -0.64985085967E+02 -0.35460355274E+02 -0.28076198927E+02  0.79175571614E+02  0.00000000000E+00 0.  1.
         11    1    1    2    0    0  0.16553714165E+02 -0.69867052195E+02 -0.55081267757E+02  0.90495173864E+02  0.00000000000E+00 0. -1.
</event>
<event>
 7    1  0.2480409E-009  0.8811889E+02  0.7561462E-02  0.1307472E+00
         -2   -1    0    0    0  501 -0.00000000000E+00  0.00000000000E+00  0.13337050400E+03  0.13337050400E+03  0.00000000000E+00 0.  1.
          2   -1    0    0  501    0  0.00000000000E+00 -0.00000000000E+00 -0.10234489099E+03  0.10234489099E+03  0.00000000000E+00 0. -1.
         25    2    1    2    0    0 -0.44003806515E+02 -0.19944566486E+01  0.17954672041E+01  0.13262897665E+03  0.12508760490E+03 0.  0.
          5    1    3    3  502    0  0.94656933606E+01 -0.47385501341E+02  0.29873679672E+02  0.56963973047E+02  0.41800000000E+01 0. -1.
         -5    1    3    3    0  502 -0.53469499876E+02  0.45391044693E+02 -0.28078212468E+02  0.75665003606E+02  0.41800000000E+01 0. -1.
        -11    1    1    2    0    0  0.26416907580E+02  0.19364715087E+02  0.57103953427E+02  0.65830894673E+02  0.00000000000E+00 0.  1.
         11    1    1    2    0    0  0.17586898936E+02 -0.17370258439E+02 -0.27873807621E+02  0.37255523667E+02  0.00000000000E+00 0. -1.
</event>
<event>
 7    1  0.2480409E-009  0.9513069E+02  0.7561462E-02  0.1290882E+00
         -1   -1    0    0    0  501 -0.00000000000E+00  0.00000000000E+00  0.98036685543E+02  0.98036685543E+02  0.00000000000E+00 0.  1.
          1   -1    0    0  501    0  0.00000000000E+00 -0.00000000000E+00 -0.18527618499E+03  0.18527618499E+03  0.00000000000E+00 0. -1.
         25    2    1    2    0    0  0.57592677149E+02  0.49131838832E+02 -0.60457968787E+02  0.15821812145E+03  0.12508778485E+03 0.  0.
          5    1    3    3  502    0  0.11807691658E+02 -0.17366250976E+02 -0.73297497558E+02  0.76361009707E+02  0.41800000000E+01 0. -1.
         -5    1    3    3    0  502  0.45784985491E+02  0.66498089808E+02  0.12839528770E+02  0.81857111747E+02  0.41800000000E+01 0. -1.
        -11    1    1    2    0    0  0.69883673730E+01 -0.10924788427E+02  0.28885995678E+02  0.31663686252E+02  0.00000000000E+00 0.  1.
         11    1    1    2    0    0 -0.64581044522E+02 -0.38207050405E+02 -0.55667526336E+02  0.93431062825E+02  0.00000000000E+00 0. -1.
</event>
<event>
 7    1  0.2480409E-009  0.1385877E+03  0.7561462E-02  0.1215242E+00
         -2   -1    0    0    0  501 -0.00000000000E+00  0.00000000000E+00  0.52654026771E+02  0.52654026771E+02  0.00000000000E+00 0. -1.
          2   -1    0    0  501    0  0.00000000000E+00 -0.00000000000E+00 -0.60299776187E+03  0.60299776187E+03  0.00000000000E+00 0.  1.
         25    2    1    2    0    0 -0.28399592316E+02 -0.99386407121E+02 -0.46688228018E+03  0.49427326135E+03  0.12507117406E+03 0.  0.
          5    1    3    3  502    0  0.45788207949E+02 -0.44294011107E+02 -0.12865224219E+03  0.14362239111E+03  0.41800000000E+01 0. -1.
         -5    1    3    3    0  502 -0.74187800265E+02 -0.55092396015E+02 -0.33823003798E+03  0.35065087024E+03  0.41800000000E+01 0. -1.
        -11    1    1    2    0    0 -0.12999749615E+02  0.67051680257E+02 -0.70649792123E+01  0.68664657915E+02  0.00000000000E+00 0.  1.
         11    1    1    2    0    0  0.41399341930E+02  0.32334726865E+02 -0.76396475715E+02  0.92713869379E+02  0.00000000000E+00 0. -1.
</event>
<event>
 7    1  0.2480409E-009  0.1013482E+03  0.7561462E-02  0.1277486E+00
         -2   -1    0    0    0  501 -0.00000000000E+00  0.00000000000E+00  0.18061466053E+02  0.18061466053E+02  0.00000000000E+00 0.  1.
          2   -1    0    0  501    0  0.00000000000E+00 -0.00000000000E+00 -0.77477225284E+03  0.77477225284E+03  0.00000000000E+00 0. -1.
         25    2    1    2    0    0  0.42656260541E+02 -0.13150431637E+02 -0.47210824695E+03  0.49043106829E+03  0.12507575902E+03 0.  0.
          5    1    3    3  502    0 -0.37422078875E+02 -0.30934154308E+02 -0.21790629303E+03  0.22328895815E+03  0.41800000000E+01 0.  1.
         -5    1    3    3    0  502  0.80078339416E+02  0.17783722671E+02 -0.25420195392E+03  0.26714211014E+03  0.41800000000E+01 0.  1.
        -11    1    1    2    0    0 -0.36748544516E+02  0.34057145592E+02 -0.27341143034E+03  0.27796430514E+03  0.00000000000E+00 0. -1.
         11    1    1    2    0    0 -0.59077160248E+01 -0.20906713955E+02 -0.11191109496E+02  0.24438345459E+02  0.00000000000E+00 0.  1.
</event>
<event>
 7    1  0.2480409E-009  0.9635277E+02  0.7561462E-02  0.1288158E+00
         -3   -1    0    0    0  501 -0.00000000000E+00  0.00000000000E+00  0.10532151785E+03  0.10532151785E+03  0.00000000000E+00 0.  1.
          3   -1    0    0  501    0  0.00000000000E+00 -0.00000000000E+00 -0.14549434433E+03  0.14549434433E+03  0.00000000000E+00 0. -1.
         25    2    1    2    0    0  0.89634673617E+01  0.34426031236E+02  0.30622743887E+02  0.13360321332E+03  0.12508625341E+03 0.  0.
          5    1    3    3  502    0 -0.41618139015E+02  0.29921721867E+02  0.56545524411E+02  0.76434597307E+02  0.41800000000E+01 0. -1.
         -5    1    3    3    0  502  0.50581606377E+02  0.45043093696E+01 -0.25922780525E+02  0.57168616012E+02  0.41800000000E+01 0. -1.
        -11    1    1    2    0    0 -0.20322935969E+02 -0.59457864528E+02 -0.34502984507E+02  0.71684833267E+02  0.00000000000E+00 0.  1.
         11    1    1    2    0    0  0.11359468607E+02  0.25031833292E+02 -0.36292585862E+02  0.45527815602E+02  0.00000000000E+00 0. -1.
</event>
<event>
 7    1  0.2480409E-009  0.1132400E+03  0.7561462E-02  0.1254685E+00
         -1   -1    0    0    0  501 -0.00000000000E+00  0.00000000000E+00  0.89928032974E+01  0.89928032974E+01  0.00000000000E+00 0.  1.
          1   -1    0    0  501    0  0.00000000000E+00 -0.00000000000E+00 -0.16584293963E+04  0.16584293963E+04  0.00000000000E+00 0. -1.
         25    2    1    2    0    0 -0.28300989464E+02  0.32369110693E+02 -0.11234037672E+04  0.11311656725E+04  0.12510415312E+03 0.  0.
          5    1    3    3  502    0 -0.72984435273E+02  0.29113316390E+02 -0.50144846220E+03  0.50758481619E+03  0.41800000000E+01 0. -1.
         -5    1    3    3    0  502  0.44683445810E+02  0.32557943035E+01 -0.62195530504E+03  0.62358085634E+03  0.41800000000E+01 0. -1.
        -11    1    1    2    0    0 -0.24184781003E+01  0.31673937792E+02 -0.12443622317E+03  0.12842687027E+03  0.00000000000E+00 0. -1.
         11    1    1    2    0    0  0.30719467564E+02 -0.64043048485E+02 -0.40159660257E+03  0.40782965677E+03  0.00000000000E+00 0.  1.
</event>
<event>
 7    1  0.2480409E-009  0.1056131E+03  0.7561462E-02  0.1268916E+00
          3   -1    0    0  501    0  0.00000000000E+00  0.00000000000E+00  0.97126076661E+02  0.97126076661E+02  0.00000000000E+00 0. -1.
         -3   -1    0    0    0  501 -0.00000000000E+00 -0.00000000000E+00 -0.21740196227E+03  0.21740196227E+03  0.00000000000E+00 0.  1.
         25    2    1    2    0    0 -0.18284896159E+02  0.46049140256E+02  0.23696495338E+02  0.13661909017E+03  0.12509352965E+03 0.  0.
          5    1    3    3  502    0 -0.65532094278E+02  0.55666950358E+02  0.17213821197E+02  0.87789821636E+02  0.41800000000E+01 0.  1.
         -5    1    3    3    0  502  0.47247198119E+02 -0.96178101020E+01  0.64826741411E+01  0.48829268531E+02  0.41800000000E+01 0.  1.
        -11    1    1    2    0    0 -0.21036488980E+02 -0.95855361173E+01 -0.11431335296E+03  0.11662743689E+03  0.00000000000E+00 0.  1.
         11    1    1    2    0    0  0.39321385139E+02 -0.36463604139E+02 -0.29659027989E+02  0.61281511872E+02  0.00000000000E+00 0. -1.
</event>
<event>
 7    1  0.2480409E-009  0.1079643E+03  0.7561462E-02  0.1264387E+00
          1   -1    0    0  501    0  0.00000000000E+00  0.00000000000E+00  0.46497382425E+02  0.46497382425E+02  0.00000000000E+00 0. -1.
         -1   -1    0    0    0  501 -0.00000000000E+00 -0.00000000000E+00 -0.28826658374E+03  0.28826658374E+03  0.00000000000E+00 0.  1.
         25    2    1    2    0    0 -0.39200401150E+02 -0.16454228264E+02 -0.14307179057E+03  0.19474472346E+03  0.12509419244E+03 0.  0.
          5    1    3    3  502    0 -0.80849109149E+02 -0.56494281261E+00 -0.11895249027E+03  0.14388907169E+03  0.41800000000E+01 0. -1.
         -5    1    3    3    0  502  0.41648707999E+02 -0.15889285451E+02 -0.24119300296E+02  0.50855651770E+02  0.41800000000E+01 0. -1.
        -11    1    1    2    0    0  0.63138502249E+02  0.19464497412E+02 -0.94841336850E+02  0.11558640189E+03  0.00000000000E+00 0.  1.
         11    1    1    2    0    0 -0.23938101099E+02 -0.30102691482E+01 -0.38560739015E+01  0.24432840820E+02  0.00000000000E+00 0. -1.
</event>
<event>
 7    1  0.2480409E-009  0.1589115E+03  0.7561462E-02  0.1189931E+00
         -1   -1    0    0    0  501 -0.00000000000E+00  0.00000000000E+00  0.46655188759E+02  0.46655188759E+02  0.00000000000E+00 0.  1.
          1   -1    0    0  501    0  0.00000000000E+00 -0.00000000000E+00 -0.75824584310E+03  0.75824584310E+03  0.00000000000E+00 0. -1.
         25    2    1    2    0    0  0.77960062220E+02 -0.11195258051E+03 -0.22088527261E+03  0.28818086472E+03  0.12508699193E+03 0.  0.
          5    1    3    3  502    0  0.90578567592E+02 -0.11427268819E+03 -0.22966835740E+03  0.27208041268E+03  0.41800000000E+01 0.  1.
         -5    1    3    3    0  502 -0.12618505372E+02  0.23201076769E+01  0.87830847899E+01  0.16100452039E+02  0.41800000000E+01 0.  1.
        -11    1    1    2    0    0 -0.46641874173E+02  0.48839368330E+01 -0.10089308044E+03  0.11125974540E+03  0.00000000000E+00 0. -1.
         11    1    1    2    0    0 -0.31318188047E+02  0.10706864368E+03 -0.38981230129E+03  0.40546042174E+03  0.00000000000E+00 0.  1.
</event>
<event>
 7    1  0.2480409E-009  0.9377693E+02  0.7561462E-02  0.1293955E+00
          1   -1    0    0  501    0  0.00000000000E+00  0.00000000000E+00  0.53578432681E+03  0.53578432681E+03  0.00000000000E+00 0. -1.
         -1   -1    0    0    0  501 -0.00000000000E+00 -0.00000000000E+00 -0.45467001045E+02  0.45467001045E+02  0.00000000000E+00 0.  1.
         25    2    1    2    0    0 -0.85861441762E+02  0.30254649472E+02  0.14144455904E+03  0.20962398572E+03  0.12509245025E+03 0.  0.
          5    1    3    3  502    0 -0.28747717255E+02  0.19976644706E+02  0.14700859362E+03  0.15117703721E+03  0.41800000000E+01 0. -1.
         -5    1    3    3    0  502 -0.57113724507E+02  0.10278004766E+02 -0.55640345796E+01  0.58446948507E+02  0.41800000000E+01 0. -1.
        -11    1    1    2    0    0  0.76595405820E+02 -0.34399975805E+02  0.35129590168E+03  0.36119111986E+03  0.00000000000E+00 0. -1.
         11    1    1    2    0    0  0.92660359414E+01  0.41453263321E+01 -0.24231349551E+01  0.10436222280E+02  0.00000000000E+00 0.  1.
</event>
<event>
 7    1  0.2480409E-009  0.1044440E+03  0.7561462E-02  0.1271219E+00
          1   -1    0    0  501    0  0.00000000000E+00  0.00000000000E+00  0.24085107937E+03  0.24085107937E+03  0.00000000000E+00 0. -1.
         -1   -1    0    0    0  501 -0.00000000000E+00 -0.00000000000E+00 -0.95156030255E+02  0.95156030255E+02  0.00000000000E+00 0.  1.
         25    2    1    2    0    0 -0.36887827224E+02 -0.41915999627E+02 -0.20794237718E+02  0.13855517540E+03  0.12508986165E+03 0.  0.
          5    1    3    3  502    0  0.20748721404E+02 -0.39989163081E+02 -0.55121724645E+02  0.71312828661E+02  0.41800000000E+01 0. -1.
         -5    1    3    3    0  502 -0.57636548629E+02 -0.19268365463E+01  0.34327486927E+02  0.67242346744E+02  0.41800000000E+01 0. -1.
        -11    1    1    2    0    0 -0.28043960834E+02  0.27567402068E+02  0.69529080974E+02  0.79879399704E+02  0.00000000000E+00 0.  1.
         11    1    1    2    0    0  0.64931788059E+02  0.14348597559E+02  0.96960205864E+02  0.11757253452E+03  0.00000000000E+00 0. -1.
</event>
<event>
 7    1  0.2480409E-009  0.5466902E+02  0.7561462E-02  0.1421671E+00
          2   -1    0    0  501    0  0.00000000000E+00  0.00000000000E+00  0.14022949432E+03  0.14022949432E+03  0.00000000000E+00 0.  1.
         -2   -1    0    0    0  501 -0.00000000000E+00 -0.00000000000E+00 -0.98686885149E+02  0.98686885149E+02  0.00000000000E+00 0. -1.
         25    2    1    2    0    0 -0.30431762448E+02  0.19003370766E+02 -0.70030599062E+01  0.13031843078E+03  0.12508649122E+03 0.  0.
          5    1    3    3  502    0 -0.33688910974E+02  0.30399076857E+02  0.52491083543E+02  0.69511386462E+02  0.41800000000E+01 0. -1.
         -5    1    3    3    0  502  0.32571485262E+01 -0.11395706091E+02 -0.59494143449E+02  0.60807044317E+02  0.41800000000E+01 0. -1.
        -11    1    1    2    0    0  0.14683745398E+02 -0.29030183904E+02 -0.19573433730E+02  0.37966870616E+02  0.00000000000E+00 0. -1.
         11    1    1    2    0    0  0.15748017049E+02  0.10026813138E+02  0.68119102807E+02  0.70631078074E+02  0.00000000000E+00 0.  1.
</event>
<event>
 7    1  0.2480409E-009  0.1066290E+03  0.7561462E-02  0.1266943E+00
          1   -1    0    0  501    0  0.00000000000E+00  0.00000000000E+00  0.53655624423E+03  0.53655624423E+03  0.00000000000E+00 0. -1.
         -1   -1    0    0    0  501 -0.00000000000E+00 -0.00000000000E+00 -0.25295409780E+02  0.25295409780E+02  0.00000000000E+00 0.  1.
         25    2    1    2    0    0  0.58731830522E+01 -0.25416802662E+02  0.37125690840E+03  0.39263279615E+03  0.12509321501E+03 0.  0.
          5    1    3    3  502    0  0.64067608533E+01 -0.74393451227E+02  0.17493828352E+03  0.19025327227E+03  0.41800000000E+01 0.  1.
         -5    1    3    3    0  502 -0.53357780115E+00  0.48976648564E+02  0.19631862488E+03  0.20237952388E+03  0.41800000000E+01 0.  1.
        -11    1    1    2    0    0 -0.34506500584E+02 -0.16740452829E+02  0.32592491269E+02  0.50331022546E+02  0.00000000000E+00 0. -1.
         11    1    1    2    0    0  0.28633317532E+02  0.42157255491E+02  0.10741143478E+03  0.11888783531E+03  0.00000000000E+00 0.  1.
</event>
<event>
 7    1  0.2480409E-009  0.1130580E+03  0.7561462E-02  0.1255010E+00
          2   -1    0    0  501    0  0.00000000000E+00  0.00000000000E+00  0.18177474325E+03  0.18177474325E+03  0.00000000000E+00 0. -1.
         -2   -1    0    0    0  501 -0.00000000000E+00 -0.00000000000E+00 -0.99510264595E+02  0.99510264595E+02  0.00000000000E+00 0.  1.
         25    2    1    2    0    0  0.57418741553E+02 -0.67018005325E+00 -0.14191779285E+02  0.13836599740E+03  0.12508549722E+03 0.  0.
          5    1    3    3  502    0 -0.35975050367E+02 -0.10763637612E+02 -0.22490476001E+02  0.43969922155E+02  0.41800000000E+01 0. -1.
         -5    1    3    3    0  502  0.93393791920E+02  0.10093457559E+02  0.82986967153E+01  0.94396075246E+02  0.41800000000E+01 0. -1.
        -11    1    1    2    0    0 -0.38924183123E+02  0.36893917993E+02  0.85275749907E+02  0.10073830820E+03  0.00000000000E+00 0.  1.
         11    1    1    2    0    0 -0.18494558430E+02 -0.36223737940E+02  0.11180508031E+02  0.42180702243E+02  0.00000000000E+00 0. -1.
</event>
<event>
 7    1  0.2480409E-009  0.9769352E+02  0.7561462E-02  0.1285222E+00
         -1   -1    0    0    0  501 -0.00000000000E+00  0.00000000000E+00  0.13033470309E+02  0.13033470309E+02  0.00000000000E+00 0.  1.
          1   -1    0    0  501    0  0.00000000000E+00 -0.00000000000E+00 -0.10630212661E+04  0.10630212661E+04  0.00000000000E+00 0. -1.
         25    2    1    2    0    0  0.38555093378E+02 -0.98390602370E+01 -0.80017196811E+03  0.81086892901E+03  0.12509971682E+03 0.  0.
          5    1    3    3  502    0 -0.12257546867E+02 -0.47423779985E+02 -0.15533365936E+03  0.16292722453E+03  0.41800000000E+01 0. -1.
         -5    1    3    3    0  502  0.50812640245E+02  0.37584719748E+02 -0.64483830875E+03  0.64794170448E+03  0.41800000000E+01 0. -1.
        -11    1    1    2    0    0 -0.33207214813E+02 -0.28752961272E+02 -0.83290144958E+02  0.94163157045E+02  0.00000000000E+00 0.  1.
         11    1    1    2    0    0 -0.53478785653E+01  0.38592021509E+02 -0.16652568274E+03  0.17102265038E+03  0.00000000000E+00 0. -1.
</event>
<event>
 7    1  0.2480409E-009  0.1246807E+03  0.7561462E-02  0.1235569E+00
          1   -1    0    0  501    0  0.00000000000E+00  0.00000000000E+00  0.12517330145E+04  0.12517330145E+04  0.00000000000E+00 0. -1.
         -1   -1    0    0    0  501 -0.00000000000E+00 -0.00000000000E+00 -0.19531435637E+02  0.19531435637E+02  0.00000000000E+00 0.  1.
         25    2    1    2    0    0 -0.64315197649E+02  0.38045289683E+02  0.84932054962E+03  0.86172621221E+03  0.12507110014E+03 0.  0.
          5    1    3    3  502    0 -0.35871712318E+02 -0.40344225358E+02  0.48220122941E+03  0.48523183563E+03  0.41800000000E+01 0.  1.
         -5    1    3    3    0  502 -0.28443485330E+02  0.78389515041E+02  0.36711932021E+03  0.37649437658E+03  0.41800000000E+01 0.  1.
        -11    1    1    2    0    0  0.79442470764E+02 -0.10285734788E+02  0.36401120499E+03  0.37272115564E+03  0.00000000000E+00 0. -1.
         11    1    1    2    0    0 -0.15127273116E+02 -0.27759554895E+02  0.18869824224E+02  0.36817082260E+02  0.00000000000E+00 0.  1.
</event>
<event>
 7    1  0.2480409E-009  0.1344969E+03  0.7561462E-02  0.1220932E+00
         -2   -1    0    0    0  501 -0.00000000000E+00  0.00000000000E+00  0.14596276425E+03  0.14596276425E+03  0.00000000000E+00 0.  1.
          2   -1    0    0  501    0  0.00000000000E+00 -0.00000000000E+00 -0.18291093884E+03  0.18291093884E+03  0.00000000000E+00 0. -1.
         25    2    1    2    0    0  0.86185947142E+02  0.53782763151E+02 -0.86331224381E+02  0.18281503601E+03  0.12509058314E+03 0.  0.
          5    1    3    3  502    0  0.11274965685E+03  0.65752649638E+02 -0.61683593675E+02  0.14442380061E+03  0.41800000000E+01 0.  1.
         -5    1    3    3    0  502 -0.26563709706E+02 -0.11969886487E+02 -0.24647630705E+02  0.38391235396E+02  0.41800000000E+01 0.  1.
        -11    1    1    2    0    0 -0.88747673917E+01  0.64456105252E+01 -0.22156513376E+02  0.24722833096E+02  0.00000000000E+00 0. -1.
         11    1    1    2    0    0 -0.77311179751E+02 -0.60228373676E+02  0.71539563170E+02  0.12133583398E+03  0.00000000000E+00 0.  1.
</event>
<event>
 7    1  0.2520252E-009  0.1158009E+03  0.7561462E-02  0.1250190E+00
         -2   -1    0    0    0  501 -0.00000000000E+00  0.00000000000E+00  0.89326178805E+02  0.89326178805E+02  0.00000000000E+00 0.  1.
          2   -1    0    0  501    0  0.00000000000E+00 -0.00000000000E+00 -0.19493255036E+03  0.19493255036E+03  0.00000000000E+00 0. -1.
         25    2    1    2    0    0 -0.59932798173E+02 -0.16509763275E+02 -0.10396173596E+03  0.17413368368E+03  0.12509989875E+03 0.  0.
          5    1    3    3  502    0 -0.98380980406E+02 -0.93994511283E+01 -0.85257574790E+02  0.13058902498E+03  0.41800000000E+01 0.  1.
         -5    1    3    3    0  502  0.38448182232E+02 -0.71103121470E+01 -0.18704161171E+02  0.43544658695E+02  0.41800000000E+01 0.  1.
        -11    1    1    2    0    0  0.12438492816E+02 -0.26508192754E+02  0.27096080078E+02  0.39894836034E+02  0.00000000000E+00 0.  1.
         11    1    1    2    0    0  0.47494305358E+02  0.43017956029E+02 -0.28740715672E+02  0.70230209452E+02  0.00000000000E+00 0. -1.
</event>
<event>
 7    1  0.2480409E-009  0.4910653E+03  0.7561462E-02  0.1016138E+00
         -2   -1    0    0    0  501 -0.00000000000E+00  0.00000000000E+00  0.21167446817E+03  0.21167446817E+03  0.00000000000E+00 0.  1.
          2   -1    0    0  501    0  0.00000000000E+00 -0.00000000000E+00 -0.12084429157E+04  0.12084429157E+04  0.00000000000E+00 0. -1.
         25    2    1    2    0    0  0.36442542425E+03 -0.32511305083E+03 -0.39965737889E+03  0.64333351921E+03  0.12509041040E+03 0.  0.
          5    1    3    3  502    0  0.21243887154E+02 -0.24369865885E+02 -0.79416229980E+02  0.85846392405E+02  0.41800000000E+01 0. -1.
         -5    1    3    3    0  502  0.34318153710E+03 -0.30074318495E+03 -0.32024114891E+03  0.55748712680E+03  0.41800000000E+01 0. -1.
        -11    1    1    2    0    0 -0.28411407600E+03  0.28859037788E+03 -0.45134336692E+03  0.60639595089E+03  0.00000000000E+00 0.  1.
         11    1    1    2    0    0 -0.80311348248E+02  0.36522672954E+02 -0.14576770176E+03  0.17038791381E+03  0.00000000000E+00 0. -1.
</event>
<event>
 7    1  0.2480409E-009  0.1057372E+03  0.7561462E-02  0.1268674E+00
         -1   -1    0    0    0  501 -0.00000000000E+00  0.00000000000E+00  0.15541556017E+03  0.15541556017E+03  0.00000000000E+00 0.  1.
          1   -1    0    0  501    0  0.00000000000E+00 -0.00000000000E+00 -0.95634456314E+02  0.95634456314E+02  0.00000000000E+00 0. -1.
         25    2    1    2    0    0  0.21128392738E+02 -0.45235488126E+02  0.11712339032E+02  0.13519221227E+03  0.12508835680E+03 0.  0.
          5    1    3    3  502    0  0.56591876356E+02 -0.63526918819E+02  0.31037657859E+02  0.90659354120E+02  0.41800000000E+01 0. -1.
         -5    1    3    3    0  502 -0.35463483618E+02  0.18291430693E+02 -0.19325318827E+02  0.44532858149E+02  0.41800000000E+01 0. -1.
        -11    1    1    2    0    0  0.15789487007E+02  0.46627418430E+02  0.59463171868E+02  0.77196456253E+02  0.00000000000E+00 0.  1.
         11    1    1    2    0    0 -0.36917879744E+02 -0.13919303042E+01 -0.11394407040E+02  0.38661347967E+02  0.00000000000E+00 0. -1.
</event>
<event>
 7    1  0.2480409E-009  0.1453592E+03  0.7561462E-02  0.1206294E+00
          2   -1    0    0  501    0  0.00000000000E+00  0.00000000000E+00  0.38770742752E+03  0.38770742752E+03  0.00000000000E+00 0.  1.
         -2   -1    0    0    0  501 -0.00000000000E+00 -0.00000000000E+00 -0.58824531769E+02  0.58824531769E+02  0.00000000000E+00 0. -1.
         25    2    1    2    0    0 -0.41109417781E+02 -0.92904901400E+02  0.14148634773E+03  0.21444278215E+03  0.12508403290E+03 0.  0.
          5    1    3    3  502    0 -0.71145591192E+02 -0.13134199225E+02  0.86840147574E+02  0.11310564073E+03  0.41800000000E+01 0. -1.
         -5    1    3    3    0  502  0.30036173411E+02 -0.79770702175E+02  0.54646200160E+02  0.10133714142E+03  0.41800000000E+01 0. -1.
        -11    1    1    2    0    0 -0.13337296860E+02  0.74124290348E+02  0.13312530517E+03  0.15295306726E+03  0.00000000000E+00 0.  1.
         11    1    1    2    0    0  0.54446714641E+02  0.18780611052E+02  0.54271242845E+02  0.79136109878E+02  0.00000000000E+00 0. -1.
</event>
<event>
 7    1  0.2480409E-009  0.9927555E+02  0.7561462E-02  0.1281827E+00
         -3   -1    0    0    0  501 -0.00000000000E+00  0.00000000000E+00  0.25100807726E+03  0.25100807726E+03  0.00000000000E+00 0.  1.
          3   -1    0    0  501    0  0.00000000000E+00 -0.00000000000E+00 -0.66325325390E+02  0.66325325390E+02  0.00000000000E+00 0. -1.
         25    2    1    2    0    0  0.64104938764E+02 -0.27668212412E+02  0.11478661635E+03  0.18356986993E+03  0.12508779597E+03 0.  0.
          5    1    3    3  502    0 -0.11913731897E+02  0.78753487688E+01  0.96423384864E+02  0.97564848561E+02  0.41800000000E+01 0.  1.
         -5    1    3    3    0  502  0.76018670661E+02 -0.35543561181E+02  0.18363231490E+02  0.86005021372E+02  0.41800000000E+01 0.  1.
        -11    1    1    2    0    0 -0.25054400725E+02  0.49086008200E+02  0.53872933111E+01  0.55373117358E+02  0.00000000000E+00 0. -1.
         11    1    1    2    0    0 -0.39050538039E+02 -0.21417795789E+02  0.64508842204E+02  0.78390415358E+02  0.00000000000E+00 0.  1.
</event>
<event>
 7    1  0.2480409E-009  0.8469987E+02  0.7561462E-02  0.1316219E+00
          1   -1    0    0  501    0  0.00000000000E+00  0.00000000000E+00  0.15927688167E+03  0.15927688167E+03  0.00000000000E+00 0. -1.
         -1   -1    0    0    0  501 -0.00000000000E+00 -0.00000000000E+00 -0.74993944519E+02  0.74993944519E+02  0.00000000000E+00 0.  1.
         25    2    1    2    0    0  0.14294639969E+02  0.10969044794E+02  0.45131008474E+02  0.13419619086E+03  0.12508858077E+03 0.  0.
          5    1    3    3  502    0 -0.48954961241E+02  0.40584187186E+01 -0.95271508109E+01  0.50212528269E+02  0.41800000000E+01 0. -1.
         -5    1    3    3    0  502  0.63249601210E+02  0.69106260758E+01  0.54658159285E+02  0.83983662592E+02  0.41800000000E+01 0. -1.
        -11    1    1    2    0    0  0.11165996455E+02 -0.24917578581E+02  0.58928706192E+02  0.64947344924E+02  0.00000000000E+00 0. -1.
         11    1    1    2    0    0 -0.25460636424E+02  0.13948533787E+02 -0.19776777518E+02  0.35127290401E+02  0.00000000000E+00 0.  1.
</event>
<event>
 7    1  0.2480409E-009  0.1326455E+03  0.7561462E-02  0.1223582E+00
         -1   -1    0    0    0  501 -0.00000000000E+00  0.00000000000E+00  0.38749325419E+02  0.38749325419E+02  0.00000000000E+00 0.  1.
          1   -1    0    0  501    0  0.00000000000E+00 -0.00000000000E+00 -0.52390062540E+03  0.52390062540E+03  0.00000000000E+00 0. -1.
         25    2    1    2    0    0  0.61530899517E+01 -0.88840397256E+02 -0.22431401281E+03  0.27183593149E+03  0.12509004999E+03 0.  0.
          5    1    3    3  502    0  0.48587698651E+02 -0.33715792488E+00 -0.40400443817E+02  0.63328874901E+02  0.41800000000E+01 0. -1.
         -5    1    3    3    0  502 -0.42434608700E+02 -0.88503239331E+02 -0.18391356899E+03  0.20850705659E+03  0.41800000000E+01 0. -1.
        -11    1    1    2    0    0 -0.19383632391E+02  0.99451719408E+02 -0.16605815339E+03  0.19452938083E+03  0.00000000000E+00 0.  1.
         11    1    1    2    0    0  0.13230542439E+02 -0.10611322151E+02 -0.94779133787E+02  0.96284638507E+02  0.00000000000E+00 0. -1.
</event>
<event>
 7    1  0.2480409E-009  0.1063550E+03  0.7561462E-02  0.1267473E+00
          1   -1    0    0  501    0  0.00000000000E+00  0.00000000000E+00  0.13757512048E+02  0.13757512048E+02  0.00000000000E+00 0. -1.
         -1   -1    0    0    0  501 -0.00000000000E+00 -0.00000000000E+00 -0.87414283777E+03  0.87414283777E+03  0.00000000000E+00 0.  1.
         25    2    1    2    0    0 -0.65520039305E+00 -0.13230828914E+02 -0.53490057604E+03  0.54949301664E+03  0.12509382463E+03 0.  0.
          5    1    3    3  502    0  0.53929136885E+02 -0.35932986523E+02 -0.23585889131E+03  0.24463528023E+03  0.41800000000E+01 0. -1.
         -5    1    3    3    0  502 -0.54584337278E+02  0.22702157609E+02 -0.29904168473E+03  0.30485773640E+03  0.41800000000E+01 0. -1.
        -11    1    1    2    0    0  0.43725309440E+02  0.12317196171E+02 -0.21655336349E+03  0.22126675134E+03  0.00000000000E+00 0.  1.
         11    1    1    2    0    0 -0.43070109047E+02  0.91363274225E+00 -0.10893138619E+03  0.11714058184E+03  0.00000000000E+00 0. -1.
</event>
<event>
 7    1  0.2480409E-009  0.8500151E+02  0.7561462E-02  0.1315429E+00
          1   -1    0    0  501    0  0.00000000000E+00  0.00000000000E+00  0.28616549310E+02  0.28616549310E+02  0.00000000000E+00 0. -1.
         -1   -1    0    0    0  501 -0.00000000000E+00 -0.00000000000E+00 -0.54323627134E+03  0.54323627134E+03  0.00000000000E+00 0.  1.
         25    2    1    2    0    0 -0.28765242074E+02  0.42948181371E+02 -0.21391183447E+03  0.25313490270E+03  0.12508805140E+03 0.  0.
          5    1    3    3  502    0  0.15098024764E+02  0.13666915605E+01  0.11654946554E+02  0.19573665389E+02  0.41800000000E+01 0.  1.
         -5    1    3    3    0  502 -0.43863266837E+02  0.41581489811E+02 -0.22556678102E+03  0.23356123731E+03  0.41800000000E+01 0.  1.
        -11    1    1    2    0    0  0.71072279431E+01 -0.63463997589E+02 -0.26296798487E+03  0.27061107284E+03  0.00000000000E+00 0.  1.
         11    1    1    2    0    0  0.21658014131E+02  0.20515816217E+02 -0.37739902698E+02  0.48106845113E+02  0.00000000000E+00 0. -1.
</event>
<event>
 7    1  0.2480409E-009  0.2903934E+03  0.7561462E-02  0.1090144E+00
         -1   -1    0    0    0  501 -0.00000000000E+00  0.00000000000E+00  0.31322915891E+03  0.31322915891E+03  0.00000000000E+00 0.  1.
          1   -1    0    0  501    0  0.00000000000E+00 -0.00000000000E+00 -0.38181504046E+03  0.38181504046E+03  0.00000000000E+00 0. -1.
         25    2    1    2    0    0  0.28325678617E+02  0.26887703673E+03 -0.22204897299E+03  0.37155362469E+03  0.12509654136E+03 0.  0.
          5    1    3    3  502    0 -0.41188474270E+02  0.18091965332E+03 -0.13328227958E+03  0.22849518555E+03  0.41800000000E+01 0. -1.
         -5    1    3    3    0  502  0.69514152887E+02  0.87957383415E+02 -0.88766693408E+02  0.14305843913E+03  0.41800000000E+01 0. -1.
        -11    1    1    2    0    0  0.16215469425E+02 -0.20200411162E+03  0.12574089830E+03  0.23849397490E+03  0.00000000000E+00 0.  1.
         11    1    1    2    0    0 -0.44541148042E+02 -0.66872925114E+02  0.27722193145E+02  0.84996599785E+02  0.00000000000E+00 0. -1.
</event>
<event>
 7    1  0.2480409E-009  0.1564673E+03  0.7561462E-02  0.1192744E+00
         -1   -1    0    0    0  501 -0.00000000000E+00  0.00000000000E+00  0.30562835262E+03  0.30562835262E+03  0.00000000000E+00 0.  1.
          1   -1    0    0  501    0  0.00000000000E+00 -0.00000000000E+00 -0.11731169915E+03  0.11731169915E+03  0.00000000000E+00 0. -1.
         25    2    1    2    0    0 -0.13409456531E+02  0.13351691960E+03  0.17953083338E+03  0.25668189496E+03  0.12509074195E+03 0.  0.
          5    1    3    3  502    0  0.32729608606E+02  0.83141973481E+02  0.33695289108E+02  0.95585877314E+02  0.41800000000E+01 0. -1.
         -5    1    3    3    0  502 -0.46139065137E+02  0.50374946116E+02  0.14583554428E+03  0.16109601765E+03  0.41800000000E+01 0. -1.
        -11    1    1    2    0    0  0.28700903485E+02 -0.97115170305E+01 -0.22391024401E+02  0.37675103153E+02  0.00000000000E+00 0. -1.
         11    1    1    2    0    0 -0.15291446954E+02 -0.12380540257E+03  0.31176844483E+02  0.12858305365E+03  0.00000000000E+00 0.  1.
</event>
<event>
 7    1  0.2480409E-009  0.1695489E+03  0.7561462E-02  0.1178319E+00
          2   -1    0    0  501    0  0.00000000000E+00  0.00000000000E+00  0.11179471396E+04  0.11179471396E+04  0.00000000000E+00 0. -1.
         -2   -1    0    0    0  501 -0.00000000000E+00 -0.00000000000E+00 -0.34146428963E+02  0.34146428963E+02  0.00000000000E+00 0.  1.
         25    2    1    2    0    0 -0.67427888104E+02 -0.14723542575E+03  0.57709158339E+03  0.61229629605E+03  0.12508903969E+03 0.  0.
          5    1    3    3  502    0  0.70994381844E+01 -0.31113169339E+01  0.21856279717E+03  0.21874014497E+03  0.41800000000E+01 0.  1.
         -5    1    3    3    0  502 -0.74527326288E+02 -0.14412410882E+03  0.35852878622E+03  0.39355615108E+03  0.41800000000E+01 0.  1.
        -11    1    1    2    0    0  0.29422959741E+02  0.20990503643E+02  0.36155691445E+02  0.51122850341E+02  0.00000000000E+00 0. -1.
         11    1    1    2    0    0  0.38004928362E+02  0.12624492211E+03  0.47055343585E+03  0.48867442221E+03  0.00000000000E+00 0.  1.
</event>
<event>
 7    1  0.2480409E-009  0.1094392E+03  0.7561462E-02  0.1261612E+00
          2   -1    0    0  501    0  0.00000000000E+00  0.00000000000E+00  0.12216021308E+04  0.12216021308E+04  0.00000000000E+00 0. -1.
         -2   -1    0    0    0  501 -0.00000000000E+00 -0.00000000000E+00 -0.19700585879E+02  0.19700585879E+02  0.00000000000E+00 0.  1.
         25    2    1    2    0    0 -0.82283975125E+01  0.35894616091E+02  0.10634627375E+04  0.10714274128E+04  0.12509027480E+03 0.  0.
          5    1    3    3  502    0  0.31439169196E+02  0.67789935865E+02  0.48837929285E+03  0.49408066431E+03  0.41800000000E+01 0. -1.
         -5    1    3    3    0  502 -0.39667566709E+02 -0.31895319774E+02  0.57508344470E+03  0.57734674853E+03  0.41800000000E+01 0. -1.
        -11    1    1    2    0    0 -0.14632025240E+02  0.24417178404E+02  0.19280797429E+02  0.34380865512E+02  0.00000000000E+00 0.  1.
         11    1    1    2    0    0  0.22860422752E+02 -0.60311794495E+02  0.11915800998E+03  0.13549443836E+03  0.00000000000E+00 0. -1.
</event>
<event>
 7    1  0.2480409E-009  0.1307692E+03  0.7561462E-02  0.1226319E+00
          2   -1    0    0  501    0  0.00000000000E+00  0.00000000000E+00  0.30778252485E+03  0.30778252485E+03  0.00000000000E+00 0. -1.
         -2   -1    0    0    0  501 -0.00000000000E+00 -0.00000000000E+00 -0.94562883728E+02  0.94562883728E+02  0.00000000000E+00 0.  1.
         25    2    1    2    0    0 -0.28251919635E+02 -0.85781130045E+02  0.10105530658E+01  0.15428961211E+03  0.12509072689E+03 0.  0.
          5    1    3    3  502    0  0.39774131209E+02 -0.39625590668E+02  0.33822754015E+02  0.65678154956E+02  0.41800000000E+01 0. -1.
         -5    1    3    3    0  502 -0.68026050844E+02 -0.46155539377E+02 -0.32812200949E+02  0.88611457159E+02  0.41800000000E+01 0. -1.
        -11    1    1    2    0    0  0.46991474307E+02  0.14432779016E+02  0.12195807934E+03  0.13149249744E+03  0.00000000000E+00 0.  1.
         11    1    1    2    0    0 -0.18739554672E+02  0.71348351029E+02  0.90251008714E+02  0.11656329902E+03  0.00000000000E+00 0. -1.
</event>
<event>
 7    1  0.2480409E-009  0.1326610E+03  0.7561462E-02  0.1223560E+00
          3   -1    0    0  501    0  0.00000000000E+00  0.00000000000E+00  0.11094147696E+03  0.11094147696E+03  0.00000000000E+00 0. -1.
         -3   -1    0    0    0  501 -0.00000000000E+00 -0.00000000000E+00 -0.20035979257E+03  0.20035979257E+03  0.00000000000E+00 0.  1.
         25    2    1    2    0    0 -0.92024407511E+02 -0.39295505687E+02 -0.31013446815E+02  0.16316099699E+03  0.12508816375E+03 0.  0.
          5    1    3    3  502    0 -0.17629489608E+02 -0.74440876166E+02 -0.50439087626E+01  0.76779921619E+02  0.41800000000E+01 0.  1.
         -5    1    3    3    0  502 -0.74394917903E+02  0.35145370479E+02 -0.25969538053E+02  0.86381075373E+02  0.41800000000E+01 0.  1.
        -11    1    1    2    0    0  0.84299925028E+02  0.46053722453E+02 -0.79493829654E+02  0.12468637321E+03  0.00000000000E+00 0.  1.
         11    1    1    2    0    0  0.77244824827E+01 -0.67582167667E+01  0.21088960858E+02  0.23453899325E+02  0.00000000000E+00 0. -1.
</event>
<event>
 7    1  0.2480409E-009  0.1199734E+03  0.7561462E-02  0.1243141E+00
         -2   -1    0    0    0  501 -0.00000000000E+00  0.00000000000E+00  0.87773299449E+01  0.87773299449E+01  0.00000000000E+00 0.  1.
          2   -1    0    0  501    0  0.00000000000E+00 -0.00000000000E+00 -0.17122316761E+04  0.17122316761E+04  0.00000000000E+00 0. -1.
         25    2    1    2    0    0  0.19124286899E+02  0.50172472933E+02 -0.11220022911E+04  0.11302300319E+04  0.12509103990E+03 0.  0.
          5    1    3    3  502    0 -0.56325856724E+01  0.88942534026E+02 -0.79243849897E+03  0.79744513757E+03  0.41800000000E+01 0.  1.
         -5    1    3    3    0  502  0.24756872572E+02 -0.38770061092E+02 -0.32956379217E+03  0.33278489432E+03  0.41800000000E+01 0.  1.
        -11    1    1    2    0    0 -0.53095804278E+02 -0.13991251245E+02 -0.29906744023E+03  0.30406619896E+03  0.00000000000E+00 0.  1.
         11    1    1    2    0    0  0.33971517379E+02 -0.36181221689E+02 -0.28238461474E+03  0.28671277515E+03  0.00000000000E+00 0. -1.
</event>
<event>
 7    1  0.2480409E-009  0.7540300E+02  0.7561462E-02  0.1342628E+00
          1   -1    0    0  501    0  0.00000000000E+00  0.00000000000E+00  0.94884944385E+03  0.94884944385E+03  0.00000000000E+00 0. -1.
         -1   -1    0    0    0  501 -0.00000000000E+00 -0.00000000000E+00 -0.29507163624E+02  0.29507163624E+02  0.00000000000E+00 0.  1.
         25    2    1    2    0    0  0.10825578982E+02  0.58768793891E+01  0.85683778494E+03  0.86600836700E+03  0.12509105139E+03 0.  0.
          5    1    3    3  502    0 -0.23538547696E+02 -0.29829842661E+01  0.78871240873E+03  0.78908028584E+03  0.41800000000E+01 0.  1.
         -5    1    3    3    0  502  0.34364126678E+02  0.88598636552E+01  0.68125376215E+02  0.76928081159E+02  0.41800000000E+01 0.  1.
        -11    1    1    2    0    0  0.39968574741E+02 -0.14696392995E+01  0.15163616512E+02  0.42773614205E+02  0.00000000000E+00 0.  1.
         11    1    1    2    0    0 -0.50794153722E+02 -0.44072400896E+01  0.47340878770E+02  0.69574626268E+02  0.00000000000E+00 0. -1.
</event>
<event>
 7    1  0.2480409E-009  0.3049836E+03  0.7561462E-02  0.1082776E+00
          3   -1    0    0  501    0  0.00000000000E+00  0.00000000000E+00  0.72192844414E+03  0.72192844414E+03  0.00000000000E+00 0. -1.
         -3   -1    0    0    0  501 -0.00000000000E+00 -0.00000000000E+00 -0.14667262311E+03  0.14667262311E+03  0.00000000000E+00 0.  1.
         25    2    1    2    0    0 -0.28401111406E+03  0.33746603124E+02  0.14527988986E+03  0.34431745208E+03  0.12508842982E+03 0.  0.
          5    1    3    3  502    0 -0.87681586826E+02  0.70248358614E+02  0.52312272848E+02  0.12400378561E+03  0.41800000000E+01 0.  1.
         -5    1    3    3    0  502 -0.19632952723E+03 -0.36501755490E+02  0.92967617017E+02  0.22031366646E+03  0.41800000000E+01 0.  1.
        -11    1    1    2    0    0  0.58014577274E+02 -0.42049835269E+02  0.13217649896E+03  0.15034795210E+03  0.00000000000E+00 0. -1.
         11    1    1    2    0    0  0.22599653678E+03  0.83032321454E+01  0.29779943220E+03  0.37393566308E+03  0.00000000000E+00 0.  1.
</event>
<event>
 7    1  0.2480409E-009  0.1166361E+03  0.7561462E-02  0.1248752E+00
         -2   -1    0    0    0  501 -0.00000000000E+00  0.00000000000E+00  0.56833674393E+02  0.56833674393E+02  0.00000000000E+00 0.  1.
          2   -1    0    0  501    0  0.00000000000E+00 -0.00000000000E+00 -0.25714450598E+03  0.25714450598E+03  0.00000000000E+00 0. -1.
         25    2    1    2    0    0  0.22155896143E+02 -0.45797243782E+02 -0.10640637082E+03  0.17191981785E+03  0.12508331922E+03 0.  0.
          5    1    3    3  502    0  0.98199927190E+01 -0.84866802395E+02 -0.41551092556E+02  0.95093491356E+02  0.41800000000E+01 0. -1.
         -5    1    3    3    0  502  0.12335903424E+02  0.39069558613E+02 -0.64855278266E+02  0.76826326493E+02  0.41800000000E+01 0. -1.
        -11    1    1    2    0    0 -0.66095420521E+01  0.74029386463E+02 -0.63659563475E+02  0.97859982260E+02  0.00000000000E+00 0.  1.
         11    1    1    2    0    0 -0.15546354091E+02 -0.28232142681E+02 -0.30244897295E+02  0.44198380268E+02  0.00000000000E+00 0. -1.
</event>
<event>
 7    1  0.2480409E-009  0.1202848E+03  0.7561462E-02  0.1242628E+00
         -1   -1    0    0    0  501 -0.00000000000E+00  0.00000000000E+00  0.58266242249E+03  0.58266242249E+03  0.00000000000E+00 0.  1.
          1   -1    0    0  501    0  0.00000000000E+00 -0.00000000000E+00 -0.27877880609E+02  0.27877880609E+02  0.00000000000E+00 0. -1.
         25    2    1    2    0    0  0.57340413771E+02  0.34385427338E+02  0.34084429061E+03  0.36918255775E+03  0.12510255731E+03 0.  0.
          5    1    3    3  502    0 -0.16129758267E+02 -0.33550562400E+02  0.57191423307E+02  0.68367687097E+02  0.41800000000E+01 0. -1.
         -5    1    3    3    0  502  0.73470172038E+02  0.67935989738E+02  0.28365286730E+03  0.30081487066E+03  0.41800000000E+01 0. -1.
        -11    1    1    2    0    0 -0.44698406731E+02  0.18651167784E+02  0.54795720439E+02  0.73132650728E+02  0.00000000000E+00 0. -1.
         11    1    1    2    0    0 -0.12642007039E+02 -0.53036595123E+02  0.15914453083E+03  0.16822509461E+03  0.00000000000E+00 0.  1.
</event>
<event>
 7    1  0.2480409E-009  0.1027562E+03  0.7561462E-02  0.1274605E+00
          2   -1    0    0  501    0  0.00000000000E+00  0.00000000000E+00  0.79798617926E+02  0.79798617926E+02  0.00000000000E+00 0. -1.
         -2   -1    0    0    0  501 -0.00000000000E+00 -0.00000000000E+00 -0.17215591983E+03  0.17215591983E+03  0.00000000000E+00 0.  1.
         25    2    1    2    0    0  0.37963347474E+02  0.29382082150E+02 -0.86618520722E+01  0.13426645018E+03  0.12509168421E+03 0.  0.
          5    1    3    3  502    0 -0.16963423344E+02 -0.37408747358E+02  0.15948055849E+02  0.44260422454E+02  0.41800000000E+01 0. -1.
         -5    1    3    3    0  502  0.54926770818E+02  0.66790829508E+02 -0.24609907921E+02  0.90006027724E+02  0.41800000000E+01 0. -1.
        -11    1    1    2    0    0 -0.33378332719E+02 -0.48005590556E+02 -0.78379401619E+02  0.97785379366E+02  0.00000000000E+00 0.  1.
         11    1    1    2    0    0 -0.45850147551E+01  0.18623508406E+02 -0.53160482168E+01  0.19902708215E+02  0.00000000000E+00 0. -1.
</event>
<event>
 7    1  0.2480409E-009  0.1289039E+03  0.7561462E-02  0.1229091E+00
         -1   -1    0    0    0  501 -0.00000000000E+00  0.00000000000E+00  0.16050096101E+03  0.16050096101E+03  0.00000000000E+00 0.  1.
          1   -1    0    0  501    0  0.00000000000E+00 -0.00000000000E+00 -0.11618590726E+03  0.11618590726E+03  0.00000000000E+00 0. -1.
         25    2    1    2    0    0  0.81820529774E+02 -0.11779937521E+02  0.39718040353E+02  0.15510750455E+03  0.12508976464E+03 0.  0.
          5    1    3    3  502    0 -0.32868782944E+02  0.17941991204E+01  0.89109891265E+00  0.33194013014E+02  0.41800000000E+01 0.  1.
         -5    1    3    3    0  502  0.11468931272E+03 -0.13574136642E+02  0.38826941441E+02  0.12191349154E+03  0.41800000000E+01 0.  1.
        -11    1    1    2    0    0 -0.95068593558E+02  0.87521222385E+01 -0.16100981445E+02  0.96818793260E+02  0.00000000000E+00 0. -1.
         11    1    1    2    0    0  0.13248063784E+02  0.30278152829E+01  0.20697994836E+02  0.24760570463E+02  0.00000000000E+00 0.  1.
</event>
<event>
 7    1  0.2480409E-009  0.6617227E+02  0.7561462E-02  0.1373615E+00
          1   -1    0    0  501    0  0.00000000000E+00  0.00000000000E+00  0.62433552538E+03  0.62433552538E+03  0.00000000000E+00 0. -1.
         -1   -1    0    0    0  501 -0.00000000000E+00 -0.00000000000E+00 -0.29294498649E+02  0.29294498649E+02  0.00000000000E+00 0.  1.
         25    2    1    2    0    0  0.29888577755E+02 -0.31515536083E+02  0.48049100417E+03  0.49840335499E+03  0.12509093926E+03 0.  0.
          5    1    3    3  502    0 -0.32992731485E+01 -0.18277637941E+02  0.45229635892E+03  0.45269683669E+03  0.41800000000E+01 0.  1.
         -5    1    3    3    0  502  0.33187850904E+02 -0.13237898142E+02  0.28194645245E+02  0.45706518302E+02  0.41800000000E+01 0.  1.
        -11    1    1    2    0    0 -0.37159930471E+01 -0.19577058106E+02  0.91036232551E+02  0.93191552436E+02  0.00000000000E+00 0. -1.
         11    1    1    2    0    0 -0.26172584708E+02  0.51092594189E+02  0.23513790013E+02  0.62035116604E+02  0.00000000000E+00 0.  1.
</event>
<event>
 7    1  0.2480409E-009  0.1213254E+03  0.7561462E-02  0.1240926E+00
          2   -1    0    0  501    0  0.00000000000E+00  0.00000000000E+00  0.19655320027E+04  0.19655320027E+04  0.00000000000E+00 0. -1.
         -2   -1    0    0    0  501 -0.00000000000E+00 -0.00000000000E+00 -0.20761780357E+02  0.20761780357E+02  0.00000000000E+00 0.  1.
         25    2    1    2    0    0 -0.30609075924E+02 -0.84313016337E+02  0.17237633784E+04  0.17306222759E+04  0.12509067457E+03 0.  0.
          5    1    3    3  502    0  0.32733174685E+02  0.13878321776E+02  0.31940879183E+03  0.32140864525E+03  0.41800000000E+01 0. -1.
         -5    1    3    3    0  502 -0.63342250608E+02 -0.98191338113E+02  0.14043545866E+04  0.14092136307E+04  0.41800000000E+01 0. -1.
        -11    1    1    2    0    0  0.85884034689E+01  0.16081383073E+02 -0.47196600958E+01  0.18832066990E+02  0.00000000000E+00 0.  1.
         11    1    1    2    0    0  0.22020672455E+02  0.68231633264E+02  0.22572650398E+03  0.23683944012E+03  0.00000000000E+00 0. -1.
</event>
<event>
 7    1  0.2480409E-009  0.1072722E+03  0.7561462E-02  0.1265706E+00
          1   -1    0    0  501    0  0.00000000000E+00  0.00000000000E+00  0.34441665243E+02  0.34441665243E+02  0.00000000000E+00 0.  1.
         -1   -1    0    0    0  501 -0.00000000000E+00 -0.00000000000E+00 -0.36803930287E+03  0.36803930287E+03  0.00000000000E+00 0. -1.
         25    2    1    2    0    0 -0.80109104096E+01 -0.22618984225E+02 -0.15925843941E+03  0.20392544792E+03  0.12508614892E+03 0.  0.
          5    1    3    3  502    0 -0.61600783741E+02  0.12644863017E+02 -0.81847576954E+02  0.10330076172E+03  0.41800000000E+01 0. -1.
         -5    1    3    3    0  502  0.53589873331E+02 -0.35263847241E+02 -0.77410862458E+02  0.10062468620E+03  0.41800000000E+01 0. -1.
        -11    1    1    2    0    0  0.42429308235E+01  0.54733698624E+02 -0.14441945845E+03  0.15450165114E+03  0.00000000000E+00 0.  1.
         11    1    1    2    0    0  0.37679795861E+01 -0.32114714400E+02 -0.29919739770E+02  0.44053869059E+02  0.00000000000E+00 0. -1.
</event>
<event>
 7    1  0.2480409E-009  0.1139623E+03  0.7561462E-02  0.1253403E+00
          2   -1    0    0  501    0  0.00000000000E+00  0.00000000000E+00  0.11163411229E+04  0.11163411229E+04  0.00000000000E+00 0. -1.
         -2   -1    0    0    0  501 -0.00000000000E+00 -0.00000000000E+00 -0.16167152063E+02  0.16167152063E+02  0.00000000000E+00 0.  1.
         25    2    1    2    0    0  0.17551445646E+02 -0.68982477638E+02  0.74976909194E+03  0.76345760376E+03  0.12508871271E+03 0.  0.
          5    1    3    3  502    0  0.24070342100E+02 -0.89159311116E+02  0.31844217137E+03  0.33158958524E+03  0.41800000000E+01 0. -1.
         -5    1    3    3    0  502 -0.65188964539E+01  0.20176833479E+02  0.43132692057E+03  0.43186801853E+03  0.41800000000E+01 0. -1.
        -11    1    1    2    0    0 -0.18796495446E+02 -0.18501253613E+02  0.55630172299E+02  0.61565580451E+02  0.00000000000E+00 0. -1.
         11    1    1    2    0    0  0.12450498004E+01  0.87483731250E+02  0.29477470658E+03  0.30748509073E+03  0.00000000000E+00 0.  1.
</event>
<event>
 7    1  0.2480409E-009  0.1448680E+03  0.7561462E-02  0.1206925E+00
          1   -1    0    0  501    0  0.00000000000E+00  0.00000000000E+00  0.30684278853E+02  0.30684278853E+02  0.00000000000E+00 0. -1.
         -1   -1    0    0    0  501 -0.00000000000E+00 -0.00000000000E+00 -0.81588265231E+03  0.81588265231E+03  0.00000000000E+00 0.  1.
         25    2    1    2    0    0 -0.56764705355E+02  0.97975044990E+02 -0.36733568068E+03  0.40423316136E+03  0.12509038822E+03 0.  0.
          5    1    3    3  502    0 -0.45676141048E+02 -0.16472417330E+02 -0.68971955824E+02  0.84452670081E+02  0.41800000000E+01 0. -1.
         -5    1    3    3    0  502 -0.11088564307E+02  0.11444746232E+03 -0.29836372486E+03  0.31978049127E+03  0.41800000000E+01 0. -1.
        -11    1    1    2    0    0  0.28836024067E+02 -0.93261555668E+02 -0.39202340196E+03  0.40399453181E+03  0.00000000000E+00 0.  1.
         11    1    1    2    0    0  0.27928681287E+02 -0.47134893221E+01 -0.25839290816E+02  0.38339237993E+02  0.00000000000E+00 0. -1.
</event>
<event>
 7    1  0.2480409E-009  0.1909487E+03  0.7561462E-02  0.1157608E+00
         -2   -1    0    0    0  501 -0.00000000000E+00  0.00000000000E+00  0.68410801907E+03  0.68410801907E+03  0.00000000000E+00 0.  1.
          2   -1    0    0  501    0  0.00000000000E+00 -0.00000000000E+00 -0.69446578310E+02  0.69446578310E+02  0.00000000000E+00 0. -1.
         25    2    1    2    0    0  0.15030241173E+03  0.46610489835E+02  0.49769915865E+03  0.53676513598E+03  0.12509598695E+03 0.  0.
          5    1    3    3  502    0  0.10911049057E+03  0.89095052003E+02  0.32791395623E+03  0.35691464320E+03  0.41800000000E+01 0. -1.
         -5    1    3    3    0  502  0.41191921158E+02 -0.42484562169E+02  0.16978520242E+03  0.17985049278E+03  0.41800000000E+01 0. -1.
        -11    1    1    2    0    0 -0.38398048639E+02 -0.57577614109E+02  0.55045091578E+02  0.88428241488E+02  0.00000000000E+00 0.  1.
         11    1    1    2    0    0 -0.11190436309E+03  0.10967124274E+02  0.61917190531E+02  0.12836121991E+03  0.00000000000E+00 0. -1.
</event>
<event>
 7    1  0.2480409E-009  0.1060913E+03  0.7561462E-02  0.1267984E+00
          2   -1    0    0  501    0  0.00000000000E+00  0.00000000000E+00  0.67431468730E+03  0.67431468730E+03  0.00000000000E+00 0. -1.
         -2   -1    0    0    0  501 -0.00000000000E+00 -0.00000000000E+00 -0.22367007697E+02  0.22367007697E+02  0.00000000000E+00 0.  1.
         25    2    1    2    0    0 -0.38095596711E+02  0.20280673680E+02  0.47307156010E+03  0.49122957476E+03  0.12508882416E+03 0.  0.
          5    1    3    3  502    0 -0.25920979367E+02 -0.41077187316E+02  0.34723243164E+03  0.35063808474E+03  0.41800000000E+01 0. -1.
         -5    1    3    3    0  502 -0.12174617344E+02  0.61357860996E+02  0.12583912845E+03  0.14059149001E+03  0.41800000000E+01 0. -1.
        -11    1    1    2    0    0  0.50138179368E+02  0.23470221952E+02  0.90035983682E+02  0.10569374015E+03  0.00000000000E+00 0.  1.
         11    1    1    2    0    0 -0.12042582657E+02 -0.43750895633E+02  0.88840135828E+02  0.99758380097E+02  0.00000000000E+00 0. -1.
</event>
<event>
 7    1  0.2480409E-009  0.9156071E+02  0.7561462E-02  0.1299116E+00
          1   -1    0    0  501    0  0.00000000000E+00  0.00000000000E+00  0.82942290142E+03  0.82942290142E+03  0.00000000000E+00 0. -1.
         -1   -1    0    0    0  501 -0.00000000000E+00 -0.00000000000E+00 -0.18582086398E+02  0.18582086398E+02  0.00000000000E+00 0.  1.
         25    2    1    2    0    0  0.50526391339E+02 -0.32495478773E+02  0.44335473246E+03  0.46456386291E+03  0.12508913448E+03 0.  0.
          5    1    3    3  502    0  0.17939751580E+02  0.93248537105E+01  0.38522174046E+03  0.38577460946E+03  0.41800000000E+01 0.  1.
         -5    1    3    3    0  502  0.32586639759E+02 -0.41820332483E+02  0.58132991998E+02  0.78789253445E+02  0.41800000000E+01 0.  1.
        -11    1    1    2    0    0 -0.53149339917E+02 -0.19959150989E+02  0.20137181949E+03  0.20922196282E+03  0.00000000000E+00 0.  1.
         11    1    1    2    0    0  0.26229485779E+01  0.52454629761E+02  0.16611426307E+03  0.17421916209E+03  0.00000000000E+00 0. -1.
</event>
<event>
 7    1  0.2480409E-009  0.9847016E+02  0.7561462E-02  0.1283546E+00
         -3   -1    0    0    0  501 -0.00000000000E+00  0.00000000000E+00  0.57041377019E+02  0.57041377019E+02  0.00000000000E+00 0. -1.
          3   -1    0    0  501    0  0.00000000000E+00 -0.00000000000E+00 -0.21410635008E+03  0.21410635008E+03  0.00000000000E+00 0.  1.
         25    2    1    2    0    0 -0.69512421015E+01 -0.31660883488E+01 -0.12043664569E+03  0.17381177439E+03  0.12508878210E+03 0.  0.
          5    1    3    3  502    0 -0.34137376017E+01  0.59702568333E+02 -0.75184565869E+02  0.96157379409E+02  0.41800000000E+01 0.  1.
         -5    1    3    3    0  502 -0.35375044999E+01 -0.62868656682E+02 -0.45252079820E+02  0.77654394976E+02  0.41800000000E+01 0.  1.
        -11    1    1    2    0    0  0.20605086696E+02 -0.30926776927E+02 -0.46289399343E+02  0.59361128867E+02  0.00000000000E+00 0.  1.
         11    1    1    2    0    0 -0.13653844594E+02  0.34092865276E+02  0.96610719669E+01  0.37974823851E+02  0.00000000000E+00 0. -1.
</event>
<event>
 7    1  0.2480409E-009  0.1081373E+03  0.7561462E-02  0.1264059E+00
          2   -1    0    0  501    0  0.00000000000E+00  0.00000000000E+00  0.91276979601E+02  0.91276979601E+02  0.00000000000E+00 0. -1.
         -2   -1    0    0    0  501 -0.00000000000E+00 -0.00000000000E+00 -0.15180919925E+03  0.15180919925E+03  0.00000000000E+00 0.  1.
         25    2    1    2    0    0 -0.16423918386E+01 -0.68688751990E+01 -0.65143243613E+02  0.14121217913E+03  0.12508940183E+03 0.  0.
          5    1    3    3  502    0 -0.54555016653E+02  0.16157605206E+02 -0.42396233122E+01  0.57208083816E+02  0.41800000000E+01 0. -1.
         -5    1    3    3    0  502  0.52912624815E+02 -0.23026480405E+02 -0.60903620301E+02  0.84004095319E+02  0.41800000000E+01 0. -1.
        -11    1    1    2    0    0  0.11197991411E+02  0.53044050800E+02  0.69819019220E+01  0.54660893620E+02  0.00000000000E+00 0.  1.
         11    1    1    2    0    0 -0.95555995723E+01 -0.46175175601E+02 -0.23708779575E+01  0.47213106096E+02  0.00000000000E+00 0. -1.
</event>
<event>
 7    1  0.2480409E-009  0.1161348E+03  0.7561462E-02  0.1249613E+00
          2   -1    0    0  501    0  0.00000000000E+00  0.00000000000E+00  0.29319996042E+03  0.29319996042E+03  0.00000000000E+00 0. -1.
         -2   -1    0    0    0  501 -0.00000000000E+00 -0.00000000000E+00 -0.49651678033E+02  0.49651678033E+02  0.00000000000E+00 0.  1.
         25    2    1    2    0    0  0.17762913237E+02  0.52061112343E+02  0.13476563686E+03  0.19191922364E+03  0.12508129763E+03 0.  0.
          5    1    3    3  502    0 -0.25964985573E+02  0.77890280284E+02  0.61471997156E+02  0.10265161992E+03  0.41800000000E+01 0. -1.
         -5    1    3    3    0  502  0.43727898811E+02 -0.25829167942E+02  0.73293639706E+02  0.89267603711E+02  0.41800000000E+01 0. -1.
        -11    1    1    2    0    0 -0.50633276925E+02 -0.38203068431E+02  0.91393994224E+02  0.11124776560E+03  0.00000000000E+00 0. -1.
         11    1    1    2    0    0  0.32870363688E+02 -0.13858043912E+02  0.17388651303E+02  0.39684649226E+02  0.00000000000E+00 0.  1.
</event>
<event>
 7    1  0.2480409E-009  0.1148790E+03  0.7561462E-02  0.1251792E+00
         -2   -1    0    0    0  501 -0.00000000000E+00  0.00000000000E+00  0.18350878508E+03  0.18350878508E+03  0.00000000000E+00 0.  1.
          2   -1    0    0  501    0  0.00000000000E+00 -0.00000000000E+00 -0.79389396790E+02  0.79389396790E+02  0.00000000000E+00 0. -1.
         25    2    1    2    0    0 -0.12572488897E+02  0.42177590978E+02  0.25577066644E+02  0.13504930762E+03  0.12508841870E+03 0.  0.
          5    1    3    3  502    0 -0.39750892928E+01  0.85089448302E+02  0.23276231555E+01  0.85316503543E+02  0.41800000000E+01 0.  1.
         -5    1    3    3    0  502 -0.85973996040E+01 -0.42911857324E+02  0.23249443488E+02  0.49732804078E+02  0.41800000000E+01 0.  1.
        -11    1    1    2    0    0  0.17766604343E+02 -0.69993281685E+02  0.51387996607E+02  0.88630908301E+02  0.00000000000E+00 0.  1.
         11    1    1    2    0    0 -0.51941154460E+01  0.27815690708E+02  0.27154325040E+02  0.39217965949E+02  0.00000000000E+00 0. -1.
</event>
<event>
 7    1  0.2480409E-009  0.1388678E+03  0.7561462E-02  0.1214861E+00
         -1   -1    0    0    0  501 -0.00000000000E+00  0.00000000000E+00  0.86211649980E+02  0.86211649980E+02  0.00000000000E+00 0.  1.
          1   -1    0    0  501    0  0.00000000000E+00 -0.00000000000E+00 -0.32417045822E+03  0.32417045822E+03  0.00000000000E+00 0. -1.
         25    2    1    2    0    0 -0.27337270510E+02  0.11774581633E+03 -0.17722628352E+03  0.24833117156E+03  0.12509121301E+03 0.  0.
          5    1    3    3  502    0 -0.62965763003E+02  0.79832739170E+02 -0.55558435440E+02  0.11594035407E+03  0.41800000000E+01 0. -1.
         -5    1    3    3    0  502  0.35628492493E+02  0.37913077165E+02 -0.12166784808E+03  0.13239081748E+03  0.41800000000E+01 0. -1.
        -11    1    1    2    0    0  0.32579565219E+02 -0.94785364498E+02 -0.82626077122E+02  0.12989519627E+03  0.00000000000E+00 0. -1.
         11    1    1    2    0    0 -0.52422947086E+01 -0.22960451837E+02  0.21893552402E+02  0.32155740376E+02  0.00000000000E+00 0.  1.
</event>
<event>
 7    1  0.2480409E-009  0.1167981E+03  0.7561462E-02  0.1248475E+00
         -2   -1    0    0    0  501 -0.00000000000E+00  0.00000000000E+00  0.12672840310E+02  0.12672840310E+02  0.00000000000E+00 0.  1.
          2   -1    0    0  501    0  0.00000000000E+00 -0.00000000000E+00 -0.24117081179E+04  0.24117081179E+04  0.00000000000E+00 0. -1.
         25    2    1    2    0    0  0.45645813087E+02 -0.84796023377E+02 -0.19311037060E+04  0.19375468085E+04  0.12510877614E+03 0.  0.
          5    1    3    3  502    0  0.19908529904E+02 -0.59720337279E+02 -0.18113494544E+04  0.18124478439E+04  0.41800000000E+01 0. -1.
         -5    1    3    3    0  502  0.25737283183E+02 -0.25075686098E+02 -0.11975425161E+03  0.12509896466E+03  0.41800000000E+01 0. -1.
        -11    1    1    2    0    0 -0.35246311632E+02  0.10546182605E+03 -0.38960715795E+03  0.40516445644E+03  0.00000000000E+00 0. -1.
         11    1    1    2    0    0 -0.10399501455E+02 -0.20665802676E+02 -0.78324413651E+02  0.81669693305E+02  0.00000000000E+00 0.  1.
</event>
<event>
 7    1  0.2480409E-009  0.1553747E+03  0.7561462E-02  0.1194020E+00
          3   -1    0    0  501    0  0.00000000000E+00  0.00000000000E+00  0.24308610123E+02  0.24308610123E+02  0.00000000000E+00 0. -1.
         -3   -1    0    0    0  501 -0.00000000000E+00 -0.00000000000E+00 -0.11078517175E+04  0.11078517175E+04  0.00000000000E+00 0.  1.
         25    2    1    2    0    0  0.11465778111E+03 -0.25199506893E+01 -0.42479165568E+03  0.45743604925E+03  0.12508809494E+03 0.  0.
          5    1    3    3  502    0  0.11642816888E+03  0.40060936365E+02 -0.35255397289E+03  0.37345973455E+03  0.41800000000E+01 0.  1.
         -5    1    3    3    0  502 -0.17703877690E+01 -0.42580887054E+02 -0.72237682790E+02  0.83976314697E+02  0.41800000000E+01 0.  1.
        -11    1    1    2    0    0 -0.27288270316E+02 -0.39316945854E+02 -0.17877630245E+03  0.18507144093E+03  0.00000000000E+00 0.  1.
         11    1    1    2    0    0 -0.87369510791E+02  0.41836896544E+02 -0.47997514921E+03  0.48965283741E+03  0.00000000000E+00 0. -1.
</event>
<event>
 7    1  0.2480409E-009  0.1366199E+03  0.7561462E-02  0.1217951E+00
          1   -1    0    0  501    0  0.00000000000E+00  0.00000000000E+00  0.10798678103E+03  0.10798678103E+03  0.00000000000E+00 0. -1.
         -1   -1    0    0    0  501 -0.00000000000E+00 -0.00000000000E+00 -0.35820942809E+03  0.35820942809E+03  0.00000000000E+00 0.  1.
         25    2    1    2    0    0 -0.10094955947E+03 -0.82291175835E+02 -0.13275240201E+02  0.18106931461E+03  0.12508882249E+03 0.  0.
          5    1    3    3  502    0 -0.24699774147E+02 -0.36311160192E+02  0.53756068517E+02  0.69539675724E+02  0.41800000000E+01 0.  1.
         -5    1    3    3    0  502 -0.76249785328E+02 -0.45980015643E+02 -0.67031308718E+02  0.11152963888E+03  0.41800000000E+01 0.  1.
        -11    1    1    2    0    0  0.55358365054E+02  0.12707706132E+02 -0.16714646514E+03  0.17653321270E+03  0.00000000000E+00 0.  1.
         11    1    1    2    0    0  0.45591194421E+02  0.69583469703E+02 -0.69800941719E+02  0.10859368181E+03  0.00000000000E+00 0. -1.
</event>
<event>
 7    1  0.2480409E-009  0.4731906E+02  0.7561462E-02  0.1460363E+00
         -2   -1    0    0    0  501 -0.00000000000E+00  0.00000000000E+00  0.47882956650E+02  0.47882956650E+02  0.00000000000E+00 0.  1.
          2   -1    0    0  501    0  0.00000000000E+00 -0.00000000000E+00 -0.26528163864E+03  0.26528163864E+03  0.00000000000E+00 0. -1.
         25    2    1    2    0    0  0.18048690479E+02 -0.14882813502E+02 -0.95897235318E+02  0.15934402989E+03  0.12508791610E+03 0.  0.
          5    1    3    3  502    0 -0.49339167289E+01 -0.45303901938E+01  0.29927362537E+02  0.30951371505E+02  0.41800000000E+01 0. -1.
         -5    1    3    3    0  502  0.22982607208E+02 -0.10352423308E+02 -0.12582459786E+03  0.12839265839E+03  0.41800000000E+01 0. -1.
        -11    1    1    2    0    0 -0.37687359042E+02  0.17181234608E+02 -0.12823665402E+02  0.43358715947E+02  0.00000000000E+00 0.  1.
         11    1    1    2    0    0  0.19638668563E+02 -0.22984211056E+01 -0.10867778127E+03  0.11046184945E+03  0.00000000000E+00 0. -1.
</event>
<event>
 7    1  0.2480409E-009  0.1156043E+03  0.7561462E-02  0.1250530E+00
         -3   -1    0    0    0  501 -0.00000000000E+00  0.00000000000E+00  0.26361630943E+03  0.26361630943E+03  0.00000000000E+00 0.  1.
          3   -1    0    0  501    0  0.00000000000E+00 -0.00000000000E+00 -0.90211894566E+02  0.90211894566E+02  0.00000000000E+00 0. -1.
         25    2    1    2    0    0  0.73617272184E+02  0.37889012647E+01  0.18738462929E+03  0.23705393549E+03  0.12509080903E+03 0.  0.
          5    1    3    3  502    0  0.58941672483E+02 -0.39132143544E+02  0.17653020370E+03  0.19022573599E+03  0.41800000000E+01 0. -1.
         -5    1    3    3    0  502  0.14675599701E+02  0.42921044809E+02  0.10854425586E+02  0.46828199505E+02  0.41800000000E+01 0. -1.
        -11    1    1    2    0    0 -0.34473884673E+02  0.42134893850E+02 -0.14835078484E+02  0.56425858947E+02  0.00000000000E+00 0. -1.
         11    1    1    2    0    0 -0.39143387511E+02 -0.45923795115E+02  0.85486406181E+00  0.60348409558E+02  0.00000000000E+00 0.  1.
</event>
<event>
 7    1  0.2480409E-009  0.2634757E+03  0.7561462E-02  0.1105073E+00
          1   -1    0    0  501    0  0.00000000000E+00  0.00000000000E+00  0.38458322684E+03  0.38458322684E+03  0.00000000000E+00 0. -1.
         -1   -1    0    0    0  501 -0.00000000000E+00 -0.00000000000E+00 -0.24802683451E+03  0.24802683451E+03  0.00000000000E+00 0.  1.
         25    2    1    2    0    0 -0.17930599983E+03 -0.18752822503E+03  0.20423182265E+03  0.35309381581E+03  0.12508848316E+03 0.  0.
          5    1    3    3  502    0 -0.96453872823E+01 -0.14143077988E+02  0.77285616791E+02  0.79269156130E+02  0.41800000000E+01 0. -1.
         -5    1    3    3    0  502 -0.16966061255E+03 -0.17338514704E+03  0.12694620586E+03  0.27382465968E+03  0.41800000000E+01 0. -1.
        -11    1    1    2    0    0  0.99836382587E+02  0.60096886195E+02 -0.54840693380E+02  0.12878835611E+03  0.00000000000E+00 0. -1.
         11    1    1    2    0    0  0.79469617245E+02  0.12743133883E+03 -0.12834736947E+02  0.15072788944E+03  0.00000000000E+00 0.  1.
</event>
<event>
 7    1  0.2480409E-009  0.9137092E+02  0.7561462E-02  0.1299565E+00
         -1   -1    0    0    0  501 -0.00000000000E+00  0.00000000000E+00  0.51176230786E+02  0.51176230786E+02  0.00000000000E+00 0.  1.
          1   -1    0    0  501    0  0.00000000000E+00 -0.00000000000E+00 -0.35060289868E+03  0.35060289868E+03  0.00000000000E+00 0. -1.
         25    2    1    2    0    0  0.81469605200E+01 -0.51885985932E+02 -0.24789762551E+03  0.28259385753E+03  0.12509007586E+03 0.  0.
          5    1    3    3  502    0  0.11051499504E+02  0.29146037749E+02 -0.12948009710E+02  0.34011035168E+02  0.41800000000E+01 0.  1.
         -5    1    3    3    0  502 -0.29045389838E+01 -0.81032023680E+02 -0.23494961580E+03  0.24858282236E+03  0.41800000000E+01 0.  1.
        -11    1    1    2    0    0 -0.11784028392E+02 -0.52128890381E+01 -0.59981263146E+02  0.61349730772E+02  0.00000000000E+00 0. -1.
         11    1    1    2    0    0  0.36370678722E+01  0.57098874970E+02  0.84522207651E+01  0.57835541161E+02  0.00000000000E+00 0.  1.
</event>
<event>
 7    1  0.2480409E-009  0.2680320E+03  0.7561462E-02  0.1102411E+00
         -2   -1    0    0    0  501 -0.00000000000E+00  0.00000000000E+00  0.63881239400E+02  0.63881239400E+02  0.00000000000E+00 0. -1.
          2   -1    0    0  501    0  0.00000000000E+00 -0.00000000000E+00 -0.13395417801E+04  0.13395417801E+04  0.00000000000E+00 0.  1.
         25    2    1    2    0    0  0.72863543866E+02  0.23689457734E+03 -0.38513402114E+03  0.47476561999E+03  0.12508414322E+03 0.  0.
          5    1    3    3  502    0 -0.16049554669E+02  0.14334788787E+03 -0.16190767676E+03  0.21688193414E+03  0.41800000000E+01 0.  1.
         -5    1    3    3    0  502  0.88913098535E+02  0.93546689476E+02 -0.22322634438E+03  0.25788368585E+03  0.41800000000E+01 0.  1.
        -11    1    1    2    0    0 -0.41638472430E+02 -0.25249452170E+02 -0.19386061640E+03  0.19988305534E+03  0.00000000000E+00 0.  1.
         11    1    1    2    0    0 -0.31225071436E+02 -0.21164512517E+03 -0.69666590312E+03  0.72877434414E+03  0.00000000000E+00 0. -1.
</event>
<event>
 7    1  0.2480409E-009  0.1212398E+03  0.7561462E-02  0.1241066E+00
         -2   -1    0    0    0  501 -0.00000000000E+00  0.00000000000E+00  0.68395022972E+02  0.68395022972E+02  0.00000000000E+00 0.  1.
          2   -1    0    0  501    0  0.00000000000E+00 -0.00000000000E+00 -0.24418995815E+03  0.24418995815E+03  0.00000000000E+00 0. -1.
         25    2    1    2    0    0  0.13994485372E+02 -0.63414448978E+02 -0.61096068571E+02  0.15361692436E+03  0.12509273318E+03 0.  0.
          5    1    3    3  502    0  0.31312298437E+02 -0.95684501219E+02 -0.29301927207E+02  0.10493835879E+03  0.41800000000E+01 0. -1.
         -5    1    3    3    0  502 -0.17317813066E+02  0.32270052241E+02 -0.31794141364E+02  0.48678565572E+02  0.41800000000E+01 0. -1.
        -11    1    1    2    0    0 -0.38643550843E+02  0.69449782205E+02 -0.63149814312E+02  0.10151106008E+03  0.00000000000E+00 0.  1.
         11    1    1    2    0    0  0.24649065471E+02 -0.60353332267E+01 -0.51549052295E+02  0.57456996687E+02  0.00000000000E+00 0. -1.
</event>
<event>
 7    1  0.2480409E-009  0.1379223E+03  0.7561462E-02  0.1216152E+00
         -2   -1    0    0    0  501 -0.00000000000E+00  0.00000000000E+00  0.11911574488E+03  0.11911574488E+03  0.00000000000E+00 0.  1.
          2   -1    0    0  501    0  0.00000000000E+00 -0.00000000000E+00 -0.43787487048E+03  0.43787487048E+03  0.00000000000E+00 0. -1.
         25    2    1    2    0    0  0.10243207944E+03 -0.81787520675E+02 -0.35005866441E+03  0.39417300727E+03  0.12509900757E+03 0.  0.
          5    1    3    3  502    0  0.94379551568E+02 -0.41531098561E+02 -0.33452323316E+03  0.35007941646E+03  0.41800000000E+01 0. -1.
         -5    1    3    3    0  502  0.80525278765E+01 -0.40256422114E+02 -0.15535431245E+02  0.44093590811E+02  0.41800000000E+01 0. -1.
        -11    1    1    2    0    0 -0.71461383332E+02  0.62167433500E+02 -0.22839486735E+02  0.97432855085E+02  0.00000000000E+00 0. -1.
         11    1    1    2    0    0 -0.30970696113E+02  0.19620087175E+02  0.54139025549E+02  0.65384753007E+02  0.00000000000E+00 0.  1.
</event>
<event>
 7    1  0.2480409E-009  0.1395293E+03  0.7561462E-02  0.1213964E+00
         -2   -1    0    0    0  501 -0.00000000000E+00  0.00000000000E+00  0.50093182656E+02  0.50093182656E+02  0.00000000000E+00 0.  1.
          2   -1    0    0  501    0  0.00000000000E+00 -0.00000000000E+00 -0.55917368709E+03  0.55917368709E+03  0.00000000000E+00 0. -1.
         25    2    1    2    0    0 -0.32629984880E+01 -0.11295452557E+03 -0.35938503528E+03  0.39695915393E+03  0.12509833852E+03 0.  0.
          5    1    3    3  502    0 -0.34237952217E+02 -0.12316522707E+03 -0.22702245040E+03  0.26057355184E+03  0.41800000000E+01 0.  1.
         -5    1    3    3    0  502  0.30974953729E+02  0.10210701493E+02 -0.13236258487E+03  0.13638560209E+03  0.41800000000E+01 0.  1.
        -11    1    1    2    0    0 -0.13105202036E+02  0.83969997698E+02 -0.33352866295E+02  0.91296881238E+02  0.00000000000E+00 0.  1.
         11    1    1    2    0    0  0.16368200524E+02  0.28984527877E+02 -0.11634260286E+03  0.12101083457E+03  0.00000000000E+00 0. -1.
</event>
<event>
 7    1  0.2480409E-009  0.9434261E+02  0.7561462E-02  0.1292664E+00
          1   -1    0    0  501    0  0.00000000000E+00  0.00000000000E+00  0.87423675126E+02  0.87423675126E+02  0.00000000000E+00 0. -1.
         -1   -1    0    0    0  501 -0.00000000000E+00 -0.00000000000E+00 -0.17951479696E+03  0.17951479696E+03  0.00000000000E+00 0.  1.
         25    2    1    2    0    0 -0.55500522108E+02  0.12234598861E+01 -0.20334906326E+02  0.13835786206E+03  0.12509030646E+03 0.  0.
          5    1    3    3  502    0 -0.89428834851E+02  0.18926181027E+01  0.13142926031E+02  0.90505841860E+02  0.41800000000E+01 0. -1.
         -5    1    3    3    0  502  0.33928312743E+02 -0.66915821668E+00 -0.33477832357E+02  0.47852020205E+02  0.41800000000E+01 0. -1.
        -11    1    1    2    0    0  0.25947247499E+02 -0.17414618116E+02 -0.86370734109E+02  0.91850053280E+02  0.00000000000E+00 0.  1.
         11    1    1    2    0    0  0.29553274608E+02  0.16191158230E+02  0.14614518599E+02  0.36730556745E+02  0.00000000000E+00 0. -1.
</event>
<event>
 7    1  0.2480409E-009  0.8743083E+02  0.7561462E-02  0.1309195E+00
          1   -1    0    0  501    0  0.00000000000E+00  0.00000000000E+00  0.77593668080E+02  0.77593668080E+02  0.00000000000E+00 0. -1.
         -1   -1    0    0    0  501 -0.00000000000E+00 -0.00000000000E+00 -0.22163486346E+03  0.22163486346E+03  0.00000000000E+00 0.  1.
         25    2    1    2    0    0  0.66148208829E+02  0.26792655672E+02 -0.57630389199E+02  0.15512247365E+03  0.12509311788E+03 0.  0.
          5    1    3    3  502    0  0.43048489952E+01  0.38843694938E+02 -0.79182404162E+02  0.88400734670E+02  0.41800000000E+01 0. -1.
         -5    1    3    3    0  502  0.61843359834E+02 -0.12051039266E+02  0.21552014963E+02  0.66721738975E+02  0.41800000000E+01 0. -1.
        -11    1    1    2    0    0 -0.43985678130E+02 -0.11432459038E+02 -0.10290671750E+03  0.11249548217E+03  0.00000000000E+00 0.  1.
         11    1    1    2    0    0 -0.22162530699E+02 -0.15360196634E+02  0.16495911323E+02  0.31610575730E+02  0.00000000000E+00 0. -1.
</event>
<event>
 7    1  0.2480409E-009  0.1490120E+03  0.7561462E-02  0.1201692E+00
         -1   -1    0    0    0  501 -0.00000000000E+00  0.00000000000E+00  0.11443326677E+03  0.11443326677E+03  0.00000000000E+00 0.  1.
          1   -1    0    0  501    0  0.00000000000E+00 -0.00000000000E+00 -0.20827404438E+03  0.20827404438E+03  0.00000000000E+00 0. -1.
         25    2    1    2    0    0  0.34536721588E+01  0.10916862212E+03 -0.46902326480E+02  0.17256024796E+03  0.12508994780E+03 0.  0.
          5    1    3    3  502    0  0.52999839292E+02  0.26722588770E+02 -0.47725689519E+02  0.76277739581E+02  0.41800000000E+01 0. -1.
         -5    1    3    3    0  502 -0.49546167133E+02  0.82446033355E+02  0.82336303858E+00  0.96282508382E+02  0.41800000000E+01 0. -1.
        -11    1    1    2    0    0 -0.47227395959E+02 -0.61186676489E+02 -0.20045030452E+02  0.79850106791E+02  0.00000000000E+00 0.  1.
         11    1    1    2    0    0  0.43773723800E+02 -0.47981945636E+02 -0.26893420673E+02  0.70296956391E+02  0.00000000000E+00 0. -1.
</event>
<event>
 7    1  0.2480409E-009  0.1474884E+03  0.7561462E-02  0.1203594E+00
          1   -1    0    0  501    0  0.00000000000E+00  0.00000000000E+00  0.39593387904E+03  0.39593387904E+03  0.00000000000E+00 0. -1.
         -1   -1    0    0    0  501 -0.00000000000E+00 -0.00000000000E+00 -0.64516467111E+02  0.64516467111E+02  0.00000000000E+00 0.  1.
         25    2    1    2    0    0  0.11094558437E+03 -0.22613267560E+02  0.13799417682E+03  0.21796633879E+03  0.12508656782E+03 0.  0.
          5    1    3    3  502    0  0.12691867180E+03 -0.36874471086E+02  0.76614505209E+02  0.15282450941E+03  0.41800000000E+01 0. -1.
         -5    1    3    3    0  502 -0.15973087426E+02  0.14261203526E+02  0.61379671613E+02  0.65141829382E+02  0.41800000000E+01 0. -1.
        -11    1    1    2    0    0 -0.58786040474E+02  0.54191196109E+02  0.76698338433E+02  0.11079313791E+03  0.00000000000E+00 0.  1.
         11    1    1    2    0    0 -0.52159543897E+02 -0.31577928549E+02  0.11672489667E+03  0.13169086944E+03  0.00000000000E+00 0. -1.
</event>
<event>
 7    1  0.2480409E-009  0.1403483E+03  0.7561462E-02  0.1212861E+00
          2   -1    0    0  501    0  0.00000000000E+00  0.00000000000E+00  0.64140605355E+03  0.64140605355E+03  0.00000000000E+00 0. -1.
         -2   -1    0    0    0  501 -0.00000000000E+00 -0.00000000000E+00 -0.33412474459E+02  0.33412474459E+02  0.00000000000E+00 0.  1.
         25    2    1    2    0    0 -0.32620631451E+01  0.97921025587E+02  0.35817457100E+03  0.39183632860E+03  0.12509003476E+03 0.  0.
          5    1    3    3  502    0 -0.32059834026E+02 -0.16919138293E+02  0.51870815384E+02  0.63420375960E+02  0.41800000000E+01 0. -1.
         -5    1    3    3    0  502  0.28797770881E+02  0.11484016388E+03  0.30630375561E+03  0.32841595264E+03  0.41800000000E+01 0. -1.
        -11    1    1    2    0    0  0.39660080673E+02 -0.34279038661E+02  0.61004493497E+02  0.80433343318E+02  0.00000000000E+00 0.  1.
         11    1    1    2    0    0 -0.36398017528E+02 -0.63641986925E+02  0.18881451460E+03  0.20254885609E+03  0.00000000000E+00 0. -1.
</event>
<event>
 7    1  0.2480409E-009  0.8431755E+02  0.7561462E-02  0.1317227E+00
          1   -1    0    0  501    0  0.00000000000E+00  0.00000000000E+00  0.28031776303E+03  0.28031776303E+03  0.00000000000E+00 0. -1.
         -1   -1    0    0    0  501 -0.00000000000E+00 -0.00000000000E+00 -0.43429768432E+02  0.43429768432E+02  0.00000000000E+00 0.  1.
         25    2    1    2    0    0 -0.16428023182E+02  0.16780197522E+02  0.13917644411E+03  0.18859280038E+03  0.12508279972E+03 0.  0.
          5    1    3    3  502    0  0.17272511057E+01 -0.27967075558E+02  0.13718659314E+03  0.14008131370E+03  0.41800000000E+01 0. -1.
         -5    1    3    3    0  502 -0.18155274288E+02  0.44747273080E+02  0.19898509717E+01  0.48511486675E+02  0.41800000000E+01 0. -1.
        -11    1    1    2    0    0  0.15883092543E+01  0.36495553942E+02  0.51179618401E+02  0.62879261474E+02  0.00000000000E+00 0. -1.
         11    1    1    2    0    0  0.14839713928E+02 -0.53275751464E+02  0.46531932082E+02  0.72275469606E+02  0.00000000000E+00 0.  1.
</event>
<event>
 7    1  0.2480409E-009  0.1667506E+03  0.7561462E-02  0.1181279E+00
          1   -1    0    0  501    0  0.00000000000E+00  0.00000000000E+00  0.25711819955E+03  0.25711819955E+03  0.00000000000E+00 0. -1.
         -1   -1    0    0    0  501 -0.00000000000E+00 -0.00000000000E+00 -0.13642867791E+03  0.13642867791E+03  0.00000000000E+00 0.  1.
         25    2    1    2    0    0  0.45614558455E+02  0.14544686193E+03  0.66336036164E+02  0.20804852502E+03  0.12509293138E+03 0.  0.
          5    1    3    3  502    0  0.65990678907E+02  0.59494384172E+02  0.78685325340E+02  0.11875691253E+03  0.41800000000E+01 0. -1.
         -5    1    3    3    0  502 -0.20376120452E+02  0.85952477758E+02 -0.12349289176E+02  0.89291612488E+02  0.41800000000E+01 0. -1.
        -11    1    1    2    0    0 -0.42880655696E+02 -0.81311020054E+02  0.74385234475E+02  0.11825140897E+03  0.00000000000E+00 0. -1.
         11    1    1    2    0    0 -0.27339027592E+01 -0.64135841877E+02 -0.20031749005E+02  0.67246943468E+02  0.00000000000E+00 0.  1.
</event>
<event>
 7    1  0.2480409E-009  0.2291757E+03  0.7561462E-02  0.1127221E+00
          2   -1    0    0  501    0  0.00000000000E+00  0.00000000000E+00  0.66801236735E+03  0.66801236735E+03  0.00000000000E+00 0. -1.
         -2   -1    0    0    0  501 -0.00000000000E+00 -0.00000000000E+00 -0.87270322509E+02  0.87270322509E+02  0.00000000000E+00 0.  1.
         25    2    1    2    0    0  0.15750518905E+03 -0.13658595757E+03  0.21450575766E+03  0.32422763539E+03  0.12508889278E+03 0.  0.
          5    1    3    3  502    0 -0.11787493032E+02 -0.36597151635E+02  0.70738839268E+02  0.80621041179E+02  0.41800000000E+01 0.  1.
         -5    1    3    3    0  502  0.16929268208E+03 -0.99988805937E+02  0.14376691840E+03  0.24360659421E+03  0.41800000000E+01 0.  1.
        -11    1    1    2    0    0 -0.93292250109E+01  0.51108640410E+02  0.12459326841E+03  0.13499114822E+03  0.00000000000E+00 0.  1.
         11    1    1    2    0    0 -0.14817596403E+03  0.85477317163E+02  0.24164301877E+03  0.29606390625E+03  0.00000000000E+00 0. -1.
</event>
<event>
 7    1  0.2480409E-009  0.1961511E+03  0.7561462E-02  0.1153028E+00
          1   -1    0    0  501    0  0.00000000000E+00  0.00000000000E+00  0.52251102591E+02  0.52251102591E+02  0.00000000000E+00 0. -1.
         -1   -1    0    0    0  501 -0.00000000000E+00 -0.00000000000E+00 -0.88428578395E+03  0.88428578395E+03  0.00000000000E+00 0.  1.
         25    2    1    2    0    0  0.18004085180E+03  0.41931254518E+02 -0.44903421682E+03  0.50144830666E+03  0.12508292431E+03 0.  0.
          5    1    3    3  502    0  0.16438129961E+03  0.11844916074E+02 -0.24975460123E+03  0.29925966473E+03  0.41800000000E+01 0.  1.
         -5    1    3    3    0  502  0.15659552193E+02  0.30086338444E+02 -0.19927961559E+03  0.20218864193E+03  0.41800000000E+01 0.  1.
        -11    1    1    2    0    0 -0.25919155941E+02  0.13818358039E+02 -0.13263848997E+03  0.13585182622E+03  0.00000000000E+00 0.  1.
         11    1    1    2    0    0 -0.15412169586E+03 -0.55749612557E+02 -0.25036197457E+03  0.29923675367E+03  0.00000000000E+00 0. -1.
</event>
<event>
 7    1  0.2480409E-009  0.1404911E+03  0.7561462E-02  0.1212670E+00
          2   -1    0    0  501    0  0.00000000000E+00  0.00000000000E+00  0.11300077744E+03  0.11300077744E+03  0.00000000000E+00 0. -1.
         -2   -1    0    0    0  501 -0.00000000000E+00 -0.00000000000E+00 -0.19869934821E+03  0.19869934821E+03  0.00000000000E+00 0.  1.
         25    2    1    2    0    0  0.96033124051E+02 -0.18216798919E+02 -0.17047877719E+02  0.15966322517E+03  0.12508997825E+03 0.  0.
          5    1    3    3  502    0  0.87237779296E+02 -0.59428955928E+02  0.14807598649E+02  0.10667224717E+03  0.41800000000E+01 0. -1.
         -5    1    3    3    0  502  0.87953447549E+01  0.41212157008E+02 -0.31855476368E+02  0.52990977999E+02  0.41800000000E+01 0. -1.
        -11    1    1    2    0    0 -0.71468909762E+01  0.40689626094E+02 -0.35737599188E+02  0.54625083231E+02  0.00000000000E+00 0.  1.
         11    1    1    2    0    0 -0.88886233074E+02 -0.22472827175E+02 -0.32913093857E+02  0.97411817243E+02  0.00000000000E+00 0. -1.
</event>
<event>
 7    1  0.2480409E-009  0.2020718E+03  0.7561462E-02  0.1148003E+00
         -2   -1    0    0    0  501 -0.00000000000E+00  0.00000000000E+00  0.68791727117E+02  0.68791727117E+02  0.00000000000E+00 0.  1.
          2   -1    0    0  501    0  0.00000000000E+00 -0.00000000000E+00 -0.62557060549E+03  0.62557060549E+03  0.00000000000E+00 0. -1.
         25    2    1    2    0    0 -0.13302837707E+02  0.17409388559E+03 -0.32841787346E+03  0.39241468129E+03  0.12508131752E+03 0.  0.
          5    1    3    3  502    0 -0.58097706525E+02  0.48019288074E+02 -0.78518353130E+02  0.10892107101E+03  0.41800000000E+01 0. -1.
         -5    1    3    3    0  502  0.44794868819E+02  0.12607459752E+03 -0.24989952033E+03  0.28349361028E+03  0.41800000000E+01 0. -1.
        -11    1    1    2    0    0 -0.26830198613E+02 -0.13873391279E+03 -0.14173938293E+03  0.20014247622E+03  0.00000000000E+00 0.  1.
         11    1    1    2    0    0  0.40133036320E+02 -0.35359972795E+02 -0.86621621987E+02  0.10180517509E+03  0.00000000000E+00 0. -1.
</event>
<event>
 7    1  0.2480409E-009  0.9835969E+02  0.7561462E-02  0.1283784E+00
         -1   -1    0    0    0  501 -0.00000000000E+00  0.00000000000E+00  0.26777354174E+02  0.26777354174E+02  0.00000000000E+00 0.  1.
          1   -1    0    0  501    0  0.00000000000E+00 -0.00000000000E+00 -0.54647212769E+03  0.54647212769E+03  0.00000000000E+00 0. -1.
         25    2    1    2    0    0  0.54479224486E+01 -0.16498817927E+01 -0.40250077338E+03  0.42152879682E+03  0.12508897637E+03 0.  0.
          5    1    3    3  502    0 -0.44014048497E+01  0.52940060142E+02 -0.30194909837E+03  0.30661499105E+03  0.41800000000E+01 0.  1.
         -5    1    3    3    0  502  0.98493272983E+01 -0.54589941935E+02 -0.10055167502E+03  0.11491380577E+03  0.41800000000E+01 0.  1.
        -11    1    1    2    0    0  0.11409495566E+02  0.42292200277E+02 -0.27242329189E+02  0.51584409398E+02  0.00000000000E+00 0.  1.
         11    1    1    2    0    0 -0.16857418015E+02 -0.40642318484E+02 -0.89951670942E+02  0.10013627564E+03  0.00000000000E+00 0. -1.
</event>
<event>
 7    1  0.2480409E-009  0.1518851E+03  0.7561462E-02  0.1198176E+00
         -1   -1    0    0    0  501 -0.00000000000E+00  0.00000000000E+00  0.29341543332E+03  0.29341543332E+03  0.00000000000E+00 0.  1.
          1   -1    0    0  501    0  0.00000000000E+00 -0.00000000000E+00 -0.10853429002E+03  0.10853429002E+03  0.00000000000E+00 0. -1.
         25    2    1    2    0    0  0.13988280587E+03  0.84531907527E+00  0.12206901299E+03  0.22386808482E+03  0.12509261180E+03 0.  0.
          5    1    3    3  502    0  0.85708662967E+02  0.11396161927E+02 -0.35068512795E+01  0.86634968807E+02  0.41800000000E+01 0.  1.
         -5    1    3    3    0  502  0.54174142901E+02 -0.10550842852E+02  0.12557586427E+03  0.13723311602E+03  0.41800000000E+01 0.  1.
        -11    1    1    2    0    0 -0.13132756856E+03 -0.27228519281E+02  0.67178781221E+02  0.15000437051E+03  0.00000000000E+00 0.  1.
         11    1    1    2    0    0 -0.85552373074E+01  0.26383200206E+02 -0.43666509205E+01  0.28077268007E+02  0.00000000000E+00 0. -1.
</event>
<event>
 7    1  0.2480409E-009  0.1916620E+03  0.7561462E-02  0.1156971E+00
         -2   -1    0    0    0  501 -0.00000000000E+00  0.00000000000E+00  0.10396616508E+04  0.10396616508E+04  0.00000000000E+00 0.  1.
          2   -1    0    0  501    0  0.00000000000E+00 -0.00000000000E+00 -0.77124318351E+02  0.77124318351E+02  0.00000000000E+00 0. -1.
         25    2    1    2    0    0 -0.17137233515E+03  0.10727342695E+02  0.88266226118E+03  0.90786776462E+03  0.12509059750E+03 0.  0.
          5    1    3    3  502    0  0.59829053548E+01 -0.28504977403E+02  0.91673348672E+02  0.96279822133E+02  0.41800000000E+01 0.  1.
         -5    1    3    3    0  502 -0.17735524051E+03  0.39232320097E+02  0.79098891251E+03  0.81158794249E+03  0.41800000000E+01 0.  1.
        -11    1    1    2    0    0  0.49902462866E+02 -0.91153198197E+01  0.70802135358E+02  0.87099295214E+02  0.00000000000E+00 0.  1.
         11    1    1    2    0    0  0.12146987229E+03 -0.16120228750E+01  0.90729358623E+01  0.12181890927E+03  0.00000000000E+00 0. -1.
</event>
<event>
 7    1  0.2480409E-009  0.5404293E+02  0.7561462E-02  0.1424680E+00
         -2   -1    0    0    0  501 -0.00000000000E+00  0.00000000000E+00  0.64077343185E+02  0.64077343185E+02  0.00000000000E+00 0. -1.
          2   -1    0    0  501    0  0.00000000000E+00 -0.00000000000E+00 -0.22967076868E+03  0.22967076868E+03  0.00000000000E+00 0.  1.
         25    2    1    2    0    0  0.16851388701E+02  0.41198015336E+02 -0.54184150195E+02  0.14340870543E+03  0.12509551907E+03 0.  0.
          5    1    3    3  502    0  0.19861107187E+02  0.34384505521E+02  0.35434566474E+02  0.53383880524E+02  0.41800000000E+01 0. -1.
         -5    1    3    3    0  502 -0.30097184864E+01  0.68135098148E+01 -0.89618716669E+02  0.90024824903E+02  0.41800000000E+01 0. -1.
        -11    1    1    2    0    0 -0.29804807983E+02 -0.31997383018E+02 -0.12308525576E+03  0.13062212403E+03  0.00000000000E+00 0.  1.
         11    1    1    2    0    0  0.12953419282E+02 -0.92006323178E+01  0.11675980460E+02  0.19717282415E+02  0.00000000000E+00 0. -1.
</event>
<event>
 7    1  0.2480409E-009  0.9183177E+02  0.7561462E-02  0.1298475E+00
         -1   -1    0    0    0  501 -0.00000000000E+00  0.00000000000E+00  0.30237473673E+02  0.30237473673E+02  0.00000000000E+00 0.  1.
          1   -1    0    0  501    0  0.00000000000E+00 -0.00000000000E+00 -0.69801925476E+03  0.69801925476E+03  0.00000000000E+00 0. -1.
         25    2    1    2    0    0 -0.58311539929E+01 -0.45463612571E+02 -0.57392756066E+03  0.58918718672E+03  0.12509098166E+03 0.  0.
          5    1    3    3  502    0 -0.49910224143E+02 -0.63602872563E+02 -0.42880410090E+03  0.43637917597E+03  0.41800000000E+01 0.  1.
         -5    1    3    3    0  502  0.44079070150E+02  0.18139259992E+02 -0.14512345975E+03  0.15280801075E+03  0.41800000000E+01 0.  1.
        -11    1    1    2    0    0  0.15492238669E+02  0.10826836996E+02  0.15190827465E+02  0.24248527737E+02  0.00000000000E+00 0.  1.
         11    1    1    2    0    0 -0.96610846756E+01  0.34636775575E+02 -0.10904504789E+03  0.11482101397E+03  0.00000000000E+00 0. -1.
</event>
<event>
 7    1  0.3182909E-009  0.1578778E+03  0.7561462E-02  0.1191114E+00
          1   -1    0    0  501    0  0.00000000000E+00  0.00000000000E+00  0.27148052701E+03  0.27148052701E+03  0.00000000000E+00 0. -1.
         -1   -1    0    0    0  501 -0.00000000000E+00 -0.00000000000E+00 -0.11009556719E+03  0.11009556719E+03  0.00000000000E+00 0.  1.
         25    2    1    2    0    0 -0.10576307419E+03  0.82657657882E+02  0.82228005861E+02  0.20106548847E+03  0.12509104459E+03 0.  0.
          5    1    3    3  502    0  0.16987703713E+02  0.47394529604E+02  0.45800617029E+02  0.68190853008E+02  0.41800000000E+01 0.  1.
         -5    1    3    3    0  502 -0.12275077791E+03  0.35263128279E+02  0.36427388833E+02  0.13287463546E+03  0.41800000000E+01 0.  1.
        -11    1    1    2    0    0  0.53007522836E+02 -0.22910811509E+02  0.82538961614E+02  0.10073421934E+03  0.00000000000E+00 0. -1.
         11    1    1    2    0    0  0.52755551358E+02 -0.59746846373E+02 -0.33820076511E+01  0.79776386395E+02  0.00000000000E+00 0.  1.
</event>
<event>
 7    1  0.2480409E-009  0.1878521E+03  0.7561462E-02  0.1160413E+00
         -1   -1    0    0    0  501 -0.00000000000E+00  0.00000000000E+00  0.80201757001E+03  0.80201757001E+03  0.00000000000E+00 0.  1.
          1   -1    0    0  501    0  0.00000000000E+00 -0.00000000000E+00 -0.56036222628E+02  0.56036222628E+02  0.00000000000E+00 0. -1.
         25    2    1    2    0    0 -0.17693904802E+03  0.19987663580E+02  0.45719766545E+03  0.50634475455E+03  0.12509345213E+03 0.  0.
          5    1    3    3  502    0 -0.11287330782E+03  0.51346844350E+02  0.17043030100E+03  0.21080996642E+03  0.41800000000E+01 0. -1.
         -5    1    3    3    0  502 -0.64065740200E+02 -0.31359180770E+02  0.28676736445E+03  0.29553478813E+03  0.41800000000E+01 0. -1.
        -11    1    1    2    0    0  0.56247860271E+02  0.64789773237E+01  0.28064902377E+02  0.63193652195E+02  0.00000000000E+00 0. -1.
         11    1    1    2    0    0  0.12069118775E+03 -0.26466640904E+02  0.26071877956E+03  0.28851538589E+03  0.00000000000E+00 0.  1.
</event>
<event>
 7    1  0.2480409E-009  0.8108043E+02  0.7561462E-02  0.1326013E+00
         -1   -1    0    0    0  501 -0.00000000000E+00  0.00000000000E+00  0.43433736343E+03  0.43433736343E+03  0.00000000000E+00 0.  1.
          1   -1    0    0  501    0  0.00000000000E+00 -0.00000000000E+00 -0.31542795702E+02  0.31542795702E+02  0.00000000000E+00 0. -1.
         25    2    1    2    0    0 -0.39314377841E+02  0.20566091463E+01  0.27565302778E+03  0.30525315854E+03  0.12508017080E+03 0.  0.
          5    1    3    3  502    0 -0.56413275328E+02 -0.42157937216E+02  0.94358633802E+02  0.11781669439E+03  0.41800000000E+01 0.  1.
         -5    1    3    3    0  502  0.17098897487E+02  0.44214546362E+02  0.18129439398E+03  0.18743646415E+03  0.41800000000E+01 0.  1.
        -11    1    1    2    0    0  0.20827481252E+02 -0.10923779466E+02  0.13619715803E+03  0.13821280255E+03  0.00000000000E+00 0.  1.
         11    1    1    2    0    0  0.18486896589E+02  0.88671703199E+01 -0.90556180842E+01  0.22414198042E+02  0.00000000000E+00 0. -1.
</event>
<event>
 7    1  0.2480409E-009  0.1672952E+03  0.7561462E-02  0.1180698E+00
          2   -1    0    0  501    0  0.00000000000E+00  0.00000000000E+00  0.11931022042E+03  0.11931022042E+03  0.00000000000E+00 0. -1.
         -2   -1    0    0    0  501 -0.00000000000E+00 -0.00000000000E+00 -0.30726332908E+03  0.30726332908E+03  0.00000000000E+00 0.  1.
         25    2    1    2    0    0 -0.12733429579E+03 -0.83013094892E+02 -0.14890639883E+03  0.24682954975E+03  0.12508602723E+03 0.  0.
          5    1    3    3  502    0  0.75626597478E+01 -0.40012329774E+02  0.51782325760E+00  0.40938012865E+02  0.41800000000E+01 0. -1.
         -5    1    3    3    0  502 -0.13489695554E+03 -0.43000765118E+02 -0.14942422209E+03  0.20589153689E+03  0.41800000000E+01 0. -1.
        -11    1    1    2    0    0  0.45447100615E+02  0.28914103976E+02 -0.58681442120E+02  0.79655357713E+02  0.00000000000E+00 0.  1.
         11    1    1    2    0    0  0.81887195179E+02  0.54098990916E+02  0.19634732290E+02  0.10008864204E+03  0.00000000000E+00 0. -1.
</event>
<event>
 7    1  0.2480409E-009  0.2422426E+03  0.7561462E-02  0.1118308E+00
          2   -1    0    0  501    0  0.00000000000E+00  0.00000000000E+00  0.11484708777E+04  0.11484708777E+04  0.00000000000E+00 0. -1.
         -2   -1    0    0    0  501 -0.00000000000E+00 -0.00000000000E+00 -0.57884763327E+02  0.57884763327E+02  0.00000000000E+00 0.  1.
         25    2    1    2    0    0 -0.65144088619E+02 -0.22013661762E+03  0.50760870855E+03  0.57097778986E+03  0.12508058529E+03 0.  0.
          5    1    3    3  502    0 -0.12463163644E+02 -0.19541244253E+03  0.32686457466E+03  0.38105022728E+03  0.41800000000E+01 0. -1.
         -5    1    3    3    0  502 -0.52680924975E+02 -0.24724175082E+02  0.18074413389E+03  0.18992756257E+03  0.41800000000E+01 0. -1.
        -11    1    1    2    0    0  0.38810467308E+02  0.99312997741E+02  0.40400910268E+03  0.41784288787E+03  0.00000000000E+00 0. -1.
         11    1    1    2    0    0  0.26333621311E+02  0.12082361988E+03  0.17896830318E+03  0.21753496333E+03  0.00000000000E+00 0.  1.
</event>
<event>
 7    1  0.2480409E-009  0.1033953E+03  0.7561462E-02  0.1273314E+00
          2   -1    0    0  501    0  0.00000000000E+00  0.00000000000E+00  0.37658334290E+03  0.37658334290E+03  0.00000000000E+00 0. -1.
         -2   -1    0    0    0  501 -0.00000000000E+00 -0.00000000000E+00 -0.41200997772E+02  0.41200997772E+02  0.00000000000E+00 0.  1.
         25    2    1    2    0    0 -0.14561434955E+02 -0.27768315519E+02  0.10125191846E+03  0.16396002235E+03  0.12509125949E+03 0.  0.
          5    1    3    3  502    0  0.38280160262E+02 -0.46196706338E+02  0.16589880369E+02  0.62387521804E+02  0.41800000000E+01 0. -1.
         -5    1    3    3    0  502 -0.52841595217E+02  0.18428390819E+02  0.84662038091E+02  0.10157250054E+03  0.41800000000E+01 0. -1.
        -11    1    1    2    0    0  0.49609473159E+02  0.78759533862E+01  0.17644863568E+03  0.18345912760E+03  0.00000000000E+00 0.  1.
         11    1    1    2    0    0 -0.35048038203E+02  0.19892362133E+02  0.57681790986E+02  0.70365190716E+02  0.00000000000E+00 0. -1.
</event>
<event>
 7    1  0.2882032E-009  0.1643380E+03  0.7561462E-02  0.1183884E+00
         -1   -1    0    0    0  501 -0.00000000000E+00  0.00000000000E+00  0.12340344403E+03  0.12340344403E+03  0.00000000000E+00 0.  1.
          1   -1    0    0  501    0  0.00000000000E+00 -0.00000000000E+00 -0.25213396162E+03  0.25213396162E+03  0.00000000000E+00 0. -1.
         25    2    1    2    0    0 -0.10902750804E+03  0.80321653211E+02 -0.36717096804E+02  0.18797291062E+03  0.12508838653E+03 0.  0.
          5    1    3    3  502    0 -0.61594157517E+02  0.11087353128E+03 -0.33777481507E+02  0.13132086976E+03  0.41800000000E+01 0.  1.
         -5    1    3    3    0  502 -0.47433350520E+02 -0.30551878068E+02 -0.29396152974E+01  0.56652040855E+02  0.41800000000E+01 0.  1.
        -11    1    1    2    0    0  0.23435174217E+02  0.54118706966E+01  0.12910664268E+02  0.27298003350E+02  0.00000000000E+00 0.  1.
         11    1    1    2    0    0  0.85592333820E+02 -0.85733523908E+02 -0.10492408506E+03  0.16026649168E+03  0.00000000000E+00 0. -1.
</event>
<event>
 7    1  0.2480409E-009  0.1149308E+03  0.7561462E-02  0.1251702E+00
         -1   -1    0    0    0  501 -0.00000000000E+00  0.00000000000E+00  0.15901097464E+03  0.15901097464E+03  0.00000000000E+00 0.  1.
          1   -1    0    0  501    0  0.00000000000E+00 -0.00000000000E+00 -0.12431926376E+03  0.12431926376E+03  0.00000000000E+00 0. -1.
         25    2    1    2    0    0  0.48749159535E+02  0.60910641155E+02  0.62193212958E+02  0.16001512519E+03  0.12510099037E+03 0.  0.
          5    1    3    3  502    0  0.56283005378E+02  0.74643147038E+02  0.88704992073E+02  0.12893961421E+03  0.41800000000E+01 0.  1.
         -5    1    3    3    0  502 -0.75338458432E+01 -0.13732505883E+02 -0.26511779115E+02  0.31075510983E+02  0.41800000000E+01 0.  1.
        -11    1    1    2    0    0  0.85893099663E+01 -0.62129783824E+02 -0.11422107426E+02  0.63752261307E+02  0.00000000000E+00 0.  1.
         11    1    1    2    0    0 -0.57338469501E+02  0.12191426687E+01 -0.16079394657E+02  0.59562851897E+02  0.00000000000E+00 0. -1.
</event>
<event>
 7    1  0.2480409E-009  0.1497305E+03  0.7561462E-02  0.1200805E+00
         -1   -1    0    0    0  501 -0.00000000000E+00  0.00000000000E+00  0.21245165581E+03  0.21245165581E+03  0.00000000000E+00 0.  1.
          1   -1    0    0  501    0  0.00000000000E+00 -0.00000000000E+00 -0.14305132054E+03  0.14305132054E+03  0.00000000000E+00 0. -1.
         25    2    1    2    0    0  0.88593628493E+02  0.10207504547E+03  0.26361449395E+02  0.18604255964E+03  0.12509501215E+03 0.  0.
          5    1    3    3  502    0  0.75725839323E+02  0.23161847070E+02 -0.33488917631E+02  0.86080508276E+02  0.41800000000E+01 0.  1.
         -5    1    3    3    0  502  0.12867789169E+02  0.78913198396E+02  0.59850367025E+02  0.99962051361E+02  0.41800000000E+01 0.  1.
        -11    1    1    2    0    0 -0.73308671835E+02 -0.10096486574E+03  0.10653119147E+01  0.12477660186E+03  0.00000000000E+00 0. -1.
         11    1    1    2    0    0 -0.15284956658E+02 -0.11101797210E+01  0.41973573962E+02  0.44683814857E+02  0.00000000000E+00 0.  1.
</event>
<event>
 7    1  0.2480409E-009  0.1724401E+03  0.7561462E-02  0.1175327E+00
         -4   -1    0    0    0  501 -0.00000000000E+00  0.00000000000E+00  0.23707611039E+03  0.23707611039E+03  0.00000000000E+00 0.  1.
          4   -1    0    0  501    0  0.00000000000E+00 -0.00000000000E+00 -0.16800545728E+03  0.16800545728E+03  0.00000000000E+00 0. -1.
         25    2    1    2    0    0  0.39436596518E+01 -0.15443447049E+03  0.10133075797E+03  0.22311526089E+03  0.12508772523E+03 0.  0.
          5    1    3    3  502    0 -0.31079084978E+02 -0.15122000611E+03  0.53170522912E+02  0.16333394221E+03  0.41800000000E+01 0. -1.
         -5    1    3    3    0  502  0.35022744630E+02 -0.32144643844E+01  0.48160235055E+02  0.59781318681E+02  0.41800000000E+01 0. -1.
        -11    1    1    2    0    0 -0.87333308173E+01  0.99600698519E+02  0.24457823611E+02  0.10293082798E+03  0.00000000000E+00 0.  1.
         11    1    1    2    0    0  0.47896711656E+01  0.54833771974E+02 -0.56717928471E+02  0.79035478798E+02  0.00000000000E+00 0. -1.
</event>
<event>
 7    1  0.2480409E-009  0.3200987E+03  0.7561462E-02  0.1075604E+00
          2   -1    0    0  501    0  0.00000000000E+00  0.00000000000E+00  0.15868052152E+04  0.15868052152E+04  0.00000000000E+00 0. -1.
         -2   -1    0    0    0  501 -0.00000000000E+00 -0.00000000000E+00 -0.64944307353E+02  0.64944307353E+02  0.00000000000E+00 0.  1.
         25    2    1    2    0    0 -0.13809581317E+03 -0.26847856274E+03  0.77051175306E+03  0.83695086774E+03  0.12508877307E+03 0.  0.
          5    1    3    3  502    0 -0.13380771985E+03 -0.13024413471E+03  0.48369305891E+03  0.51850215830E+03  0.41800000000E+01 0.  1.
         -5    1    3    3    0  502 -0.42880933209E+01 -0.13823442802E+03  0.28681869414E+03  0.31844870944E+03  0.41800000000E+01 0.  1.
        -11    1    1    2    0    0  0.14333588751E+03  0.19828220750E+03  0.57192552010E+03  0.62206093833E+03  0.00000000000E+00 0.  1.
         11    1    1    2    0    0 -0.52400743432E+01  0.70196355235E+02  0.17942363468E+03  0.19273771646E+03  0.00000000000E+00 0. -1.
</event>
<event>
 7    1  0.2480409E-009  0.9106149E+02  0.7561462E-02  0.1300301E+00
         -2   -1    0    0    0  501 -0.00000000000E+00  0.00000000000E+00  0.68454943134E+02  0.68454943134E+02  0.00000000000E+00 0.  1.
          2   -1    0    0  501    0  0.00000000000E+00 -0.00000000000E+00 -0.28243948991E+03  0.28243948991E+03  0.00000000000E+00 0. -1.
         25    2    1    2    0    0 -0.69999218050E+02  0.51524283907E+02 -0.13193975016E+03  0.20152088318E+03  0.12509167168E+03 0.  0.
          5    1    3    3  502    0 -0.56413262942E+02  0.28553636644E+02  0.34527561965E+01  0.63459911178E+02  0.41800000000E+01 0.  1.
         -5    1    3    3    0  502 -0.13585955108E+02  0.22970647263E+02 -0.13539250636E+03  0.13806097200E+03  0.41800000000E+01 0.  1.
        -11    1    1    2    0    0  0.25603693145E+02 -0.37074365757E+02 -0.91267721304E+02  0.10178337119E+03  0.00000000000E+00 0. -1.
         11    1    1    2    0    0  0.44395524906E+02 -0.14449918150E+02  0.92229246926E+01  0.47590178672E+02  0.00000000000E+00 0.  1.
</event>
<event>
 7    1  0.2480409E-009  0.1404691E+03  0.7561462E-02  0.1212699E+00
         -4   -1    0    0    0  501 -0.00000000000E+00  0.00000000000E+00  0.19942276080E+03  0.19942276080E+03  0.00000000000E+00 0.  1.
          4   -1    0    0  501    0  0.00000000000E+00 -0.00000000000E+00 -0.13297206399E+03  0.13297206399E+03  0.00000000000E+00 0. -1.
         25    2    1    2    0    0 -0.67285040067E+02 -0.83353490231E+02 -0.22170523578E+02  0.16617467945E+03  0.12508961198E+03 0.  0.
          5    1    3    3  502    0 -0.83695858399E+02 -0.10167724755E+03  0.15193674305E+01  0.13176888958E+03  0.41800000000E+01 0.  1.
         -5    1    3    3    0  502  0.16410818333E+02  0.18323757322E+02 -0.23689891009E+02  0.34405789872E+02  0.41800000000E+01 0.  1.
        -11    1    1    2    0    0  0.16944030389E+02  0.70172317664E+02  0.88466035943E+02  0.11418184553E+03  0.00000000000E+00 0.  1.
         11    1    1    2    0    0  0.50341009677E+02  0.13181172566E+02  0.15518444298E+00  0.52038299816E+02  0.00000000000E+00 0. -1.
</event>
<event>
 7    1  0.2480409E-009  0.1300569E+03  0.7561462E-02  0.1227371E+00
         -2   -1    0    0    0  501 -0.00000000000E+00  0.00000000000E+00  0.19348963339E+03  0.19348963339E+03  0.00000000000E+00 0.  1.
          2   -1    0    0  501    0  0.00000000000E+00 -0.00000000000E+00 -0.10661882145E+03  0.10661882145E+03  0.00000000000E+00 0. -1.
         25    2    1    2    0    0  0.87288554041E+01 -0.76212019932E+02  0.10505728406E+03  0.18047009536E+03  0.12509179625E+03 0.  0.
          5    1    3    3  502    0  0.43102663674E+02  0.16915178811E+02  0.24454161802E+02  0.52530384725E+02  0.41800000000E+01 0.  1.
         -5    1    3    3    0  502 -0.34373808270E+02 -0.93127198743E+02  0.80603122256E+02  0.12793971064E+03  0.41800000000E+01 0.  1.
        -11    1    1    2    0    0  0.34491093673E+02  0.57754896609E+02  0.45649530826E+01  0.67424790854E+02  0.00000000000E+00 0.  1.
         11    1    1    2    0    0 -0.43219949077E+02  0.18457123323E+02 -0.22751425204E+02  0.52213568624E+02  0.00000000000E+00 0. -1.
</event>
<event>
 7    1  0.2480409E-009  0.1146949E+03  0.7561462E-02  0.1252115E+00
          1   -1    0    0  501    0  0.00000000000E+00  0.00000000000E+00  0.81039981318E+02  0.81039981318E+02  0.00000000000E+00 0. -1.
         -1   -1    0    0    0  501 -0.00000000000E+00 -0.00000000000E+00 -0.20950421296E+03  0.20950421296E+03  0.00000000000E+00 0.  1.
         25    2    1    2    0    0  0.50328307784E+02 -0.14089524949E+02 -0.12711722673E+03  0.18584195915E+03  0.12508793375E+03 0.  0.
          5    1    3    3  502    0 -0.27112250644E+02  0.25689666521E+02 -0.76033317936E+02  0.84814921666E+02  0.41800000000E+01 0. -1.
         -5    1    3    3    0  502  0.77440558428E+02 -0.39779191471E+02 -0.51083908798E+02  0.10102703748E+03  0.41800000000E+01 0. -1.
        -11    1    1    2    0    0 -0.58625342071E+02  0.44195612909E+02  0.49429448045E+00  0.73419529148E+02  0.00000000000E+00 0. -1.
         11    1    1    2    0    0  0.82970342862E+01 -0.30106087960E+02 -0.18412993867E+01  0.31282705983E+02  0.00000000000E+00 0.  1.
</event>
<event>
 7    1  0.2480409E-009  0.1836338E+03  0.7561462E-02  0.1164332E+00
         -2   -1    0    0    0  501 -0.00000000000E+00  0.00000000000E+00  0.74377050999E+02  0.74377050999E+02  0.00000000000E+00 0.  1.
          2   -1    0    0  501    0  0.00000000000E+00 -0.00000000000E+00 -0.72386157101E+03  0.72386157101E+03  0.00000000000E+00 0. -1.
         25    2    1    2    0    0 -0.16919647876E+03  0.32166840070E+02 -0.14520438390E+03  0.25766319703E+03  0.12507540114E+03 0.  0.
          5    1    3    3  502    0 -0.10319188487E+03 -0.15700507149E+02 -0.17244554080E+02  0.10587690056E+03  0.41800000000E+01 0. -1.
         -5    1    3    3    0  502 -0.66004593892E+02  0.47867347220E+02 -0.12795982982E+03  0.15178629646E+03  0.41800000000E+01 0. -1.
        -11    1    1    2    0    0  0.49270997812E+02 -0.36247568000E+02 -0.27580319771E+03  0.28250472789E+03  0.00000000000E+00 0.  1.
         11    1    1    2    0    0  0.11992548095E+03  0.40807279297E+01 -0.22847693840E+03  0.25807069710E+03  0.00000000000E+00 0. -1.
</event>
<event>
 7    1  0.2480409E-009  0.1573858E+03  0.7561462E-02  0.1191680E+00
          2   -1    0    0  501    0  0.00000000000E+00  0.00000000000E+00  0.20287871122E+02  0.20287871122E+02  0.00000000000E+00 0.  1.
         -2   -1    0    0    0  501 -0.00000000000E+00 -0.00000000000E+00 -0.12965452617E+04  0.12965452617E+04  0.00000000000E+00 0. -1.
         25    2    1    2    0    0  0.81399466827E+02  0.87984429935E+02 -0.70294831423E+03  0.72398320127E+03  0.12509280602E+03 0.  0.
          5    1    3    3  502    0  0.63575371585E+01 -0.26358553515E+02 -0.23025228864E+03  0.23188096180E+03  0.41800000000E+01 0. -1.
         -5    1    3    3    0  502  0.75041929669E+02  0.11434298345E+03 -0.47269602560E+03  0.49210223946E+03  0.41800000000E+01 0. -1.
        -11    1    1    2    0    0 -0.33438714112E+02 -0.96199418422E+02 -0.36590824968E+03  0.37981748628E+03  0.00000000000E+00 0.  1.
         11    1    1    2    0    0 -0.47960752715E+02  0.82149884873E+01 -0.20740082669E+03  0.21303244529E+03  0.00000000000E+00 0. -1.
</event>
<event>
 7    1  0.2488011E-009  0.9910550E+02  0.7561462E-02  0.1282188E+00
         -1   -1    0    0    0  501 -0.00000000000E+00  0.00000000000E+00  0.12983377020E+02  0.12983377020E+02  0.00000000000E+00 0.  1.
          1   -1    0    0  501    0  0.00000000000E+00 -0.00000000000E+00 -0.13381564668E+04  0.13381564668E+04  0.00000000000E+00 0. -1.
         25    2    1    2    0    0  0.14486310590E+02 -0.73492559980E+02 -0.74187437888E+03  0.75606713911E+03  0.12509562434E+03 0.  0.
          5    1    3    3  502    0  0.15530198836E+02 -0.74995443082E+01 -0.84279477031E+01  0.19645176080E+02  0.41800000000E+01 0. -1.
         -5    1    3    3    0  502 -0.10438882467E+01 -0.65993015672E+02 -0.73344643118E+03  0.73642196303E+03  0.41800000000E+01 0. -1.
        -11    1    1    2    0    0  0.10564623679E+02  0.85781204043E+02 -0.49440430741E+03  0.50190202772E+03  0.00000000000E+00 0. -1.
         11    1    1    2    0    0 -0.25050934268E+02 -0.12288644063E+02 -0.88894403509E+02  0.93170677017E+02  0.00000000000E+00 0.  1.
</event>
<event>
 7    1  0.2480409E-009  0.1060152E+03  0.7561462E-02  0.1268132E+00
         -3   -1    0    0    0  501 -0.00000000000E+00  0.00000000000E+00  0.10666721850E+03  0.10666721850E+03  0.00000000000E+00 0.  1.
          3   -1    0    0  501    0  0.00000000000E+00 -0.00000000000E+00 -0.13018866352E+03  0.13018866352E+03  0.00000000000E+00 0. -1.
         25    2    1    2    0    0 -0.14579718919E+02  0.30629061299E+02  0.21438687732E+02  0.13136969702E+03  0.12509065658E+03 0.  0.
          5    1    3    3  502    0  0.31051033654E+02 -0.36643973318E+02  0.81298178898E+01  0.48892880979E+02  0.41800000000E+01 0.  1.
         -5    1    3    3    0  502 -0.45630752573E+02  0.67273034617E+02  0.13308869842E+02  0.82476816036E+02  0.41800000000E+01 0.  1.
        -11    1    1    2    0    0  0.63308749498E+01  0.25202029493E+02 -0.41473355359E+02  0.48941408571E+02  0.00000000000E+00 0. -1.
         11    1    1    2    0    0  0.82488439695E+01 -0.55831090792E+02 -0.34867773964E+01  0.56544776438E+02  0.00000000000E+00 0.  1.
</event>
<event>
 7    1  0.2480409E-009  0.1809436E+03  0.7561462E-02  0.1166893E+00
          1   -1    0    0  501    0  0.00000000000E+00  0.00000000000E+00  0.53536453549E+03  0.53536453549E+03  0.00000000000E+00 0. -1.
         -1   -1    0    0    0  501 -0.00000000000E+00 -0.00000000000E+00 -0.69010002540E+02  0.69010002540E+02  0.00000000000E+00 0.  1.
         25    2    1    2    0    0  0.85036715912E+02  0.13347671860E+03  0.23212235477E+03  0.30752933737E+03  0.12508488436E+03 0.  0.
          5    1    3    3  502    0  0.99101442472E+02  0.13152675598E+03  0.14593207683E+03  0.22007732025E+03  0.41800000000E+01 0.  1.
         -5    1    3    3    0  502 -0.14064726560E+02  0.19499626245E+01  0.86190277940E+02  0.87452017122E+02  0.41800000000E+01 0.  1.
        -11    1    1    2    0    0  0.17505011599E+02 -0.39722786618E+02  0.56418699968E+02  0.71185636991E+02  0.00000000000E+00 0. -1.
         11    1    1    2    0    0 -0.10254172751E+03 -0.93753931983E+02  0.17781347821E+03  0.22565956367E+03  0.00000000000E+00 0.  1.
</event>
<event>
 7    1  0.2480409E-009  0.1400611E+03  0.7561462E-02  0.1213247E+00
         -2   -1    0    0    0  501 -0.00000000000E+00  0.00000000000E+00  0.24681747172E+02  0.24681747172E+02  0.00000000000E+00 0.  1.
          2   -1    0    0  501    0  0.00000000000E+00 -0.00000000000E+00 -0.93112020592E+03  0.93112020592E+03  0.00000000000E+00 0. -1.
         25    2    1    2    0    0 -0.76340818003E+02 -0.73129477029E+02 -0.50629185515E+03  0.53212274850E+03  0.12508931201E+03 0.  0.
          5    1    3    3  502    0  0.28433490521E+02 -0.46550597527E+02 -0.14467692739E+03  0.15467484356E+03  0.41800000000E+01 0.  1.
         -5    1    3    3    0  502 -0.10477430852E+03 -0.26578879502E+02 -0.36161492776E+03  0.37744790494E+03  0.41800000000E+01 0.  1.
        -11    1    1    2    0    0  0.25562065764E+02  0.59357778223E+02 -0.10076349220E+03  0.11970817182E+03  0.00000000000E+00 0.  1.
         11    1    1    2    0    0  0.50778752239E+02  0.13771698805E+02 -0.29938311141E+03  0.30397103277E+03  0.00000000000E+00 0. -1.
</event>
<event>
 7    1  0.2480409E-009  0.1077136E+03  0.7561462E-02  0.1264864E+00
          1   -1    0    0  501    0  0.00000000000E+00  0.00000000000E+00  0.57854661832E+02  0.57854661832E+02  0.00000000000E+00 0.  1.
         -1   -1    0    0    0  501 -0.00000000000E+00 -0.00000000000E+00 -0.26827935223E+03  0.26827935223E+03  0.00000000000E+00 0. -1.
         25    2    1    2    0    0  0.51932156505E+02  0.31427053559E+02 -0.13695265028E+03  0.19516144258E+03  0.12508937477E+03 0.  0.
          5    1    3    3  502    0 -0.39285210068E+02  0.71003074025E+01 -0.64972228770E+02  0.76371493416E+02  0.41800000000E+01 0. -1.
         -5    1    3    3    0  502  0.91217366574E+02  0.24326746156E+02 -0.71980421506E+02  0.11878994917E+03  0.41800000000E+01 0. -1.
        -11    1    1    2    0    0  0.96084913717E+01  0.32596109528E+01  0.14780940419E+02  0.17928311958E+02  0.00000000000E+00 0.  1.
         11    1    1    2    0    0 -0.61540647877E+02 -0.34686664512E+02 -0.88252980544E+02  0.11304425952E+03  0.00000000000E+00 0. -1.
</event>
<event>
 7    1  0.3015788E-009  0.9957428E+02  0.7561462E-02  0.1281194E+00
         -2   -1    0    0    0  501 -0.00000000000E+00  0.00000000000E+00  0.58403375460E+02  0.58403375460E+02  0.00000000000E+00 0.  1.
          2   -1    0    0  501    0  0.00000000000E+00 -0.00000000000E+00 -0.29064738634E+03  0.29064738634E+03  0.00000000000E+00 0. -1.
         25    2    1    2    0    0  0.36070757490E+02 -0.57505792030E+02 -0.16331597037E+03  0.21662673769E+03  0.12508805555E+03 0.  0.
          5    1    3    3  502    0 -0.12657960307E+02 -0.22285963556E+02  0.13891584352E+02  0.29450579733E+02  0.41800000000E+01 0. -1.
         -5    1    3    3    0  502  0.48728717797E+02 -0.35219828473E+02 -0.17720755473E+03  0.18717615796E+03  0.41800000000E+01 0. -1.
        -11    1    1    2    0    0 -0.34219915820E+02 -0.17118948256E+02 -0.20053307460E+02  0.43199492685E+02  0.00000000000E+00 0. -1.
         11    1    1    2    0    0 -0.18508416695E+01  0.74624740285E+02 -0.48874733046E+02  0.89224531424E+02  0.00000000000E+00 0.  1.
</event>
<event>
 7    1  0.2480409E-009  0.1645806E+03  0.7561462E-02  0.1183620E+00
          1   -1    0    0  501    0  0.00000000000E+00  0.00000000000E+00  0.11372890178E+04  0.11372890178E+04  0.00000000000E+00 0. -1.
         -1   -1    0    0    0  501 -0.00000000000E+00 -0.00000000000E+00 -0.43033074141E+02  0.43033074141E+02  0.00000000000E+00 0.  1.
         25    2    1    2    0    0  0.10591721513E+03  0.11314490920E+03  0.87278396760E+03  0.89522058443E+03  0.12509122174E+03 0.  0.
          5    1    3    3  502    0  0.21233964179E+02 -0.70542050116E+01  0.21462859338E+02  0.31285296451E+02  0.41800000000E+01 0.  1.
         -5    1    3    3    0  502  0.84683250954E+02  0.12019911421E+03  0.85132110826E+03  0.86393528798E+03  0.41800000000E+01 0.  1.
        -11    1    1    2    0    0 -0.16244282577E+02 -0.41370675405E+02  0.13267004461E+03  0.13991694049E+03  0.00000000000E+00 0. -1.
         11    1    1    2    0    0 -0.89672932556E+02 -0.71774233792E+02  0.88801931447E+02  0.14518456701E+03  0.00000000000E+00 0.  1.
</event>
<event>
 7    1  0.2480409E-009  0.1487067E+03  0.7561462E-02  0.1202071E+00
         -1   -1    0    0    0  501 -0.00000000000E+00  0.00000000000E+00  0.38162131056E+02  0.38162131056E+02  0.00000000000E+00 0.  1.
          1   -1    0    0  501    0  0.00000000000E+00 -0.00000000000E+00 -0.77865652523E+03  0.77865652523E+03  0.00000000000E+00 0. -1.
         25    2    1    2    0    0  0.11108297884E+03 -0.31879248128E+02 -0.23305485882E+03  0.28864834583E+03  0.12509031009E+03 0.  0.
          5    1    3    3  502    0  0.83601605215E+02  0.31377416060E+02 -0.18189562974E+03  0.20267526527E+03  0.41800000000E+01 0.  1.
         -5    1    3    3    0  502  0.27481373625E+02 -0.63256664189E+02 -0.51159229086E+02  0.85973080562E+02  0.41800000000E+01 0.  1.
        -11    1    1    2    0    0 -0.26281447769E+02  0.45977940863E+02 -0.11774952513E+03  0.12911094536E+03  0.00000000000E+00 0.  1.
         11    1    1    2    0    0 -0.84801531071E+02 -0.14098692735E+02 -0.38969001022E+03  0.39905936510E+03  0.00000000000E+00 0. -1.
</event>
<event>
 7    1  0.2480409E-009  0.2811387E+03  0.7561462E-02  0.1095069E+00
         -4   -1    0    0    0  501 -0.00000000000E+00  0.00000000000E+00  0.62912751434E+02  0.62912751434E+02  0.00000000000E+00 0.  1.
          4   -1    0    0  501    0  0.00000000000E+00 -0.00000000000E+00 -0.13964036890E+04  0.13964036890E+04  0.00000000000E+00 0. -1.
         25    2    1    2    0    0  0.15449764373E+03 -0.22285008532E+03 -0.79480850913E+03  0.84905818530E+03  0.12509018106E+03 0.  0.
          5    1    3    3  502    0  0.10911751294E+03 -0.21680657573E+03 -0.56903207901E+03  0.61864909460E+03  0.41800000000E+01 0. -1.
         -5    1    3    3    0  502  0.45380130794E+02 -0.60435095835E+01 -0.22577643012E+03  0.23040909070E+03  0.41800000000E+01 0. -1.
        -11    1    1    2    0    0 -0.77210289115E+02  0.80293606390E+02 -0.31397472360E+03  0.33314954455E+03  0.00000000000E+00 0. -1.
         11    1    1    2    0    0 -0.77287354620E+02  0.14255647893E+03 -0.22470770484E+03  0.27710871058E+03  0.00000000000E+00 0.  1.
</event>
<event>
 7    1  0.2480409E-009  0.1202160E+03  0.7561462E-02  0.1242741E+00
          2   -1    0    0  501    0  0.00000000000E+00  0.00000000000E+00  0.21136421299E+03  0.21136421299E+03  0.00000000000E+00 0. -1.
         -2   -1    0    0    0  501 -0.00000000000E+00 -0.00000000000E+00 -0.94648004759E+02  0.94648004759E+02  0.00000000000E+00 0.  1.
         25    2    1    2    0    0 -0.42360307423E+02  0.49277739600E+02  0.13336610163E+03  0.19405443152E+03  0.12509162267E+03 0.  0.
          5    1    3    3  502    0 -0.58870231547E+02  0.77252679217E+02  0.12820890394E+03  0.16089958377E+03  0.41800000000E+01 0. -1.
         -5    1    3    3    0  502  0.16509924125E+02 -0.27974939617E+02  0.51571976954E+01  0.33154847749E+02  0.41800000000E+01 0. -1.
        -11    1    1    2    0    0  0.44678709792E+02 -0.73562989811E+02 -0.98347667883E+01  0.86628074066E+02  0.00000000000E+00 0.  1.
         11    1    1    2    0    0 -0.23184023697E+01  0.24285250211E+02 -0.68151266174E+01  0.25329712161E+02  0.00000000000E+00 0. -1.
</event>
<event>
 7    1  0.2480409E-009  0.6447064E+02  0.7561462E-02  0.1379974E+00
          2   -1    0    0  501    0  0.00000000000E+00  0.00000000000E+00  0.37297257379E+03  0.37297257379E+03  0.00000000000E+00 0. -1.
         -2   -1    0    0    0  501 -0.00000000000E+00 -0.00000000000E+00 -0.35500354936E+02  0.35500354936E+02  0.00000000000E+00 0.  1.
         25    2    1    2    0    0  0.29521486669E+02 -0.18302603363E+02  0.20563710536E+03  0.24318043061E+03  0.12507437494E+03 0.  0.
          5    1    3    3  502    0  0.45470498080E+02 -0.26083133656E+02  0.21593211084E+03  0.22224321126E+03  0.41800000000E+01 0.  1.
         -5    1    3    3    0  502 -0.15949011411E+02  0.77805302936E+01 -0.10295005480E+02  0.20937219358E+02  0.41800000000E+01 0.  1.
        -11    1    1    2    0    0 -0.14814772167E+02 -0.15389317101E+02  0.12632696243E+03  0.12812029500E+03  0.00000000000E+00 0. -1.
         11    1    1    2    0    0 -0.14706714502E+02  0.33691920463E+02  0.55081510670E+01  0.37172203111E+02  0.00000000000E+00 0.  1.
</event>
<event>
 7    1  0.2480409E-009  0.1375418E+03  0.7561462E-02  0.1216675E+00
          1   -1    0    0  501    0  0.00000000000E+00  0.00000000000E+00  0.18042089922E+03  0.18042089922E+03  0.00000000000E+00 0. -1.
         -1   -1    0    0    0  501 -0.00000000000E+00 -0.00000000000E+00 -0.13258988217E+03  0.13258988217E+03  0.00000000000E+00 0.  1.
         25    2    1    2    0    0  0.10464435680E+03  0.26242048690E+02  0.31779003212E+01  0.16521637467E+03  0.12508902781E+03 0.  0.
          5    1    3    3  502    0  0.11369053700E+03  0.60801018529E+02  0.60325038987E+01  0.12913622869E+03  0.41800000000E+01 0. -1.
         -5    1    3    3    0  502 -0.90461801979E+01 -0.34558969839E+02 -0.28546035775E+01  0.36080145982E+02  0.41800000000E+01 0. -1.
        -11    1    1    2    0    0 -0.83247798541E+02 -0.11271138783E+02 -0.12524335780E+02  0.84935819994E+02  0.00000000000E+00 0.  1.
         11    1    1    2    0    0 -0.21396558257E+02 -0.14970909908E+02  0.57177452514E+02  0.62858586723E+02  0.00000000000E+00 0. -1.
</event>
<event>
 7    1  0.2480409E-009  0.1990883E+03  0.7561462E-02  0.1150511E+00
          2   -1    0    0  501    0  0.00000000000E+00  0.00000000000E+00  0.20478284475E+04  0.20478284475E+04  0.00000000000E+00 0. -1.
         -2   -1    0    0    0  501 -0.00000000000E+00 -0.00000000000E+00 -0.29357450685E+02  0.29357450685E+02  0.00000000000E+00 0.  1.
         25    2    1    2    0    0 -0.10553648025E+02  0.18011578596E+03  0.15692153096E+04  0.15844991066E+04  0.12509058746E+03 0.  0.
          5    1    3    3  502    0  0.31438457911E+02  0.17177382873E+03  0.11689590157E+04  0.11819379331E+04  0.41800000000E+01 0.  1.
         -5    1    3    3    0  502 -0.41992105937E+02  0.83419572285E+01  0.40025629387E+03  0.40256117348E+03  0.41800000000E+01 0.  1.
        -11    1    1    2    0    0  0.35624658882E+01 -0.99837531119E+02  0.13308461019E+03  0.16640834490E+03  0.00000000000E+00 0.  1.
         11    1    1    2    0    0  0.69911821369E+01 -0.80278254839E+02  0.31617107703E+03  0.32627844669E+03  0.00000000000E+00 0. -1.
</event>
<event>
 7    1  0.2480409E-009  0.1157964E+03  0.7561462E-02  0.1250197E+00
         -2   -1    0    0    0  501 -0.00000000000E+00  0.00000000000E+00  0.30010167625E+02  0.30010167625E+02  0.00000000000E+00 0.  1.
          2   -1    0    0  501    0  0.00000000000E+00 -0.00000000000E+00 -0.49443705527E+03  0.49443705527E+03  0.00000000000E+00 0. -1.
         25    2    1    2    0    0  0.31398513902E+02 -0.27278853567E+02 -0.18259423564E+03  0.22520666174E+03  0.12508950026E+03 0.  0.
          5    1    3    3  502    0 -0.44939187580E+02 -0.31840660273E+02 -0.76930552905E+02  0.94705546813E+02  0.41800000000E+01 0.  1.
         -5    1    3    3    0  502  0.76337701483E+02  0.45618067062E+01 -0.10566368274E+03  0.13050111493E+03  0.41800000000E+01 0.  1.
        -11    1    1    2    0    0 -0.14009371863E+01  0.57307961075E+02 -0.18027468823E+03  0.18916957537E+03  0.00000000000E+00 0.  1.
         11    1    1    2    0    0 -0.29997576716E+02 -0.30029107509E+02 -0.10155796377E+03  0.11007098579E+03  0.00000000000E+00 0. -1.
</event>
<event>
 7    1  0.2480409E-009  0.1715698E+03  0.7561462E-02  0.1176221E+00
          2   -1    0    0  501    0  0.00000000000E+00  0.00000000000E+00  0.42060183145E+03  0.42060183145E+03  0.00000000000E+00 0. -1.
         -2   -1    0    0    0  501 -0.00000000000E+00 -0.00000000000E+00 -0.79862465099E+02  0.79862465099E+02  0.00000000000E+00 0.  1.
         25    2    1    2    0    0 -0.14259228814E+03 -0.50916330608E+02  0.17937444023E+03  0.26598528530E+03  0.12509176162E+03 0.  0.
          5    1    3    3  502    0  0.67122778982E+01 -0.34076285083E+02  0.43098545482E+01  0.35246207256E+02  0.41800000000E+01 0. -1.
         -5    1    3    3    0  502 -0.14930456604E+03 -0.16840045525E+02  0.17506458569E+03  0.23073907804E+03  0.41800000000E+01 0. -1.
        -11    1    1    2    0    0  0.10803266722E+03  0.57930034755E+02  0.15663259544E+03  0.19889875834E+03  0.00000000000E+00 0. -1.
         11    1    1    2    0    0  0.34559620919E+02 -0.70137041468E+01  0.47323306777E+01  0.35580252916E+02  0.00000000000E+00 0.  1.
</event>
<event>
 7    1  0.2480409E-009  0.1447389E+03  0.7561462E-02  0.1207091E+00
          1   -1    0    0  501    0  0.00000000000E+00  0.00000000000E+00  0.33548497671E+03  0.33548497671E+03  0.00000000000E+00 0. -1.
         -1   -1    0    0    0  501 -0.00000000000E+00 -0.00000000000E+00 -0.91456730556E+02  0.91456730556E+02  0.00000000000E+00 0.  1.
         25    2    1    2    0    0  0.72875640885E+02  0.96281837191E+02  0.20926407046E+03  0.27206803735E+03  0.12509402286E+03 0.  0.
          5    1    3    3  502    0  0.22093859756E+02 -0.69418228318E+01  0.13045564814E+03  0.13256121633E+03  0.41800000000E+01 0.  1.
         -5    1    3    3    0  502  0.50781781129E+02  0.10322366002E+03  0.78808422317E+02  0.13950682102E+03  0.41800000000E+01 0.  1.
        -11    1    1    2    0    0 -0.94301556200E+02 -0.82969820985E+02  0.26925157959E+02  0.12845909398E+03  0.00000000000E+00 0.  1.
         11    1    1    2    0    0  0.21425915314E+02 -0.13312016206E+02  0.78390177367E+01  0.26414575931E+02  0.00000000000E+00 0. -1.
</event>
<event>
 7    1  0.2480409E-009  0.8004676E+02  0.7561462E-02  0.1328919E+00
         -2   -1    0    0    0  501 -0.00000000000E+00  0.00000000000E+00  0.14126836515E+03  0.14126836515E+03  0.00000000000E+00 0.  1.
          2   -1    0    0  501    0  0.00000000000E+00 -0.00000000000E+00 -0.12114581070E+03  0.12114581070E+03  0.00000000000E+00 0. -1.
         25    2    1    2    0    0 -0.30768171794E+02 -0.11627292036E+02 -0.56465389626E+02  0.14112919289E+03  0.12508890656E+03 0.  0.
          5    1    3    3  502    0 -0.24027164585E+02 -0.66728581091E+02 -0.17473728405E+02  0.73162912441E+02  0.41800000000E+01 0. -1.
         -5    1    3    3    0  502 -0.67410072093E+01  0.55101289055E+02 -0.38991661221E+02  0.67966280452E+02  0.41800000000E+01 0. -1.
        -11    1    1    2    0    0  0.15658398521E+02  0.28847511108E+01 -0.18614651066E+02  0.24495151918E+02  0.00000000000E+00 0. -1.
         11    1    1    2    0    0  0.15109773273E+02  0.87425409251E+01  0.95202595148E+02  0.96789831041E+02  0.00000000000E+00 0.  1.
</event>
<event>
 7    1  0.2480409E-009  0.2044514E+03  0.7561462E-02  0.1146037E+00
          2   -1    0    0  501    0  0.00000000000E+00  0.00000000000E+00  0.43286306219E+03  0.43286306219E+03  0.00000000000E+00 0. -1.
         -2   -1    0    0    0  501 -0.00000000000E+00 -0.00000000000E+00 -0.11200979771E+03  0.11200979771E+03  0.00000000000E+00 0.  1.
         25    2    1    2    0    0 -0.21913931164E+02  0.17245612523E+03  0.26416387402E+03  0.34007556291E+03  0.12508997018E+03 0.  0.
          5    1    3    3  502    0 -0.33212409870E+02  0.18947246028E+03  0.24682782426E+03  0.31296057995E+03  0.41800000000E+01 0. -1.
         -5    1    3    3    0  502  0.11298478705E+02 -0.17016335046E+02  0.17336049755E+02  0.27114982954E+02  0.41800000000E+01 0. -1.
        -11    1    1    2    0    0  0.56648393369E+02 -0.92436266833E+02  0.42357624540E+02  0.11639446831E+03  0.00000000000E+00 0.  1.
         11    1    1    2    0    0 -0.34734462205E+02 -0.80019858401E+02  0.14331765918E+02  0.88402828673E+02  0.00000000000E+00 0. -1.
</event>
<event>
 7    1  0.2480409E-009  0.1621072E+03  0.7561462E-02  0.1186338E+00
          1   -1    0    0  501    0  0.00000000000E+00  0.00000000000E+00  0.28837891512E+03  0.28837891512E+03  0.00000000000E+00 0. -1.
         -1   -1    0    0    0  501 -0.00000000000E+00 -0.00000000000E+00 -0.11342803533E+03  0.11342803533E+03  0.00000000000E+00 0.  1.
         25    2    1    2    0    0 -0.41244695994E+02 -0.13886479161E+03  0.96032465933E+02  0.21413654084E+03  0.12509064038E+03 0.  0.
          5    1    3    3  502    0 -0.48134957811E+02 -0.71798692594E+02  0.11504686896E+03  0.14396277602E+03  0.41800000000E+01 0.  1.
         -5    1    3    3    0  502  0.68902618174E+01 -0.67066099018E+02 -0.19014403031E+02  0.70173764813E+02  0.41800000000E+01 0.  1.
        -11    1    1    2    0    0 -0.19312422590E+02  0.90741712576E+02  0.39152629377E+02  0.10069735078E+03  0.00000000000E+00 0.  1.
         11    1    1    2    0    0  0.60557118584E+02  0.48123079036E+02  0.39765784484E+02  0.86973058832E+02  0.00000000000E+00 0. -1.
</event>
<event>
 7    1  0.2480409E-009  0.8966601E+02  0.7561462E-02  0.1303663E+00
         -2   -1    0    0    0  501 -0.00000000000E+00  0.00000000000E+00  0.17548979102E+02  0.17548979102E+02  0.00000000000E+00 0.  1.
          2   -1    0    0  501    0  0.00000000000E+00 -0.00000000000E+00 -0.74233961160E+03  0.74233961160E+03  0.00000000000E+00 0. -1.
         25    2    1    2    0    0  0.20089284372E+02  0.16251553169E+02 -0.50689869634E+03  0.52274401081E+03  0.12508924877E+03 0.  0.
          5    1    3    3  502    0  0.38509664596E+02 -0.20975418211E+02 -0.62921032172E+02  0.76808144920E+02  0.41800000000E+01 0. -1.
         -5    1    3    3    0  502 -0.18420380224E+02  0.37226971380E+02 -0.44397766417E+03  0.44593586589E+03  0.41800000000E+01 0. -1.
        -11    1    1    2    0    0  0.32961130183E+02  0.98657779878E+01 -0.76039499313E+02  0.83461219342E+02  0.00000000000E+00 0.  1.
         11    1    1    2    0    0 -0.53050414555E+02 -0.26117331157E+02 -0.14185243684E+03  0.15368336054E+03  0.00000000000E+00 0. -1.
</event>
<event>
 7    1  0.2480409E-009  0.1425558E+03  0.7561462E-02  0.1209931E+00
         -1   -1    0    0    0  501 -0.00000000000E+00  0.00000000000E+00  0.22855045829E+02  0.22855045829E+02  0.00000000000E+00 0.  1.
          1   -1    0    0  501    0  0.00000000000E+00 -0.00000000000E+00 -0.11708121795E+04  0.11708121795E+04  0.00000000000E+00 0. -1.
         25    2    1    2    0    0 -0.72522055174E+02 -0.87998594691E+02 -0.78886078298E+03  0.80681816374E+03  0.12510400979E+03 0.  0.
          5    1    3    3  502    0  0.13021907087E+02 -0.57563288892E+02 -0.14551576937E+03  0.15708409795E+03  0.41800000000E+01 0. -1.
         -5    1    3    3    0  502 -0.85543962261E+02 -0.30435305799E+02 -0.64334501361E+03  0.64973406579E+03  0.41800000000E+01 0. -1.
        -11    1    1    2    0    0 -0.10920656416E+02  0.33880618229E+02 -0.16453269789E+03  0.16833943597E+03  0.00000000000E+00 0. -1.
         11    1    1    2    0    0  0.83442711590E+02  0.54117976462E+02 -0.19456365276E+03  0.21850962558E+03  0.00000000000E+00 0.  1.
</event>
<event>
 7    1  0.2480409E-009  0.7374795E+02  0.7561462E-02  0.1347793E+00
         -1   -1    0    0    0  501 -0.00000000000E+00  0.00000000000E+00  0.11400835604E+02  0.11400835604E+02  0.00000000000E+00 0.  1.
          1   -1    0    0  501    0  0.00000000000E+00 -0.00000000000E+00 -0.12853908204E+04  0.12853908204E+04  0.00000000000E+00 0. -1.
         25    2    1    2    0    0 -0.18902495800E+02  0.23818606296E+02 -0.95663966637E+03  0.96526231879E+03  0.12508901815E+03 0.  0.
          5    1    3    3  502    0 -0.23343664765E+02 -0.53710890868E+01 -0.90719937509E+03  0.90752518083E+03  0.41800000000E+01 0. -1.
         -5    1    3    3    0  502  0.44411689654E+01  0.29189695382E+02 -0.49440291282E+02  0.57737137964E+02  0.41800000000E+01 0. -1.
        -11    1    1    2    0    0  0.44968621964E+02 -0.42038052859E+02 -0.24274205447E+03  0.25042579711E+03  0.00000000000E+00 0.  1.
         11    1    1    2    0    0 -0.26066126165E+02  0.18219446564E+02 -0.74608263993E+02  0.81103540134E+02  0.00000000000E+00 0. -1.
</event>
<event>
 7    1  0.2480409E-009  0.2193106E+03  0.7561462E-02  0.1134398E+00
         -2   -1    0    0    0  501 -0.00000000000E+00  0.00000000000E+00  0.14653744135E+03  0.14653744135E+03  0.00000000000E+00 0.  1.
          2   -1    0    0  501    0  0.00000000000E+00 -0.00000000000E+00 -0.40614904135E+03  0.40614904135E+03  0.00000000000E+00 0. -1.
         25    2    1    2    0    0 -0.17743905278E+03 -0.11540034768E+03 -0.19315404320E+03  0.31266198893E+03  0.12508867742E+03 0.  0.
          5    1    3    3  502    0 -0.83640204300E+02 -0.68101353502E+02 -0.19535276608E+02  0.10969310624E+03  0.41800000000E+01 0. -1.
         -5    1    3    3    0  502 -0.93798848481E+02 -0.47298994176E+02 -0.17361876659E+03  0.20296888269E+03  0.41800000000E+01 0. -1.
        -11    1    1    2    0    0  0.72484320555E+02  0.93547599469E+02 -0.97487538150E+01  0.11874412951E+03  0.00000000000E+00 0. -1.
         11    1    1    2    0    0  0.10495473223E+03  0.21852748208E+02 -0.56708802977E+02  0.12128036426E+03  0.00000000000E+00 0.  1.
</event>
<event>
 7    1  0.2480409E-009  0.8217217E+02  0.7561462E-02  0.1322998E+00
         -1   -1    0    0    0  501 -0.00000000000E+00  0.00000000000E+00  0.42117270773E+02  0.42117270773E+02  0.00000000000E+00 0. -1.
          1   -1    0    0  501    0  0.00000000000E+00 -0.00000000000E+00 -0.35107353266E+03  0.35107353266E+03  0.00000000000E+00 0.  1.
         25    2    1    2    0    0 -0.10563377720E+02  0.23865379768E+02 -0.94041811593E+02  0.15866359460E+03  0.12509649324E+03 0.  0.
          5    1    3    3  502    0 -0.24856905197E+02  0.41328829858E+02  0.12239759492E+02  0.49932174256E+02  0.41800000000E+01 0.  1.
         -5    1    3    3    0  502  0.14293527478E+02 -0.17463450091E+02 -0.10628157108E+03  0.10873142034E+03  0.41800000000E+01 0.  1.
        -11    1    1    2    0    0  0.45604522613E+02  0.71832811194E+01 -0.90498876235E+02  0.10159438277E+03  0.00000000000E+00 0.  1.
         11    1    1    2    0    0 -0.35041144893E+02 -0.31048660887E+02 -0.12441557406E+03  0.13293282607E+03  0.00000000000E+00 0. -1.
</event>
<event>
 7    1  0.2480409E-009  0.1088103E+03  0.7561462E-02  0.1262789E+00
         -2   -1    0    0    0  501 -0.00000000000E+00  0.00000000000E+00  0.16830754069E+02  0.16830754069E+02  0.00000000000E+00 0.  1.
          2   -1    0    0  501    0  0.00000000000E+00 -0.00000000000E+00 -0.73232292478E+03  0.73232292478E+03  0.00000000000E+00 0. -1.
         25    2    1    2    0    0 -0.16372847249E+01 -0.32020325943E+02 -0.45177529109E+03  0.46986859269E+03  0.12509036245E+03 0.  0.
          5    1    3    3  502    0  0.37483785132E+02  0.32819960559E+02 -0.13016932924E+03  0.13944070651E+03  0.41800000000E+01 0. -1.
         -5    1    3    3    0  502 -0.39121069857E+02 -0.64840286502E+02 -0.32160596186E+03  0.33042788618E+03  0.41800000000E+01 0. -1.
        -11    1    1    2    0    0 -0.99469242871E+01 -0.28487440345E+02 -0.94658551345E+02  0.99351481634E+02  0.00000000000E+00 0.  1.
         11    1    1    2    0    0  0.11584209012E+02  0.60507766288E+02 -0.16905832827E+03  0.17993360452E+03  0.00000000000E+00 0. -1.
</event>
<event>
 7    1  0.2480409E-009  0.1483567E+03  0.7561462E-02  0.1202507E+00
         -3   -1    0    0    0  501 -0.00000000000E+00  0.00000000000E+00  0.31110030282E+03  0.31110030282E+03  0.00000000000E+00 0.  1.
          3   -1    0    0  501    0  0.00000000000E+00 -0.00000000000E+00 -0.10017088850E+03  0.10017088850E+03  0.00000000000E+00 0. -1.
         25    2    1    2    0    0 -0.13436126558E+03 -0.17377845727E+02  0.16133358273E+03  0.24501127411E+03  0.12508821013E+03 0.  0.
          5    1    3    3  502    0 -0.20978597035E+02  0.13974411867E+02  0.11614724068E+03  0.11892451235E+03  0.41800000000E+01 0.  1.
         -5    1    3    3    0  502 -0.11338266855E+03 -0.31352257594E+02  0.45186342050E+02  0.12608676176E+03  0.41800000000E+01 0.  1.
        -11    1    1    2    0    0  0.10332694342E+03 -0.19606124122E+02  0.13617040405E+02  0.10604848480E+03  0.00000000000E+00 0. -1.
         11    1    1    2    0    0  0.31034322164E+02  0.36983969849E+02  0.35978791179E+02  0.60211432409E+02  0.00000000000E+00 0.  1.
</event>
<event>
 7    1  0.2480409E-009  0.1400812E+03  0.7561462E-02  0.1213220E+00
          2   -1    0    0  501    0  0.00000000000E+00  0.00000000000E+00  0.45716768296E+03  0.45716768296E+03  0.00000000000E+00 0. -1.
         -2   -1    0    0    0  501 -0.00000000000E+00 -0.00000000000E+00 -0.81743834709E+02  0.81743834709E+02  0.00000000000E+00 0.  1.
         25    2    1    2    0    0  0.10944358360E+03 -0.24140156192E+02  0.38957341959E+02  0.17241086596E+03  0.12508871683E+03 0.  0.
          5    1    3    3  502    0  0.65039099321E+02 -0.56694446132E+02 -0.23027069339E+02  0.89398338827E+02  0.41800000000E+01 0. -1.
         -5    1    3    3    0  502  0.44404484279E+02  0.32554289940E+02  0.61984411298E+02  0.83012527136E+02  0.41800000000E+01 0. -1.
        -11    1    1    2    0    0 -0.11235721185E+03  0.42385531308E+02  0.24098551264E+03  0.26924838648E+03  0.00000000000E+00 0.  1.
         11    1    1    2    0    0  0.29136282533E+01 -0.18245375116E+02  0.95480993647E+02  0.97252265221E+02  0.00000000000E+00 0. -1.
</event>
<event>
 7    1  0.2480409E-009  0.1813728E+03  0.7561462E-02  0.1166481E+00
         -1   -1    0    0    0  501 -0.00000000000E+00  0.00000000000E+00  0.11013473605E+03  0.11013473605E+03  0.00000000000E+00 0.  1.
          1   -1    0    0  501    0  0.00000000000E+00 -0.00000000000E+00 -0.35725181622E+03  0.35725181622E+03  0.00000000000E+00 0. -1.
         25    2    1    2    0    0  0.29182424995E+02 -0.16045058364E+03 -0.91726733937E+02  0.22507426256E+03  0.12509446923E+03 0.  0.
          5    1    3    3  502    0  0.39171711799E+01  0.64209027444E+01 -0.50580774513E+02  0.51307498208E+02  0.41800000000E+01 0. -1.
         -5    1    3    3    0  502  0.25265253815E+02 -0.16687148638E+03 -0.41145959424E+02  0.17376676435E+03  0.41800000000E+01 0. -1.
        -11    1    1    2    0    0 -0.33117114286E+02  0.17093690369E+03 -0.15028322743E+03  0.23000264509E+03  0.00000000000E+00 0. -1.
         11    1    1    2    0    0  0.39346892914E+01 -0.10486320053E+02 -0.51071188034E+01  0.12309644615E+02  0.00000000000E+00 0.  1.
</event>
<event>
 7    1  0.2480409E-009  0.1750262E+03  0.7561462E-02  0.1172705E+00
          2   -1    0    0  501    0  0.00000000000E+00  0.00000000000E+00  0.53305394007E+03  0.53305394007E+03  0.00000000000E+00 0.  1.
         -2   -1    0    0    0  501 -0.00000000000E+00 -0.00000000000E+00 -0.11846810945E+03  0.11846810945E+03  0.00000000000E+00 0. -1.
         25    2    1    2    0    0 -0.13230617667E+03 -0.86753903050E+02  0.42302794535E+03  0.46864814746E+03  0.12508908620E+03 0.  0.
          5    1    3    3  502    0 -0.79396651750E+02 -0.10799239715E+03  0.35675130905E+03  0.38112354304E+03  0.41800000000E+01 0. -1.
         -5    1    3    3    0  502 -0.52909524922E+02  0.21238494099E+02  0.66276636307E+02  0.87524604423E+02  0.41800000000E+01 0. -1.
        -11    1    1    2    0    0  0.66173463149E+02  0.51419505869E+02 -0.49558753277E+02  0.97359965259E+02  0.00000000000E+00 0. -1.
         11    1    1    2    0    0  0.66132713524E+02  0.35334397181E+02  0.41116638547E+02  0.85513936803E+02  0.00000000000E+00 0.  1.
</event>
<event>
 7    1  0.2480409E-009  0.9368564E+02  0.7561462E-02  0.1294164E+00
         -2   -1    0    0    0  501 -0.00000000000E+00  0.00000000000E+00  0.10395861655E+03  0.10395861655E+03  0.00000000000E+00 0.  1.
          2   -1    0    0  501    0  0.00000000000E+00 -0.00000000000E+00 -0.15425196928E+03  0.15425196928E+03  0.00000000000E+00 0. -1.
         25    2    1    2    0    0  0.63947990323E+02 -0.12578653370E+02 -0.47815055528E+02  0.14893491179E+03  0.12509100858E+03 0.  0.
          5    1    3    3  502    0 -0.42186391879E+01 -0.19585567941E+02  0.35500722562E+02  0.40977616946E+02  0.41800000000E+01 0. -1.
         -5    1    3    3    0  502  0.68166629511E+02  0.70069145706E+01 -0.83315778090E+02  0.10795729484E+03  0.41800000000E+01 0. -1.
        -11    1    1    2    0    0 -0.25167021917E+02  0.42416492922E+02 -0.25132093983E+02  0.55354855360E+02  0.00000000000E+00 0. -1.
         11    1    1    2    0    0 -0.38780968406E+02 -0.29837839552E+02  0.22653796782E+02  0.53920818691E+02  0.00000000000E+00 0.  1.
</event>
<event>
 7    1  0.2480409E-009  0.1350319E+03  0.7561462E-02  0.1220175E+00
         -2   -1    0    0    0  501 -0.00000000000E+00  0.00000000000E+00  0.27082081609E+03  0.27082081609E+03  0.00000000000E+00 0.  1.
          2   -1    0    0  501    0  0.00000000000E+00 -0.00000000000E+00 -0.97412349817E+02  0.97412349817E+02  0.00000000000E+00 0. -1.
         25    2    1    2    0    0  0.46715197582E+02  0.11105528874E+03  0.98386903464E+02  0.19960982963E+03  0.12509402252E+03 0.  0.
          5    1    3    3  502    0  0.34599316455E+02  0.37426938149E+02  0.11247722218E+03  0.12355762343E+03  0.41800000000E+01 0.  1.
         -5    1    3    3    0  502  0.12115881128E+02  0.73628350592E+02 -0.14090318716E+02  0.76052206200E+02  0.41800000000E+01 0.  1.
        -11    1    1    2    0    0  0.26235412348E+01 -0.90824277394E+02  0.70690989812E+02  0.11512231918E+03  0.00000000000E+00 0.  1.
         11    1    1    2    0    0 -0.49338738817E+02 -0.20231011347E+02  0.43305729992E+01  0.53501017100E+02  0.00000000000E+00 0. -1.
</event>
<event>
 7    1  0.2480409E-009  0.1151009E+03  0.7561462E-02  0.1251405E+00
          1   -1    0    0  501    0  0.00000000000E+00  0.00000000000E+00  0.10300923260E+03  0.10300923260E+03  0.00000000000E+00 0. -1.
         -1   -1    0    0    0  501 -0.00000000000E+00 -0.00000000000E+00 -0.13569923160E+03  0.13569923160E+03  0.00000000000E+00 0.  1.
         25    2    1    2    0    0  0.26255607060E+02  0.39293707018E+02 -0.26350569843E+02  0.13628574441E+03  0.12508436867E+03 0.  0.
          5    1    3    3  502    0 -0.12221320196E+02 -0.40709346902E+02  0.26746741551E+01  0.42792965244E+02  0.41800000000E+01 0. -1.
         -5    1    3    3    0  502  0.38476927256E+02  0.80003053920E+02 -0.29025243998E+02  0.93492779169E+02  0.41800000000E+01 0. -1.
        -11    1    1    2    0    0 -0.50973870243E+02 -0.50253480185E+02  0.76343048810E+01  0.71986320432E+02  0.00000000000E+00 0.  1.
         11    1    1    2    0    0  0.24718263183E+02  0.10959773167E+02 -0.13973734041E+02  0.30436399355E+02  0.00000000000E+00 0. -1.
</event>
<event>
 7    1  0.2480409E-009  0.9004348E+02  0.7561462E-02  0.1302746E+00
         -2   -1    0    0    0  501 -0.00000000000E+00  0.00000000000E+00  0.45614845234E+03  0.45614845234E+03  0.00000000000E+00 0.  1.
          2   -1    0    0  501    0  0.00000000000E+00 -0.00000000000E+00 -0.31411142862E+02  0.31411142862E+02  0.00000000000E+00 0. -1.
         25    2    1    2    0    0 -0.20680501775E+02  0.51127703383E+01  0.33135586867E+03  0.35481633699E+03  0.12507636757E+03 0.  0.
          5    1    3    3  502    0 -0.36356847243E+02  0.36305957951E+02  0.30873241304E+03  0.31300657850E+03  0.41800000000E+01 0.  1.
         -5    1    3    3    0  502  0.15676345468E+02 -0.31193187613E+02  0.22623455628E+02  0.41809758493E+02  0.41800000000E+01 0.  1.
        -11    1    1    2    0    0  0.56854548191E+02 -0.61616412444E+01  0.66215607147E+02  0.87492354539E+02  0.00000000000E+00 0.  1.
         11    1    1    2    0    0 -0.36174046416E+02  0.10488709061E+01  0.27165833668E+02  0.45250903672E+02  0.00000000000E+00 0. -1.
</event>
<event>
 7    1  0.2480409E-009  0.8459400E+02  0.7561462E-02  0.1316498E+00
          2   -1    0    0  501    0  0.00000000000E+00  0.00000000000E+00  0.90351350313E+03  0.90351350313E+03  0.00000000000E+00 0.  1.
         -2   -1    0    0    0  501 -0.00000000000E+00 -0.00000000000E+00 -0.16895386443E+02  0.16895386443E+02  0.00000000000E+00 0. -1.
         25    2    1    2    0    0  0.16286853674E+02 -0.30634216108E+01  0.69500520676E+03  0.70636693662E+03  0.12508943028E+03 0.  0.
          5    1    3    3  502    0  0.45560370775E+02 -0.18641744453E+02  0.64069066077E+03  0.64259260595E+03  0.41800000000E+01 0. -1.
         -5    1    3    3    0  502 -0.29273517101E+02  0.15578322843E+02  0.54314545987E+02  0.63774330665E+02  0.41800000000E+01 0. -1.
        -11    1    1    2    0    0  0.27231178092E+02 -0.22991976564E+02  0.12695849573E+03  0.13186594588E+03  0.00000000000E+00 0.  1.
         11    1    1    2    0    0 -0.43518031766E+02  0.26055398174E+02  0.64654414204E+02  0.82176007076E+02  0.00000000000E+00 0. -1.
</event>
<event>
 7    1  0.2480409E-009  0.8915885E+02  0.7561462E-02  0.1304902E+00
         -1   -1    0    0    0  501 -0.00000000000E+00  0.00000000000E+00  0.12183231539E+03  0.12183231539E+03  0.00000000000E+00 0.  1.
          1   -1    0    0  501    0  0.00000000000E+00 -0.00000000000E+00 -0.21267089314E+03  0.21267089314E+03  0.00000000000E+00 0. -1.
         25    2    1    2    0    0  0.19883067055E+02  0.21299255240E+02  0.71506117724E+02  0.14700061039E+03  0.12508820869E+03 0.  0.
          5    1    3    3  502    0  0.23023567057E+02 -0.39769487968E+02  0.72222263872E+02  0.85704285844E+02  0.41800000000E+01 0.  1.
         -5    1    3    3    0  502 -0.31405000022E+01  0.61068743209E+02 -0.71614614827E+00  0.61296324544E+02  0.41800000000E+01 0.  1.
        -11    1    1    2    0    0  0.20252901044E+02 -0.23081336936E+02 -0.13608463282E+03  0.13950611243E+03  0.00000000000E+00 0. -1.
         11    1    1    2    0    0 -0.40135968099E+02  0.17820816960E+01 -0.26260062653E+02  0.47996485715E+02  0.00000000000E+00 0.  1.
</event>
<event>
 7    1  0.2480409E-009  0.1294320E+03  0.7561462E-02  0.1228301E+00
          2   -1    0    0  501    0  0.00000000000E+00  0.00000000000E+00  0.15174355794E+03  0.15174355794E+03  0.00000000000E+00 0. -1.
         -2   -1    0    0    0  501 -0.00000000000E+00 -0.00000000000E+00 -0.16220801281E+03  0.16220801281E+03  0.00000000000E+00 0.  1.
         25    2    1    2    0    0 -0.10400005045E+03 -0.76664103549E+01  0.37789658497E+02  0.16718660942E+03  0.12509404358E+03 0.  0.
          5    1    3    3  502    0  0.75495094018E+01  0.28421658246E+02 -0.20595701821E+02  0.36144724140E+02  0.41800000000E+01 0. -1.
         -5    1    3    3    0  502 -0.11154955986E+03 -0.36088068600E+02  0.58385360318E+02  0.13104188528E+03  0.41800000000E+01 0. -1.
        -11    1    1    2    0    0  0.88134935664E+02  0.21585095616E+02  0.35681908802E+01  0.90809774933E+02  0.00000000000E+00 0. -1.
         11    1    1    2    0    0  0.15865114790E+02 -0.13918685261E+02 -0.51822304246E+02  0.55955186391E+02  0.00000000000E+00 0.  1.
</event>
<event>
 7    1  0.2480409E-009  0.1267489E+03  0.7561462E-02  0.1232361E+00
         -2   -1    0    0    0  501 -0.00000000000E+00  0.00000000000E+00  0.21637968929E+03  0.21637968929E+03  0.00000000000E+00 0.  1.
          2   -1    0    0  501    0  0.00000000000E+00 -0.00000000000E+00 -0.97038909711E+02  0.97038909711E+02  0.00000000000E+00 0. -1.
         25    2    1    2    0    0 -0.59393525923E+02 -0.63390358201E+02  0.19197813376E+02  0.15349983701E+03  0.12509082895E+03 0.  0.
          5    1    3    3  502    0 -0.87691034199E+02 -0.72998391983E+02 -0.57898197654E+01  0.11432181386E+03  0.41800000000E+01 0.  1.
         -5    1    3    3    0  502  0.28297508276E+02  0.96080337815E+01  0.24987633141E+02  0.39178023148E+02  0.41800000000E+01 0.  1.
        -11    1    1    2    0    0  0.58118939757E+02  0.14053102182E+02  0.92256506543E+02  0.10993890958E+03  0.00000000000E+00 0.  1.
         11    1    1    2    0    0  0.12745861662E+01  0.49337256019E+02  0.78864596566E+01  0.49979852413E+02  0.00000000000E+00 0. -1.
</event>
<event>
 7    1  0.2480409E-009  0.7569598E+02  0.7561462E-02  0.1341729E+00
         -2   -1    0    0    0  501 -0.00000000000E+00  0.00000000000E+00  0.29453966589E+02  0.29453966589E+02  0.00000000000E+00 0.  1.
          2   -1    0    0  501    0  0.00000000000E+00 -0.00000000000E+00 -0.43991749709E+03  0.43991749709E+03  0.00000000000E+00 0. -1.
         25    2    1    2    0    0 -0.92805084711E+01 -0.28150359887E+02 -0.20087859749E+03  0.23849057035E+03  0.12508785160E+03 0.  0.
          5    1    3    3  502    0  0.30922861776E+02 -0.21186259382E+02 -0.19309354052E+03  0.19674264600E+03  0.41800000000E+01 0.  1.
         -5    1    3    3    0  502 -0.40203370247E+02 -0.69641005042E+01 -0.77850569722E+01  0.41747924345E+02  0.41800000000E+01 0.  1.
        -11    1    1    2    0    0  0.31676006455E+02 -0.55875684912E+01 -0.21985963115E+02  0.38961171449E+02  0.00000000000E+00 0.  1.
         11    1    1    2    0    0 -0.22395497984E+02  0.33737928378E+02 -0.18759896990E+03  0.19191972188E+03  0.00000000000E+00 0. -1.
</event>
<event>
 7    1  0.2480409E-009  0.8658342E+02  0.7561462E-02  0.1311343E+00
         -2   -1    0    0    0  501 -0.00000000000E+00  0.00000000000E+00  0.12525296620E+03  0.12525296620E+03  0.00000000000E+00 0.  1.
          2   -1    0    0  501    0  0.00000000000E+00 -0.00000000000E+00 -0.10403387091E+03  0.10403387091E+03  0.00000000000E+00 0. -1.
         25    2    1    2    0    0 -0.12711909014E+02 -0.28999547227E+02  0.11837475120E+02  0.12956797923E+03  0.12508065019E+03 0.  0.
          5    1    3    3  502    0  0.34251518127E+02 -0.86307968778E+01  0.52944375938E+02  0.63782728793E+02  0.41800000000E+01 0.  1.
         -5    1    3    3    0  502 -0.46963427141E+02 -0.20368750349E+02 -0.41106900819E+02  0.65785250433E+02  0.41800000000E+01 0.  1.
        -11    1    1    2    0    0 -0.28206400193E+02  0.34924603203E+02  0.29521517880E+02  0.53729404787E+02  0.00000000000E+00 0.  1.
         11    1    1    2    0    0  0.40918309207E+02 -0.59250559761E+01 -0.20139897709E+02  0.45989453100E+02  0.00000000000E+00 0. -1.
</event>
<event>
 7    1  0.2480409E-009  0.1078102E+03  0.7561462E-02  0.1264680E+00
         -1   -1    0    0    0  501 -0.00000000000E+00  0.00000000000E+00  0.16949325271E+03  0.16949325271E+03  0.00000000000E+00 0.  1.
          1   -1    0    0  501    0  0.00000000000E+00 -0.00000000000E+00 -0.77039723218E+02  0.77039723218E+02  0.00000000000E+00 0. -1.
         25    2    1    2    0    0  0.94591897727E+00 -0.76711918530E+01  0.90581224786E+02  0.15463776153E+03  0.12509251401E+03 0.  0.
          5    1    3    3  502    0 -0.61455911290E+02 -0.72193569269E+01  0.36554707474E+02  0.71990743749E+02  0.41800000000E+01 0. -1.
         -5    1    3    3    0  502  0.62401830268E+02 -0.45183492604E+00  0.54026517313E+02  0.82647017783E+02  0.41800000000E+01 0. -1.
        -11    1    1    2    0    0  0.10128106387E+02  0.48092153289E+02 -0.50916300569E+01  0.49410104671E+02  0.00000000000E+00 0. -1.
         11    1    1    2    0    0 -0.11074025365E+02 -0.40420961436E+02  0.69639347647E+01  0.42485109728E+02  0.00000000000E+00 0.  1.
</event>
<event>
 7    1  0.2480409E-009  0.1045178E+03  0.7561462E-02  0.1271073E+00
          1   -1    0    0  501    0  0.00000000000E+00  0.00000000000E+00  0.52882858669E+03  0.52882858669E+03  0.00000000000E+00 0.  1.
         -1   -1    0    0    0  501 -0.00000000000E+00 -0.00000000000E+00 -0.49493718251E+02  0.49493718251E+02  0.00000000000E+00 0. -1.
         25    2    1    2    0    0  0.64338471321E+02 -0.17709825516E+02  0.44615570898E+03  0.46814040086E+03  0.12508973356E+03 0.  0.
          5    1    3    3  502    0  0.91274105936E+02  0.18339436466E+02  0.34466680457E+03  0.35704338100E+03  0.41800000000E+01 0. -1.
         -5    1    3    3    0  502 -0.26935634615E+02 -0.36049261981E+02  0.10148890441E+03  0.11109701986E+03  0.41800000000E+01 0. -1.
        -11    1    1    2    0    0 -0.14498763123E+02  0.14809031986E+02  0.52660128475E+02  0.56591613260E+02  0.00000000000E+00 0.  1.
         11    1    1    2    0    0 -0.49839708199E+02  0.29007935297E+01 -0.19480969022E+02  0.53590290823E+02  0.00000000000E+00 0. -1.
</event>
<event>
 7    1  0.2480409E-009  0.1120848E+03  0.7561462E-02  0.1256757E+00
         -1   -1    0    0    0  501 -0.00000000000E+00  0.00000000000E+00  0.12644808847E+03  0.12644808847E+03  0.00000000000E+00 0.  1.
          1   -1    0    0  501    0  0.00000000000E+00 -0.00000000000E+00 -0.12849266892E+03  0.12849266892E+03  0.00000000000E+00 0. -1.
         25    2    1    2    0    0  0.92888053742E+01 -0.34407613967E+02 -0.56016468355E+02  0.14162621340E+03  0.12509985528E+03 0.  0.
          5    1    3    3  502    0  0.61318266916E+02  0.62475537107E+01 -0.14299712176E+02  0.63410692737E+02  0.41800000000E+01 0.  1.
         -5    1    3    3    0  502 -0.52029461542E+02 -0.40655167678E+02 -0.41716756178E+02  0.78215520668E+02  0.41800000000E+01 0.  1.
        -11    1    1    2    0    0  0.37593575357E+02 -0.79670090667E+00  0.71313006190E+01  0.38272275723E+02  0.00000000000E+00 0.  1.
         11    1    1    2    0    0 -0.46882380731E+02  0.35204314874E+02  0.46840587283E+02  0.75042268261E+02  0.00000000000E+00 0. -1.
</event>
<event>
 7    1  0.2480409E-009  0.2142659E+03  0.7561462E-02  0.1138232E+00
          2   -1    0    0  501    0  0.00000000000E+00  0.00000000000E+00  0.20423235365E+04  0.20423235365E+04  0.00000000000E+00 0. -1.
         -2   -1    0    0    0  501 -0.00000000000E+00 -0.00000000000E+00 -0.39183264593E+02  0.39183264593E+02  0.00000000000E+00 0.  1.
         25    2    1    2    0    0 -0.55598125466E+02  0.20162377496E+03  0.15993639343E+04  0.16178245662E+04  0.12509210433E+03 0.  0.
          5    1    3    3  502    0 -0.26935411798E+02  0.17246244845E+03  0.87248403164E+03  0.88978349636E+03  0.41800000000E+01 0. -1.
         -5    1    3    3    0  502 -0.28662713668E+02  0.29161326514E+02  0.72687990263E+03  0.72804106984E+03  0.41800000000E+01 0. -1.
        -11    1    1    2    0    0  0.46540653913E+02 -0.94689009510E+02  0.28345577754E+03  0.30245531705E+03  0.00000000000E+00 0.  1.
         11    1    1    2    0    0  0.90574715529E+01 -0.10693476545E+03  0.12032056006E+03  0.16122691781E+03  0.00000000000E+00 0. -1.
</event>
<event>
 7    1  0.2480409E-009  0.1118579E+03  0.7561462E-02  0.1257168E+00
          2   -1    0    0  501    0  0.00000000000E+00  0.00000000000E+00  0.22832916092E+03  0.22832916092E+03  0.00000000000E+00 0. -1.
         -2   -1    0    0    0  501 -0.00000000000E+00 -0.00000000000E+00 -0.79084129438E+02  0.79084129438E+02  0.00000000000E+00 0.  1.
         25    2    1    2    0    0  0.69305537073E+02 -0.30876549372E+02  0.10638127907E+03  0.18088672840E+03  0.12508562349E+03 0.  0.
          5    1    3    3  502    0 -0.34373040957E+02 -0.21621733691E+02  0.19515913316E+02  0.45247636236E+02  0.41800000000E+01 0.  1.
         -5    1    3    3    0  502  0.10367857803E+03 -0.92548156814E+01  0.86865365751E+02  0.13563909216E+03  0.41800000000E+01 0.  1.
        -11    1    1    2    0    0 -0.44987839538E+02  0.30583476352E+02 -0.20905206585E+02  0.58277632025E+02  0.00000000000E+00 0.  1.
         11    1    1    2    0    0 -0.24317697535E+02  0.29307301994E+00  0.63768959005E+02  0.68248929938E+02  0.00000000000E+00 0. -1.
</event>
<event>
 7    1  0.2480409E-009  0.1288308E+03  0.7561462E-02  0.1229201E+00
         -2   -1    0    0    0  501 -0.00000000000E+00  0.00000000000E+00  0.16242044260E+02  0.16242044260E+02  0.00000000000E+00 0.  1.
          2   -1    0    0  501    0  0.00000000000E+00 -0.00000000000E+00 -0.13973085660E+04  0.13973085660E+04  0.00000000000E+00 0. -1.
         25    2    1    2    0    0  0.72758929969E+02  0.62268058573E+02 -0.68505114072E+03  0.70293276367E+03  0.12509289280E+03 0.  0.
          5    1    3    3  502    0  0.71324529341E+02  0.74836201778E+02 -0.29435578757E+03  0.31201033262E+03  0.41800000000E+01 0. -1.
         -5    1    3    3    0  502  0.14344006280E+01 -0.12568143206E+02 -0.39069535315E+03  0.39092243106E+03  0.41800000000E+01 0. -1.
        -11    1    1    2    0    0 -0.43012567153E+01 -0.71647375737E+02 -0.41974577664E+03  0.42583842507E+03  0.00000000000E+00 0.  1.
         11    1    1    2    0    0 -0.68457673253E+02  0.93793171644E+01 -0.27626960439E+03  0.28477942153E+03  0.00000000000E+00 0. -1.
</event>
<event>
 7    1  0.2480409E-009  0.1104501E+03  0.7561462E-02  0.1259739E+00
         -1   -1    0    0    0  501 -0.00000000000E+00  0.00000000000E+00  0.39885968920E+02  0.39885968920E+02  0.00000000000E+00 0.  1.
          1   -1    0    0  501    0  0.00000000000E+00 -0.00000000000E+00 -0.38565381686E+03  0.38565381686E+03  0.00000000000E+00 0. -1.
         25    2    1    2    0    0  0.52792190578E+02 -0.28647899058E+02 -0.16544427509E+03  0.21593320317E+03  0.12509045753E+03 0.  0.
          5    1    3    3  502    0  0.60721760478E+02  0.26899768902E+02 -0.38022599743E+02  0.76641504772E+02  0.41800000000E+01 0.  1.
         -5    1    3    3    0  502 -0.79295698994E+01 -0.55547667961E+02 -0.12742167535E+03  0.13929169840E+03  0.41800000000E+01 0.  1.
        -11    1    1    2    0    0 -0.61551672176E+02 -0.64742812884E+01 -0.15041690540E+03  0.16265229816E+03  0.00000000000E+00 0. -1.
         11    1    1    2    0    0  0.87594815976E+01  0.35122180347E+02 -0.29906667445E+02  0.46954284446E+02  0.00000000000E+00 0.  1.
</event>
<event>
 7    1  0.2480409E-009  0.1518352E+03  0.7561462E-02  0.1198236E+00
          1   -1    0    0  501    0  0.00000000000E+00  0.00000000000E+00  0.57179105353E+02  0.57179105353E+02  0.00000000000E+00 0. -1.
         -1   -1    0    0    0  501 -0.00000000000E+00 -0.00000000000E+00 -0.43104118838E+03  0.43104118838E+03  0.00000000000E+00 0.  1.
         25    2    1    2    0    0 -0.87193775559E+02 -0.70077337149E+02 -0.22180113612E+03  0.27813184741E+03  0.12509193772E+03 0.  0.
          5    1    3    3  502    0 -0.16769407396E+02  0.34587112525E+02 -0.76115812489E+02  0.85373126264E+02  0.41800000000E+01 0.  1.
         -5    1    3    3    0  502 -0.70424368164E+02 -0.10466444967E+03 -0.14568532363E+03  0.19275872115E+03  0.41800000000E+01 0.  1.
        -11    1    1    2    0    0 -0.15959667276E+02  0.46167114484E+01 -0.22312396247E+01  0.16763157054E+02  0.00000000000E+00 0. -1.
         11    1    1    2    0    0  0.10315344284E+03  0.65460625700E+02 -0.14982970728E+03  0.19332528926E+03  0.00000000000E+00 0.  1.
</event>
<event>
 7    1  0.2480409E-009  0.1290806E+03  0.7561462E-02  0.1228826E+00
         -1   -1    0    0    0  501 -0.00000000000E+00  0.00000000000E+00  0.10480499694E+03  0.10480499694E+03  0.00000000000E+00 0.  1.
          1   -1    0    0  501    0  0.00000000000E+00 -0.00000000000E+00 -0.19146614612E+03  0.19146614612E+03  0.00000000000E+00 0. -1.
         25    2    1    2    0    0  0.73992158237E+02 -0.99653032345E+01  0.69063592291E+01  0.14584609391E+03  0.12509691668E+03 0.  0.
          5    1    3    3  502    0  0.10750603769E+03 -0.18268046077E+02  0.14956787721E+02  0.11014739010E+03  0.41800000000E+01 0.  1.
         -5    1    3    3    0  502 -0.33513879455E+02  0.83027428423E+01 -0.80504284921E+01  0.35698703810E+02  0.41800000000E+01 0.  1.
        -11    1    1    2    0    0 -0.20806671880E+02 -0.37554273411E+02 -0.18113248394E+02  0.46597540852E+02  0.00000000000E+00 0.  1.
         11    1    1    2    0    0 -0.53185486358E+02  0.47519576645E+02 -0.75454260015E+02  0.10382750829E+03  0.00000000000E+00 0. -1.
</event>
<event>
 7    1  0.2480409E-009  0.1525261E+03  0.7561462E-02  0.1197403E+00
          1   -1    0    0  501    0  0.00000000000E+00  0.00000000000E+00  0.50638147245E+03  0.50638147245E+03  0.00000000000E+00 0. -1.
         -1   -1    0    0    0  501 -0.00000000000E+00 -0.00000000000E+00 -0.50312885368E+02  0.50312885368E+02  0.00000000000E+00 0.  1.
         25    2    1    2    0    0  0.77165619618E+02 -0.85600547853E+02  0.26935927663E+03  0.31856623723E+03  0.12509212988E+03 0.  0.
          5    1    3    3  502    0  0.57351671201E+02  0.13351579082E+02  0.51133442834E+02  0.78099809408E+02  0.41800000000E+01 0.  1.
         -5    1    3    3    0  502  0.19813948417E+02 -0.98952126936E+02  0.21822583379E+03  0.24046642783E+03  0.41800000000E+01 0.  1.
        -11    1    1    2    0    0 -0.37171394014E+02 -0.12386663829E+02  0.31519754887E+02  0.50285553809E+02  0.00000000000E+00 0. -1.
         11    1    1    2    0    0 -0.39994225605E+02  0.97987211682E+02  0.15518955557E+03  0.18784256678E+03  0.00000000000E+00 0.  1.
</event>
<event>
 7    1  0.2480409E-009  0.9280508E+02  0.7561462E-02  0.1296198E+00
         -2   -1    0    0    0  501 -0.00000000000E+00  0.00000000000E+00  0.83313338665E+02  0.83313338665E+02  0.00000000000E+00 0.  1.
          2   -1    0    0  501    0  0.00000000000E+00 -0.00000000000E+00 -0.27058704105E+03  0.27058704105E+03  0.00000000000E+00 0. -1.
         25    2    1    2    0    0 -0.46314219610E+02 -0.72167589731E+02 -0.32833753081E+02  0.15517529866E+03  0.12509256584E+03 0.  0.
          5    1    3    3  502    0 -0.15261838573E+01  0.24496174976E+01 -0.62825451861E+02  0.63030466162E+02  0.41800000000E+01 0. -1.
         -5    1    3    3    0  502 -0.44788035752E+02 -0.74617207228E+02  0.29991698780E+02  0.92144832502E+02  0.41800000000E+01 0. -1.
        -11    1    1    2    0    0  0.26320069008E+02  0.10094404511E+02  0.29656740130E+01  0.28344986459E+02  0.00000000000E+00 0.  1.
         11    1    1    2    0    0  0.19994150602E+02  0.62073185220E+02 -0.15740562332E+03  0.17038009459E+03  0.00000000000E+00 0. -1.
</event>
<event>
 7    1  0.2480409E-009  0.1910106E+03  0.7561462E-02  0.1157553E+00
         -1   -1    0    0    0  501 -0.00000000000E+00  0.00000000000E+00  0.31291006976E+02  0.31291006976E+02  0.00000000000E+00 0.  1.
          1   -1    0    0  501    0  0.00000000000E+00 -0.00000000000E+00 -0.14134751267E+04  0.14134751267E+04  0.00000000000E+00 0. -1.
         25    2    1    2    0    0  0.20128893084E+02 -0.17201766590E+03 -0.56117081270E+03  0.60046173310E+03  0.12508541949E+03 0.  0.
          5    1    3    3  502    0  0.47224546386E+02 -0.70968004812E+02 -0.12139769832E+03  0.14839639162E+03  0.41800000000E+01 0.  1.
         -5    1    3    3    0  502 -0.27095653302E+02 -0.10104966108E+03 -0.43977311438E+03  0.45206534148E+03  0.41800000000E+01 0.  1.
        -11    1    1    2    0    0  0.30710907355E+02  0.39485518733E+02 -0.14036808692E+03  0.14901498531E+03  0.00000000000E+00 0.  1.
         11    1    1    2    0    0 -0.50839800439E+02  0.13253214716E+03 -0.68064522005E+03  0.69528941522E+03  0.00000000000E+00 0. -1.
</event>
<event>
 7    1  0.2480409E-009  0.1493913E+03  0.7561462E-02  0.1201223E+00
          4   -1    0    0  501    0  0.00000000000E+00  0.00000000000E+00  0.40258348262E+03  0.40258348262E+03  0.00000000000E+00 0. -1.
         -4   -1    0    0    0  501 -0.00000000000E+00 -0.00000000000E+00 -0.61631678334E+02  0.61631678334E+02  0.00000000000E+00 0.  1.
         25    2    1    2    0    0 -0.60174218321E+02 -0.96304762622E+02  0.16091737622E+03  0.23331844384E+03  0.12509016913E+03 0.  0.
          5    1    3    3  502    0  0.13054697274E+02 -0.83755337096E+02  0.12396746978E+03  0.15023577329E+03  0.41800000000E+01 0.  1.
         -5    1    3    3    0  502 -0.73228915595E+02 -0.12549425527E+02  0.36949906440E+02  0.83082670553E+02  0.41800000000E+01 0.  1.
        -11    1    1    2    0    0  0.60026686003E+02  0.20112261206E+02  0.11246705317E+03  0.12906023451E+03  0.00000000000E+00 0. -1.
         11    1    1    2    0    0  0.14753231793E+00  0.76192501416E+02  0.67567374903E+02  0.10183648260E+03  0.00000000000E+00 0.  1.
</event>
<event>
 7    1  0.2480409E-009  0.8906726E+02  0.7561462E-02  0.1305126E+00
         -2   -1    0    0    0  501 -0.00000000000E+00  0.00000000000E+00  0.12413426289E+03  0.12413426289E+03  0.00000000000E+00 0.  1.
          2   -1    0    0  501    0  0.00000000000E+00 -0.00000000000E+00 -0.14604394269E+03  0.14604394269E+03  0.00000000000E+00 0. -1.
         25    2    1    2    0    0  0.57703112366E+02  0.42886479561E+02 -0.47991454523E+02  0.15204779147E+03  0.12508577809E+03 0.  0.
          5    1    3    3  502    0  0.55163700036E+01  0.26521312766E+02  0.39922041155E+02  0.48425738393E+02  0.41800000000E+01 0.  1.
         -5    1    3    3    0  502  0.52186742362E+02  0.16365166794E+02 -0.87913495678E+02  0.10362205308E+03  0.41800000000E+01 0.  1.
        -11    1    1    2    0    0 -0.50739919650E+01  0.16064843195E+02  0.34762008370E+02  0.38629286911E+02  0.00000000000E+00 0.  1.
         11    1    1    2    0    0 -0.52629120401E+02 -0.58951322756E+02 -0.86802336467E+01  0.79501127193E+02  0.00000000000E+00 0. -1.
</event>
<event>
 7    1  0.2683824E-009  0.1593125E+03  0.7561462E-02  0.1189475E+00
          2   -1    0    0  501    0  0.00000000000E+00  0.00000000000E+00  0.84924029775E+03  0.84924029775E+03  0.00000000000E+00 0. -1.
         -2   -1    0    0    0  501 -0.00000000000E+00 -0.00000000000E+00 -0.35766792058E+02  0.35766792058E+02  0.00000000000E+00 0.  1.
         25    2    1    2    0    0 -0.74556272970E+01 -0.13241280955E+03  0.35390094756E+03  0.39809900082E+03  0.12509274662E+03 0.  0.
          5    1    3    3  502    0  0.17475836523E+02  0.17864107465E+02  0.24925381442E+02  0.35542625645E+02  0.41800000000E+01 0.  1.
         -5    1    3    3    0  502 -0.24931463820E+02 -0.15027691702E+03  0.32897556612E+03  0.36255637517E+03  0.41800000000E+01 0.  1.
        -11    1    1    2    0    0  0.26624402256E+02  0.54402105384E+02  0.32159930416E+03  0.32725305240E+03  0.00000000000E+00 0. -1.
         11    1    1    2    0    0 -0.19168774959E+02  0.78010704169E+02  0.13797325397E+03  0.15965503659E+03  0.00000000000E+00 0.  1.
</event>
<event>
 7    1  0.2480409E-009  0.7390919E+02  0.7561462E-02  0.1347283E+00
          1   -1    0    0  501    0  0.00000000000E+00  0.00000000000E+00  0.35345354796E+03  0.35345354796E+03  0.00000000000E+00 0. -1.
         -1   -1    0    0    0  501 -0.00000000000E+00 -0.00000000000E+00 -0.38496334498E+02  0.38496334498E+02  0.00000000000E+00 0.  1.
         25    2    1    2    0    0  0.39314713711E+02 -0.10128138729E+02  0.14488862393E+03  0.19567145072E+03  0.12508548027E+03 0.  0.
          5    1    3    3  502    0  0.34163244569E+01 -0.30836801557E+02  0.15042817837E+03  0.15365119215E+03  0.41800000000E+01 0. -1.
         -5    1    3    3    0  502  0.35898389254E+02  0.20708662828E+02 -0.55395544337E+01  0.42020258572E+02  0.41800000000E+01 0. -1.
        -11    1    1    2    0    0  0.49847933853E+01  0.26999348854E+02  0.98093233612E+01  0.29155373920E+02  0.00000000000E+00 0.  1.
         11    1    1    2    0    0 -0.44299507096E+02 -0.16871210125E+02  0.16025926617E+03  0.16712305781E+03  0.00000000000E+00 0. -1.
</event>
<event>
 7    1  0.2480409E-009  0.8071786E+02  0.7561462E-02  0.1327027E+00
         -2   -1    0    0    0  501 -0.00000000000E+00  0.00000000000E+00  0.97653863916E+02  0.97653863916E+02  0.00000000000E+00 0.  1.
          2   -1    0    0  501    0  0.00000000000E+00 -0.00000000000E+00 -0.12361402120E+03  0.12361402120E+03  0.00000000000E+00 0. -1.
         25    2    1    2    0    0 -0.86318425648E+00  0.17776526021E+02 -0.21102512753E+02  0.12809868369E+03  0.12508879548E+03 0.  0.
          5    1    3    3  502    0 -0.23947497256E+02  0.44630291176E+02  0.34940310647E+02  0.61673683394E+02  0.41800000000E+01 0.  1.
         -5    1    3    3    0  502  0.23084313000E+02 -0.26853765156E+02 -0.56042823400E+02  0.66425000296E+02  0.41800000000E+01 0.  1.
        -11    1    1    2    0    0 -0.20950849825E+02 -0.39158392120E+02  0.24569982149E+02  0.50754327940E+02  0.00000000000E+00 0.  1.
         11    1    1    2    0    0  0.21814034082E+02  0.21381866100E+02 -0.29427626681E+02  0.42414873486E+02  0.00000000000E+00 0. -1.
</event>
<event>
 7    1  0.3010498E-009  0.1038179E+03  0.7561462E-02  0.1272466E+00
         -1   -1    0    0    0  501 -0.00000000000E+00  0.00000000000E+00  0.61406629284E+02  0.61406629284E+02  0.00000000000E+00 0.  1.
          1   -1    0    0  501    0  0.00000000000E+00 -0.00000000000E+00 -0.26891685647E+03  0.26891685647E+03  0.00000000000E+00 0. -1.
         25    2    1    2    0    0 -0.37860841769E+02 -0.36536428767E+02 -0.58848416222E+02  0.14791742038E+03  0.12509225872E+03 0.  0.
          5    1    3    3  502    0  0.19734447278E+02  0.35705374056E+02 -0.61400930514E+01  0.41466797423E+02  0.41800000000E+01 0. -1.
         -5    1    3    3    0  502 -0.57595289047E+02 -0.72241802823E+02 -0.52708323170E+02  0.10645062295E+03  0.41800000000E+01 0. -1.
        -11    1    1    2    0    0  0.43343034164E+02  0.46000529241E+02 -0.15661206521E+03  0.16888459453E+03  0.00000000000E+00 0. -1.
         11    1    1    2    0    0 -0.54821923948E+01 -0.94641004736E+01  0.79502542462E+01  0.13521470845E+02  0.00000000000E+00 0.  1.
</event>
<event>
 7    1  0.2480409E-009  0.1046182E+03  0.7561462E-02  0.1270874E+00
         -2   -1    0    0    0  501 -0.00000000000E+00  0.00000000000E+00  0.34877344762E+02  0.34877344762E+02  0.00000000000E+00 0.  1.
          2   -1    0    0  501    0  0.00000000000E+00 -0.00000000000E+00 -0.51891565031E+03  0.51891565031E+03  0.00000000000E+00 0. -1.
         25    2    1    2    0    0 -0.75889232549E+01  0.45110278105E+02 -0.36016169320E+03  0.38400049436E+03  0.12508958980E+03 0.  0.
          5    1    3    3  502    0 -0.46000438973E+02  0.11599127249E+02 -0.47785436151E+02  0.67464808951E+02  0.41800000000E+01 0.  1.
         -5    1    3    3    0  502  0.38411515718E+02  0.33511150856E+02 -0.31237625705E+03  0.31653568541E+03  0.41800000000E+01 0.  1.
        -11    1    1    2    0    0  0.21320308352E+02 -0.74787074805E+02 -0.60687888816E+02  0.98644219066E+02  0.00000000000E+00 0.  1.
         11    1    1    2    0    0 -0.13731385097E+02  0.29676796701E+02 -0.63188723532E+02  0.71148281642E+02  0.00000000000E+00 0. -1.
</event>
<event>
 7    1  0.2480409E-009  0.1808342E+03  0.7561462E-02  0.1166998E+00
         -2   -1    0    0    0  501 -0.00000000000E+00  0.00000000000E+00  0.19471610870E+03  0.19471610870E+03  0.00000000000E+00 0. -1.
          2   -1    0    0  501    0  0.00000000000E+00 -0.00000000000E+00 -0.18426618100E+03  0.18426618100E+03  0.00000000000E+00 0.  1.
         25    2    1    2    0    0  0.10340389005E+03 -0.10096391189E+03  0.60764318613E+02  0.20056701488E+03  0.12509496018E+03 0.  0.
          5    1    3    3  502    0  0.78235840247E+02  0.79516432883E+01  0.32463640823E+02  0.85178845412E+02  0.41800000000E+01 0. -1.
         -5    1    3    3    0  502  0.25168049798E+02 -0.10891555518E+03  0.28300677790E+02  0.11538816947E+03  0.41800000000E+01 0. -1.
        -11    1    1    2    0    0 -0.26003041577E+02 -0.16197298929E+02 -0.64800592846E+01  0.31312965879E+02  0.00000000000E+00 0.  1.
         11    1    1    2    0    0 -0.77400848469E+02  0.11716121082E+03 -0.43834331632E+02  0.14710230894E+03  0.00000000000E+00 0. -1.
</event>
<event>
 7    1  0.2480409E-009  0.1270012E+03  0.7561462E-02  0.1231975E+00
          2   -1    0    0  501    0  0.00000000000E+00  0.00000000000E+00  0.25040411945E+03  0.25040411945E+03  0.00000000000E+00 0.  1.
         -2   -1    0    0    0  501 -0.00000000000E+00 -0.00000000000E+00 -0.99912058567E+02  0.99912058567E+02  0.00000000000E+00 0. -1.
         25    2    1    2    0    0 -0.78754656492E+02 -0.67097258269E+00 -0.10734522441E+02  0.14820693449E+03  0.12508924549E+03 0.  0.
          5    1    3    3  502    0 -0.96624693702E+02  0.38603008346E+02 -0.12099374066E+02  0.10483506541E+03  0.41800000000E+01 0. -1.
         -5    1    3    3    0  502  0.17870037210E+02 -0.39273980928E+02  0.13648516251E+01  0.43371869084E+02  0.41800000000E+01 0. -1.
        -11    1    1    2    0    0  0.73084313924E+02  0.28255502735E+02  0.64877542029E+02  0.10172898228E+03  0.00000000000E+00 0. -1.
         11    1    1    2    0    0  0.56703425674E+01 -0.27584530152E+02  0.96349041295E+02  0.10038026124E+03  0.00000000000E+00 0.  1.
</event>
<event>
 7    1  0.2480409E-009  0.7381281E+02  0.7561462E-02  0.1347587E+00
          1   -1    0    0  501    0  0.00000000000E+00  0.00000000000E+00  0.48814499182E+03  0.48814499182E+03  0.00000000000E+00 0. -1.
         -1   -1    0    0    0  501 -0.00000000000E+00 -0.00000000000E+00 -0.26533682568E+02  0.26533682568E+02  0.00000000000E+00 0.  1.
         25    2    1    2    0    0  0.52989523106E+01  0.46758961641E+00  0.33201727684E+03  0.35483931483E+03  0.12508864732E+03 0.  0.
          5    1    3    3  502    0  0.44114449978E+02  0.19107934641E+02  0.29182690779E+03  0.29578981452E+03  0.41800000000E+01 0.  1.
         -5    1    3    3    0  502 -0.38815497668E+02 -0.18640345024E+02  0.40190369051E+02  0.59049500305E+02  0.41800000000E+01 0.  1.
        -11    1    1    2    0    0 -0.83169608499E+01 -0.27590748976E+02  0.12937750108E+03  0.13254795002E+03  0.00000000000E+00 0. -1.
         11    1    1    2    0    0  0.30180085394E+01  0.27123159359E+02  0.21653132602E+00  0.27291409546E+02  0.00000000000E+00 0.  1.
</event>
<event>
 7    1  0.2480409E-009  0.1158085E+03  0.7561462E-02  0.1250176E+00
         -2   -1    0    0    0  501 -0.00000000000E+00  0.00000000000E+00  0.20550698523E+02  0.20550698523E+02  0.00000000000E+00 0.  1.
          2   -1    0    0  501    0  0.00000000000E+00 -0.00000000000E+00 -0.21454077483E+04  0.21454077483E+04  0.00000000000E+00 0. -1.
         25    2    1    2    0    0  0.17368491961E+02  0.86435728399E+02 -0.19138155949E+04  0.19199246436E+04  0.12509079172E+03 0.  0.
          5    1    3    3  502    0 -0.37265842924E+02  0.58089395433E+01 -0.21564144795E+03  0.21895477456E+03  0.41800000000E+01 0. -1.
         -5    1    3    3    0  502  0.54634334885E+02  0.80626788855E+02 -0.16981741469E+04  0.17009698690E+04  0.41800000000E+01 0. -1.
        -11    1    1    2    0    0 -0.27046840841E+02 -0.37110842418E+02 -0.22940193568E+02  0.51332238461E+02  0.00000000000E+00 0.  1.
         11    1    1    2    0    0  0.96783488802E+01 -0.49324885981E+02 -0.18810126132E+03  0.19470156477E+03  0.00000000000E+00 0. -1.
</event>
<event>
 7    1  0.2480409E-009  0.1174960E+03  0.7561462E-02  0.1247286E+00
          2   -1    0    0  501    0  0.00000000000E+00  0.00000000000E+00  0.86706869152E+03  0.86706869152E+03  0.00000000000E+00 0. -1.
         -2   -1    0    0    0  501 -0.00000000000E+00 -0.00000000000E+00 -0.19927573668E+02  0.19927573668E+02  0.00000000000E+00 0.  1.
         25    2    1    2    0    0  0.52359969086E+02  0.20795357864E+02  0.61809779868E+03  0.63314019991E+03  0.12509041025E+03 0.  0.
          5    1    3    3  502    0  0.84662650537E+02  0.41260048749E+02  0.50374678869E+03  0.51249239558E+03  0.41800000000E+01 0.  1.
         -5    1    3    3    0  502 -0.32302681451E+02 -0.20464690884E+02  0.11435100999E+03  0.12064780432E+03  0.41800000000E+01 0.  1.
        -11    1    1    2    0    0 -0.32464750563E+02  0.32150264358E+02  0.58812245428E+02  0.74474691941E+02  0.00000000000E+00 0.  1.
         11    1    1    2    0    0 -0.19895218523E+02 -0.52945622223E+02  0.17023107375E+03  0.17938137334E+03  0.00000000000E+00 0. -1.
</event>
<event>
 7    1  0.2480409E-009  0.1110693E+03  0.7561462E-02  0.1258602E+00
         -2   -1    0    0    0  501 -0.00000000000E+00  0.00000000000E+00  0.17196950263E+03  0.17196950263E+03  0.00000000000E+00 0.  1.
          2   -1    0    0  501    0  0.00000000000E+00 -0.00000000000E+00 -0.96221439376E+02  0.96221439376E+02  0.00000000000E+00 0. -1.
         25    2    1    2    0    0 -0.52037966341E+02  0.26616924539E+02  0.13478399733E+02  0.13873495178E+03  0.12509719810E+03 0.  0.
          5    1    3    3  502    0  0.27187778243E+02  0.42412773459E+02 -0.15393778648E+02  0.52843726774E+02  0.41800000000E+01 0.  1.
         -5    1    3    3    0  502 -0.79225744584E+02 -0.15795848920E+02  0.28872178381E+02  0.85891225003E+02  0.41800000000E+01 0.  1.
        -11    1    1    2    0    0  0.54170286349E+02  0.90860304191E+01  0.73691615266E+02  0.91909901711E+02  0.00000000000E+00 0.  1.
         11    1    1    2    0    0 -0.21323200073E+01 -0.35702954958E+02 -0.11421951746E+02  0.37546088518E+02  0.00000000000E+00 0. -1.
</event>
<event>
 7    1  0.2480409E-009  0.1818173E+03  0.7561462E-02  0.1166056E+00
          2   -1    0    0  501    0  0.00000000000E+00  0.00000000000E+00  0.21313949098E+03  0.21313949098E+03  0.00000000000E+00 0.  1.
         -2   -1    0    0    0  501 -0.00000000000E+00 -0.00000000000E+00 -0.18011581302E+03  0.18011581302E+03  0.00000000000E+00 0. -1.
         25    2    1    2    0    0  0.10109916942E+03  0.12327254859E+03 -0.11089884649E+02  0.20295012404E+03  0.12509438043E+03 0.  0.
          5    1    3    3  502    0  0.12184242374E+03  0.60403120053E+02 -0.26747056106E+01  0.13608357574E+03  0.41800000000E+01 0. -1.
         -5    1    3    3    0  502 -0.20743254321E+02  0.62869428533E+02 -0.84151790386E+01  0.66866548304E+02  0.41800000000E+01 0. -1.
        -11    1    1    2    0    0 -0.60817249926E+02 -0.55138162612E+02 -0.24377802057E+02  0.85634292768E+02  0.00000000000E+00 0. -1.
         11    1    1    2    0    0 -0.40281919496E+02 -0.68134385974E+02  0.68491364662E+02  0.10467088718E+03  0.00000000000E+00 0.  1.
</event>
<event>
 7    1  0.2480409E-009  0.9163602E+02  0.7561462E-02  0.1298938E+00
         -2   -1    0    0    0  501 -0.00000000000E+00  0.00000000000E+00  0.10953602135E+03  0.10953602135E+03  0.00000000000E+00 0.  1.
          2   -1    0    0  501    0  0.00000000000E+00 -0.00000000000E+00 -0.10411526833E+03  0.10411526833E+03  0.00000000000E+00 0. -1.
         25    2    1    2    0    0  0.31762111421E+02  0.28809979849E+02  0.22822067241E+01  0.13225662647E+03  0.12509100734E+03 0.  0.
          5    1    3    3  502    0 -0.23970167958E+02 -0.32041329219E+02  0.23974141969E+02  0.46834256834E+02  0.41800000000E+01 0.  1.
         -5    1    3    3    0  502  0.55732279379E+02  0.60851309067E+02 -0.21691935245E+02  0.85422369638E+02  0.41800000000E+01 0.  1.
        -11    1    1    2    0    0 -0.30175762450E+02 -0.39445244308E+02  0.26053012551E+02  0.56082647949E+02  0.00000000000E+00 0.  1.
         11    1    1    2    0    0 -0.15863489711E+01  0.10635264459E+02 -0.22914466255E+02  0.25312015268E+02  0.00000000000E+00 0. -1.
</event>
<event>
 7    1  0.2480409E-009  0.1845746E+03  0.7561462E-02  0.1163448E+00
         -2   -1    0    0    0  501 -0.00000000000E+00  0.00000000000E+00  0.23748597174E+02  0.23748597174E+02  0.00000000000E+00 0. -1.
          2   -1    0    0  501    0  0.00000000000E+00 -0.00000000000E+00 -0.16918979328E+04  0.16918979328E+04  0.00000000000E+00 0.  1.
         25    2    1    2    0    0  0.20703612540E+02  0.16611771789E+03 -0.95486160547E+03  0.97746172115E+03  0.12508794884E+03 0.  0.
          5    1    3    3  502    0 -0.35451631386E+02  0.36199657529E+02 -0.45814321582E+03  0.46095543383E+03  0.41800000000E+01 0.  1.
         -5    1    3    3    0  502  0.56155243926E+02  0.12991806036E+03 -0.49671838965E+03  0.51650628732E+03  0.41800000000E+01 0.  1.
        -11    1    1    2    0    0 -0.26093185009E+02 -0.27206169904E+02 -0.64827313860E+02  0.74990736808E+02  0.00000000000E+00 0. -1.
         11    1    1    2    0    0  0.53895724690E+01 -0.13891154798E+03 -0.64846041629E+03  0.66319407201E+03  0.00000000000E+00 0.  1.
</event>
<event>
 7    1  0.2480409E-009  0.1682054E+03  0.7561462E-02  0.1179732E+00
         -2   -1    0    0    0  501 -0.00000000000E+00  0.00000000000E+00  0.23828828522E+02  0.23828828522E+02  0.00000000000E+00 0.  1.
          2   -1    0    0  501    0  0.00000000000E+00 -0.00000000000E+00 -0.20439524117E+04  0.20439524117E+04  0.00000000000E+00 0. -1.
         25    2    1    2    0    0  0.33736682405E+02 -0.15264683819E+03 -0.15696880606E+04  0.15824056713E+04  0.12509148657E+03 0.  0.
          5    1    3    3  502    0  0.15177301348E+02 -0.13303306462E+03 -0.72479192855E+03  0.73706781156E+03  0.41800000000E+01 0.  1.
         -5    1    3    3    0  502  0.18559381057E+02 -0.19613773578E+02 -0.84489613206E+03  0.84533785974E+03  0.41800000000E+01 0.  1.
        -11    1    1    2    0    0 -0.58181549654E+02  0.83389341591E+02 -0.19957117237E+03  0.22398108816E+03  0.00000000000E+00 0.  1.
         11    1    1    2    0    0  0.24444867249E+02  0.69257496603E+02 -0.25086435021E+03  0.26139448077E+03  0.00000000000E+00 0. -1.
</event>
<event>
 7    1  0.2480409E-009  0.2118580E+03  0.7561462E-02  0.1140103E+00
         -1   -1    0    0    0  501 -0.00000000000E+00  0.00000000000E+00  0.43376213055E+02  0.43376213055E+02  0.00000000000E+00 0.  1.
          1   -1    0    0  501    0  0.00000000000E+00 -0.00000000000E+00 -0.11335512766E+04  0.11335512766E+04  0.00000000000E+00 0. -1.
         25    2    1    2    0    0  0.70655228117E+01 -0.18243889756E+03 -0.73029985392E+03  0.76309865118E+03  0.12509117409E+03 0.  0.
          5    1    3    3  502    0  0.63056840252E+02 -0.11899719592E+03 -0.39886569182E+03  0.42100808811E+03  0.41800000000E+01 0. -1.
         -5    1    3    3    0  502 -0.55991317440E+02 -0.63441701648E+02 -0.33143416210E+03  0.34209056307E+03  0.41800000000E+01 0. -1.
        -11    1    1    2    0    0  0.30426630644E+02  0.15459178604E+03 -0.28152680047E+03  0.32261701683E+03  0.00000000000E+00 0.  1.
         11    1    1    2    0    0 -0.37492153456E+02  0.27847111522E+02 -0.78348409128E+02  0.91211821623E+02  0.00000000000E+00 0. -1.
</event>
<event>
 7    1  0.2480409E-009  0.2384424E+03  0.7561462E-02  0.1120835E+00
          2   -1    0    0  501    0  0.00000000000E+00  0.00000000000E+00  0.13017906485E+04  0.13017906485E+04  0.00000000000E+00 0. -1.
         -2   -1    0    0    0  501 -0.00000000000E+00 -0.00000000000E+00 -0.49706848773E+02  0.49706848773E+02  0.00000000000E+00 0.  1.
         25    2    1    2    0    0  0.66233198199E+02 -0.21860275095E+03  0.65943065724E+03  0.70899309431E+03  0.12509363217E+03 0.  0.
          5    1    3    3  502    0  0.51267446812E+02 -0.15634293026E+03  0.59771678507E+03  0.61996313640E+03  0.41800000000E+01 0. -1.
         -5    1    3    3    0  502  0.14965751387E+02 -0.62259820692E+02  0.61713872170E+02  0.89029957910E+02  0.41800000000E+01 0. -1.
        -11    1    1    2    0    0 -0.62705472643E+02  0.51926765296E+02  0.19759624083E+03  0.21371158051E+03  0.00000000000E+00 0. -1.
         11    1    1    2    0    0 -0.35277255568E+01  0.16667598565E+03  0.39505690168E+03  0.42879282247E+03  0.00000000000E+00 0.  1.
</event>
<event>
 7    1  0.2480409E-009  0.9364324E+02  0.7561462E-02  0.1294261E+00
          1   -1    0    0  501    0  0.00000000000E+00  0.00000000000E+00  0.70141759341E+02  0.70141759341E+02  0.00000000000E+00 0. -1.
         -1   -1    0    0    0  501 -0.00000000000E+00 -0.00000000000E+00 -0.36838839092E+03  0.36838839092E+03  0.00000000000E+00 0.  1.
         25    2    1    2    0    0  0.19097149778E+02  0.78131401734E+02 -0.27760566832E+03  0.31493192501E+03  0.12509193914E+03 0.  0.
          5    1    3    3  502    0  0.76409307346E+01  0.78810997811E+02 -0.66534939820E+02  0.10350810507E+03  0.41800000000E+01 0. -1.
         -5    1    3    3    0  502  0.11456219043E+02 -0.67959607662E+00 -0.21107072850E+03  0.21142381994E+03  0.41800000000E+01 0. -1.
        -11    1    1    2    0    0 -0.24640699860E+02 -0.87030633980E+01  0.28264305985E+02  0.38493874771E+02  0.00000000000E+00 0. -1.
         11    1    1    2    0    0  0.55435500824E+01 -0.69428338336E+02 -0.48905269240E+02  0.85104350483E+02  0.00000000000E+00 0.  1.
</event>
<event>
 7    1  0.2480409E-009  0.6961173E+02  0.7561462E-02  0.1361418E+00
          4   -1    0    0  501    0  0.00000000000E+00  0.00000000000E+00  0.42241595367E+02  0.42241595367E+02  0.00000000000E+00 0. -1.
         -4   -1    0    0    0  501 -0.00000000000E+00 -0.00000000000E+00 -0.28248794585E+03  0.28248794585E+03  0.00000000000E+00 0.  1.
         25    2    1    2    0    0 -0.17494175573E+02  0.23063859885E+02 -0.16108509766E+03  0.20599432573E+03  0.12508903122E+03 0.  0.
          5    1    3    3  502    0 -0.13117255803E+02 -0.30421272060E+02 -0.14645734479E+03  0.15021565310E+03  0.41800000000E+01 0.  1.
         -5    1    3    3    0  502 -0.43769197698E+01  0.53485131945E+02 -0.14627752868E+02  0.55778672625E+02  0.41800000000E+01 0.  1.
        -11    1    1    2    0    0  0.22963804828E+02  0.49260439354E+01 -0.86214822387E+02  0.89356576928E+02  0.00000000000E+00 0.  1.
         11    1    1    2    0    0 -0.54696292547E+01 -0.27989903820E+02  0.70535695655E+01  0.29378638560E+02  0.00000000000E+00 0. -1.
</event>
<event>
 7    1  0.2480409E-009  0.2240535E+03  0.7561462E-02  0.1130897E+00
          2   -1    0    0  501    0  0.00000000000E+00  0.00000000000E+00  0.42606724214E+03  0.42606724214E+03  0.00000000000E+00 0.  1.
         -2   -1    0    0    0  501 -0.00000000000E+00 -0.00000000000E+00 -0.14490810366E+03  0.14490810366E+03  0.00000000000E+00 0. -1.
         25    2    1    2    0    0 -0.12592156350E+03 -0.15777678619E+03  0.34572341026E+02  0.23998273200E+03  0.12508681178E+03 0.  0.
          5    1    3    3  502    0  0.94957613970E+01 -0.71892459753E+02 -0.10423248779E+02  0.73381276692E+02  0.41800000000E+01 0.  1.
         -5    1    3    3    0  502 -0.13541732490E+03 -0.85884326433E+02  0.44995589805E+02  0.16660145531E+03  0.41800000000E+01 0.  1.
        -11    1    1    2    0    0  0.12447082139E+03  0.10665033679E+03  0.21684984887E+03  0.27182924175E+03  0.00000000000E+00 0.  1.
         11    1    1    2    0    0  0.14507421076E+01  0.51126449391E+02  0.29736948586E+02  0.59163372040E+02  0.00000000000E+00 0. -1.
</event>
<event>
 7    1  0.2480409E-009  0.8338252E+02  0.7561462E-02  0.1319717E+00
         -4   -1    0    0    0  501 -0.00000000000E+00  0.00000000000E+00  0.20581664082E+02  0.20581664082E+02  0.00000000000E+00 0.  1.
          4   -1    0    0  501    0  0.00000000000E+00 -0.00000000000E+00 -0.67646131831E+03  0.67646131831E+03  0.00000000000E+00 0. -1.
         25    2    1    2    0    0  0.23213165359E+02 -0.32943467069E+02 -0.47614864666E+03  0.49395254235E+03  0.12508979700E+03 0.  0.
          5    1    3    3  502    0 -0.21149942775E+02 -0.72111716531E+01 -0.40763334560E+03  0.40826674849E+03  0.41800000000E+01 0. -1.
         -5    1    3    3    0  502  0.44363108135E+02 -0.25732295416E+02 -0.68515301054E+02  0.85685793859E+02  0.41800000000E+01 0. -1.
        -11    1    1    2    0    0  0.16431763064E+02 -0.20348756222E+02 -0.71148529782E+02  0.75803614738E+02  0.00000000000E+00 0.  1.
         11    1    1    2    0    0 -0.39644928423E+02  0.53292223292E+02 -0.10858247778E+03  0.12728682530E+03  0.00000000000E+00 0. -1.
</event>
<event>
 7    1  0.2480409E-009  0.7954690E+02  0.7561462E-02  0.1330342E+00
          2   -1    0    0  501    0  0.00000000000E+00  0.00000000000E+00  0.27442857636E+03  0.27442857636E+03  0.00000000000E+00 0. -1.
         -2   -1    0    0    0  501 -0.00000000000E+00 -0.00000000000E+00 -0.49421628397E+02  0.49421628397E+02  0.00000000000E+00 0.  1.
         25    2    1    2    0    0  0.28845933491E+02  0.24204852359E+02  0.15549593453E+03  0.20308826299E+03  0.12509154308E+03 0.  0.
          5    1    3    3  502    0 -0.69851268438E+01  0.43386809039E+02  0.19363387081E+01  0.44186298817E+02  0.41800000000E+01 0. -1.
         -5    1    3    3    0  502  0.35831060335E+02 -0.19181956680E+02  0.15355959582E+03  0.15890196417E+03  0.41800000000E+01 0. -1.
        -11    1    1    2    0    0 -0.25721280857E+02  0.18240708811E+02 -0.78242663233E+01  0.32488873332E+02  0.00000000000E+00 0.  1.
         11    1    1    2    0    0 -0.31246526339E+01 -0.42445561170E+02  0.77335279752E+02  0.88273068438E+02  0.00000000000E+00 0. -1.
</event>
<event>
 7    1  0.2480409E-009  0.1128146E+03  0.7561462E-02  0.1255445E+00
          2   -1    0    0  501    0  0.00000000000E+00  0.00000000000E+00  0.55663028144E+02  0.55663028144E+02  0.00000000000E+00 0.  1.
         -2   -1    0    0    0  501 -0.00000000000E+00 -0.00000000000E+00 -0.26964200375E+03  0.26964200375E+03  0.00000000000E+00 0. -1.
         25    2    1    2    0    0  0.33544451546E+02 -0.46459051587E+02 -0.12342689146E+03  0.18483712573E+03  0.12508753658E+03 0.  0.
          5    1    3    3  502    0 -0.44502132054E+02 -0.22524330110E+02 -0.22273447347E+02  0.54784706452E+02  0.41800000000E+01 0. -1.
         -5    1    3    3    0  502  0.78046583600E+02 -0.23934721477E+02 -0.10115344411E+03  0.13005241927E+03  0.41800000000E+01 0. -1.
        -11    1    1    2    0    0  0.63689948909E+01  0.53007244318E+02 -0.16142035289E+02  0.55775418863E+02  0.00000000000E+00 0.  1.
         11    1    1    2    0    0 -0.39913446437E+02 -0.65481927306E+01 -0.74410048863E+02  0.84692487308E+02  0.00000000000E+00 0. -1.
</event>
<event>
 7    1  0.2480409E-009  0.2087738E+03  0.7561462E-02  0.1142541E+00
          1   -1    0    0  501    0  0.00000000000E+00  0.00000000000E+00  0.35863593989E+03  0.35863593989E+03  0.00000000000E+00 0. -1.
         -1   -1    0    0    0  501 -0.00000000000E+00 -0.00000000000E+00 -0.15319845348E+03  0.15319845348E+03  0.00000000000E+00 0.  1.
         25    2    1    2    0    0 -0.20193766508E+03  0.10217773035E+02  0.55556821882E+02  0.24416485526E+03  0.12508674041E+03 0.  0.
          5    1    3    3  502    0 -0.20262181300E+03  0.14096144947E+02  0.15550959585E+02  0.20374887767E+03  0.41800000000E+01 0.  1.
         -5    1    3    3    0  502  0.68414792508E+00 -0.38783719119E+01  0.40005862296E+02  0.40415977597E+02  0.41800000000E+01 0.  1.
        -11    1    1    2    0    0  0.11491859676E+03 -0.31317216060E+02  0.12928930302E+03  0.17579185356E+03  0.00000000000E+00 0. -1.
         11    1    1    2    0    0  0.87019068319E+02  0.21099443025E+02  0.20591361505E+02  0.91877684536E+02  0.00000000000E+00 0.  1.
</event>
<event>
 7    1  0.2480409E-009  0.1092136E+03  0.7561462E-02  0.1262033E+00
         -1   -1    0    0    0  501 -0.00000000000E+00  0.00000000000E+00  0.16098807250E+03  0.16098807250E+03  0.00000000000E+00 0.  1.
          1   -1    0    0  501    0  0.00000000000E+00 -0.00000000000E+00 -0.90959248753E+02  0.90959248753E+02  0.00000000000E+00 0. -1.
         25    2    1    2    0    0 -0.26048765547E+02  0.28494459939E+02  0.76247115922E+02  0.15149832119E+03  0.12509055202E+03 0.  0.
          5    1    3    3  502    0 -0.16207970017E+02  0.74381997281E+02  0.70839233646E+02  0.10407232694E+03  0.41800000000E+01 0. -1.
         -5    1    3    3    0  502 -0.98407955302E+01 -0.45887537342E+02  0.54078822761E+01  0.47425994251E+02  0.41800000000E+01 0. -1.
        -11    1    1    2    0    0  0.57352539214E+02 -0.27852742929E+02  0.11025388939E+02  0.64704313953E+02  0.00000000000E+00 0.  1.
         11    1    1    2    0    0 -0.31303773667E+02 -0.64171701027E+00 -0.17243681114E+02  0.35744686107E+02  0.00000000000E+00 0. -1.
</event>
<event>
 7    1  0.2480409E-009  0.1320951E+03  0.7561462E-02  0.1224380E+00
         -2   -1    0    0    0  501 -0.00000000000E+00  0.00000000000E+00  0.42252738364E+02  0.42252738364E+02  0.00000000000E+00 0.  1.
          2   -1    0    0  501    0  0.00000000000E+00 -0.00000000000E+00 -0.49426937313E+03  0.49426937313E+03  0.00000000000E+00 0. -1.
         25    2    1    2    0    0 -0.57305843375E+02 -0.67325235888E+02 -0.31316153552E+03  0.34861792355E+03  0.12509061604E+03 0.  0.
          5    1    3    3  502    0  0.37602204690E+02 -0.30339725262E+01 -0.90750308489E+02  0.98367787805E+02  0.41800000000E+01 0. -1.
         -5    1    3    3    0  502 -0.94908048065E+02 -0.64291263362E+02 -0.22241122703E+03  0.25025013574E+03  0.41800000000E+01 0. -1.
        -11    1    1    2    0    0  0.58279918308E+02  0.79908769194E+02 -0.78575134349E+02  0.12631710894E+03  0.00000000000E+00 0.  1.
         11    1    1    2    0    0 -0.97407493331E+00 -0.12583533306E+02 -0.60279964900E+02  0.61587079008E+02  0.00000000000E+00 0. -1.
</event>
<event>
 7    1  0.2480409E-009  0.2950924E+03  0.7561462E-02  0.1087720E+00
          1   -1    0    0  501    0  0.00000000000E+00  0.00000000000E+00  0.45364773632E+03  0.45364773632E+03  0.00000000000E+00 0. -1.
         -1   -1    0    0    0  501 -0.00000000000E+00 -0.00000000000E+00 -0.21751116866E+03  0.21751116866E+03  0.00000000000E+00 0.  1.
         25    2    1    2    0    0  0.27188494170E+03  0.94806775945E+02  0.13891780770E+03  0.34329994318E+03  0.12508775882E+03 0.  0.
          5    1    3    3  502    0  0.23188773364E+03  0.59933614143E+02  0.15776795636E+03  0.28683123884E+03  0.41800000000E+01 0.  1.
         -5    1    3    3    0  502  0.39997208055E+02  0.34873161802E+02 -0.18850148657E+02  0.56468704347E+02  0.41800000000E+01 0.  1.
        -11    1    1    2    0    0 -0.18899386469E+03 -0.28223933019E+02  0.11762158291E+02  0.19145135062E+03  0.00000000000E+00 0.  1.
         11    1    1    2    0    0 -0.82891077009E+02 -0.66582842927E+02  0.85456601667E+02  0.13640761118E+03  0.00000000000E+00 0. -1.
</event>
<event>
 7    1  0.2480409E-009  0.9508841E+02  0.7561462E-02  0.1290977E+00
         -2   -1    0    0    0  501 -0.00000000000E+00  0.00000000000E+00  0.53556600230E+02  0.53556600230E+02  0.00000000000E+00 0.  1.
          2   -1    0    0  501    0  0.00000000000E+00 -0.00000000000E+00 -0.27191380189E+03  0.27191380189E+03  0.00000000000E+00 0. -1.
         25    2    1    2    0    0 -0.17168560664E+02  0.56741447755E+02 -0.13323378566E+03  0.19212744851E+03  0.12508942187E+03 0.  0.
          5    1    3    3  502    0 -0.54587644774E+02  0.31746634752E+02 -0.13260212424E+03  0.14693010424E+03  0.41800000000E+01 0. -1.
         -5    1    3    3    0  502  0.37419084110E+02  0.24994813003E+02 -0.63166141546E+00  0.45197344268E+02  0.41800000000E+01 0. -1.
        -11    1    1    2    0    0  0.31079050790E+02 -0.95716113304E+01  0.27589677763E+01  0.32636406736E+02  0.00000000000E+00 0.  1.
         11    1    1    2    0    0 -0.13910490126E+02 -0.47169836424E+02 -0.87882383776E+02  0.10070654687E+03  0.00000000000E+00 0. -1.
</event>
<event>
 7    1  0.2480409E-009  0.1444404E+03  0.7561462E-02  0.1207476E+00
          2   -1    0    0  501    0  0.00000000000E+00  0.00000000000E+00  0.46122649954E+03  0.46122649954E+03  0.00000000000E+00 0. -1.
         -2   -1    0    0    0  501 -0.00000000000E+00 -0.00000000000E+00 -0.54568280753E+02  0.54568280753E+02  0.00000000000E+00 0.  1.
         25    2    1    2    0    0 -0.93651769447E+02  0.34790481266E+02  0.13975461332E+03  0.21250859063E+03  0.12509003814E+03 0.  0.
          5    1    3    3  502    0 -0.84784498897E+02 -0.24077029313E+02  0.12138667669E+03  0.15006769230E+03  0.41800000000E+01 0.  1.
         -5    1    3    3    0  502 -0.88672705494E+01  0.58867510579E+02  0.18367936624E+02  0.62440898333E+02  0.41800000000E+01 0.  1.
        -11    1    1    2    0    0  0.31855626648E+02  0.35283825484E+02  0.62340966910E+02  0.78397228556E+02  0.00000000000E+00 0.  1.
         11    1    1    2    0    0  0.61796142799E+02 -0.70074306750E+02  0.20456263856E+03  0.22488896110E+03  0.00000000000E+00 0. -1.
</event>
<event>
 7    1  0.2480409E-009  0.1054526E+03  0.7561462E-02  0.1269230E+00
         -2   -1    0    0    0  501 -0.00000000000E+00  0.00000000000E+00  0.69648954825E+02  0.69648954825E+02  0.00000000000E+00 0.  1.
          2   -1    0    0  501    0  0.00000000000E+00 -0.00000000000E+00 -0.27969401423E+03  0.27969401423E+03  0.00000000000E+00 0. -1.
         25    2    1    2    0    0  0.55163765151E+02  0.89952048786E+01 -0.30285861943E+02  0.14031275025E+03  0.12508588950E+03 0.  0.
          5    1    3    3  502    0  0.57725227573E+02 -0.30459689036E+02 -0.61491842754E+02  0.89770338530E+02  0.41800000000E+01 0. -1.
         -5    1    3    3    0  502 -0.25614624224E+01  0.39454893915E+02  0.31205980811E+02  0.50542411715E+02  0.41800000000E+01 0. -1.
        -11    1    1    2    0    0 -0.76181699525E+02 -0.24053825424E+02 -0.14690285080E+03  0.16722046954E+03  0.00000000000E+00 0. -1.
         11    1    1    2    0    0  0.21017934374E+02  0.15058620545E+02 -0.32856346667E+02  0.41809749275E+02  0.00000000000E+00 0.  1.
</event>
<event>
 7    1  0.2480409E-009  0.2051396E+03  0.7561462E-02  0.1145474E+00
          1   -1    0    0  501    0  0.00000000000E+00  0.00000000000E+00  0.46539346285E+02  0.46539346285E+02  0.00000000000E+00 0. -1.
         -1   -1    0    0    0  501 -0.00000000000E+00 -0.00000000000E+00 -0.13094195362E+04  0.13094195362E+04  0.00000000000E+00 0.  1.
         25    2    1    2    0    0 -0.88147792808E+02  0.17853554548E+03 -0.38192246972E+03  0.44850667613E+03  0.12509392984E+03 0.  0.
          5    1    3    3  502    0 -0.36396430638E+02  0.21465959463E+02 -0.19200151332E+03  0.19664063948E+03  0.41800000000E+01 0.  1.
         -5    1    3    3    0  502 -0.51751362170E+02  0.15706958602E+03 -0.18992095640E+03  0.25186603665E+03  0.41800000000E+01 0.  1.
        -11    1    1    2    0    0  0.33714299642E+02 -0.33727274642E+02 -0.93686926928E+02  0.10512575009E+03  0.00000000000E+00 0. -1.
         11    1    1    2    0    0  0.54433493165E+02 -0.14480827084E+03 -0.78727079326E+03  0.80232645625E+03  0.00000000000E+00 0.  1.
</event>
<event>
 7    1  0.2480409E-009  0.1867290E+03  0.7561462E-02  0.1161445E+00
          2   -1    0    0  501    0  0.00000000000E+00  0.00000000000E+00  0.79512495437E+03  0.79512495437E+03  0.00000000000E+00 0. -1.
         -2   -1    0    0    0  501 -0.00000000000E+00 -0.00000000000E+00 -0.66255632385E+02  0.66255632385E+02  0.00000000000E+00 0.  1.
         25    2    1    2    0    0  0.15289677399E+02  0.15621172957E+03  0.61631355463E+03  0.64817212403E+03  0.12509526791E+03 0.  0.
          5    1    3    3  502    0  0.69411819331E+02  0.10201762294E+03  0.35659368034E+03  0.37736205601E+03  0.41800000000E+01 0.  1.
         -5    1    3    3    0  502 -0.54122141932E+02  0.54194106630E+02  0.25971987429E+03  0.27081006802E+03  0.41800000000E+01 0.  1.
        -11    1    1    2    0    0 -0.44451703186E+02 -0.11005069874E+03  0.46414697269E+02  0.12744188610E+03  0.00000000000E+00 0.  1.
         11    1    1    2    0    0  0.29162025787E+02 -0.46161030825E+02  0.66141070084E+02  0.85766576629E+02  0.00000000000E+00 0. -1.
</event>
<event>
 7    1  0.2480409E-009  0.9873140E+02  0.7561462E-02  0.1282986E+00
         -2   -1    0    0    0  501 -0.00000000000E+00  0.00000000000E+00  0.18634789402E+02  0.18634789402E+02  0.00000000000E+00 0.  1.
          2   -1    0    0  501    0  0.00000000000E+00 -0.00000000000E+00 -0.85444288898E+03  0.85444288898E+03  0.00000000000E+00 0. -1.
         25    2    1    2    0    0 -0.39541990792E+02 -0.49419696066E+02 -0.44884153392E+03  0.47022400142E+03  0.12508402592E+03 0.  0.
          5    1    3    3  502    0  0.17156810360E+02  0.74057933849E+01 -0.30375683633E+03  0.30435980342E+03  0.41800000000E+01 0. -1.
         -5    1    3    3    0  502 -0.56698801151E+02 -0.56825489451E+02 -0.14508469759E+03  0.16586419800E+03  0.41800000000E+01 0. -1.
        -11    1    1    2    0    0 -0.22229987784E+02  0.83195478323E+01 -0.29981586188E+02  0.38239805744E+02  0.00000000000E+00 0.  1.
         11    1    1    2    0    0  0.61771978576E+02  0.41100148233E+02 -0.35698497947E+03  0.36461387123E+03  0.00000000000E+00 0. -1.
</event>
<event>
 7    1  0.2480409E-009  0.1496729E+03  0.7561462E-02  0.1200875E+00
          1   -1    0    0  501    0  0.00000000000E+00  0.00000000000E+00  0.53988676622E+03  0.53988676622E+03  0.00000000000E+00 0. -1.
         -1   -1    0    0    0  501 -0.00000000000E+00 -0.00000000000E+00 -0.46166300419E+02  0.46166300419E+02  0.00000000000E+00 0.  1.
         25    2    1    2    0    0 -0.81866949687E+02  0.58934564333E+02  0.17210688996E+03  0.23546652642E+03  0.12509285818E+03 0.  0.
          5    1    3    3  502    0  0.19965616287E+02  0.54902802827E+02  0.67370825632E+02  0.89270623041E+02  0.41800000000E+01 0. -1.
         -5    1    3    3    0  502 -0.10183256597E+03  0.40317615059E+01  0.10473606433E+03  0.14619590338E+03  0.41800000000E+01 0. -1.
        -11    1    1    2    0    0  0.88377266503E+02 -0.94658160248E+01  0.18774397996E+03  0.20772083410E+03  0.00000000000E+00 0. -1.
         11    1    1    2    0    0 -0.65103168168E+01 -0.49468748308E+02  0.13386959588E+03  0.14286570612E+03  0.00000000000E+00 0.  1.
</event>
<event>
 7    1  0.2480409E-009  0.1155527E+03  0.7561462E-02  0.1250619E+00
         -4   -1    0    0    0  501 -0.00000000000E+00  0.00000000000E+00  0.52603084109E+03  0.52603084109E+03  0.00000000000E+00 0.  1.
          4   -1    0    0  501    0  0.00000000000E+00 -0.00000000000E+00 -0.36641370442E+02  0.36641370442E+02  0.00000000000E+00 0. -1.
         25    2    1    2    0    0  0.13103798248E+02  0.78783897202E+02  0.19988318485E+03  0.24895418270E+03  0.12508511307E+03 0.  0.
          5    1    3    3  502    0  0.51061457642E+02  0.38700975055E+02  0.31136531063E+02  0.71358208311E+02  0.41800000000E+01 0. -1.
         -5    1    3    3    0  502 -0.37957659394E+02  0.40082922147E+02  0.16874665379E+03  0.17759597439E+03  0.41800000000E+01 0. -1.
        -11    1    1    2    0    0  0.17041023259E+02 -0.79577737974E+02  0.25607564342E+03  0.26869638630E+03  0.00000000000E+00 0.  1.
         11    1    1    2    0    0 -0.30144821507E+02  0.79384077227E+00  0.33430642372E+02  0.45021642532E+02  0.00000000000E+00 0. -1.
</event>
<event>
 7    1  0.2480409E-009  0.1824978E+03  0.7561462E-02  0.1165407E+00
         -1   -1    0    0    0  501 -0.00000000000E+00  0.00000000000E+00  0.13075399810E+03  0.13075399810E+03  0.00000000000E+00 0.  1.
          1   -1    0    0  501    0  0.00000000000E+00 -0.00000000000E+00 -0.40374947673E+03  0.40374947673E+03  0.00000000000E+00 0. -1.
         25    2    1    2    0    0  0.13883132473E+03 -0.99063674759E+02 -0.26640899772E+03  0.34015915389E+03  0.12508695986E+03 0.  0.
          5    1    3    3  502    0  0.93271849319E+02 -0.70838229571E+02 -0.69965257244E+02  0.13649286525E+03  0.41800000000E+01 0. -1.
         -5    1    3    3    0  502  0.45559475411E+02 -0.28225445188E+02 -0.19644374047E+03  0.20366628864E+03  0.41800000000E+01 0. -1.
        -11    1    1    2    0    0 -0.25851694345E+02  0.73903168106E+02  0.15696037032E+01  0.78309973902E+02  0.00000000000E+00 0.  1.
         11    1    1    2    0    0 -0.11297963039E+03  0.25160506653E+02 -0.81560846223E+01  0.11603434704E+03  0.00000000000E+00 0. -1.
</event>
<event>
 7    1  0.3057960E-009  0.1467313E+03  0.7561462E-02  0.1204548E+00
          3   -1    0    0  501    0  0.00000000000E+00  0.00000000000E+00  0.24899810688E+03  0.24899810688E+03  0.00000000000E+00 0. -1.
         -3   -1    0    0    0  501 -0.00000000000E+00 -0.00000000000E+00 -0.12382214726E+03  0.12382214726E+03  0.00000000000E+00 0.  1.
         25    2    1    2    0    0 -0.31204471483E+02 -0.11796937646E+03 -0.11871048592E+01  0.17475495116E+03  0.12508953160E+03 0.  0.
          5    1    3    3  502    0  0.46299360758E+02 -0.45873999983E+02 -0.17395444180E+02  0.67587932053E+02  0.41800000000E+01 0.  1.
         -5    1    3    3    0  502 -0.77503832241E+02 -0.72095376474E+02  0.16208339321E+02  0.10716701911E+03  0.41800000000E+01 0.  1.
        -11    1    1    2    0    0  0.13793070709E+02  0.65431670758E+02  0.79309248469E+01  0.67338339055E+02  0.00000000000E+00 0.  1.
         11    1    1    2    0    0  0.17411400775E+02  0.52537705698E+02  0.11843213964E+03  0.13072696392E+03  0.00000000000E+00 0. -1.
</event>
<event>
 7    1  0.2480409E-009  0.1741841E+03  0.7561462E-02  0.1173553E+00
          2   -1    0    0  501    0  0.00000000000E+00  0.00000000000E+00  0.69967909233E+02  0.69967909233E+02  0.00000000000E+00 0. -1.
         -2   -1    0    0    0  501 -0.00000000000E+00 -0.00000000000E+00 -0.53783200243E+03  0.53783200243E+03  0.00000000000E+00 0.  1.
         25    2    1    2    0    0 -0.26773336174E+02 -0.15028289602E+03 -0.32603147763E+03  0.38111084931E+03  0.12508874725E+03 0.  0.
          5    1    3    3  502    0  0.15050338396E+02  0.25014628289E+00  0.38403494931E+01  0.16087135955E+02  0.41800000000E+01 0.  1.
         -5    1    3    3    0  502 -0.41823674571E+02 -0.15053304231E+03 -0.32987182712E+03  0.36502371335E+03  0.41800000000E+01 0.  1.
        -11    1    1    2    0    0  0.41387516073E+02  0.15551848700E+03 -0.13334105550E+03  0.20899464914E+03  0.00000000000E+00 0. -1.
         11    1    1    2    0    0 -0.14614179899E+02 -0.52355909736E+01 -0.84915600714E+01  0.17694413226E+02  0.00000000000E+00 0.  1.
</event>
<event>
 7    1  0.2480409E-009  0.9539084E+02  0.7561462E-02  0.1290298E+00
          2   -1    0    0  501    0  0.00000000000E+00  0.00000000000E+00  0.23568474130E+03  0.23568474130E+03  0.00000000000E+00 0. -1.
         -2   -1    0    0    0  501 -0.00000000000E+00 -0.00000000000E+00 -0.59713993179E+02  0.59713993179E+02  0.00000000000E+00 0.  1.
         25    2    1    2    0    0 -0.59781768863E+00 -0.38434815677E+02  0.59123683792E+02  0.14359559283E+03  0.12508593787E+03 0.  0.
          5    1    3    3  502    0  0.24496481098E+01  0.37544336905E+02  0.55721992202E+02  0.67364611069E+02  0.41800000000E+01 0.  1.
         -5    1    3    3    0  502 -0.30474657985E+01 -0.75979152582E+02  0.34016915902E+01  0.76230981763E+02  0.41800000000E+01 0.  1.
        -11    1    1    2    0    0 -0.10035730683E+02  0.55643906877E+02  0.32822984672E+02  0.65378196562E+02  0.00000000000E+00 0.  1.
         11    1    1    2    0    0  0.10633548372E+02 -0.17209091200E+02  0.84024079654E+02  0.86424945083E+02  0.00000000000E+00 0. -1.
</event>
<event>
 7    1  0.2480409E-009  0.1130222E+03  0.7561462E-02  0.1255073E+00
          2   -1    0    0  501    0  0.00000000000E+00  0.00000000000E+00  0.19000875289E+03  0.19000875289E+03  0.00000000000E+00 0. -1.
         -2   -1    0    0    0  501 -0.00000000000E+00 -0.00000000000E+00 -0.78719566895E+02  0.78719566895E+02  0.00000000000E+00 0.  1.
         25    2    1    2    0    0  0.13554947310E+02 -0.39048166698E+02  0.10514283927E+03  0.16855516025E+03  0.12508928602E+03 0.  0.
          5    1    3    3  502    0  0.33078130010E+02  0.38752492547E+02  0.46474631324E+02  0.69088943546E+02  0.41800000000E+01 0. -1.
         -5    1    3    3    0  502 -0.19523182700E+02 -0.77800659245E+02  0.58668207950E+02  0.99466216706E+02  0.41800000000E+01 0. -1.
        -11    1    1    2    0    0  0.31695164814E+02  0.37805832479E+02 -0.13007954574E+02  0.51020303059E+02  0.00000000000E+00 0.  1.
         11    1    1    2    0    0 -0.45250112124E+02  0.12423342192E+01  0.19154301298E+02  0.49152856476E+02  0.00000000000E+00 0. -1.
</event>
<event>
 7    1  0.2480409E-009  0.6936447E+02  0.7561462E-02  0.1362268E+00
          1   -1    0    0  501    0  0.00000000000E+00  0.00000000000E+00  0.25019381564E+03  0.25019381564E+03  0.00000000000E+00 0. -1.
         -1   -1    0    0    0  501 -0.00000000000E+00 -0.00000000000E+00 -0.64615980573E+02  0.64615980573E+02  0.00000000000E+00 0.  1.
         25    2    1    2    0    0 -0.91478624287E+01  0.92889257564E+01  0.20479176262E+02  0.12742457871E+03  0.12509060344E+03 0.  0.
          5    1    3    3  502    0 -0.33519991774E+02 -0.18902161885E+02  0.60980642031E+02  0.72228752411E+02  0.41800000000E+01 0. -1.
         -5    1    3    3    0  502  0.24372129345E+02  0.28191087642E+02 -0.40501465769E+02  0.55195826297E+02  0.41800000000E+01 0. -1.
        -11    1    1    2    0    0 -0.16758160438E+02  0.18205610949E+02  0.82986907000E+01  0.26098821403E+02  0.00000000000E+00 0.  1.
         11    1    1    2    0    0  0.25906022867E+02 -0.27494536706E+02  0.15679996810E+03  0.16128639610E+03  0.00000000000E+00 0. -1.
</event>
<event>
 7    1  0.2480409E-009  0.1035803E+03  0.7561462E-02  0.1272942E+00
          3   -1    0    0  501    0  0.00000000000E+00  0.00000000000E+00  0.49898107203E+03  0.49898107203E+03  0.00000000000E+00 0. -1.
         -3   -1    0    0    0  501 -0.00000000000E+00 -0.00000000000E+00 -0.28126191016E+02  0.28126191016E+02  0.00000000000E+00 0.  1.
         25    2    1    2    0    0 -0.38245264433E+02  0.28319694029E+02  0.29141977861E+03  0.32068382830E+03  0.12509166657E+03 0.  0.
          5    1    3    3  502    0 -0.16752712748E+02  0.63226509928E+02  0.26194891872E+03  0.27002398664E+03  0.41800000000E+01 0. -1.
         -5    1    3    3    0  502 -0.21492551685E+02 -0.34906815899E+02  0.29470859887E+02  0.50659841656E+02  0.41800000000E+01 0. -1.
        -11    1    1    2    0    0  0.11519067129E+02 -0.58775520815E+02  0.12453964987E+03  0.13819325289E+03  0.00000000000E+00 0.  1.
         11    1    1    2    0    0  0.26726197303E+02  0.30455826786E+02  0.54895452534E+02  0.68230181858E+02  0.00000000000E+00 0. -1.
</event>
<event>
 7    1  0.2480409E-009  0.1107460E+03  0.7561462E-02  0.1259195E+00
         -1   -1    0    0    0  501 -0.00000000000E+00  0.00000000000E+00  0.34107923676E+02  0.34107923676E+02  0.00000000000E+00 0.  1.
          1   -1    0    0  501    0  0.00000000000E+00 -0.00000000000E+00 -0.48272670184E+03  0.48272670184E+03  0.00000000000E+00 0. -1.
         25    2    1    2    0    0  0.64880224999E+01  0.37379679053E+02 -0.36144514942E+03  0.38435507493E+03  0.12508754033E+03 0.  0.
          5    1    3    3  502    0  0.22924577653E+01  0.83698496344E+02 -0.22221743233E+03  0.23750527001E+03  0.41800000000E+01 0.  1.
         -5    1    3    3    0  502  0.41955647346E+01 -0.46318817291E+02 -0.13922771709E+03  0.14684980492E+03  0.41800000000E+01 0.  1.
        -11    1    1    2    0    0 -0.42293958890E+02 -0.48237526046E+01 -0.68415607834E+02  0.80577558557E+02  0.00000000000E+00 0. -1.
         11    1    1    2    0    0  0.35805936390E+02 -0.32555926448E+02 -0.18758020907E+02  0.51901992024E+02  0.00000000000E+00 0.  1.
</event>
<event>
 7    1  0.2480409E-009  0.1338631E+03  0.7561462E-02  0.1221834E+00
          2   -1    0    0  501    0  0.00000000000E+00  0.00000000000E+00  0.74227469479E+02  0.74227469479E+02  0.00000000000E+00 0. -1.
         -2   -1    0    0    0  501 -0.00000000000E+00 -0.00000000000E+00 -0.25166763713E+03  0.25166763713E+03  0.00000000000E+00 0.  1.
         25    2    1    2    0    0 -0.67553347503E+02 -0.55529810109E+02 -0.11800903085E+03  0.19292656220E+03  0.12509001747E+03 0.  0.
          5    1    3    3  502    0  0.27555982388E+02 -0.47383704041E+02 -0.28148373253E+02  0.61760431433E+02  0.41800000000E+01 0. -1.
         -5    1    3    3    0  502 -0.95109329891E+02 -0.81461060682E+01 -0.89860657602E+02  0.13116613077E+03  0.41800000000E+01 0. -1.
        -11    1    1    2    0    0  0.80137527098E+02  0.24625226991E+02 -0.31868139122E+02  0.89688367946E+02  0.00000000000E+00 0. -1.
         11    1    1    2    0    0 -0.12584179595E+02  0.30904583118E+02 -0.27562997679E+02  0.43280176465E+02  0.00000000000E+00 0.  1.
</event>
<event>
 7    1  0.2480409E-009  0.1030160E+03  0.7561462E-02  0.1274079E+00
         -1   -1    0    0    0  501 -0.00000000000E+00  0.00000000000E+00  0.51121877716E+02  0.51121877716E+02  0.00000000000E+00 0.  1.
          1   -1    0    0  501    0  0.00000000000E+00 -0.00000000000E+00 -0.49339174032E+03  0.49339174032E+03  0.00000000000E+00 0. -1.
         25    2    1    2    0    0 -0.54163099988E+02  0.74347181934E+02 -0.10941954158E+03  0.18994989552E+03  0.12508869601E+03 0.  0.
          5    1    3    3  502    0  0.73781643563E+01  0.37477061846E+02 -0.11162536847E+03  0.11805364357E+03  0.41800000000E+01 0. -1.
         -5    1    3    3    0  502 -0.61541264344E+02  0.36870120088E+02  0.22058268958E+01  0.71896251951E+02  0.41800000000E+01 0. -1.
        -11    1    1    2    0    0  0.55453126173E+02 -0.61403188027E+02 -0.33128669151E+03  0.34146196373E+03  0.00000000000E+00 0. -1.
         11    1    1    2    0    0 -0.12900261848E+01 -0.12943993908E+02 -0.15636295128E+01  0.13101758779E+02  0.00000000000E+00 0.  1.
</event>
<event>
 7    1  0.2480409E-009  0.8349623E+02  0.7561462E-02  0.1319413E+00
          1   -1    0    0  501    0  0.00000000000E+00  0.00000000000E+00  0.17487419552E+03  0.17487419552E+03  0.00000000000E+00 0. -1.
         -1   -1    0    0    0  501 -0.00000000000E+00 -0.00000000000E+00 -0.12072901806E+03  0.12072901806E+03  0.00000000000E+00 0.  1.
         25    2    1    2    0    0  0.29158484810E+02  0.13050578327E+02 -0.62453069032E+02  0.14342639287E+03  0.12510079739E+03 0.  0.
          5    1    3    3  502    0 -0.13505378565E+02  0.62179914095E+02 -0.34287451294E+02  0.72400543390E+02  0.41800000000E+01 0. -1.
         -5    1    3    3    0  502  0.42663863375E+02 -0.49129335767E+02 -0.28165617739E+02  0.71025849475E+02  0.41800000000E+01 0. -1.
        -11    1    1    2    0    0 -0.55975987451E+01 -0.13333171612E+02 -0.13607504546E+02  0.19856252338E+02  0.00000000000E+00 0.  1.
         11    1    1    2    0    0 -0.23560886064E+02  0.28259328488E+00  0.13020575104E+03  0.13232056837E+03  0.00000000000E+00 0. -1.
</event>
<event>
 7    1  0.2480409E-009  0.1418792E+03  0.7561462E-02  0.1210823E+00
         -1   -1    0    0    0  501 -0.00000000000E+00  0.00000000000E+00  0.35764797653E+03  0.35764797653E+03  0.00000000000E+00 0.  1.
          1   -1    0    0  501    0  0.00000000000E+00 -0.00000000000E+00 -0.96261450932E+02  0.96261450932E+02  0.00000000000E+00 0. -1.
         25    2    1    2    0    0  0.34959325187E+01 -0.12461322483E+03  0.23636495353E+03  0.29505294128E+03  0.12508864678E+03 0.  0.
          5    1    3    3  502    0  0.24511999758E+02 -0.58797624641E+02  0.18512844426E+02  0.66469516353E+02  0.41800000000E+01 0.  1.
         -5    1    3    3    0  502 -0.21016067239E+02 -0.65815600194E+02  0.21785210911E+03  0.22858342493E+03  0.41800000000E+01 0.  1.
        -11    1    1    2    0    0 -0.31198699298E+02  0.99592750190E+01  0.24503774367E+02  0.40902089861E+02  0.00000000000E+00 0.  1.
         11    1    1    2    0    0  0.27702766779E+02  0.11465394982E+03  0.51779769741E+00  0.11795439631E+03  0.00000000000E+00 0. -1.
</event>
<event>
 7    1  0.2480409E-009  0.1132096E+03  0.7561462E-02  0.1254739E+00
          1   -1    0    0  501    0  0.00000000000E+00  0.00000000000E+00  0.12451531906E+03  0.12451531906E+03  0.00000000000E+00 0. -1.
         -1   -1    0    0    0  501 -0.00000000000E+00 -0.00000000000E+00 -0.14356100468E+03  0.14356100468E+03  0.00000000000E+00 0.  1.
         25    2    1    2    0    0 -0.76838957015E+02  0.10628492740E+02 -0.12967964437E+02  0.14775246121E+03  0.12508169938E+03 0.  0.
          5    1    3    3  502    0  0.27507780681E+02  0.98800665822E+01 -0.29824779563E+02  0.41967649323E+02  0.41800000000E+01 0.  1.
         -5    1    3    3    0  502 -0.10434673770E+03  0.74842615735E+00  0.16856815126E+02  0.10578481189E+03  0.41800000000E+01 0.  1.
        -11    1    1    2    0    0  0.45043865818E+02 -0.31016784099E+02  0.34677743959E+02  0.64757522110E+02  0.00000000000E+00 0.  1.
         11    1    1    2    0    0  0.31795091197E+02  0.20388291359E+02 -0.40755465147E+02  0.55566340424E+02  0.00000000000E+00 0. -1.
</event>
<event>
 7    1  0.2480409E-009  0.2180273E+03  0.7561462E-02  0.1135362E+00
          1   -1    0    0  501    0  0.00000000000E+00  0.00000000000E+00  0.46435860492E+03  0.46435860492E+03  0.00000000000E+00 0. -1.
         -1   -1    0    0    0  501 -0.00000000000E+00 -0.00000000000E+00 -0.15912141562E+03  0.15912141562E+03  0.00000000000E+00 0.  1.
         25    2    1    2    0    0 -0.15915940539E+03 -0.11967875601E+03  0.33099102228E+03  0.40602581829E+03  0.12508871784E+03 0.  0.
          5    1    3    3  502    0 -0.17740352714E+03 -0.11372794637E+03  0.27361836565E+03  0.34538462567E+03  0.41800000000E+01 0. -1.
         -5    1    3    3    0  502  0.18244121759E+02 -0.59508096329E+01  0.57372656631E+02  0.60641192625E+02  0.41800000000E+01 0. -1.
        -11    1    1    2    0    0  0.45113265736E+02  0.65122179927E+02 -0.42540273984E+02  0.89920965155E+02  0.00000000000E+00 0.  1.
         11    1    1    2    0    0  0.11404613965E+03  0.54556576081E+02  0.16786441003E+02  0.12753323710E+03  0.00000000000E+00 0. -1.
</event>
<event>
 7    1  0.2480409E-009  0.1162361E+03  0.7561462E-02  0.1249439E+00
         -1   -1    0    0    0  501 -0.00000000000E+00  0.00000000000E+00  0.72669193703E+02  0.72669193703E+02  0.00000000000E+00 0.  1.
          1   -1    0    0  501    0  0.00000000000E+00 -0.00000000000E+00 -0.29625195707E+03  0.29625195707E+03  0.00000000000E+00 0. -1.
         25    2    1    2    0    0 -0.44269567302E+02 -0.16126048675E+02 -0.22958941671E+03  0.26566428358E+03  0.12508543987E+03 0.  0.
          5    1    3    3  502    0  0.21758933818E+02  0.37966798138E+02 -0.11185933007E+03  0.12018698384E+03  0.41800000000E+01 0. -1.
         -5    1    3    3    0  502 -0.66028501121E+02 -0.54092846813E+02 -0.11773008665E+03  0.14547729974E+03  0.41800000000E+01 0. -1.
        -11    1    1    2    0    0 -0.26839031812E+02 -0.79307732764E+01  0.27028251517E+01  0.28116473057E+02  0.00000000000E+00 0.  1.
         11    1    1    2    0    0  0.71108599114E+02  0.24056821951E+02  0.33038281974E+01  0.75140394137E+02  0.00000000000E+00 0. -1.
</event>
<event>
 7    1  0.2480409E-009  0.1288534E+03  0.7561462E-02  0.1229167E+00
          3   -1    0    0  501    0  0.00000000000E+00  0.00000000000E+00  0.44589104405E+02  0.44589104405E+02  0.00000000000E+00 0. -1.
         -3   -1    0    0    0  501 -0.00000000000E+00 -0.00000000000E+00 -0.45798935410E+03  0.45798935410E+03  0.00000000000E+00 0.  1.
         25    2    1    2    0    0 -0.92325724025E+02 -0.18088440957E+02 -0.22634461958E+03  0.27519237405E+03  0.12509086661E+03 0.  0.
          5    1    3    3  502    0 -0.10766077812E+03 -0.30728029057E+02 -0.10972800549E+03  0.15682079742E+03  0.41800000000E+01 0. -1.
         -5    1    3    3    0  502  0.15335054097E+02  0.12639588100E+02 -0.11661661409E+03  0.11837157662E+03  0.41800000000E+01 0. -1.
        -11    1    1    2    0    0  0.34584808754E+02  0.48915182525E+02 -0.61863947098E+02  0.86115922038E+02  0.00000000000E+00 0. -1.
         11    1    1    2    0    0  0.57740915271E+02 -0.30826741568E+02 -0.12519168302E+03  0.14127016241E+03  0.00000000000E+00 0.  1.
</event>
<event>
 7    1  0.2480409E-009  0.1070698E+03  0.7561462E-02  0.1266094E+00
         -3   -1    0    0    0  501 -0.00000000000E+00  0.00000000000E+00  0.11159252481E+03  0.11159252481E+03  0.00000000000E+00 0.  1.
          3   -1    0    0  501    0  0.00000000000E+00 -0.00000000000E+00 -0.15336880693E+03  0.15336880693E+03  0.00000000000E+00 0. -1.
         25    2    1    2    0    0  0.34974472752E+02 -0.13756417060E+02 -0.85432198845E+02  0.15608030132E+03  0.12509974862E+03 0.  0.
          5    1    3    3  502    0  0.65190144481E+02 -0.40105364981E+02 -0.19983237726E+02  0.79214881353E+02  0.41800000000E+01 0.  1.
         -5    1    3    3    0  502 -0.30215671729E+02  0.26348947922E+02 -0.65448961119E+02  0.76865419964E+02  0.41800000000E+01 0.  1.
        -11    1    1    2    0    0 -0.19632543112E+02 -0.38229743300E+02  0.72411084068E+01  0.43581919104E+02  0.00000000000E+00 0. -1.
         11    1    1    2    0    0 -0.15341929640E+02  0.51986160360E+02  0.36414808316E+02  0.65299111316E+02  0.00000000000E+00 0.  1.
</event>
<event>
 7    1  0.2480409E-009  0.2661551E+03  0.7561462E-02  0.1103501E+00
          2   -1    0    0  501    0  0.00000000000E+00  0.00000000000E+00  0.64633581704E+03  0.64633581704E+03  0.00000000000E+00 0. -1.
         -2   -1    0    0    0  501 -0.00000000000E+00 -0.00000000000E+00 -0.11626967374E+03  0.11626967374E+03  0.00000000000E+00 0.  1.
         25    2    1    2    0    0  0.64355753114E+02  0.23867840534E+03  0.33521093876E+03  0.43488607966E+03  0.12510189719E+03 0.  0.
          5    1    3    3  502    0  0.65208101534E+02  0.37358038144E+02  0.10212135844E+03  0.12686198709E+03  0.41800000000E+01 0. -1.
         -5    1    3    3    0  502 -0.85234841997E+00  0.20132036720E+03  0.23308958032E+03  0.30802409257E+03  0.41800000000E+01 0. -1.
        -11    1    1    2    0    0 -0.42706048150E+02 -0.49978205413E+02  0.87817571282E+02  0.10969755417E+03  0.00000000000E+00 0. -1.
         11    1    1    2    0    0 -0.21649704963E+02 -0.18870019993E+03  0.10703763325E+03  0.21802185696E+03  0.00000000000E+00 0.  1.
</event>
<event>
 7    1  0.2480409E-009  0.1231105E+03  0.7561462E-02  0.1238052E+00
          2   -1    0    0  501    0  0.00000000000E+00  0.00000000000E+00  0.26817927952E+04  0.26817927952E+04  0.00000000000E+00 0. -1.
         -2   -1    0    0    0  501 -0.00000000000E+00 -0.00000000000E+00 -0.99978054497E+01  0.99978054497E+01  0.00000000000E+00 0.  1.
         25    2    1    2    0    0 -0.16372404754E+02 -0.59755857090E+02  0.23063388452E+04  0.23105596982E+04  0.12509369253E+03 0.  0.
          5    1    3    3  502    0 -0.63401077220E+02 -0.66310099991E+02  0.15575993617E+04  0.15603044479E+04  0.41800000000E+01 0. -1.
         -5    1    3    3    0  502  0.47028672465E+02  0.65542429001E+01  0.74873948344E+03  0.75025525030E+03  0.41800000000E+01 0. -1.
        -11    1    1    2    0    0 -0.35725085087E+02  0.18311402269E+02  0.10531770781E+03  0.11270939950E+03  0.00000000000E+00 0.  1.
         11    1    1    2    0    0  0.52097489842E+02  0.41444454821E+02  0.26013843674E+03  0.26852150296E+03  0.00000000000E+00 0. -1.
</event>
<event>
 7    1  0.2480409E-009  0.1213914E+03  0.7561462E-02  0.1240819E+00
          3   -1    0    0  501    0  0.00000000000E+00  0.00000000000E+00  0.20764632670E+03  0.20764632670E+03  0.00000000000E+00 0. -1.
         -3   -1    0    0    0  501 -0.00000000000E+00 -0.00000000000E+00 -0.85291071690E+02  0.85291071690E+02  0.00000000000E+00 0.  1.
         25    2    1    2    0    0  0.49926907594E+02  0.61206155294E+02  0.64148373938E+02  0.16124965589E+03  0.12509015987E+03 0.  0.
          5    1    3    3  502    0  0.83599705120E+02  0.11493782419E+02  0.53836825118E+02  0.10018429951E+03  0.41800000000E+01 0. -1.
         -5    1    3    3    0  502 -0.33672797525E+02  0.49712372875E+02  0.10311548820E+02  0.61065356374E+02  0.41800000000E+01 0. -1.
        -11    1    1    2    0    0 -0.62103585527E+02 -0.40687423819E+02  0.62419439032E+01  0.74506936966E+02  0.00000000000E+00 0.  1.
         11    1    1    2    0    0  0.12176677933E+02 -0.20518731475E+02  0.51964937169E+02  0.57180805537E+02  0.00000000000E+00 0. -1.
</event>
<event>
 7    1  0.2480409E-009  0.9536613E+02  0.7561462E-02  0.1290354E+00
         -1   -1    0    0    0  501 -0.00000000000E+00  0.00000000000E+00  0.18067983207E+02  0.18067983207E+02  0.00000000000E+00 0.  1.
          1   -1    0    0  501    0  0.00000000000E+00 -0.00000000000E+00 -0.17249876946E+04  0.17249876946E+04  0.00000000000E+00 0. -1.
         25    2    1    2    0    0  0.43584507458E+02  0.18743610004E+02 -0.15479966429E+04  0.15537671434E+04  0.12509115565E+03 0.  0.
          5    1    3    3  502    0  0.20106015307E+02 -0.36330296533E+02 -0.11932584109E+04  0.11939879605E+04  0.41800000000E+01 0.  1.
         -5    1    3    3    0  502  0.23478492151E+02  0.55073906537E+02 -0.35473823200E+03  0.35977918286E+03  0.41800000000E+01 0.  1.
        -11    1    1    2    0    0  0.21248931386E+02 -0.10265869315E+02 -0.81811468999E+01  0.24976715605E+02  0.00000000000E+00 0.  1.
         11    1    1    2    0    0 -0.64833438844E+02 -0.84777406896E+01 -0.15074192166E+03  0.16431181888E+03  0.00000000000E+00 0. -1.
</event>
<event>
 7    1  0.2480409E-009  0.9050373E+02  0.7561462E-02  0.1301636E+00
         -3   -1    0    0    0  501 -0.00000000000E+00  0.00000000000E+00  0.51038916876E+03  0.51038916876E+03  0.00000000000E+00 0.  1.
          3   -1    0    0  501    0  0.00000000000E+00 -0.00000000000E+00 -0.58535619729E+02  0.58535619729E+02  0.00000000000E+00 0. -1.
         25    2    1    2    0    0 -0.56247087607E+02 -0.45438365458E+02  0.42556247666E+03  0.44942162947E+03  0.12509196445E+03 0.  0.
          5    1    3    3  502    0 -0.15643679850E+02 -0.35921917158E+02  0.24982995265E+02  0.46655453100E+02  0.41800000000E+01 0. -1.
         -5    1    3    3    0  502 -0.40603407756E+02 -0.95164482999E+01  0.40057948140E+03  0.40276617637E+03  0.41800000000E+01 0. -1.
        -11    1    1    2    0    0  0.39720633327E+02  0.63695648923E+02  0.45932158772E+02  0.88003565911E+02  0.00000000000E+00 0.  1.
         11    1    1    2    0    0  0.16526454279E+02 -0.18257283465E+02 -0.19641086407E+02  0.31499593106E+02  0.00000000000E+00 0. -1.
</event>
<event>
 7    1  0.2480409E-009  0.1075963E+03  0.7561462E-02  0.1265087E+00
         -2   -1    0    0    0  501 -0.00000000000E+00  0.00000000000E+00  0.65027582538E+02  0.65027582538E+02  0.00000000000E+00 0.  1.
          2   -1    0    0  501    0  0.00000000000E+00 -0.00000000000E+00 -0.25825026593E+03  0.25825026593E+03  0.00000000000E+00 0. -1.
         25    2    1    2    0    0  0.38188789512E+02  0.24034861417E+02 -0.17177738787E+03  0.21724120710E+03  0.12510081084E+03 0.  0.
          5    1    3    3  502    0 -0.33688644647E+02  0.32485481639E+02 -0.11790506464E+03  0.12692244862E+03  0.41800000000E+01 0. -1.
         -5    1    3    3    0  502  0.71877434159E+02 -0.84506202216E+01 -0.53872323222E+02  0.90318758476E+02  0.41800000000E+01 0. -1.
        -11    1    1    2    0    0 -0.13547073499E+02  0.31863869984E+02  0.11684183502E+02  0.36542434988E+02  0.00000000000E+00 0.  1.
         11    1    1    2    0    0 -0.24641716013E+02 -0.55898731402E+02 -0.33129479032E+02  0.69494206387E+02  0.00000000000E+00 0. -1.
</event>
<event>
 7    1  0.2480409E-009  0.1061800E+03  0.7561462E-02  0.1267812E+00
         -3   -1    0    0    0  501 -0.00000000000E+00  0.00000000000E+00  0.12784020029E+03  0.12784020029E+03  0.00000000000E+00 0.  1.
          3   -1    0    0  501    0  0.00000000000E+00 -0.00000000000E+00 -0.16258325331E+03  0.16258325331E+03  0.00000000000E+00 0. -1.
         25    2    1    2    0    0  0.62420649824E+02  0.28850892490E+01 -0.93086288236E+02  0.16797121190E+03  0.12507841423E+03 0.  0.
          5    1    3    3  502    0 -0.22036284200E+02  0.10463313715E+01  0.17698394337E+02  0.28590176508E+02  0.41800000000E+01 0.  1.
         -5    1    3    3    0  502  0.84456934024E+02  0.18387578776E+01 -0.11078468257E+03  0.13938103540E+03  0.41800000000E+01 0.  1.
        -11    1    1    2    0    0 -0.42214147131E+02 -0.43094096652E+02  0.20684051236E+02  0.63772763464E+02  0.00000000000E+00 0. -1.
         11    1    1    2    0    0 -0.20206502693E+02  0.40209007403E+02  0.37659183984E+02  0.58679478233E+02  0.00000000000E+00 0.  1.
</event>
<event>
 7    1  0.2480409E-009  0.1757048E+03  0.7561462E-02  0.1172026E+00
         -2   -1    0    0    0  501 -0.00000000000E+00  0.00000000000E+00  0.31812814578E+02  0.31812814578E+02  0.00000000000E+00 0.  1.
          2   -1    0    0  501    0  0.00000000000E+00 -0.00000000000E+00 -0.13000966838E+04  0.13000966838E+04  0.00000000000E+00 0. -1.
         25    2    1    2    0    0  0.15659212028E+03 -0.57164556511E+02 -0.53095834849E+03  0.57039668889E+03  0.12508691463E+03 0.  0.
          5    1    3    3  502    0  0.42181450582E+02 -0.54738684769E+02 -0.83250765439E+02  0.10827631657E+03  0.41800000000E+01 0.  1.
         -5    1    3    3    0  502  0.11441066970E+03 -0.24258717415E+01 -0.44770758305E+03  0.46212037232E+03  0.41800000000E+01 0.  1.
        -11    1    1    2    0    0 -0.13686138457E+03  0.43291606788E+02 -0.71281560920E+03  0.72712536369E+03  0.00000000000E+00 0.  1.
         11    1    1    2    0    0 -0.19730735706E+02  0.13872949723E+02 -0.24509911555E+02  0.34387445819E+02  0.00000000000E+00 0. -1.
</event>
<event>
 7    1  0.2480409E-009  0.1055585E+03  0.7561462E-02  0.1269023E+00
          4   -1    0    0  501    0  0.00000000000E+00  0.00000000000E+00  0.63123746696E+02  0.63123746696E+02  0.00000000000E+00 0. -1.
         -4   -1    0    0    0  501 -0.00000000000E+00 -0.00000000000E+00 -0.24613847344E+03  0.24613847344E+03  0.00000000000E+00 0.  1.
         25    2    1    2    0    0 -0.74695125670E+01  0.10514953191E+02 -0.17871988422E+03  0.21852441145E+03  0.12508302653E+03 0.  0.
          5    1    3    3  502    0  0.56831248222E+02 -0.64842135307E+01 -0.10098058149E+03  0.11613090045E+03  0.41800000000E+01 0. -1.
         -5    1    3    3    0  502 -0.64300760789E+02  0.16999166722E+02 -0.77739302729E+02  0.10239351101E+03  0.41800000000E+01 0. -1.
        -11    1    1    2    0    0 -0.39035531906E+02  0.15933068168E+01 -0.14389082646E+02  0.41633605143E+02  0.00000000000E+00 0.  1.
         11    1    1    2    0    0  0.46505044473E+02 -0.12108260008E+02  0.10094240124E+02  0.49104203542E+02  0.00000000000E+00 0. -1.
</event>
<event>
 7    1  0.2480409E-009  0.1214424E+03  0.7561462E-02  0.1240736E+00
         -1   -1    0    0    0  501 -0.00000000000E+00  0.00000000000E+00  0.43101888168E+02  0.43101888168E+02  0.00000000000E+00 0.  1.
          1   -1    0    0  501    0  0.00000000000E+00 -0.00000000000E+00 -0.13556883762E+04  0.13556883762E+04  0.00000000000E+00 0. -1.
         25    2    1    2    0    0 -0.73259908248E+02 -0.53643378122E+01 -0.12643615077E+04  0.12726560774E+04  0.12509068308E+03 0.  0.
          5    1    3    3  502    0  0.50324442887E+01 -0.49523468914E+02 -0.30274732261E+03  0.30684085976E+03  0.41800000000E+01 0.  1.
         -5    1    3    3    0  502 -0.78292352537E+02  0.44159131102E+02 -0.96161418510E+03  0.96581521769E+03  0.41800000000E+01 0.  1.
        -11    1    1    2    0    0  0.68756688597E+02 -0.24313720646E+02 -0.59446156117E+02  0.94087643799E+02  0.00000000000E+00 0. -1.
         11    1    1    2    0    0  0.45032196513E+01  0.29678058458E+02  0.11221175785E+02  0.32046543138E+02  0.00000000000E+00 0.  1.
</event>
<event>
 7    1  0.2480409E-009  0.1664475E+03  0.7561462E-02  0.1181604E+00
          1   -1    0    0  501    0  0.00000000000E+00  0.00000000000E+00  0.79100143795E+03  0.79100143795E+03  0.00000000000E+00 0. -1.
         -1   -1    0    0    0  501 -0.00000000000E+00 -0.00000000000E+00 -0.54626359991E+02  0.54626359991E+02  0.00000000000E+00 0.  1.
         25    2    1    2    0    0  0.68896723389E+02 -0.11094836545E+03  0.14112665171E+03  0.22939311479E+03  0.12509264967E+03 0.  0.
          5    1    3    3  502    0 -0.36316746210E+02 -0.27706162170E+02  0.45324758464E+02  0.64485220069E+02  0.41800000000E+01 0. -1.
         -5    1    3    3    0  502  0.10521346960E+03 -0.83242203276E+02  0.95801893246E+02  0.16490789472E+03  0.41800000000E+01 0. -1.
        -11    1    1    2    0    0  0.11106910685E+02 -0.47947475212E+01  0.15530145753E+02  0.19685997457E+02  0.00000000000E+00 0.  1.
         11    1    1    2    0    0 -0.80003634075E+02  0.11574311297E+03  0.57971828050E+03  0.59654868570E+03  0.00000000000E+00 0. -1.
</event>
<event>
 7    1  0.2480409E-009  0.1218248E+03  0.7561462E-02  0.1240117E+00
          4   -1    0    0  501    0  0.00000000000E+00  0.00000000000E+00  0.26168174534E+03  0.26168174534E+03  0.00000000000E+00 0. -1.
         -4   -1    0    0    0  501 -0.00000000000E+00 -0.00000000000E+00 -0.69873836854E+02  0.69873836854E+02  0.00000000000E+00 0.  1.
         25    2    1    2    0    0  0.48785505862E+02  0.33191760962E+02  0.68884651750E+02  0.15451506753E+03  0.12509233497E+03 0.  0.
          5    1    3    3  502    0  0.16030242896E+02  0.79586887309E+02  0.42945989843E+02  0.91939500556E+02  0.41800000000E+01 0.  1.
         -5    1    3    3    0  502  0.32755262966E+02 -0.46395126347E+02  0.25938661907E+02  0.62575566975E+02  0.41800000000E+01 0.  1.
        -11    1    1    2    0    0 -0.71612780708E+02 -0.90448723335E+01  0.29666079426E+02  0.78040222609E+02  0.00000000000E+00 0.  1.
         11    1    1    2    0    0  0.22827274846E+02 -0.24146888629E+02  0.93257177313E+02  0.99000292059E+02  0.00000000000E+00 0. -1.
</event>
<event>
 7    1  0.2480409E-009  0.1277671E+03  0.7561462E-02  0.1230807E+00
         -2   -1    0    0    0  501 -0.00000000000E+00  0.00000000000E+00  0.62007682186E+02  0.62007682186E+02  0.00000000000E+00 0.  1.
          2   -1    0    0  501    0  0.00000000000E+00 -0.00000000000E+00 -0.30765938485E+03  0.30765938485E+03  0.00000000000E+00 0. -1.
         25    2    1    2    0    0  0.38111471944E+02  0.74461900959E+02 -0.11072657243E+03  0.18682828724E+03  0.12508947231E+03 0.  0.
          5    1    3    3  502    0 -0.17390423610E+02 -0.27222310682E+02 -0.37703237598E+02  0.49824567811E+02  0.41800000000E+01 0.  1.
         -5    1    3    3    0  502  0.55501895554E+02  0.10168421164E+03 -0.73023334836E+02  0.13700371943E+03  0.41800000000E+01 0.  1.
        -11    1    1    2    0    0 -0.43101467646E+02 -0.12498333750E+02 -0.10429038971E+03  0.11353603061E+03  0.00000000000E+00 0. -1.
         11    1    1    2    0    0  0.49899957025E+01 -0.61963567209E+02 -0.30634740519E+02  0.69302749188E+02  0.00000000000E+00 0.  1.
</event>
<event>
 7    1  0.2480409E-009  0.1246656E+03  0.7561462E-02  0.1235593E+00
         -2   -1    0    0    0  501 -0.00000000000E+00  0.00000000000E+00  0.47572243075E+02  0.47572243075E+02  0.00000000000E+00 0.  1.
          2   -1    0    0  501    0  0.00000000000E+00 -0.00000000000E+00 -0.36548504262E+03  0.36548504262E+03  0.00000000000E+00 0. -1.
         25    2    1    2    0    0  0.48782309536E+02  0.50896314876E+02 -0.21576926685E+03  0.25917995202E+03  0.12509085665E+03 0.  0.
          5    1    3    3  502    0  0.43899736671E+02  0.91608855562E+02 -0.14147304557E+03  0.17421671654E+03  0.41800000000E+01 0. -1.
         -5    1    3    3    0  502  0.48825728657E+01 -0.40712540686E+02 -0.74296221281E+02  0.84963235482E+02  0.41800000000E+01 0. -1.
        -11    1    1    2    0    0  0.20265032143E+01 -0.55399074243E+02 -0.23658782634E+02  0.60273560854E+02  0.00000000000E+00 0. -1.
         11    1    1    2    0    0 -0.50808812751E+02  0.45027593668E+01 -0.78484750060E+02  0.93603772824E+02  0.00000000000E+00 0.  1.
</event>
<event>
 7    1  0.2480409E-009  0.9331339E+02  0.7561462E-02  0.1295021E+00
          2   -1    0    0  501    0  0.00000000000E+00  0.00000000000E+00  0.29245358641E+02  0.29245358641E+02  0.00000000000E+00 0.  1.
         -2   -1    0    0    0  501 -0.00000000000E+00 -0.00000000000E+00 -0.50144056034E+03  0.50144056034E+03  0.00000000000E+00 0. -1.
         25    2    1    2    0    0 -0.18886451956E+02 -0.46917852946E+00 -0.38316896393E+03  0.40351206814E+03  0.12508643417E+03 0.  0.
          5    1    3    3  502    0 -0.32157863966E+02  0.41351601721E+02 -0.71458537111E+02  0.88701060342E+02  0.41800000000E+01 0. -1.
         -5    1    3    3    0  502  0.13271412010E+02 -0.41820780250E+02 -0.31171042682E+03  0.31481100779E+03  0.41800000000E+01 0. -1.
        -11    1    1    2    0    0  0.20882595260E+02  0.42800524245E+02 -0.38579023932E+02  0.61288732635E+02  0.00000000000E+00 0.  1.
         11    1    1    2    0    0 -0.19961433038E+01 -0.42331345716E+02 -0.50447213834E+02  0.65885118212E+02  0.00000000000E+00 0. -1.
</event>
<event>
 7    1  0.2480409E-009  0.1130937E+03  0.7561462E-02  0.1254946E+00
          1   -1    0    0  501    0  0.00000000000E+00  0.00000000000E+00  0.54894043511E+03  0.54894043511E+03  0.00000000000E+00 0. -1.
         -1   -1    0    0    0  501 -0.00000000000E+00 -0.00000000000E+00 -0.49522059812E+02  0.49522059812E+02  0.00000000000E+00 0.  1.
         25    2    1    2    0    0 -0.37632128488E+02 -0.10307723779E+03  0.16274693141E+03  0.23275667178E+03  0.12509200826E+03 0.  0.
          5    1    3    3  502    0 -0.27369207346E+02 -0.43866438675E+02 -0.72732606166E+01  0.52380441701E+02  0.41800000000E+01 0. -1.
         -5    1    3    3    0  502 -0.10262921142E+02 -0.59210799114E+02  0.17002019203E+03  0.18037623008E+03  0.41800000000E+01 0. -1.
        -11    1    1    2    0    0 -0.45207435003E+01  0.24423257496E+02  0.95167440201E+01  0.26598891805E+02  0.00000000000E+00 0.  1.
         11    1    1    2    0    0  0.42152871988E+02  0.78653980293E+02  0.32715469987E+03  0.33910693134E+03  0.00000000000E+00 0. -1.
</event>
<event>
 7    1  0.2480409E-009  0.1066856E+03  0.7561462E-02  0.1266834E+00
          1   -1    0    0  501    0  0.00000000000E+00  0.00000000000E+00  0.55682175769E+03  0.55682175769E+03  0.00000000000E+00 0. -1.
         -1   -1    0    0    0  501 -0.00000000000E+00 -0.00000000000E+00 -0.27849329880E+02  0.27849329880E+02  0.00000000000E+00 0.  1.
         25    2    1    2    0    0 -0.24265876225E+02 -0.58166437538E+02  0.27696303794E+03  0.31036521029E+03  0.12508346081E+03 0.  0.
          5    1    3    3  502    0 -0.47399655970E+02  0.22160184372E+02  0.14383423435E+03  0.15311290125E+03  0.41800000000E+01 0. -1.
         -5    1    3    3    0  502  0.23133779746E+02 -0.80326621910E+02  0.13312880358E+03  0.15725230903E+03  0.41800000000E+01 0. -1.
        -11    1    1    2    0    0 -0.10104056337E+02  0.33200779280E+02  0.23572941791E+02  0.41953155828E+02  0.00000000000E+00 0.  1.
         11    1    1    2    0    0  0.34369932562E+02  0.24965658258E+02  0.22843644808E+03  0.23235272146E+03  0.00000000000E+00 0. -1.
</event>
<event>
 7    1  0.2480409E-009  0.1440011E+03  0.7561462E-02  0.1208044E+00
         -1   -1    0    0    0  501 -0.00000000000E+00  0.00000000000E+00  0.33602327556E+03  0.33602327556E+03  0.00000000000E+00 0.  1.
          1   -1    0    0  501    0  0.00000000000E+00 -0.00000000000E+00 -0.96024785274E+02  0.96024785274E+02  0.00000000000E+00 0. -1.
         25    2    1    2    0    0 -0.11507723935E+03  0.42605618198E+02  0.38270597304E+02  0.17936139457E+03  0.12509141268E+03 0.  0.
          5    1    3    3  502    0 -0.74438043799E+02 -0.18660193707E+02  0.65369854555E+02  0.10089556719E+03  0.41800000000E+01 0. -1.
         -5    1    3    3    0  502 -0.40639195555E+02  0.61265811905E+02 -0.27099257251E+02  0.78465827386E+02  0.41800000000E+01 0. -1.
        -11    1    1    2    0    0  0.71489972715E+02  0.65771292328E+01  0.15857030599E+03  0.17406497858E+03  0.00000000000E+00 0.  1.
         11    1    1    2    0    0  0.43587266639E+02 -0.49182747431E+02  0.43157586991E+02  0.78621687675E+02  0.00000000000E+00 0. -1.
</event>
<event>
 7    1  0.2480409E-009  0.1392041E+03  0.7561462E-02  0.1214404E+00
          1   -1    0    0  501    0  0.00000000000E+00  0.00000000000E+00  0.46670734809E+03  0.46670734809E+03  0.00000000000E+00 0. -1.
         -1   -1    0    0    0  501 -0.00000000000E+00 -0.00000000000E+00 -0.11231866400E+03  0.11231866400E+03  0.00000000000E+00 0.  1.
         25    2    1    2    0    0 -0.94559892109E+02 -0.75928516165E+02 -0.19192703923E+02  0.17527666436E+03  0.12508731520E+03 0.  0.
          5    1    3    3  502    0 -0.78291743529E+02 -0.99273780361E+02 -0.47308274239E+02  0.13505712045E+03  0.41800000000E+01 0. -1.
         -5    1    3    3    0  502 -0.16268148581E+02  0.23345264195E+02  0.28115570316E+02  0.40219543916E+02  0.41800000000E+01 0. -1.
        -11    1    1    2    0    0  0.28571717750E+02  0.36223106963E+02  0.27403047198E+03  0.27788694843E+03  0.00000000000E+00 0. -1.
         11    1    1    2    0    0  0.65988174359E+02  0.39705409202E+02  0.99550916025E+02  0.12586239930E+03  0.00000000000E+00 0.  1.
</event>
<event>
 7    1  0.2480409E-009  0.1779282E+03  0.7561462E-02  0.1169823E+00
         -2   -1    0    0    0  501 -0.00000000000E+00  0.00000000000E+00  0.24758897872E+02  0.24758897872E+02  0.00000000000E+00 0.  1.
          2   -1    0    0  501    0  0.00000000000E+00 -0.00000000000E+00 -0.14044423597E+04  0.14044423597E+04  0.00000000000E+00 0. -1.
         25    2    1    2    0    0  0.55942711843E+02 -0.13154732326E+03 -0.91145672204E+03  0.93104008360E+03  0.12509194957E+03 0.  0.
          5    1    3    3  502    0  0.85367664494E+02 -0.49647582201E+02 -0.38858403649E+03  0.40095828508E+03  0.41800000000E+01 0. -1.
         -5    1    3    3    0  502 -0.29424952651E+02 -0.81899741058E+02 -0.52287268555E+03  0.53008179852E+03  0.41800000000E+01 0. -1.
        -11    1    1    2    0    0 -0.64368055209E+02  0.35572392541E+02 -0.19092980208E+03  0.20460408345E+03  0.00000000000E+00 0.  1.
         11    1    1    2    0    0  0.84253433662E+01  0.95974930718E+02 -0.27729693776E+03  0.29355709057E+03  0.00000000000E+00 0. -1.
</event>
<event>
 7    1  0.5335689E-009  0.7806590E+02  0.7561462E-02  0.1334631E+00
         -4   -1    0    0    0  501 -0.00000000000E+00  0.00000000000E+00  0.20982107741E+02  0.20982107741E+02  0.00000000000E+00 0.  1.
          4   -1    0    0  501    0  0.00000000000E+00 -0.00000000000E+00 -0.78673673112E+03  0.78673673112E+03  0.00000000000E+00 0. -1.
         25    2    1    2    0    0 -0.42194089285E+02  0.45695821969E+02 -0.51636178492E+03  0.53492472918E+03  0.12508606497E+03 0.  0.
          5    1    3    3  502    0 -0.16221208231E+02  0.44865952255E+02 -0.55476211880E+02  0.73288223834E+02  0.41800000000E+01 0. -1.
         -5    1    3    3    0  502 -0.25972881054E+02  0.82986971404E+00 -0.46088557304E+03  0.46163650535E+03  0.41800000000E+01 0. -1.
        -11    1    1    2    0    0  0.54503683216E+02 -0.30827074046E+02 -0.24516272707E+03  0.25303304670E+03  0.00000000000E+00 0. -1.
         11    1    1    2    0    0 -0.12309593931E+02 -0.14868747923E+02 -0.42301113863E+01  0.19761062975E+02  0.00000000000E+00 0.  1.
</event>
<event>
 7    1  0.2480409E-009  0.1089223E+03  0.7561462E-02  0.1262579E+00
          1   -1    0    0  501    0  0.00000000000E+00  0.00000000000E+00  0.90195569654E+03  0.90195569654E+03  0.00000000000E+00 0. -1.
         -1   -1    0    0    0  501 -0.00000000000E+00 -0.00000000000E+00 -0.26502908380E+02  0.26502908380E+02  0.00000000000E+00 0.  1.
         25    2    1    2    0    0 -0.49690162687E+02 -0.74882586137E+02  0.66573303636E+03  0.68331909838E+03  0.12509196831E+03 0.  0.
          5    1    3    3  502    0  0.44535571584E+01 -0.67805716141E+02  0.56115473386E+03  0.56526945526E+03  0.41800000000E+01 0. -1.
         -5    1    3    3    0  502 -0.54143719845E+02 -0.70768699966E+01  0.10457830250E+03  0.11804964312E+03  0.41800000000E+01 0. -1.
        -11    1    1    2    0    0  0.15209365282E+02  0.50576172990E+02  0.19243208814E+03  0.19954794564E+03  0.00000000000E+00 0. -1.
         11    1    1    2    0    0  0.34480797405E+02  0.24306413147E+02  0.17287663661E+02  0.45591560892E+02  0.00000000000E+00 0.  1.
</event>
<event>
 7    1  0.2480409E-009  0.1184191E+03  0.7561462E-02  0.1245728E+00
          2   -1    0    0  501    0  0.00000000000E+00  0.00000000000E+00  0.58159593062E+03  0.58159593062E+03  0.00000000000E+00 0.  1.
         -2   -1    0    0    0  501 -0.00000000000E+00 -0.00000000000E+00 -0.27598689027E+02  0.27598689027E+02  0.00000000000E+00 0. -1.
         25    2    1    2    0    0 -0.13682214180E+02  0.44668097532E+02  0.21063346091E+03  0.24939299492E+03  0.12509184281E+03 0.  0.
          5    1    3    3  502    0 -0.44649252841E+02  0.75320673673E+02  0.16018428209E+03  0.18260130419E+03  0.41800000000E+01 0.  1.
         -5    1    3    3    0  502  0.30967038661E+02 -0.30652576141E+02  0.50449178815E+02  0.66791690730E+02  0.41800000000E+01 0.  1.
        -11    1    1    2    0    0 -0.40419026920E+02 -0.26518660391E+02  0.12272313236E+03  0.13190111562E+03  0.00000000000E+00 0.  1.
         11    1    1    2    0    0  0.54101241100E+02 -0.18149437142E+02  0.22064064832E+03  0.22790050910E+03  0.00000000000E+00 0. -1.
</event>
<event>
 7    1  0.2480409E-009  0.1265887E+03  0.7561462E-02  0.1232607E+00
         -2   -1    0    0    0  501 -0.00000000000E+00  0.00000000000E+00  0.16727007651E+03  0.16727007651E+03  0.00000000000E+00 0.  1.
          2   -1    0    0  501    0  0.00000000000E+00 -0.00000000000E+00 -0.11486041584E+03  0.11486041584E+03  0.00000000000E+00 0. -1.
         25    2    1    2    0    0 -0.83003049165E+02  0.86985523739E+01  0.77198920147E+01  0.15057198960E+03  0.12508859394E+03 0.  0.
          5    1    3    3  502    0 -0.11591412904E+03  0.67621083794E+01  0.13043750023E+02  0.11691630868E+03  0.41800000000E+01 0. -1.
         -5    1    3    3    0  502  0.32911079874E+02  0.19364439945E+01 -0.53238580083E+01  0.33655680916E+02  0.41800000000E+01 0. -1.
        -11    1    1    2    0    0  0.80081906311E+02 -0.27545650620E+02  0.18971566411E+01  0.84708168377E+02  0.00000000000E+00 0. -1.
         11    1    1    2    0    0  0.29211428543E+01  0.18847098246E+02  0.42792612017E+02  0.46850334376E+02  0.00000000000E+00 0.  1.
</event>
<event>
 7    1  0.2480409E-009  0.1495885E+03  0.7561462E-02  0.1200980E+00
          1   -1    0    0  501    0  0.00000000000E+00  0.00000000000E+00  0.54392238093E+02  0.54392238093E+02  0.00000000000E+00 0. -1.
         -1   -1    0    0    0  501 -0.00000000000E+00 -0.00000000000E+00 -0.41722270368E+03  0.41722270368E+03  0.00000000000E+00 0.  1.
         25    2    1    2    0    0 -0.83020376325E+02  0.63297946399E+02 -0.18288829653E+03  0.24493836846E+03  0.12509061689E+03 0.  0.
          5    1    3    3  502    0 -0.77376257320E+02 -0.18315359683E+02 -0.74194353361E+02  0.10883387372E+03  0.41800000000E+01 0. -1.
         -5    1    3    3    0  502 -0.56441190054E+01  0.81613306082E+02 -0.10869394316E+03  0.13610449474E+03  0.41800000000E+01 0. -1.
        -11    1    1    2    0    0  0.38680477552E+02 -0.81104399159E+02 -0.12339919354E+03  0.15264817023E+03  0.00000000000E+00 0.  1.
         11    1    1    2    0    0  0.44339898773E+02  0.17806452760E+02 -0.56542975522E+02  0.74028403090E+02  0.00000000000E+00 0. -1.
</event>
<event>
 7    1  0.2746089E-009  0.1143209E+03  0.7561462E-02  0.1252771E+00
         -2   -1    0    0    0  501 -0.00000000000E+00  0.00000000000E+00  0.45835533156E+02  0.45835533156E+02  0.00000000000E+00 0.  1.
          2   -1    0    0  501    0  0.00000000000E+00 -0.00000000000E+00 -0.35903461446E+03  0.35903461446E+03  0.00000000000E+00 0. -1.
         25    2    1    2    0    0  0.12027551859E+02  0.46250853322E+02 -0.96872964629E+02  0.16527494488E+03  0.12509049801E+03 0.  0.
          5    1    3    3  502    0  0.54494171678E+02  0.65092204897E+02 -0.76581124902E+02  0.11440607928E+03  0.41800000000E+01 0. -1.
         -5    1    3    3    0  502 -0.42466619819E+02 -0.18841351575E+02 -0.20291839726E+02  0.50868865600E+02  0.41800000000E+01 0. -1.
        -11    1    1    2    0    0 -0.31284098240E+02  0.13611935015E+02 -0.41031127279E+02  0.53362280530E+02  0.00000000000E+00 0.  1.
         11    1    1    2    0    0  0.19256546381E+02 -0.59862788337E+02 -0.17529498940E+03  0.18623292221E+03  0.00000000000E+00 0. -1.
</event>
<event>
 7    1  0.2480409E-009  0.3522343E+02  0.7561462E-02  0.1546625E+00
         -1   -1    0    0    0  501 -0.00000000000E+00  0.00000000000E+00  0.88873585571E+02  0.88873585571E+02  0.00000000000E+00 0.  1.
          1   -1    0    0  501    0  0.00000000000E+00 -0.00000000000E+00 -0.14915263066E+03  0.14915263066E+03  0.00000000000E+00 0. -1.
         25    2    1    2    0    0 -0.59014201442E+01  0.19444239217E+01 -0.22302774491E+02  0.12721399601E+03  0.12508948592E+03 0.  0.
          5    1    3    3  502    0  0.99902276922E+01 -0.11087820641E+02  0.49782695071E+02  0.52139558346E+02  0.41800000000E+01 0.  1.
         -5    1    3    3    0  502 -0.15891647836E+02  0.13032244562E+02 -0.72085469563E+02  0.75074437669E+02  0.41800000000E+01 0.  1.
        -11    1    1    2    0    0  0.13044437147E+02  0.12370296185E+02 -0.71468768223E+02  0.73695090742E+02  0.00000000000E+00 0. -1.
         11    1    1    2    0    0 -0.71430170028E+01 -0.14314720106E+02  0.33492497622E+02  0.37117129477E+02  0.00000000000E+00 0.  1.
</event>
<event>
 7    1  0.2480409E-009  0.9516459E+02  0.7561462E-02  0.1290806E+00
          2   -1    0    0  501    0  0.00000000000E+00  0.00000000000E+00  0.33951446839E+02  0.33951446839E+02  0.00000000000E+00 0. -1.
         -2   -1    0    0    0  501 -0.00000000000E+00 -0.00000000000E+00 -0.34830649439E+03  0.34830649439E+03  0.00000000000E+00 0.  1.
         25    2    1    2    0    0  0.12176489952E+02  0.11391790108E+02 -0.17360770542E+03  0.21462867444E+03  0.12509113767E+03 0.  0.
          5    1    3    3  502    0 -0.52820723307E+02 -0.57486881928E+01 -0.46279483718E+02  0.70585687216E+02  0.41800000000E+01 0.  1.
         -5    1    3    3    0  502  0.64997213259E+02  0.17140478301E+02 -0.12732822170E+03  0.14404298723E+03  0.41800000000E+01 0.  1.
        -11    1    1    2    0    0  0.27888713873E+02  0.49098979566E+00 -0.11546537170E+03  0.11878667221E+03  0.00000000000E+00 0.  1.
         11    1    1    2    0    0 -0.40065203825E+02 -0.11882779904E+02 -0.25281970425E+02  0.48842594570E+02  0.00000000000E+00 0. -1.
</event>
<event>
 7    1  0.4083168E-009  0.1474204E+03  0.7561462E-02  0.1203679E+00
          2   -1    0    0  501    0  0.00000000000E+00  0.00000000000E+00  0.11735326821E+04  0.11735326821E+04  0.00000000000E+00 0. -1.
         -2   -1    0    0    0  501 -0.00000000000E+00 -0.00000000000E+00 -0.20033136560E+02  0.20033136560E+02  0.00000000000E+00 0.  1.
         25    2    1    2    0    0  0.36961822804E+02 -0.98950011979E+02  0.53444259405E+03  0.55895762722E+03  0.12508981368E+03 0.  0.
          5    1    3    3  502    0  0.77385146598E+02 -0.75984095351E+02  0.28059570999E+03  0.30085456374E+03  0.41800000000E+01 0.  1.
         -5    1    3    3    0  502 -0.40423323795E+02 -0.22965916628E+02  0.25384688406E+03  0.25810306348E+03  0.41800000000E+01 0.  1.
        -11    1    1    2    0    0 -0.61385611857E+02  0.33855991391E+02  0.31121734665E+03  0.31901513813E+03  0.00000000000E+00 0.  1.
         11    1    1    2    0    0  0.24423789054E+02  0.65094020588E+02  0.30783960483E+03  0.31559305330E+03  0.00000000000E+00 0. -1.
</event>
<event>
 7    1  0.2480409E-009  0.1193497E+03  0.7561462E-02  0.1244174E+00
         -2   -1    0    0    0  501 -0.00000000000E+00  0.00000000000E+00  0.17569693730E+02  0.17569693730E+02  0.00000000000E+00 0.  1.
          2   -1    0    0  501    0  0.00000000000E+00 -0.00000000000E+00 -0.14757902071E+04  0.14757902071E+04  0.00000000000E+00 0. -1.
         25    2    1    2    0    0  0.55628027712E+02 -0.40587565918E+02 -0.11273167325E+04  0.11363237182E+04  0.12508696586E+03 0.  0.
          5    1    3    3  502    0  0.73185941391E+02 -0.16498408383E+02 -0.10590901542E+04  0.10617522341E+04  0.41800000000E+01 0. -1.
         -5    1    3    3    0  502 -0.17557913679E+02 -0.24089157535E+02 -0.68226578328E+02  0.74571484053E+02  0.41800000000E+01 0. -1.
        -11    1    1    2    0    0 -0.63695845195E+02 -0.24225189465E+02 -0.15178515615E+03  0.16638135150E+03  0.00000000000E+00 0. -1.
         11    1    1    2    0    0  0.80678174831E+01  0.64812755383E+02 -0.17911862472E+03  0.19065483120E+03  0.00000000000E+00 0.  1.
</event>
<event>
 7    1  0.2480409E-009  0.2098932E+03  0.7561462E-02  0.1141651E+00
          1   -1    0    0  501    0  0.00000000000E+00  0.00000000000E+00  0.14674102484E+04  0.14674102484E+04  0.00000000000E+00 0. -1.
         -1   -1    0    0    0  501 -0.00000000000E+00 -0.00000000000E+00 -0.34454964962E+02  0.34454964962E+02  0.00000000000E+00 0.  1.
         25    2    1    2    0    0 -0.33865295375E+02  0.18737310382E+03  0.56419801020E+03  0.60845648987E+03  0.12507744436E+03 0.  0.
          5    1    3    3  502    0 -0.66562696373E+02  0.17925004428E+03  0.44143744530E+03  0.48108799760E+03  0.41800000000E+01 0. -1.
         -5    1    3    3    0  502  0.32697400998E+02  0.81230595351E+01  0.12276056490E+03  0.12736849227E+03  0.41800000000E+01 0. -1.
        -11    1    1    2    0    0 -0.84416247420E+01 -0.54088515141E+02  0.12268461494E+03  0.13434412247E+03  0.00000000000E+00 0.  1.
         11    1    1    2    0    0  0.42306920117E+02 -0.13328458867E+03  0.74607265829E+03  0.75906460102E+03  0.00000000000E+00 0. -1.
</event>
<event>
 7    1  0.2480409E-009  0.9752966E+02  0.7561462E-02  0.1285578E+00
         -3   -1    0    0    0  501 -0.00000000000E+00  0.00000000000E+00  0.10420104185E+03  0.10420104185E+03  0.00000000000E+00 0. -1.
          3   -1    0    0  501    0  0.00000000000E+00 -0.00000000000E+00 -0.13450851333E+03  0.13450851333E+03  0.00000000000E+00 0.  1.
         25    2    1    2    0    0  0.47585990428E+01  0.55629560020E+02 -0.25444413091E+02  0.13932711002E+03  0.12508930097E+03 0.  0.
          5    1    3    3  502    0 -0.41024844566E+02  0.66482554182E+02  0.11871188786E+02  0.79128789991E+02  0.41800000000E+01 0. -1.
         -5    1    3    3    0  502  0.45783443609E+02 -0.10852994162E+02 -0.37315601877E+02  0.60198320030E+02  0.41800000000E+01 0. -1.
        -11    1    1    2    0    0  0.17710184417E+02 -0.34328144652E+02  0.32766420211E+02  0.50652842376E+02  0.00000000000E+00 0. -1.
         11    1    1    2    0    0 -0.22468783460E+02 -0.21301415367E+02 -0.37629478600E+02  0.48729602774E+02  0.00000000000E+00 0.  1.
</event>
<event>
 7    1  0.2480409E-009  0.1039406E+03  0.7561462E-02  0.1272221E+00
         -3   -1    0    0    0  501 -0.00000000000E+00  0.00000000000E+00  0.59079106557E+02  0.59079106557E+02  0.00000000000E+00 0.  1.
          3   -1    0    0  501    0  0.00000000000E+00 -0.00000000000E+00 -0.30386479024E+03  0.30386479024E+03  0.00000000000E+00 0. -1.
         25    2    1    2    0    0 -0.12825248205E+02  0.48118303132E+02 -0.21747704666E+03  0.25577977482E+03  0.12508864575E+03 0.  0.
          5    1    3    3  502    0 -0.69650030554E+01  0.89241634765E+02 -0.12023824279E+03  0.14995762092E+03  0.41800000000E+01 0.  1.
         -5    1    3    3    0  502 -0.58602451495E+01 -0.41123331633E+02 -0.97238803865E+02  0.10582215389E+03  0.41800000000E+01 0.  1.
        -11    1    1    2    0    0  0.17358280686E+02 -0.60708139938E+02  0.13197060998E+02  0.64505430640E+02  0.00000000000E+00 0.  1.
         11    1    1    2    0    0 -0.45330324815E+01  0.12589836805E+02 -0.40505698020E+02  0.42658691335E+02  0.00000000000E+00 0. -1.
</event>
<event>
 7    1  0.2480409E-009  0.1219651E+03  0.7561462E-02  0.1239890E+00
         -1   -1    0    0    0  501 -0.00000000000E+00  0.00000000000E+00  0.18008238200E+02  0.18008238200E+02  0.00000000000E+00 0.  1.
          1   -1    0    0  501    0  0.00000000000E+00 -0.00000000000E+00 -0.10651512089E+04  0.10651512089E+04  0.00000000000E+00 0. -1.
         25    2    1    2    0    0  0.55614456749E+02  0.65974780224E+02 -0.51027075142E+03  0.53241877235E+03  0.12509144645E+03 0.  0.
          5    1    3    3  502    0  0.19002370071E+02  0.85838021282E+02 -0.45304622918E+03  0.46151664557E+03  0.41800000000E+01 0. -1.
         -5    1    3    3    0  502  0.36612086679E+02 -0.19863241058E+02 -0.57224522234E+02  0.70902126774E+02  0.41800000000E+01 0. -1.
        -11    1    1    2    0    0 -0.73034679061E+02 -0.41471562461E+02 -0.46966398850E+03  0.47711446942E+03  0.00000000000E+00 0.  1.
         11    1    1    2    0    0  0.17420222311E+02 -0.24503217763E+02 -0.67208230797E+02  0.73626205341E+02  0.00000000000E+00 0. -1.
</event>
<event>
 7    1  0.2480409E-009  0.1144704E+03  0.7561462E-02  0.1252508E+00
         -2   -1    0    0    0  501 -0.00000000000E+00  0.00000000000E+00  0.14226154449E+02  0.14226154449E+02  0.00000000000E+00 0. -1.
          2   -1    0    0  501    0  0.00000000000E+00 -0.00000000000E+00 -0.14198575910E+04  0.14198575910E+04  0.00000000000E+00 0.  1.
         25    2    1    2    0    0  0.47110213880E+02 -0.75615603946E+02 -0.85469816164E+03  0.86838517068E+03  0.12508703105E+03 0.  0.
          5    1    3    3  502    0 -0.90258415996E+01 -0.92991687398E+01 -0.54068538551E+01  0.14650830162E+02  0.41800000000E+01 0. -1.
         -5    1    3    3    0  502  0.56136055480E+02 -0.66316435206E+02 -0.84929130778E+03  0.85373434052E+03  0.41800000000E+01 0. -1.
        -11    1    1    2    0    0 -0.41374557552E+02 -0.99712653906E+01 -0.17429986930E+03  0.17942052442E+03  0.00000000000E+00 0. -1.
         11    1    1    2    0    0 -0.57356563282E+01  0.85586869337E+02 -0.37663340561E+03  0.38627805034E+03  0.00000000000E+00 0.  1.
</event>
<event>
 7    1  0.2480409E-009  0.1178130E+03  0.7561462E-02  0.1246749E+00
          1   -1    0    0  501    0  0.00000000000E+00  0.00000000000E+00  0.32269969058E+02  0.32269969058E+02  0.00000000000E+00 0. -1.
         -1   -1    0    0    0  501 -0.00000000000E+00 -0.00000000000E+00 -0.44758830394E+03  0.44758830394E+03  0.00000000000E+00 0.  1.
         25    2    1    2    0    0  0.29308442455E+02  0.39905072277E+02 -0.26994069519E+03  0.30160885641E+03  0.12509405960E+03 0.  0.
          5    1    3    3  502    0 -0.40972193633E+01 -0.42802950407E+02 -0.11398770913E+03  0.12189975391E+03  0.41800000000E+01 0.  1.
         -5    1    3    3    0  502  0.33405661818E+02  0.82708022685E+02 -0.15595298606E+03  0.17970910250E+03  0.41800000000E+01 0.  1.
        -11    1    1    2    0    0 -0.49484751987E+02 -0.57848659271E+02 -0.10861144052E+03  0.13263352921E+03  0.00000000000E+00 0. -1.
         11    1    1    2    0    0  0.20176309532E+02  0.17943586994E+02 -0.36766199159E+02  0.45615887377E+02  0.00000000000E+00 0.  1.
</event>
<event>
 7    1  0.2480409E-009  0.3660405E+02  0.7561462E-02  0.1534801E+00
         -3   -1    0    0    0  501 -0.00000000000E+00  0.00000000000E+00  0.17788896140E+03  0.17788896140E+03  0.00000000000E+00 0.  1.
          3   -1    0    0  501    0  0.00000000000E+00 -0.00000000000E+00 -0.72151683984E+02  0.72151683984E+02  0.00000000000E+00 0. -1.
         25    2    1    2    0    0  0.16336594317E+02  0.95498875757E+01  0.85651727101E+02  0.15278159551E+03  0.12509161805E+03 0.  0.
          5    1    3    3  502    0  0.41339569374E+01 -0.15325515684E+02  0.11266838255E+03  0.11385779665E+03  0.41800000000E+01 0. -1.
         -5    1    3    3    0  502  0.12202637380E+02  0.24875403259E+02 -0.27016655450E+02  0.38923798865E+02  0.41800000000E+01 0. -1.
        -11    1    1    2    0    0 -0.11261835969E+02  0.57561021546E+01 -0.36390655120E+02  0.38525854195E+02  0.00000000000E+00 0. -1.
         11    1    1    2    0    0 -0.50747583484E+01 -0.15305989730E+02  0.56476205430E+02  0.58733195671E+02  0.00000000000E+00 0.  1.
</event>
<event>
 7    1  0.2480409E-009  0.6948394E+02  0.7561462E-02  0.1361857E+00
         -2   -1    0    0    0  501 -0.00000000000E+00  0.00000000000E+00  0.88834318441E+02  0.88834318441E+02  0.00000000000E+00 0.  1.
          2   -1    0    0  501    0  0.00000000000E+00 -0.00000000000E+00 -0.31656526889E+03  0.31656526889E+03  0.00000000000E+00 0. -1.
         25    2    1    2    0    0 -0.17930336342E+02 -0.61890649665E+02 -0.25514752268E+03  0.29137384548E+03  0.12508601050E+03 0.  0.
          5    1    3    3  502    0 -0.72278093032E+01 -0.79185567147E+01 -0.23075449918E+03  0.23104124320E+03  0.41800000000E+01 0.  1.
         -5    1    3    3    0  502 -0.10702527038E+02 -0.53972092951E+02 -0.24393023497E+02  0.60332602280E+02  0.41800000000E+01 0.  1.
        -11    1    1    2    0    0 -0.81877982384E+01  0.29793469254E+02  0.55843410133E+02  0.63821448632E+02  0.00000000000E+00 0.  1.
         11    1    1    2    0    0  0.26118134580E+02  0.32097180412E+02 -0.28426837904E+02  0.50204293218E+02  0.00000000000E+00 0. -1.
</event>
<event>
 7    1  0.2480409E-009  0.4498662E+03  0.7561462E-02  0.1027762E+00
          2   -1    0    0  501    0  0.00000000000E+00  0.00000000000E+00  0.13784843401E+04  0.13784843401E+04  0.00000000000E+00 0. -1.
         -2   -1    0    0    0  501 -0.00000000000E+00 -0.00000000000E+00 -0.16594861011E+03  0.16594861011E+03  0.00000000000E+00 0.  1.
         25    2    1    2    0    0 -0.32430158005E+03 -0.31038634764E+03  0.41088878270E+03  0.62127976556E+03  0.12509098974E+03 0.  0.
          5    1    3    3  502    0 -0.17003262244E+03 -0.19055961405E+03  0.30907457267E+03  0.40095962773E+03  0.41800000000E+01 0.  1.
         -5    1    3    3    0  502 -0.15426895761E+03 -0.11982673359E+03  0.10181421003E+03  0.22032013782E+03  0.41800000000E+01 0.  1.
        -11    1    1    2    0    0  0.29920101974E+03  0.28460400288E+03  0.77578061329E+03  0.87883801045E+03  0.00000000000E+00 0. -1.
         11    1    1    2    0    0  0.25100560319E+02  0.25782344764E+02  0.25866334026E+02  0.44315174216E+02  0.00000000000E+00 0.  1.
</event>
<event>
 7    1  0.2480409E-009  0.1674263E+03  0.7561462E-02  0.1180559E+00
          1   -1    0    0  501    0  0.00000000000E+00  0.00000000000E+00  0.40441950239E+03  0.40441950239E+03  0.00000000000E+00 0. -1.
         -1   -1    0    0    0  501 -0.00000000000E+00 -0.00000000000E+00 -0.87177713831E+02  0.87177713831E+02  0.00000000000E+00 0.  1.
         25    2    1    2    0    0 -0.62962027198E+02 -0.13124697510E+03  0.23427325101E+03  0.30285522402E+03  0.12508934901E+03 0.  0.
          5    1    3    3  502    0  0.26664307955E+02  0.32321338143E+01  0.55673264869E+02  0.61954958065E+02  0.41800000000E+01 0. -1.
         -5    1    3    3    0  502 -0.89626335153E+02 -0.13447910891E+03  0.17859998614E+03  0.24090026595E+03  0.41800000000E+01 0. -1.
        -11    1    1    2    0    0  0.61085745005E+02  0.12051912087E+03  0.35031530888E+02  0.13958343345E+03  0.00000000000E+00 0.  1.
         11    1    1    2    0    0  0.18762821929E+01  0.10727854231E+02  0.47937006657E+02  0.49158558751E+02  0.00000000000E+00 0. -1.
</event>
<event>
 7    1  0.2480409E-009  0.1295765E+03  0.7561462E-02  0.1228086E+00
          1   -1    0    0  501    0  0.00000000000E+00  0.00000000000E+00  0.54440455130E+03  0.54440455130E+03  0.00000000000E+00 0. -1.
         -1   -1    0    0    0  501 -0.00000000000E+00 -0.00000000000E+00 -0.39730044049E+02  0.39730044049E+02  0.00000000000E+00 0.  1.
         25    2    1    2    0    0 -0.18975340954E+02 -0.86812285270E+02  0.26479924808E+03  0.30604331828E+03  0.12508970556E+03 0.  0.
          5    1    3    3  502    0  0.18012204351E+02  0.11698501520E+02  0.14456508007E+03  0.14621159057E+03  0.41800000000E+01 0.  1.
         -5    1    3    3    0  502 -0.36987545305E+02 -0.98510786790E+02  0.12023416802E+03  0.15983172770E+03  0.41800000000E+01 0.  1.
        -11    1    1    2    0    0  0.51368395612E+02  0.15527549731E+02  0.14771098207E+03  0.15715709049E+03  0.00000000000E+00 0.  1.
         11    1    1    2    0    0 -0.32393054658E+02  0.71284735539E+02  0.92164277100E+02  0.12093418658E+03  0.00000000000E+00 0. -1.
</event>
<event>
 7    1  0.3668213E-009  0.1423917E+03  0.7561462E-02  0.1210147E+00
          1   -1    0    0  501    0  0.00000000000E+00  0.00000000000E+00  0.87545560350E+03  0.87545560350E+03  0.00000000000E+00 0. -1.
         -1   -1    0    0    0  501 -0.00000000000E+00 -0.00000000000E+00 -0.26226953662E+02  0.26226953662E+02  0.00000000000E+00 0.  1.
         25    2    1    2    0    0  0.10168876506E+02 -0.94656027610E+02  0.59428762997E+03  0.61472591841E+03  0.12508796107E+03 0.  0.
          5    1    3    3  502    0  0.38732292162E+02 -0.11267933581E+03  0.39668262000E+03  0.41421177746E+03  0.41800000000E+01 0. -1.
         -5    1    3    3    0  502 -0.28563415656E+02  0.18023308203E+02  0.19760500997E+03  0.20051414094E+03  0.41800000000E+01 0. -1.
        -11    1    1    2    0    0  0.37997588872E+02  0.64009360852E+02  0.13662534720E+03  0.15558759762E+03  0.00000000000E+00 0.  1.
         11    1    1    2    0    0 -0.48166465378E+02  0.30646666758E+02  0.11831567266E+03  0.13136904113E+03  0.00000000000E+00 0. -1.
</event>
<event>
 7    1  0.2480409E-009  0.9127156E+02  0.7561462E-02  0.1299801E+00
         -3   -1    0    0    0  501 -0.00000000000E+00  0.00000000000E+00  0.23821769213E+03  0.23821769213E+03  0.00000000000E+00 0.  1.
          3   -1    0    0  501    0  0.00000000000E+00 -0.00000000000E+00 -0.60091862635E+02  0.60091862635E+02  0.00000000000E+00 0. -1.
         25    2    1    2    0    0 -0.21776400234E+02  0.15261747529E+02  0.14966678371E+03  0.19686485249E+03  0.12509393052E+03 0.  0.
          5    1    3    3  502    0  0.44367863912E+02  0.10006701721E+02  0.11082047314E+03  0.11986363542E+03  0.41800000000E+01 0.  1.
         -5    1    3    3    0  502 -0.66144264146E+02  0.52550458078E+01  0.38846310569E+02  0.77001217073E+02  0.41800000000E+01 0.  1.
        -11    1    1    2    0    0 -0.18228883573E+02  0.12134210093E+02  0.45138049741E+02  0.50169460684E+02  0.00000000000E+00 0.  1.
         11    1    1    2    0    0  0.40005283807E+02 -0.27395957622E+02 -0.16679003965E+02  0.51275241587E+02  0.00000000000E+00 0. -1.
</event>
<event>
 7    1  0.2480409E-009  0.2148945E+03  0.7561462E-02  0.1137748E+00
          3   -1    0    0  501    0  0.00000000000E+00  0.00000000000E+00  0.49231929574E+02  0.49231929574E+02  0.00000000000E+00 0. -1.
         -3   -1    0    0    0  501 -0.00000000000E+00 -0.00000000000E+00 -0.12977881516E+04  0.12977881516E+04  0.00000000000E+00 0.  1.
         25    2    1    2    0    0  0.17503723903E+03  0.86750818059E+02 -0.32985016652E+03  0.40325199258E+03  0.12508915894E+03 0.  0.
          5    1    3    3  502    0  0.33135214947E+02 -0.22813240327E+02 -0.12306218208E+03  0.12953825482E+03  0.41800000000E+01 0. -1.
         -5    1    3    3    0  502  0.14190202408E+03  0.10956405839E+03 -0.20678798444E+03  0.27371373776E+03  0.41800000000E+01 0. -1.
        -11    1    1    2    0    0 -0.67604960383E+02 -0.76507816558E+02 -0.33662796119E+03  0.35177018196E+03  0.00000000000E+00 0. -1.
         11    1    1    2    0    0 -0.10743227865E+03 -0.10243001500E+02 -0.58207809428E+03  0.59199790660E+03  0.00000000000E+00 0.  1.
</event>
<event>
 7    1  0.2480409E-009  0.9909027E+02  0.7561462E-02  0.1282221E+00
          4   -1    0    0  501    0  0.00000000000E+00  0.00000000000E+00  0.31717590063E+03  0.31717590063E+03  0.00000000000E+00 0. -1.
         -4   -1    0    0    0  501 -0.00000000000E+00 -0.00000000000E+00 -0.39773020864E+02  0.39773020864E+02  0.00000000000E+00 0.  1.
         25    2    1    2    0    0 -0.93139449148E+01  0.10028004159E+02  0.20171837930E+03  0.23774398717E+03  0.12507832926E+03 0.  0.
          5    1    3    3  502    0  0.20379526309E+01 -0.52049722860E+02  0.45801111537E+02  0.69487704803E+02  0.41800000000E+01 0.  1.
         -5    1    3    3    0  502 -0.11351897546E+02  0.62077727019E+02  0.15591726776E+03  0.16825628236E+03  0.41800000000E+01 0.  1.
        -11    1    1    2    0    0  0.36502887018E+02  0.20445289004E+02  0.11955703547E+02  0.43513324975E+02  0.00000000000E+00 0.  1.
         11    1    1    2    0    0 -0.27188942104E+02 -0.30473293163E+02  0.63728796923E+02  0.75691609351E+02  0.00000000000E+00 0. -1.
</event>
<event>
 7    1  0.2480409E-009  0.1095934E+03  0.7561462E-02  0.1261325E+00
          1   -1    0    0  501    0  0.00000000000E+00  0.00000000000E+00  0.70424084553E+02  0.70424084553E+02  0.00000000000E+00 0. -1.
         -1   -1    0    0    0  501 -0.00000000000E+00 -0.00000000000E+00 -0.31473185193E+03  0.31473185193E+03  0.00000000000E+00 0.  1.
         25    2    1    2    0    0  0.19173583748E+02 -0.87857094253E+02 -0.19022037170E+03  0.24478159150E+03  0.12509093654E+03 0.  0.
          5    1    3    3  502    0  0.20582870587E+02  0.12330690316E+02 -0.11977745141E+03  0.12222851857E+03  0.41800000000E+01 0. -1.
         -5    1    3    3    0  502 -0.14092868394E+01 -0.10018778457E+03 -0.70442920291E+02  0.12255307293E+03  0.41800000000E+01 0. -1.
        -11    1    1    2    0    0  0.59323522193E+01  0.40633894916E+02 -0.72908047683E+02  0.83677294626E+02  0.00000000000E+00 0.  1.
         11    1    1    2    0    0 -0.25105935967E+02  0.47223199337E+02  0.18820652011E+02  0.56697050351E+02  0.00000000000E+00 0. -1.
</event>
<event>
 7    1  0.2480409E-009  0.7863053E+02  0.7561462E-02  0.1332983E+00
          1   -1    0    0  501    0  0.00000000000E+00  0.00000000000E+00  0.73383731522E+02  0.73383731522E+02  0.00000000000E+00 0. -1.
         -1   -1    0    0    0  501 -0.00000000000E+00 -0.00000000000E+00 -0.23926513211E+03  0.23926513211E+03  0.00000000000E+00 0.  1.
         25    2    1    2    0    0  0.67579384312E+02  0.15347859725E+02 -0.51015061989E+02  0.15182005501E+03  0.12507702655E+03 0.  0.
          5    1    3    3  502    0  0.17305820316E+02  0.15137810668E+02  0.40822906310E+02  0.47038567243E+02  0.41800000000E+01 0. -1.
         -5    1    3    3    0  502  0.50273563995E+02  0.21004905753E+00 -0.91837968299E+02  0.10478148777E+03  0.41800000000E+01 0. -1.
        -11    1    1    2    0    0 -0.55385005774E+02 -0.31103454794E+02 -0.24160506946E+02  0.67960678783E+02  0.00000000000E+00 0. -1.
         11    1    1    2    0    0 -0.12194378538E+02  0.15755595069E+02 -0.90705831656E+02  0.92868129842E+02  0.00000000000E+00 0.  1.
</event>
<event>
 7    1  0.2480409E-009  0.3006498E+03  0.7561462E-02  0.1084916E+00
         -2   -1    0    0    0  501 -0.00000000000E+00  0.00000000000E+00  0.53940810276E+02  0.53940810276E+02  0.00000000000E+00 0.  1.
          2   -1    0    0  501    0  0.00000000000E+00 -0.00000000000E+00 -0.17537444433E+04  0.17537444433E+04  0.00000000000E+00 0. -1.
         25    2    1    2    0    0  0.26805930523E+03 -0.10339497402E+03 -0.89782987870E+03  0.95094290914E+03  0.12509042167E+03 0.  0.
          5    1    3    3  502    0  0.13565431037E+03 -0.10463065739E+03 -0.61831268102E+03  0.64162115793E+03  0.41800000000E+01 0.  1.
         -5    1    3    3    0  502  0.13240499486E+03  0.12356833777E+01 -0.27951719767E+03  0.30932175121E+03  0.41800000000E+01 0.  1.
        -11    1    1    2    0    0 -0.96227579699E+01  0.25929619398E+02 -0.12424139373E+03  0.12728262470E+03  0.00000000000E+00 0. -1.
         11    1    1    2    0    0 -0.25843654726E+03  0.77465354617E+02 -0.67773236058E+03  0.72945971973E+03  0.00000000000E+00 0.  1.
</event>
<event>
 7    1  0.2480409E-009  0.1307011E+03  0.7561462E-02  0.1226419E+00
         -2   -1    0    0    0  501 -0.00000000000E+00  0.00000000000E+00  0.51490028286E+02  0.51490028286E+02  0.00000000000E+00 0.  1.
          2   -1    0    0  501    0  0.00000000000E+00 -0.00000000000E+00 -0.55422364962E+03  0.55422364962E+03  0.00000000000E+00 0. -1.
         25    2    1    2    0    0  0.77274186334E+02  0.64356357002E+02 -0.41700517328E+03  0.44682649452E+03  0.12509021184E+03 0.  0.
          5    1    3    3  502    0 -0.24081945990E+02 -0.13487704052E+02 -0.12453934614E+03  0.12762985317E+03  0.41800000000E+01 0. -1.
         -5    1    3    3    0  502  0.10135613232E+03  0.77844061054E+02 -0.29246582714E+03  0.31919664135E+03  0.41800000000E+01 0. -1.
        -11    1    1    2    0    0 -0.12186778350E+02  0.23579264749E+01 -0.61286212482E+02  0.62530610297E+02  0.00000000000E+00 0. -1.
         11    1    1    2    0    0 -0.65087407984E+02 -0.66714283477E+02 -0.24442235567E+02  0.96356573089E+02  0.00000000000E+00 0.  1.
</event>
<event>
 7    1  0.2480409E-009  0.1077152E+03  0.7561462E-02  0.1264860E+00
          1   -1    0    0  501    0  0.00000000000E+00  0.00000000000E+00  0.22133058322E+03  0.22133058322E+03  0.00000000000E+00 0.  1.
         -1   -1    0    0    0  501 -0.00000000000E+00 -0.00000000000E+00 -0.66653308795E+02  0.66653308795E+02  0.00000000000E+00 0. -1.
         25    2    1    2    0    0 -0.32956123850E+02  0.30147016277E+02  0.46215363420E+02  0.14063788107E+03  0.12509278591E+03 0.  0.
          5    1    3    3  502    0 -0.16818004425E+02 -0.40719564364E+02 -0.13727959605E+02  0.46334193311E+02  0.41800000000E+01 0.  1.
         -5    1    3    3    0  502 -0.16138119425E+02  0.70866580641E+02  0.59943323025E+02  0.94303687763E+02  0.41800000000E+01 0.  1.
        -11    1    1    2    0    0  0.48552165478E+02  0.14833855907E+02  0.68037394956E+02  0.84890771973E+02  0.00000000000E+00 0.  1.
         11    1    1    2    0    0 -0.15596041628E+02 -0.44980872184E+02  0.40424516050E+02  0.62455238970E+02  0.00000000000E+00 0. -1.
</event>
<event>
 7    1  0.2480409E-009  0.1830147E+03  0.7561462E-02  0.1164917E+00
         -2   -1    0    0    0  501 -0.00000000000E+00  0.00000000000E+00  0.32545262841E+03  0.32545262841E+03  0.00000000000E+00 0.  1.
          2   -1    0    0  501    0  0.00000000000E+00 -0.00000000000E+00 -0.13662650560E+03  0.13662650560E+03  0.00000000000E+00 0. -1.
         25    2    1    2    0    0 -0.15458612267E+03  0.68654430871E+02  0.16695224906E+03  0.26857168415E+03  0.12508955137E+03 0.  0.
          5    1    3    3  502    0  0.44545454812E+01  0.82827270657E+00 -0.15797918758E+02  0.16958055555E+02  0.41800000000E+01 0.  1.
         -5    1    3    3    0  502 -0.15904066816E+03  0.67826158165E+02  0.18275016782E+03  0.25161362860E+03  0.41800000000E+01 0.  1.
        -11    1    1    2    0    0  0.83524635654E+01 -0.36162687839E+02  0.23074438866E+02  0.43702784446E+02  0.00000000000E+00 0.  1.
         11    1    1    2    0    0  0.14623365911E+03 -0.32491743032E+02 -0.12005651201E+01  0.14980466541E+03  0.00000000000E+00 0. -1.
</event>
<event>
 7    1  0.2480409E-009  0.8931358E+02  0.7561462E-02  0.1304523E+00
          2   -1    0    0  501    0  0.00000000000E+00  0.00000000000E+00  0.59954602368E+03  0.59954602368E+03  0.00000000000E+00 0. -1.
         -2   -1    0    0    0  501 -0.00000000000E+00 -0.00000000000E+00 -0.24534286963E+02  0.24534286963E+02  0.00000000000E+00 0.  1.
         25    2    1    2    0    0 -0.96861298130E+01 -0.44112143723E+02  0.40277180246E+03  0.42416305216E+03  0.12509783223E+03 0.  0.
          5    1    3    3  502    0  0.23787270277E+02  0.30637373475E+02  0.22538686143E+03  0.22873826218E+03  0.41800000000E+01 0.  1.
         -5    1    3    3    0  502 -0.33473400090E+02 -0.74749517198E+02  0.17738494103E+03  0.19542478998E+03  0.41800000000E+01 0.  1.
        -11    1    1    2    0    0  0.21490801154E+02  0.39431029401E+02  0.17967492377E+03  0.18520188673E+03  0.00000000000E+00 0. -1.
         11    1    1    2    0    0 -0.11804671341E+02  0.46811143217E+01 -0.74349895166E+01  0.14715371754E+02  0.00000000000E+00 0.  1.
</event>
<event>
 7    1  0.2480409E-009  0.1106393E+03  0.7561462E-02  0.1259391E+00
          2   -1    0    0  501    0  0.00000000000E+00  0.00000000000E+00  0.44834753866E+03  0.44834753866E+03  0.00000000000E+00 0. -1.
         -2   -1    0    0    0  501 -0.00000000000E+00 -0.00000000000E+00 -0.31038376232E+02  0.31038376232E+02  0.00000000000E+00 0.  1.
         25    2    1    2    0    0  0.39694610486E+02  0.17493464425E+02  0.18693615150E+03  0.22907503031E+03  0.12509421001E+03 0.  0.
          5    1    3    3  502    0  0.76056285757E+02  0.40585530505E+02  0.10097831904E+03  0.13283763475E+03  0.41800000000E+01 0. -1.
         -5    1    3    3    0  502 -0.36361675271E+02 -0.23092066080E+02  0.85957832456E+02  0.96237395564E+02  0.41800000000E+01 0. -1.
        -11    1    1    2    0    0 -0.69609433441E+01 -0.47066687295E+02  0.75186313634E+02  0.88975893044E+02  0.00000000000E+00 0.  1.
         11    1    1    2    0    0 -0.32733667142E+02  0.29573222870E+02  0.15518669729E+03  0.16133499153E+03  0.00000000000E+00 0. -1.
</event>
<event>
 7    1  0.2480409E-009  0.9628815E+02  0.7561462E-02  0.1288301E+00
          1   -1    0    0  501    0  0.00000000000E+00  0.00000000000E+00  0.69249129636E+02  0.69249129636E+02  0.00000000000E+00 0. -1.
         -1   -1    0    0    0  501 -0.00000000000E+00 -0.00000000000E+00 -0.17544363327E+03  0.17544363327E+03  0.00000000000E+00 0.  1.
         25    2    1    2    0    0 -0.17254562113E+02  0.12539844738E+02 -0.55746994360E+02  0.13859995325E+03  0.12508897649E+03 0.  0.
          5    1    3    3  502    0 -0.84887730109E+01  0.57096342644E+02 -0.69995343703E+02  0.90823301804E+02  0.41800000000E+01 0.  1.
         -5    1    3    3    0  502 -0.87657891022E+01 -0.44556497906E+02  0.14248349342E+02  0.47776651444E+02  0.41800000000E+01 0.  1.
        -11    1    1    2    0    0  0.50910157606E+02  0.49851731889E+01 -0.12996977908E+02  0.52778949724E+02  0.00000000000E+00 0.  1.
         11    1    1    2    0    0 -0.33655595493E+02 -0.17525017927E+02 -0.37450531365E+02  0.53313859932E+02  0.00000000000E+00 0. -1.
</event>
<event>
 7    1  0.2480409E-009  0.1201298E+03  0.7561462E-02  0.1242883E+00
         -1   -1    0    0    0  501 -0.00000000000E+00  0.00000000000E+00  0.20965279480E+03  0.20965279480E+03  0.00000000000E+00 0.  1.
          1   -1    0    0  501    0  0.00000000000E+00 -0.00000000000E+00 -0.92262924848E+02  0.92262924848E+02  0.00000000000E+00 0. -1.
         25    2    1    2    0    0  0.51941325811E+02 -0.66867011681E+02  0.83559872088E+02  0.17262303483E+03  0.12508941342E+03 0.  0.
          5    1    3    3  502    0 -0.20310591008E+02 -0.56447393227E+02  0.79106354612E+02  0.99368586834E+02  0.41800000000E+01 0.  1.
         -5    1    3    3    0  502  0.72251916819E+02 -0.10419618454E+02  0.44535174755E+01  0.73254447992E+02  0.41800000000E+01 0.  1.
        -11    1    1    2    0    0 -0.55298004434E+02  0.18190976654E+02 -0.15155452492E+02  0.60153708666E+02  0.00000000000E+00 0. -1.
         11    1    1    2    0    0  0.33566786230E+01  0.48676035027E+02  0.48985450352E+02  0.69138976153E+02  0.00000000000E+00 0.  1.
</event>
<event>
 7    1  0.2480409E-009  0.2173634E+03  0.7561462E-02  0.1135864E+00
          1   -1    0    0  501    0  0.00000000000E+00  0.00000000000E+00  0.19521088136E+04  0.19521088136E+04  0.00000000000E+00 0. -1.
         -1   -1    0    0    0  501 -0.00000000000E+00 -0.00000000000E+00 -0.29343515729E+02  0.29343515729E+02  0.00000000000E+00 0.  1.
         25    2    1    2    0    0 -0.79306113577E+02  0.17455524413E+03  0.13698111694E+04  0.13888083396E+04  0.12508785563E+03 0.  0.
          5    1    3    3  502    0  0.17571403890E+02  0.93179630195E+02  0.76689493160E+03  0.77274608135E+03  0.41800000000E+01 0.  1.
         -5    1    3    3    0  502 -0.96877517466E+02  0.81375613932E+02  0.60291623777E+03  0.61606225830E+03  0.41800000000E+01 0.  1.
        -11    1    1    2    0    0  0.93053464154E+02 -0.96838122252E+02  0.34552942146E+03  0.37071168070E+03  0.00000000000E+00 0.  1.
         11    1    1    2    0    0 -0.13747350577E+02 -0.77717121875E+02  0.20742470701E+03  0.22193230896E+03  0.00000000000E+00 0. -1.
</event>
<event>
 7    1  0.2480409E-009  0.9775911E+02  0.7561462E-02  0.1285080E+00
         -2   -1    0    0    0  501 -0.00000000000E+00  0.00000000000E+00  0.24421584125E+03  0.24421584125E+03  0.00000000000E+00 0.  1.
          2   -1    0    0  501    0  0.00000000000E+00 -0.00000000000E+00 -0.51726952905E+02  0.51726952905E+02  0.00000000000E+00 0. -1.
         25    2    1    2    0    0  0.29265684628E+01 -0.23819169666E+01  0.15161535232E+03  0.19659352010E+03  0.12509020248E+03 0.  0.
          5    1    3    3  502    0 -0.40826200139E+02 -0.31943423495E+02  0.12883232425E+03  0.13893308136E+03  0.41800000000E+01 0.  1.
         -5    1    3    3    0  502  0.43752768602E+02  0.29561506529E+02  0.22783028066E+02  0.57660438747E+02  0.41800000000E+01 0.  1.
        -11    1    1    2    0    0  0.38610620642E+02 -0.19868027649E+02  0.20268523546E+02  0.47920054213E+02  0.00000000000E+00 0.  1.
         11    1    1    2    0    0 -0.41537189104E+02  0.22249944616E+02  0.20605012481E+02  0.51429219841E+02  0.00000000000E+00 0. -1.
</event>
<event>
 7    1  0.2480409E-009  0.1312969E+03  0.7561462E-02  0.1225544E+00
          2   -1    0    0  501    0  0.00000000000E+00  0.00000000000E+00  0.53958533501E+03  0.53958533501E+03  0.00000000000E+00 0. -1.
         -2   -1    0    0    0  501 -0.00000000000E+00 -0.00000000000E+00 -0.47881968796E+02  0.47881968796E+02  0.00000000000E+00 0.  1.
         25    2    1    2    0    0  0.80654184052E+01 -0.11828927794E+03  0.26994817478E+03  0.32027757088E+03  0.12509316963E+03 0.  0.
          5    1    3    3  502    0 -0.17711309930E+02 -0.42642209998E+02  0.22241974281E+03  0.22720049068E+03  0.41800000000E+01 0. -1.
         -5    1    3    3    0  502  0.25776728335E+02 -0.75647067945E+02  0.47528431972E+02  0.93077080197E+02  0.41800000000E+01 0. -1.
        -11    1    1    2    0    0  0.20858749897E+02  0.99613527403E+02  0.20505773572E+03  0.22892491623E+03  0.00000000000E+00 0. -1.
         11    1    1    2    0    0 -0.28924168303E+02  0.18675750539E+02  0.16697455707E+02  0.38264816702E+02  0.00000000000E+00 0.  1.
</event>
<event>
 7    1  0.2480409E-009  0.1115027E+03  0.7561462E-02  0.1257812E+00
         -1   -1    0    0    0  501 -0.00000000000E+00  0.00000000000E+00  0.31749488941E+03  0.31749488941E+03  0.00000000000E+00 0.  1.
          1   -1    0    0  501    0  0.00000000000E+00 -0.00000000000E+00 -0.64788946507E+02  0.64788946507E+02  0.00000000000E+00 0. -1.
         25    2    1    2    0    0  0.31018684667E+02  0.43900247964E+02  0.23731582670E+03  0.27359582621E+03  0.12508590627E+03 0.  0.
          5    1    3    3  502    0 -0.40562664165E+02  0.24642522531E+02  0.38133910748E+02  0.61026643278E+02  0.41800000000E+01 0. -1.
         -5    1    3    3    0  502  0.71581348833E+02  0.19257725434E+02  0.19918191595E+03  0.21256918293E+03  0.41800000000E+01 0. -1.
        -11    1    1    2    0    0 -0.36582631424E+02  0.16733012137E+02 -0.11918580069E+02  0.41956348363E+02  0.00000000000E+00 0. -1.
         11    1    1    2    0    0  0.55639467569E+01 -0.60633260101E+02  0.27308696276E+02  0.66731661348E+02  0.00000000000E+00 0.  1.
</event>
<event>
 7    1  0.2480409E-009  0.1115410E+03  0.7561462E-02  0.1257743E+00
          2   -1    0    0  501    0  0.00000000000E+00  0.00000000000E+00  0.24544162127E+02  0.24544162127E+02  0.00000000000E+00 0. -1.
         -2   -1    0    0    0  501 -0.00000000000E+00 -0.00000000000E+00 -0.67202132075E+03  0.67202132075E+03  0.00000000000E+00 0.  1.
         25    2    1    2    0    0 -0.25200817602E+02  0.47088804974E+02 -0.47230802843E+03  0.49150296238E+03  0.12509137279E+03 0.  0.
          5    1    3    3  502    0  0.43456690543E+02  0.19081458493E+02 -0.30158548774E+03  0.30532583387E+03  0.41800000000E+01 0.  1.
         -5    1    3    3    0  502 -0.68657508145E+02  0.28007346481E+02 -0.17072254069E+03  0.18617712851E+03  0.41800000000E+01 0.  1.
        -11    1    1    2    0    0 -0.32131100742E+02 -0.18962491868E+02 -0.98214652787E+02  0.10506237078E+03  0.00000000000E+00 0.  1.
         11    1    1    2    0    0  0.57331918344E+02 -0.28126313106E+02 -0.76954477406E+02  0.10000014971E+03  0.00000000000E+00 0. -1.
</event>
<event>
 7    1  0.2480409E-009  0.1258780E+03  0.7561462E-02  0.1233703E+00
          1   -1    0    0  501    0  0.00000000000E+00  0.00000000000E+00  0.62607731539E+03  0.62607731539E+03  0.00000000000E+00 0. -1.
         -1   -1    0    0    0  501 -0.00000000000E+00 -0.00000000000E+00 -0.37207300811E+02  0.37207300811E+02  0.00000000000E+00 0.  1.
         25    2    1    2    0    0  0.32631630007E+02  0.84921298507E+02  0.43774596799E+03  0.46426892778E+03  0.12509058555E+03 0.  0.
          5    1    3    3  502    0  0.36383532161E+02 -0.25163175447E+02  0.12315382832E+03  0.13092472891E+03  0.41800000000E+01 0.  1.
         -5    1    3    3    0  502 -0.37519021541E+01  0.11008447395E+03  0.31459213968E+03  0.33334419887E+03  0.41800000000E+01 0.  1.
        -11    1    1    2    0    0 -0.28485039372E+02 -0.27733864758E+02  0.26379791802E+01  0.39843740494E+02  0.00000000000E+00 0.  1.
         11    1    1    2    0    0 -0.41465906357E+01 -0.57187433750E+02  0.14848606741E+03  0.15917194793E+03  0.00000000000E+00 0. -1.
</event>
<event>
 7    1  0.2480409E-009  0.1372588E+03  0.7561462E-02  0.1217066E+00
          1   -1    0    0  501    0  0.00000000000E+00  0.00000000000E+00  0.45210614120E+03  0.45210614120E+03  0.00000000000E+00 0. -1.
         -1   -1    0    0    0  501 -0.00000000000E+00 -0.00000000000E+00 -0.56419608580E+02  0.56419608580E+02  0.00000000000E+00 0.  1.
         25    2    1    2    0    0  0.98873688458E+02 -0.62645867559E+02  0.21848336191E+03  0.27763776829E+03  0.12508892820E+03 0.  0.
          5    1    3    3  502    0  0.79394538589E+02  0.10238115733E+02  0.54065088286E+02  0.96689285564E+02  0.41800000000E+01 0.  1.
         -5    1    3    3    0  502  0.19479149869E+02 -0.72883983291E+02  0.16441827362E+03  0.18094848273E+03  0.41800000000E+01 0.  1.
        -11    1    1    2    0    0 -0.83497700380E+02  0.43208740970E+02  0.60998777851E+02  0.11207012164E+03  0.00000000000E+00 0.  1.
         11    1    1    2    0    0 -0.15375988078E+02  0.19437126588E+02  0.11620439287E+03  0.11881785986E+03  0.00000000000E+00 0. -1.
</event>
<event>
 7    1  0.2480409E-009  0.1011108E+03  0.7561462E-02  0.1277977E+00
         -2   -1    0    0    0  501 -0.00000000000E+00  0.00000000000E+00  0.30292049161E+02  0.30292049161E+02  0.00000000000E+00 0.  1.
          2   -1    0    0  501    0  0.00000000000E+00 -0.00000000000E+00 -0.41064084115E+03  0.41064084115E+03  0.00000000000E+00 0. -1.
         25    2    1    2    0    0 -0.39795342392E+01  0.16084676667E+02 -0.17560931394E+03  0.21624176291E+03  0.12508922964E+03 0.  0.
          5    1    3    3  502    0 -0.50567247015E+02 -0.17093191389E+02 -0.13704886559E+03  0.14713628927E+03  0.41800000000E+01 0.  1.
         -5    1    3    3    0  502  0.46587712776E+02  0.33177868055E+02 -0.38560448350E+02  0.69105473643E+02  0.41800000000E+01 0.  1.
        -11    1    1    2    0    0  0.11916091912E+02  0.36374746408E+02 -0.68225484814E+02  0.78229356388E+02  0.00000000000E+00 0. -1.
         11    1    1    2    0    0 -0.79365576727E+01 -0.52459423075E+02 -0.13651399324E+03  0.14646177101E+03  0.00000000000E+00 0.  1.
</event>
<event>
 7    1  0.2480409E-009  0.1529794E+03  0.7561462E-02  0.1196859E+00
         -3   -1    0    0    0  501 -0.00000000000E+00  0.00000000000E+00  0.42182081278E+02  0.42182081278E+02  0.00000000000E+00 0.  1.
          3   -1    0    0  501    0  0.00000000000E+00 -0.00000000000E+00 -0.60538596692E+03  0.60538596692E+03  0.00000000000E+00 0. -1.
         25    2    1    2    0    0 -0.10507039502E+03  0.29171065292E+02 -0.21557982304E+03  0.27204993921E+03  0.12508305384E+03 0.  0.
          5    1    3    3  502    0 -0.41198840433E+02 -0.49108616128E+02 -0.95055478088E+02  0.11472583382E+03  0.41800000000E+01 0. -1.
         -5    1    3    3    0  502 -0.63871554589E+02  0.78279681420E+02 -0.12052434496E+03  0.15732410539E+03  0.41800000000E+01 0. -1.
        -11    1    1    2    0    0 -0.12291690676E+02  0.11062401221E+02 -0.60849745546E+02  0.63056751530E+02  0.00000000000E+00 0. -1.
         11    1    1    2    0    0  0.11736208570E+03 -0.40233466513E+02 -0.28677431705E+03  0.31246135746E+03  0.00000000000E+00 0.  1.
</event>
<event>
 7    1  0.2480409E-009  0.1022191E+03  0.7561462E-02  0.1275697E+00
         -2   -1    0    0    0  501 -0.00000000000E+00  0.00000000000E+00  0.29942385398E+02  0.29942385398E+02  0.00000000000E+00 0.  1.
          2   -1    0    0  501    0  0.00000000000E+00 -0.00000000000E+00 -0.40897070047E+03  0.40897070047E+03  0.00000000000E+00 0. -1.
         25    2    1    2    0    0  0.23468482641E+02 -0.10681699357E+02 -0.21022766036E+03  0.24598618032E+03  0.12509461759E+03 0.  0.
          5    1    3    3  502    0  0.37709646995E+02  0.45865147853E+02 -0.58818426317E+02  0.83682190091E+02  0.41800000000E+01 0. -1.
         -5    1    3    3    0  502 -0.14241164354E+02 -0.56546847210E+02 -0.15140923404E+03  0.16230399023E+03  0.41800000000E+01 0. -1.
        -11    1    1    2    0    0 -0.54562857942E+02  0.91087322603E+01 -0.69312275084E+02  0.88680696589E+02  0.00000000000E+00 0.  1.
         11    1    1    2    0    0  0.31094375301E+02  0.15729670969E+01 -0.99488379629E+02  0.10424620896E+03  0.00000000000E+00 0. -1.
</event>
<event>
 7    1  0.2480409E-009  0.1596687E+03  0.7561462E-02  0.1189071E+00
         -1   -1    0    0    0  501 -0.00000000000E+00  0.00000000000E+00  0.48330674817E+02  0.48330674817E+02  0.00000000000E+00 0.  1.
          1   -1    0    0  501    0  0.00000000000E+00 -0.00000000000E+00 -0.59094398630E+03  0.59094398630E+03  0.00000000000E+00 0. -1.
         25    2    1    2    0    0  0.17386990920E+01  0.13711488200E+03 -0.38271330277E+03  0.42534775679E+03  0.12509087956E+03 0.  0.
          5    1    3    3  502    0 -0.49396391743E+02  0.28659028588E+02 -0.70180122405E+02  0.90576296114E+02  0.41800000000E+01 0.  1.
         -5    1    3    3    0  502  0.51135090835E+02  0.10845585342E+03 -0.31253318037E+03  0.33477146068E+03  0.41800000000E+01 0.  1.
        -11    1    1    2    0    0  0.17700460112E+02 -0.71935191142E+02 -0.85039172751E+02  0.11278137663E+03  0.00000000000E+00 0.  1.
         11    1    1    2    0    0 -0.19439159204E+02 -0.65179690862E+02 -0.74860835958E+02  0.10114552769E+03  0.00000000000E+00 0. -1.
</event>
<event>
 7    1  0.2480409E-009  0.7939472E+02  0.7561462E-02  0.1330778E+00
         -1   -1    0    0    0  501 -0.00000000000E+00  0.00000000000E+00  0.49129400780E+02  0.49129400780E+02  0.00000000000E+00 0.  1.
          1   -1    0    0  501    0  0.00000000000E+00 -0.00000000000E+00 -0.26690454377E+03  0.26690454377E+03  0.00000000000E+00 0. -1.
         25    2    1    2    0    0  0.21910801141E+02 -0.30368137746E+02 -0.12101665390E+03  0.17802275530E+03  0.12507903056E+03 0.  0.
          5    1    3    3  502    0 -0.27715639892E+02 -0.45175068363E+01 -0.11850129757E+03  0.12185480905E+03  0.41800000000E+01 0. -1.
         -5    1    3    3    0  502  0.49626441033E+02 -0.25850630909E+02 -0.25153563269E+01  0.56167946246E+02  0.41800000000E+01 0. -1.
        -11    1    1    2    0    0 -0.42389384242E+02  0.65777776582E+01 -0.76996777012E+01  0.43582245146E+02  0.00000000000E+00 0.  1.
         11    1    1    2    0    0  0.20478583101E+02  0.23790360087E+02 -0.89058811390E+02  0.94428944107E+02  0.00000000000E+00 0. -1.
</event>
<event>
 7    1  0.2480409E-009  0.1668793E+03  0.7561462E-02  0.1181142E+00
          1   -1    0    0  501    0  0.00000000000E+00  0.00000000000E+00  0.15648350772E+03  0.15648350772E+03  0.00000000000E+00 0. -1.
         -1   -1    0    0    0  501 -0.00000000000E+00 -0.00000000000E+00 -0.21518225938E+03  0.21518225938E+03  0.00000000000E+00 0.  1.
         25    2    1    2    0    0 -0.11087846016E+02  0.14696885853E+03 -0.34206202856E+02  0.19631851935E+03  0.12509240992E+03 0.  0.
          5    1    3    3  502    0 -0.41357414641E+02  0.14576703776E+03 -0.52821169102E+02  0.16051795335E+03  0.41800000000E+01 0. -1.
         -5    1    3    3    0  502  0.30269568625E+02  0.12018207771E+01  0.18614966246E+02  0.35800566005E+02  0.41800000000E+01 0. -1.
        -11    1    1    2    0    0  0.22759419324E+02 -0.66447984073E+02 -0.54213170332E+02  0.88726510090E+02  0.00000000000E+00 0.  1.
         11    1    1    2    0    0 -0.11671573308E+02 -0.80520874460E+02  0.29720621526E+02  0.86620737651E+02  0.00000000000E+00 0. -1.
</event>
<event>
 7    1  0.2480409E-009  0.1038382E+03  0.7561462E-02  0.1272426E+00
         -1   -1    0    0    0  501 -0.00000000000E+00  0.00000000000E+00  0.68524321681E+02  0.68524321681E+02  0.00000000000E+00 0.  1.
          1   -1    0    0  501    0  0.00000000000E+00 -0.00000000000E+00 -0.23098516303E+03  0.23098516303E+03  0.00000000000E+00 0. -1.
         25    2    1    2    0    0  0.10809837582E+02  0.26470842534E+02 -0.21773597634E+02  0.13015119228E+03  0.12509070791E+03 0.  0.
          5    1    3    3  502    0 -0.27827227665E+02 -0.38682468234E+02 -0.25479319636E+02  0.54197380724E+02  0.41800000000E+01 0. -1.
         -5    1    3    3    0  502  0.38637065247E+02  0.65153310768E+02  0.37057220018E+01  0.75953811560E+02  0.41800000000E+01 0. -1.
        -11    1    1    2    0    0 -0.30736943635E+02 -0.46489902143E+02 -0.51787348981E+02  0.76078907851E+02  0.00000000000E+00 0.  1.
         11    1    1    2    0    0  0.19927106053E+02  0.20019059609E+02 -0.88899894734E+02  0.93279384577E+02  0.00000000000E+00 0. -1.
</event>
<event>
 7    1  0.2480409E-009  0.1106195E+03  0.7561462E-02  0.1259427E+00
         -2   -1    0    0    0  501 -0.00000000000E+00  0.00000000000E+00  0.95386387397E+02  0.95386387397E+02  0.00000000000E+00 0.  1.
          2   -1    0    0  501    0  0.00000000000E+00 -0.00000000000E+00 -0.23411067547E+03  0.23411067547E+03  0.00000000000E+00 0. -1.
         25    2    1    2    0    0  0.93052823072E+02 -0.23731761464E+01 -0.13258835172E+03  0.20467480421E+03  0.12509054568E+03 0.  0.
          5    1    3    3  502    0  0.59227740130E+02 -0.44236044795E+02 -0.13122799169E+03  0.15067518396E+03  0.41800000000E+01 0.  1.
         -5    1    3    3    0  502  0.33825082942E+02  0.41862868648E+02 -0.13603600378E+01  0.53999620248E+02  0.41800000000E+01 0.  1.
        -11    1    1    2    0    0 -0.52732623301E+02  0.37971424202E+01  0.37936523200E+02  0.65071711544E+02  0.00000000000E+00 0.  1.
         11    1    1    2    0    0 -0.40320199771E+02 -0.14239662738E+01 -0.44072459552E+02  0.59750547115E+02  0.00000000000E+00 0. -1.
</event>
<event>
 7    1  0.2480409E-009  0.1429258E+03  0.7561462E-02  0.1209445E+00
          3   -1    0    0  501    0  0.00000000000E+00  0.00000000000E+00  0.51240382515E+02  0.51240382515E+02  0.00000000000E+00 0. -1.
         -3   -1    0    0    0  501 -0.00000000000E+00 -0.00000000000E+00 -0.42674445754E+03  0.42674445754E+03  0.00000000000E+00 0.  1.
         25    2    1    2    0    0  0.67131557581E+02  0.55337546561E+02 -0.13865090705E+03  0.20600162924E+03  0.12507480618E+03 0.  0.
          5    1    3    3  502    0  0.46557900676E+02 -0.35741374545E+02 -0.51107922409E+02  0.77939566991E+02  0.41800000000E+01 0. -1.
         -5    1    3    3    0  502  0.20573656905E+02  0.91078921106E+02 -0.87542984643E+02  0.12806206225E+03  0.41800000000E+01 0. -1.
        -11    1    1    2    0    0 -0.50637746653E+01  0.28657596827E+02 -0.57235622738E+02  0.64209159626E+02  0.00000000000E+00 0. -1.
         11    1    1    2    0    0 -0.62067782916E+02 -0.83995143388E+02 -0.17961754523E+03  0.20777405118E+03  0.00000000000E+00 0.  1.
</event>
<event>
 7    1  0.2480409E-009  0.1218531E+03  0.7561462E-02  0.1240071E+00
         -1   -1    0    0    0  501 -0.00000000000E+00  0.00000000000E+00  0.10682140404E+03  0.10682140404E+03  0.00000000000E+00 0.  1.
          1   -1    0    0  501    0  0.00000000000E+00 -0.00000000000E+00 -0.17498129438E+03  0.17498129438E+03  0.00000000000E+00 0. -1.
         25    2    1    2    0    0  0.82640123726E+01  0.51844452190E+02 -0.22247543618E+02  0.13747657848E+03  0.12509482527E+03 0.  0.
          5    1    3    3  502    0  0.28963024505E+01 -0.30111287709E+02  0.27725243106E+02  0.41246087338E+02  0.41800000000E+01 0.  1.
         -5    1    3    3    0  502  0.53677099220E+01  0.81955739900E+02 -0.49972786724E+02  0.96230491141E+02  0.41800000000E+01 0.  1.
        -11    1    1    2    0    0  0.55962777329E+02 -0.22466017342E+02 -0.42197450389E+02  0.73601489122E+02  0.00000000000E+00 0.  1.
         11    1    1    2    0    0 -0.64226789702E+02 -0.29378434848E+02 -0.37148963259E+01  0.70724630817E+02  0.00000000000E+00 0. -1.
</event>
<event>
 7    1  0.2480409E-009  0.1497367E+03  0.7561462E-02  0.1200797E+00
          2   -1    0    0  501    0  0.00000000000E+00  0.00000000000E+00  0.23758636596E+04  0.23758636596E+04  0.00000000000E+00 0. -1.
         -2   -1    0    0    0  501 -0.00000000000E+00 -0.00000000000E+00 -0.14247779955E+02  0.14247779955E+02  0.00000000000E+00 0.  1.
         25    2    1    2    0    0  0.65712505022E+02  0.11502356176E+03  0.16601320580E+04  0.16700999669E+04  0.12508755476E+03 0.  0.
          5    1    3    3  502    0 -0.25130105428E+01  0.22788952444E+02  0.98508528779E+03  0.98536092280E+03  0.41800000000E+01 0.  1.
         -5    1    3    3    0  502  0.68225515565E+02  0.92234609318E+02  0.67504677018E+03  0.68473904406E+03  0.41800000000E+01 0.  1.
        -11    1    1    2    0    0  0.79615536199E+01 -0.78922813964E+02  0.30662595428E+03  0.31672018050E+03  0.00000000000E+00 0.  1.
         11    1    1    2    0    0 -0.73674058642E+02 -0.36100747797E+02  0.39485786742E+03  0.40329129221E+03  0.00000000000E+00 0. -1.
</event>
<event>
 7    1  0.2480409E-009  0.6857751E+02  0.7561462E-02  0.1364998E+00
         -2   -1    0    0    0  501 -0.00000000000E+00  0.00000000000E+00  0.88502584131E+02  0.88502584131E+02  0.00000000000E+00 0.  1.
          2   -1    0    0  501    0  0.00000000000E+00 -0.00000000000E+00 -0.12302133670E+03  0.12302133670E+03  0.00000000000E+00 0. -1.
         25    2    1    2    0    0 -0.51533371793E+01 -0.15628345580E+02  0.48226249184E+01  0.12625827341E+03  0.12508833608E+03 0.  0.
          5    1    3    3  502    0 -0.39227927499E+02 -0.66353514708E+01 -0.48085530288E+02  0.62550370167E+02  0.41800000000E+01 0.  1.
         -5    1    3    3    0  502  0.34074590320E+02 -0.89929941093E+01  0.52908155206E+02  0.63707903245E+02  0.41800000000E+01 0.  1.
        -11    1    1    2    0    0  0.29542123194E+02  0.21547841630E+02 -0.46512179773E+02  0.59164426719E+02  0.00000000000E+00 0. -1.
         11    1    1    2    0    0 -0.24388786015E+02 -0.59194960497E+01  0.71708022832E+01  0.26101220702E+02  0.00000000000E+00 0.  1.
</event>
<event>
 7    1  0.2480409E-009  0.1007574E+03  0.7561462E-02  0.1278711E+00
         -3   -1    0    0    0  501 -0.00000000000E+00  0.00000000000E+00  0.48259013927E+02  0.48259013927E+02  0.00000000000E+00 0.  1.
          3   -1    0    0  501    0  0.00000000000E+00 -0.00000000000E+00 -0.30009485229E+03  0.30009485229E+03  0.00000000000E+00 0. -1.
         25    2    1    2    0    0 -0.19302663428E+02 -0.49648910284E+02 -0.13028671771E+03  0.18829499758E+03  0.12507106058E+03 0.  0.
          5    1    3    3  502    0 -0.65835952464E+02 -0.45786566256E+02 -0.11235824223E+03  0.13810369034E+03  0.41800000000E+01 0.  1.
         -5    1    3    3    0  502  0.46533289037E+02 -0.38623440279E+01 -0.17928475478E+02  0.50191307245E+02  0.41800000000E+01 0.  1.
        -11    1    1    2    0    0 -0.12646378508E+02  0.38454033074E+02 -0.76002570411E+01  0.41187467222E+02  0.00000000000E+00 0.  1.
         11    1    1    2    0    0  0.31949041935E+02  0.11194877209E+02 -0.11394886361E+03  0.11887140141E+03  0.00000000000E+00 0. -1.
</event>
<event>
 7    1  0.2480409E-009  0.1322396E+03  0.7561462E-02  0.1224170E+00
          1   -1    0    0  501    0  0.00000000000E+00  0.00000000000E+00  0.13593058613E+03  0.13593058613E+03  0.00000000000E+00 0. -1.
         -1   -1    0    0    0  501 -0.00000000000E+00 -0.00000000000E+00 -0.17811169758E+03  0.17811169758E+03  0.00000000000E+00 0.  1.
         25    2    1    2    0    0 -0.53232210653E+02  0.98191125380E+02 -0.26107891503E+02  0.16971452689E+03  0.12508490430E+03 0.  0.
          5    1    3    3  502    0 -0.35475538890E+02 -0.13172433437E+02  0.25296813643E+02  0.45710261897E+02  0.41800000000E+01 0. -1.
         -5    1    3    3    0  502 -0.17756671763E+02  0.11136355882E+03 -0.51404705146E+02  0.12400426499E+03  0.41800000000E+01 0. -1.
        -11    1    1    2    0    0  0.52178709022E+02 -0.81099818969E+02 -0.48284329276E+02  0.10784792425E+03  0.00000000000E+00 0.  1.
         11    1    1    2    0    0  0.10535016311E+01 -0.17091306412E+02  0.32211109326E+02  0.36479832573E+02  0.00000000000E+00 0. -1.
</event>
<event>
 7    1  0.2611270E-009  0.7749563E+02  0.7561462E-02  0.1336313E+00
          2   -1    0    0  501    0  0.00000000000E+00  0.00000000000E+00  0.15658240046E+03  0.15658240046E+03  0.00000000000E+00 0.  1.
         -2   -1    0    0    0  501 -0.00000000000E+00 -0.00000000000E+00 -0.81935674418E+02  0.81935674418E+02  0.00000000000E+00 0. -1.
         25    2    1    2    0    0  0.18176772012E+02 -0.23525573736E+02  0.58904841302E+02  0.14141723910E+03  0.12508080398E+03 0.  0.
          5    1    3    3  502    0 -0.32794549909E+02 -0.55483914558E+02  0.47174690373E+02  0.79980441923E+02  0.41800000000E+01 0.  1.
         -5    1    3    3    0  502  0.50971321921E+02  0.31958340822E+02  0.11730150929E+02  0.61436797177E+02  0.41800000000E+01 0.  1.
        -11    1    1    2    0    0 -0.13134024142E+02  0.13274625309E+02  0.54018785982E+02  0.57155467859E+02  0.00000000000E+00 0.  1.
         11    1    1    2    0    0 -0.50427478697E+01  0.10250948427E+02 -0.38276901241E+02  0.39945367921E+02  0.00000000000E+00 0. -1.
</event>
<event>
 7    1  0.2480409E-009  0.1330296E+03  0.7561462E-02  0.1223028E+00
          2   -1    0    0  501    0  0.00000000000E+00  0.00000000000E+00  0.37417369050E+03  0.37417369050E+03  0.00000000000E+00 0. -1.
         -2   -1    0    0    0  501 -0.00000000000E+00 -0.00000000000E+00 -0.50590803722E+02  0.50590803722E+02  0.00000000000E+00 0.  1.
         25    2    1    2    0    0 -0.16513594616E+02  0.77689660741E+02  0.13201842865E+03  0.19845690647E+03  0.12509155060E+03 0.  0.
          5    1    3    3  502    0  0.52216769903E+02  0.14948485890E+02  0.40619689969E+02  0.67952041196E+02  0.41800000000E+01 0.  1.
         -5    1    3    3    0  502 -0.68730364518E+02  0.62741174852E+02  0.91398738682E+02  0.13050486528E+03  0.41800000000E+01 0.  1.
        -11    1    1    2    0    0 -0.34377130775E+02 -0.49460195980E+02  0.11821442767E+03  0.13267535196E+03  0.00000000000E+00 0. -1.
         11    1    1    2    0    0  0.50890725391E+02 -0.28229464762E+02  0.73350030450E+02  0.93632235787E+02  0.00000000000E+00 0.  1.
</event>
<event>
 7    1  0.2480409E-009  0.1476856E+03  0.7561462E-02  0.1203346E+00
          2   -1    0    0  501    0  0.00000000000E+00  0.00000000000E+00  0.46588848190E+03  0.46588848190E+03  0.00000000000E+00 0. -1.
         -2   -1    0    0    0  501 -0.00000000000E+00 -0.00000000000E+00 -0.61747139268E+02  0.61747139268E+02  0.00000000000E+00 0.  1.
         25    2    1    2    0    0  0.12049930063E+03 -0.22065186010E+02  0.30657769672E+03  0.35305179419E+03  0.12509488945E+03 0.  0.
          5    1    3    3  502    0  0.46188828392E+02 -0.67564907542E+02  0.19425016450E+03  0.21082937036E+03  0.41800000000E+01 0. -1.
         -5    1    3    3    0  502  0.74310472236E+02  0.45499721533E+02  0.11232753223E+03  0.14222242383E+03  0.41800000000E+01 0. -1.
        -11    1    1    2    0    0 -0.46442036333E+02  0.23640716900E+02  0.33221252020E-01  0.52112832757E+02  0.00000000000E+00 0. -1.
         11    1    1    2    0    0 -0.74057264295E+02 -0.15755308898E+01  0.97530424656E+02  0.12247099422E+03  0.00000000000E+00 0.  1.
</event>
<event>
 7    1  0.2480409E-009  0.9219102E+02  0.7561462E-02  0.1297631E+00
          2   -1    0    0  501    0  0.00000000000E+00  0.00000000000E+00  0.48323805000E+03  0.48323805000E+03  0.00000000000E+00 0. -1.
         -2   -1    0    0    0  501 -0.00000000000E+00 -0.00000000000E+00 -0.38053208908E+02  0.38053208908E+02  0.00000000000E+00 0.  1.
         25    2    1    2    0    0 -0.25789944545E+02 -0.29294990085E+02  0.10760155454E+03  0.16955322307E+03  0.12508750230E+03 0.  0.
          5    1    3    3  502    0  0.21612233847E+02  0.10082827023E+02  0.10497528835E+03  0.10773131215E+03  0.41800000000E+01 0.  1.
         -5    1    3    3    0  502 -0.47402178392E+02 -0.39377817108E+02  0.26262661863E+01  0.61821910926E+02  0.41800000000E+01 0.  1.
        -11    1    1    2    0    0  0.49174052531E+01  0.60588704174E+02  0.19336431011E+03  0.20269417449E+03  0.00000000000E+00 0.  1.
         11    1    1    2    0    0  0.20872539292E+02 -0.31293714089E+02  0.14421897645E+03  0.14904386135E+03  0.00000000000E+00 0. -1.
</event>
<event>
 7    1  0.2480409E-009  0.2800034E+03  0.7561462E-02  0.1095687E+00
         -2   -1    0    0    0  501 -0.00000000000E+00  0.00000000000E+00  0.18745442336E+03  0.18745442336E+03  0.00000000000E+00 0.  1.
          2   -1    0    0  501    0  0.00000000000E+00 -0.00000000000E+00 -0.47153546318E+03  0.47153546318E+03  0.00000000000E+00 0. -1.
         25    2    1    2    0    0  0.20465821429E+03 -0.17692627380E+03 -0.93724840284E+02  0.31244174885E+03  0.12509040611E+03 0.  0.
          5    1    3    3  502    0  0.20134612394E+03 -0.18885779269E+03 -0.10480092189E+03  0.29531040130E+03  0.41800000000E+01 0.  1.
         -5    1    3    3    0  502  0.33120903530E+01  0.11931518887E+02  0.11076081603E+02  0.17131347557E+02  0.41800000000E+01 0.  1.
        -11    1    1    2    0    0 -0.11750443305E+02  0.14526663479E+02  0.12866930001E+02  0.22686003557E+02  0.00000000000E+00 0.  1.
         11    1    1    2    0    0 -0.19290777099E+03  0.16239961032E+03 -0.20322312954E+03  0.32386213413E+03  0.00000000000E+00 0. -1.
</event>
<event>
 7    1  0.2480409E-009  0.1082818E+03  0.7561462E-02  0.1263785E+00
         -4   -1    0    0    0  501 -0.00000000000E+00  0.00000000000E+00  0.33036488651E+03  0.33036488651E+03  0.00000000000E+00 0.  1.
          4   -1    0    0  501    0  0.00000000000E+00 -0.00000000000E+00 -0.53400285310E+02  0.53400285310E+02  0.00000000000E+00 0. -1.
         25    2    1    2    0    0 -0.74774074695E+02  0.17265621816E+02  0.14658934225E+03  0.20742691913E+03  0.12509287580E+03 0.  0.
          5    1    3    3  502    0  0.22335851136E+02 -0.24440118019E+02  0.67696629673E+02  0.75475265377E+02  0.41800000000E+01 0.  1.
         -5    1    3    3    0  502 -0.97109925831E+02  0.41705739835E+02  0.78892712576E+02  0.13195165375E+03  0.41800000000E+01 0.  1.
        -11    1    1    2    0    0  0.27743663316E+02 -0.13669701793E+01 -0.83436576521E+01  0.29003380573E+02  0.00000000000E+00 0. -1.
         11    1    1    2    0    0  0.47030411379E+02 -0.15898651637E+02  0.13871891661E+03  0.14733487212E+03  0.00000000000E+00 0.  1.
</event>
<event>
 7    1  0.2480409E-009  0.1723290E+03  0.7561462E-02  0.1175441E+00
         -2   -1    0    0    0  501 -0.00000000000E+00  0.00000000000E+00  0.31044397150E+02  0.31044397150E+02  0.00000000000E+00 0.  1.
          2   -1    0    0  501    0  0.00000000000E+00 -0.00000000000E+00 -0.11287936522E+04  0.11287936522E+04  0.00000000000E+00 0. -1.
         25    2    1    2    0    0 -0.13444055060E+03 -0.66972043783E+02 -0.50037688578E+03  0.53720017339E+03  0.12508989639E+03 0.  0.
          5    1    3    3  502    0 -0.12584033146E+03 -0.28030617406E+02 -0.46862189428E+03  0.48605087875E+03  0.41800000000E+01 0. -1.
         -5    1    3    3    0  502 -0.86002191403E+01 -0.38941426377E+02 -0.31754991493E+02  0.51149294641E+02  0.41800000000E+01 0. -1.
        -11    1    1    2    0    0 -0.10894918319E+02 -0.65307301917E+01 -0.43663503685E+02  0.45473632317E+02  0.00000000000E+00 0. -1.
         11    1    1    2    0    0  0.14533546892E+03  0.73502773975E+02 -0.55370886562E+03  0.57716424368E+03  0.00000000000E+00 0.  1.
</event>
<event>
 7    1  0.2480409E-009  0.1201282E+03  0.7561462E-02  0.1242886E+00
         -1   -1    0    0    0  501 -0.00000000000E+00  0.00000000000E+00  0.77226062710E+02  0.77226062710E+02  0.00000000000E+00 0.  1.
          1   -1    0    0  501    0  0.00000000000E+00 -0.00000000000E+00 -0.27257695844E+03  0.27257695844E+03  0.00000000000E+00 0. -1.
         25    2    1    2    0    0 -0.50517020924E+02  0.76065237008E+02 -0.74032076152E+02  0.17165659500E+03  0.12508936255E+03 0.  0.
          5    1    3    3  502    0  0.18301980707E+02  0.12377403469E+02 -0.74475090413E+02  0.77795720361E+02  0.41800000000E+01 0. -1.
         -5    1    3    3    0  502 -0.68819001631E+02  0.63687833539E+02  0.44301426166E+00  0.93860874639E+02  0.41800000000E+01 0. -1.
        -11    1    1    2    0    0 -0.22314929389E+02 -0.31233886983E+02 -0.13867971529E+02  0.40814610179E+02  0.00000000000E+00 0.  1.
         11    1    1    2    0    0  0.72831950313E+02 -0.44831350025E+02 -0.10745084805E+03  0.13733181597E+03  0.00000000000E+00 0. -1.
</event>
<event>
 7    1  0.2513633E-009  0.1763553E+03  0.7561462E-02  0.1171378E+00
         -1   -1    0    0    0  501 -0.00000000000E+00  0.00000000000E+00  0.92338527813E+02  0.92338527813E+02  0.00000000000E+00 0.  1.
          1   -1    0    0  501    0  0.00000000000E+00 -0.00000000000E+00 -0.45614705213E+03  0.45614705213E+03  0.00000000000E+00 0. -1.
         25    2    1    2    0    0 -0.14080975719E+03 -0.33308710371E+02 -0.31848723079E+03  0.37150841164E+03  0.12509007090E+03 0.  0.
          5    1    3    3  502    0 -0.35715562295E+02  0.41825395538E+02 -0.14519884270E+03  0.15532270092E+03  0.41800000000E+01 0. -1.
         -5    1    3    3    0  502 -0.10509419489E+03 -0.75134105909E+02 -0.17328838810E+03  0.21618571072E+03  0.41800000000E+01 0. -1.
        -11    1    1    2    0    0  0.95721852545E+02  0.62740813942E+02 -0.15699506818E+02  0.11552297305E+03  0.00000000000E+00 0.  1.
         11    1    1    2    0    0  0.45087904641E+02 -0.29432103571E+02 -0.29621786707E+02  0.61454195246E+02  0.00000000000E+00 0. -1.
</event>
<event>
 7    1  0.2480409E-009  0.1091324E+03  0.7561462E-02  0.1262185E+00
         -2   -1    0    0    0  501 -0.00000000000E+00  0.00000000000E+00  0.24483193129E+02  0.24483193129E+02  0.00000000000E+00 0.  1.
          2   -1    0    0  501    0  0.00000000000E+00 -0.00000000000E+00 -0.68570319563E+03  0.68570319563E+03  0.00000000000E+00 0. -1.
         25    2    1    2    0    0 -0.63589107118E+02  0.27793452205E+02 -0.42737928884E+03  0.45068526731E+03  0.12509237830E+03 0.  0.
          5    1    3    3  502    0 -0.89860412290E+02 -0.32825695477E+01 -0.19554390548E+03  0.21526857720E+03  0.41800000000E+01 0.  1.
         -5    1    3    3    0  502  0.26271305172E+02  0.31076021753E+02 -0.23183538336E+03  0.23541669011E+03  0.41800000000E+01 0.  1.
        -11    1    1    2    0    0  0.55807599853E+02  0.26970275331E+01 -0.21645530632E+03  0.22355013261E+03  0.00000000000E+00 0. -1.
         11    1    1    2    0    0  0.77815072651E+01 -0.30490479738E+02 -0.17385407347E+02  0.35950988841E+02  0.00000000000E+00 0.  1.
</event>
<event>
 7    1  0.2480409E-009  0.2181286E+03  0.7561462E-02  0.1135286E+00
          1   -1    0    0  501    0  0.00000000000E+00  0.00000000000E+00  0.24658474976E+03  0.24658474976E+03  0.00000000000E+00 0. -1.
         -1   -1    0    0    0  501 -0.00000000000E+00 -0.00000000000E+00 -0.22966312767E+03  0.22966312767E+03  0.00000000000E+00 0.  1.
         25    2    1    2    0    0  0.18907760001E+03 -0.70942056307E+02  0.21810775171E+02  0.23855711985E+03  0.12510265922E+03 0.  0.
          5    1    3    3  502    0  0.16560135238E+03 -0.40629207494E+02 -0.30801558933E+02  0.17332267262E+03  0.41800000000E+01 0.  1.
         -5    1    3    3    0  502  0.23476247621E+02 -0.30312848813E+02  0.52612334104E+02  0.65234447230E+02  0.41800000000E+01 0.  1.
        -11    1    1    2    0    0 -0.18526878332E+03  0.32017253245E+02  0.23337865297E+02  0.18945786481E+03  0.00000000000E+00 0. -1.
         11    1    1    2    0    0 -0.38088166802E+01  0.38924803062E+02 -0.28227018379E+02  0.48232892765E+02  0.00000000000E+00 0.  1.
</event>
<event>
 7    1  0.2480409E-009  0.7406707E+02  0.7561462E-02  0.1346785E+00
         -2   -1    0    0    0  501 -0.00000000000E+00  0.00000000000E+00  0.13376753967E+03  0.13376753967E+03  0.00000000000E+00 0.  1.
          2   -1    0    0  501    0  0.00000000000E+00 -0.00000000000E+00 -0.90121494385E+02  0.90121494385E+02  0.00000000000E+00 0. -1.
         25    2    1    2    0    0 -0.73199158212E+01 -0.13512089633E+02  0.21926310537E+02  0.12792548173E+03  0.12509199834E+03 0.  0.
          5    1    3    3  502    0 -0.34130995472E+02  0.17123283999E+02  0.60514487699E+02  0.71677104631E+02  0.41800000000E+01 0.  1.
         -5    1    3    3    0  502  0.26811079650E+02 -0.30635373632E+02 -0.38588177162E+02  0.56248377099E+02  0.41800000000E+01 0.  1.
        -11    1    1    2    0    0  0.37057804989E+02  0.27097784128E+01  0.43758094107E+02  0.57405527691E+02  0.00000000000E+00 0.  1.
         11    1    1    2    0    0 -0.29737889168E+02  0.10802311220E+02 -0.22038359364E+02  0.38558024629E+02  0.00000000000E+00 0. -1.
</event>
<event>
 7    1  0.2480409E-009  0.1015747E+03  0.7561462E-02  0.1277019E+00
         -2   -1    0    0    0  501 -0.00000000000E+00  0.00000000000E+00  0.26733054149E+03  0.26733054149E+03  0.00000000000E+00 0.  1.
          2   -1    0    0  501    0  0.00000000000E+00 -0.00000000000E+00 -0.63118632274E+02  0.63118632274E+02  0.00000000000E+00 0. -1.
         25    2    1    2    0    0 -0.51612416808E+02 -0.42053093677E+02  0.14712974518E+03  0.20427069262E+03  0.12508816767E+03 0.  0.
          5    1    3    3  502    0  0.38373624666E+02 -0.16647342703E+02  0.20403892660E+02  0.46727511433E+02  0.41800000000E+01 0.  1.
         -5    1    3    3    0  502 -0.89986041474E+02 -0.25405750974E+02  0.12672585252E+03  0.15754318119E+03  0.41800000000E+01 0.  1.
        -11    1    1    2    0    0  0.44354341043E+02  0.30351009663E+02 -0.12556023848E+02  0.55191893352E+02  0.00000000000E+00 0. -1.
         11    1    1    2    0    0  0.72580757650E+01  0.11702084014E+02  0.69638187885E+02  0.70986587790E+02  0.00000000000E+00 0.  1.
</event>
<event>
 7    1  0.2681469E-009  0.1549879E+03  0.7561462E-02  0.1194475E+00
         -2   -1    0    0    0  501 -0.00000000000E+00  0.00000000000E+00  0.10608796790E+03  0.10608796790E+03  0.00000000000E+00 0. -1.
          2   -1    0    0  501    0  0.00000000000E+00 -0.00000000000E+00 -0.34105201731E+03  0.34105201731E+03  0.00000000000E+00 0.  1.
         25    2    1    2    0    0  0.14211014826E+03  0.18714088116E+02 -0.50547615747E+02  0.19684641964E+03  0.12509172688E+03 0.  0.
          5    1    3    3  502    0  0.10290254783E+03  0.15453074208E+02  0.28914183478E+02  0.10807975878E+03  0.41800000000E+01 0.  1.
         -5    1    3    3    0  502  0.39207600432E+02  0.32610139082E+01 -0.79461799225E+02  0.88766660856E+02  0.41800000000E+01 0.  1.
        -11    1    1    2    0    0 -0.68267951459E+02 -0.51463120308E+02 -0.71455926823E+02  0.11142223937E+03  0.00000000000E+00 0. -1.
         11    1    1    2    0    0 -0.73842196802E+02  0.32749032192E+02 -0.11296050684E+03  0.13887132621E+03  0.00000000000E+00 0.  1.
</event>
<event>
 7    1  0.2480409E-009  0.9356928E+02  0.7561462E-02  0.1294431E+00
          2   -1    0    0  501    0  0.00000000000E+00  0.00000000000E+00  0.93982443874E+02  0.93982443874E+02  0.00000000000E+00 0. -1.
         -2   -1    0    0    0  501 -0.00000000000E+00 -0.00000000000E+00 -0.19337142301E+03  0.19337142301E+03  0.00000000000E+00 0.  1.
         25    2    1    2    0    0 -0.39053103201E+02  0.44770367318E+02  0.76596032825E-01  0.13847845852E+03  0.12508695755E+03 0.  0.
          5    1    3    3  502    0  0.24712531808E+02 -0.15907136743E+02 -0.32970031633E+02  0.44364869138E+02  0.41800000000E+01 0.  1.
         -5    1    3    3    0  502 -0.63765635009E+02  0.60677504061E+02  0.33046627666E+02  0.94113589387E+02  0.41800000000E+01 0.  1.
        -11    1    1    2    0    0  0.26826752411E+02 -0.44427954264E+01 -0.10305547699E+03  0.10658257087E+03  0.00000000000E+00 0.  1.
         11    1    1    2    0    0  0.12226350791E+02 -0.40327571891E+02  0.35899018141E+01  0.42292837495E+02  0.00000000000E+00 0. -1.
</event>
<event>
 7    1  0.2480409E-009  0.2112353E+03  0.7561462E-02  0.1140591E+00
          2   -1    0    0  501    0  0.00000000000E+00  0.00000000000E+00  0.34598380388E+03  0.34598380388E+03  0.00000000000E+00 0. -1.
         -2   -1    0    0    0  501 -0.00000000000E+00 -0.00000000000E+00 -0.44657419520E+03  0.44657419520E+03  0.00000000000E+00 0.  1.
         25    2    1    2    0    0 -0.17658901818E+03  0.54621412310E+02  0.28080367331E+03  0.35870190917E+03  0.12509666933E+03 0.  0.
          5    1    3    3  502    0 -0.19380772363E+03  0.38373231899E+02  0.26206022344E+03  0.32821787242E+03  0.41800000000E+01 0.  1.
         -5    1    3    3    0  502  0.17218705448E+02  0.16248180411E+02  0.18743449864E+02  0.30484036753E+02  0.41800000000E+01 0.  1.
        -11    1    1    2    0    0  0.51462785468E+02 -0.55497581208E+02 -0.96086996925E+02  0.12231561955E+03  0.00000000000E+00 0. -1.
         11    1    1    2    0    0  0.12512623271E+03  0.87616889836E+00 -0.28530706771E+03  0.31154047036E+03  0.00000000000E+00 0.  1.
</event>
<event>
 7    1  0.2480409E-009  0.1325172E+03  0.7561462E-02  0.1223768E+00
          1   -1    0    0  501    0  0.00000000000E+00  0.00000000000E+00  0.11687730521E+03  0.11687730521E+03  0.00000000000E+00 0. -1.
         -1   -1    0    0    0  501 -0.00000000000E+00 -0.00000000000E+00 -0.24052204005E+03  0.24052204005E+03  0.00000000000E+00 0.  1.
         25    2    1    2    0    0  0.96718524862E+02 -0.65816196258E+02 -0.11946952059E+03  0.20882210528E+03  0.12508980999E+03 0.  0.
          5    1    3    3  502    0  0.75452756354E+01 -0.91556869860E+00  0.25319203121E+02  0.26763854303E+02  0.41800000000E+01 0. -1.
         -5    1    3    3    0  502  0.89173249227E+02 -0.64900627560E+02 -0.14478872371E+03  0.18205825098E+03  0.41800000000E+01 0. -1.
        -11    1    1    2    0    0  0.79986194176E+01  0.36331731815E+02 -0.13056545461E+02  0.39426463557E+02  0.00000000000E+00 0. -1.
         11    1    1    2    0    0 -0.10471714428E+03  0.29484464444E+02  0.88813312149E+01  0.10915077642E+03  0.00000000000E+00 0.  1.
</event>
<event>
 7    1  0.2480409E-009  0.9064963E+02  0.7561462E-02  0.1301286E+00
          1   -1    0    0  501    0  0.00000000000E+00  0.00000000000E+00  0.55533138720E+03  0.55533138720E+03  0.00000000000E+00 0. -1.
         -1   -1    0    0    0  501 -0.00000000000E+00 -0.00000000000E+00 -0.21627562817E+02  0.21627562817E+02  0.00000000000E+00 0.  1.
         25    2    1    2    0    0 -0.14841069607E+02 -0.61468518254E+01  0.31703407365E+03  0.34119720125E+03  0.12508750997E+03 0.  0.
          5    1    3    3  502    0 -0.48913175966E+02  0.26103148670E+02  0.68428476606E+02  0.88169166743E+02  0.41800000000E+01 0.  1.
         -5    1    3    3    0  502  0.34072106359E+02 -0.32250000495E+02  0.24860559705E+03  0.25302803451E+03  0.41800000000E+01 0.  1.
        -11    1    1    2    0    0 -0.18740316362E+01  0.40421947494E+02  0.47744635511E+02  0.62585909387E+02  0.00000000000E+00 0.  1.
         11    1    1    2    0    0  0.16715101243E+02 -0.34275095668E+02  0.16892511522E+03  0.17317583938E+03  0.00000000000E+00 0. -1.
</event>
<event>
 7    1  0.2480409E-009  0.1604484E+03  0.7561462E-02  0.1188191E+00
          2   -1    0    0  501    0  0.00000000000E+00  0.00000000000E+00  0.27105676958E+03  0.27105676958E+03  0.00000000000E+00 0. -1.
         -2   -1    0    0    0  501 -0.00000000000E+00 -0.00000000000E+00 -0.13442506981E+03  0.13442506981E+03  0.00000000000E+00 0.  1.
         25    2    1    2    0    0 -0.12947842582E+02  0.15536147003E+03  0.59281710875E+02  0.20848458352E+03  0.12508663926E+03 0.  0.
          5    1    3    3  502    0  0.10937463270E+02  0.37254691846E+02  0.77272225781E+02  0.86579497830E+02  0.41800000000E+01 0.  1.
         -5    1    3    3    0  502 -0.23885305852E+02  0.11810677819E+03 -0.17990514906E+02  0.12190508569E+03  0.41800000000E+01 0.  1.
        -11    1    1    2    0    0 -0.14369099776E+02 -0.75929747925E+02  0.82248800667E+02  0.11285682460E+03  0.00000000000E+00 0. -1.
         11    1    1    2    0    0  0.27316942359E+02 -0.79431722108E+02 -0.48988117700E+01  0.84140431266E+02  0.00000000000E+00 0.  1.
</event>
<event>
 7    1  0.2480409E-009  0.8116552E+02  0.7561462E-02  0.1325776E+00
          1   -1    0    0  501    0  0.00000000000E+00  0.00000000000E+00  0.56282805959E+03  0.56282805959E+03  0.00000000000E+00 0. -1.
         -1   -1    0    0    0  501 -0.00000000000E+00 -0.00000000000E+00 -0.24446372075E+02  0.24446372075E+02  0.00000000000E+00 0.  1.
         25    2    1    2    0    0 -0.61516947793E+01  0.24238884231E+02  0.37207256770E+03  0.39333091281E+03  0.12508335014E+03 0.  0.
          5    1    3    3  502    0 -0.32352004237E+02 -0.12764792855E+02  0.32832311698E+03  0.33018651344E+03  0.41800000000E+01 0. -1.
         -5    1    3    3    0  502  0.26200309458E+02  0.37003677085E+02  0.43749450714E+02  0.63144399366E+02  0.41800000000E+01 0. -1.
        -11    1    1    2    0    0  0.41263853887E+02 -0.45511488830E+01  0.28449501448E+02  0.50326858897E+02  0.00000000000E+00 0.  1.
         11    1    1    2    0    0 -0.35112159108E+02 -0.19687735348E+02  0.13785961837E+03  0.14361665996E+03  0.00000000000E+00 0. -1.
</event>
<event>
 7    1  0.2480409E-009  0.1163240E+03  0.7561462E-02  0.1249287E+00
          1   -1    0    0  501    0  0.00000000000E+00  0.00000000000E+00  0.77494197209E+03  0.77494197209E+03  0.00000000000E+00 0. -1.
         -1   -1    0    0    0  501 -0.00000000000E+00 -0.00000000000E+00 -0.18564983957E+02  0.18564983957E+02  0.00000000000E+00 0.  1.
         25    2    1    2    0    0 -0.40091314899E+02  0.28185505579E+02  0.40616169368E+03  0.42780422915E+03  0.12508957116E+03 0.  0.
          5    1    3    3  502    0  0.26967730939E+02  0.52465240220E+02  0.13491632004E+03  0.14730833567E+03  0.41800000000E+01 0. -1.
         -5    1    3    3    0  502 -0.67059045838E+02 -0.24279734641E+02  0.27124537363E+03  0.28049589348E+03  0.41800000000E+01 0. -1.
        -11    1    1    2    0    0 -0.20756944780E+02  0.16548166321E+02  0.13594444802E+03  0.13851204104E+03  0.00000000000E+00 0. -1.
         11    1    1    2    0    0  0.60848259679E+02 -0.44733671900E+02  0.21427084644E+03  0.22719068586E+03  0.00000000000E+00 0.  1.
</event>
<event>
 7    1  0.2480409E-009  0.9234896E+02  0.7561462E-02  0.1297261E+00
         -1   -1    0    0    0  501 -0.00000000000E+00  0.00000000000E+00  0.32524338896E+03  0.32524338896E+03  0.00000000000E+00 0.  1.
          1   -1    0    0  501    0  0.00000000000E+00 -0.00000000000E+00 -0.44947699840E+02  0.44947699840E+02  0.00000000000E+00 0. -1.
         25    2    1    2    0    0 -0.45282540934E+02 -0.13538250132E+02  0.12959313365E+03  0.18621552361E+03  0.12509215889E+03 0.  0.
          5    1    3    3  502    0 -0.59810053101E+02  0.30052238971E+02  0.12233279457E+03  0.13951044601E+03  0.41800000000E+01 0. -1.
         -5    1    3    3    0  502  0.14527512166E+02 -0.43590489103E+02  0.72603390759E+01  0.46705077598E+02  0.41800000000E+01 0. -1.
        -11    1    1    2    0    0  0.49319690741E+02  0.27839420324E+02  0.15769209543E+03  0.16755375907E+03  0.00000000000E+00 0.  1.
         11    1    1    2    0    0 -0.40371498064E+01 -0.14301170192E+02 -0.69895399530E+01  0.16421806118E+02  0.00000000000E+00 0. -1.
</event>
<event>
 7    1  0.2480409E-009  0.7359074E+02  0.7561462E-02  0.1348291E+00
          2   -1    0    0  501    0  0.00000000000E+00  0.00000000000E+00  0.10639316007E+03  0.10639316007E+03  0.00000000000E+00 0. -1.
         -2   -1    0    0    0  501 -0.00000000000E+00 -0.00000000000E+00 -0.11548772800E+03  0.11548772800E+03  0.00000000000E+00 0.  1.
         25    2    1    2    0    0  0.12651047966E+02  0.19869117424E+02  0.17130893416E+02  0.12843548026E+03  0.12508946493E+03 0.  0.
          5    1    3    3  502    0 -0.25251591417E+02 -0.88893776618E+01 -0.43502477162E+02  0.51250383643E+02  0.41800000000E+01 0.  1.
         -5    1    3    3    0  502  0.37902639382E+02  0.28758495086E+02  0.60633370578E+02  0.77185096614E+02  0.41800000000E+01 0.  1.
        -11    1    1    2    0    0  0.25574770681E+02 -0.22425244084E+02  0.14992988865E+02  0.37171900445E+02  0.00000000000E+00 0. -1.
         11    1    1    2    0    0 -0.38225818647E+02  0.25561266592E+01 -0.41218450210E+02  0.56273507376E+02  0.00000000000E+00 0.  1.
</event>
<event>
 7    1  0.2480409E-009  0.1330003E+03  0.7561462E-02  0.1223070E+00
         -2   -1    0    0    0  501 -0.00000000000E+00  0.00000000000E+00  0.41523184498E+02  0.41523184498E+02  0.00000000000E+00 0.  1.
          2   -1    0    0  501    0  0.00000000000E+00 -0.00000000000E+00 -0.54493851829E+03  0.54493851829E+03  0.00000000000E+00 0. -1.
         25    2    1    2    0    0  0.41371802818E+02  0.80503793473E+02 -0.17171514757E+03  0.23092527112E+03  0.12509157488E+03 0.  0.
          5    1    3    3  502    0  0.85097468854E+02  0.58038438028E+02 -0.13263021490E+03  0.16798299259E+03  0.41800000000E+01 0.  1.
         -5    1    3    3    0  502 -0.43725666036E+02  0.22465355444E+02 -0.39084932672E+02  0.62942278537E+02  0.41800000000E+01 0.  1.
        -11    1    1    2    0    0 -0.53325181014E+02 -0.28998298516E+02 -0.25665442532E+03  0.26373465886E+03  0.00000000000E+00 0.  1.
         11    1    1    2    0    0  0.11953378196E+02 -0.51505494956E+02 -0.75045760904E+02  0.91801772808E+02  0.00000000000E+00 0. -1.
</event>
<event>
 7    1  0.2480409E-009  0.2550348E+03  0.7561462E-02  0.1110164E+00
         -1   -1    0    0    0  501 -0.00000000000E+00  0.00000000000E+00  0.65065698216E+02  0.65065698216E+02  0.00000000000E+00 0.  1.
          1   -1    0    0  501    0  0.00000000000E+00 -0.00000000000E+00 -0.12381553741E+04  0.12381553741E+04  0.00000000000E+00 0. -1.
         25    2    1    2    0    0  0.14323118987E+03  0.18902569157E+03 -0.85759403661E+03  0.89853284653E+03  0.12509140191E+03 0.  0.
          5    1    3    3  502    0  0.95410661551E+02  0.31199910968E+02 -0.26500608264E+03  0.28341193521E+03  0.41800000000E+01 0.  1.
         -5    1    3    3    0  502  0.47820528320E+02  0.15782578060E+03 -0.59258795397E+03  0.61512091132E+03  0.41800000000E+01 0.  1.
        -11    1    1    2    0    0 -0.29073463919E+02 -0.86291290227E+02 -0.68933468607E+02  0.11420716338E+03  0.00000000000E+00 0.  1.
         11    1    1    2    0    0 -0.11415772595E+03 -0.10273440134E+03 -0.24656217064E+03  0.29048106239E+03  0.00000000000E+00 0. -1.
</event>
<event>
 7    1  0.2480409E-009  0.1029539E+03  0.7561462E-02  0.1274204E+00
         -2   -1    0    0    0  501 -0.00000000000E+00  0.00000000000E+00  0.66965993458E+03  0.66965993458E+03  0.00000000000E+00 0.  1.
          2   -1    0    0  501    0  0.00000000000E+00 -0.00000000000E+00 -0.22082756245E+02  0.22082756245E+02  0.00000000000E+00 0. -1.
         25    2    1    2    0    0 -0.47353242460E+02 -0.88684106166E+01  0.44052779616E+03  0.46047147660E+03  0.12509301856E+03 0.  0.
          5    1    3    3  502    0 -0.30884993930E+02  0.40747422991E+02  0.36460600570E+03  0.36819729375E+03  0.41800000000E+01 0.  1.
         -5    1    3    3    0  502 -0.16468248530E+02 -0.49615833608E+02  0.75921790462E+02  0.92274182853E+02  0.41800000000E+01 0.  1.
        -11    1    1    2    0    0  0.36179176386E+02  0.48771343893E+02  0.10796562706E+03  0.12387151979E+03  0.00000000000E+00 0.  1.
         11    1    1    2    0    0  0.11174066074E+02 -0.39902933277E+02  0.99083755121E+02  0.10739969444E+03  0.00000000000E+00 0. -1.
</event>
<event>
 7    1  0.2480409E-009  0.1240608E+03  0.7561462E-02  0.1236544E+00
          2   -1    0    0  501    0  0.00000000000E+00  0.00000000000E+00  0.57863916021E+03  0.57863916021E+03  0.00000000000E+00 0. -1.
         -2   -1    0    0    0  501 -0.00000000000E+00 -0.00000000000E+00 -0.46077022174E+02  0.46077022174E+02  0.00000000000E+00 0.  1.
         25    2    1    2    0    0 -0.11213274810E+02 -0.83056341732E+02  0.11642363218E+03  0.19033361363E+03  0.12509328085E+03 0.  0.
          5    1    3    3  502    0 -0.67417856568E+02 -0.32935817863E+02  0.58632236839E+02  0.95316037891E+02  0.41800000000E+01 0.  1.
         -5    1    3    3    0  502  0.56204581758E+02 -0.50120523869E+02  0.57791395338E+02  0.95017575735E+02  0.41800000000E+01 0.  1.
        -11    1    1    2    0    0  0.26818058468E+02  0.22471883201E+02  0.40285644057E+02  0.53358475537E+02  0.00000000000E+00 0.  1.
         11    1    1    2    0    0 -0.15604783658E+02  0.60584458531E+02  0.37585286181E+03  0.38102409322E+03  0.00000000000E+00 0. -1.
</event>
<event>
 7    1  0.2480409E-009  0.9727576E+02  0.7561462E-02  0.1286131E+00
          2   -1    0    0  501    0  0.00000000000E+00  0.00000000000E+00  0.90817396668E+02  0.90817396668E+02  0.00000000000E+00 0. -1.
         -2   -1    0    0    0  501 -0.00000000000E+00 -0.00000000000E+00 -0.17917624814E+03  0.17917624814E+03  0.00000000000E+00 0.  1.
         25    2    1    2    0    0  0.39513753347E+02  0.42294159262E+02 -0.79325449906E+02  0.15902703825E+03  0.12508772634E+03 0.  0.
          5    1    3    3  502    0  0.10198566808E+02 -0.16215083911E+02  0.27443814280E+02  0.33727956556E+02  0.41800000000E+01 0. -1.
         -5    1    3    3    0  502  0.29315186539E+02  0.58509243173E+02 -0.10676926419E+03  0.12529908169E+03  0.41800000000E+01 0. -1.
        -11    1    1    2    0    0 -0.22017549394E+02 -0.71781301986E+02 -0.13831014647E+02  0.76345430526E+02  0.00000000000E+00 0.  1.
         11    1    1    2    0    0 -0.17496203953E+02  0.29487142723E+02  0.47976130788E+01  0.34621176034E+02  0.00000000000E+00 0. -1.
</event>
<event>
 7    1  0.2480409E-009  0.3739809E+03  0.7561462E-02  0.1053181E+00
         -2   -1    0    0    0  501 -0.00000000000E+00  0.00000000000E+00  0.46305435296E+03  0.46305435296E+03  0.00000000000E+00 0.  1.
          2   -1    0    0  501    0  0.00000000000E+00 -0.00000000000E+00 -0.31434119127E+03  0.31434119127E+03  0.00000000000E+00 0. -1.
         25    2    1    2    0    0  0.35505505929E+02 -0.36246412049E+03  0.10821808759E+03  0.39999809147E+03  0.12508572702E+03 0.  0.
          5    1    3    3  502    0  0.73935041097E+02 -0.27642911590E+03  0.10742409135E+03  0.30567442520E+03  0.41800000000E+01 0.  1.
         -5    1    3    3    0  502 -0.38429535168E+02 -0.86035004596E+02  0.79399623440E+00  0.94323666273E+02  0.41800000000E+01 0.  1.
        -11    1    1    2    0    0  0.29855095269E+01  0.21621269031E+03  0.61268147604E+02  0.22474569324E+03  0.00000000000E+00 0.  1.
         11    1    1    2    0    0 -0.38491015456E+02  0.14625143018E+03 -0.20773073505E+02  0.15265175952E+03  0.00000000000E+00 0. -1.
</event>
<event>
 7    1  0.2480409E-009  0.7491494E+02  0.7561462E-02  0.1344135E+00
          1   -1    0    0  501    0  0.00000000000E+00  0.00000000000E+00  0.34827864016E+03  0.34827864016E+03  0.00000000000E+00 0. -1.
         -1   -1    0    0    0  501 -0.00000000000E+00 -0.00000000000E+00 -0.43875057725E+02  0.43875057725E+02  0.00000000000E+00 0.  1.
         25    2    1    2    0    0 -0.60588647340E+02  0.93991097768E+00  0.16259080025E+03  0.21390435626E+03  0.12508971853E+03 0.  0.
          5    1    3    3  502    0 -0.12525829366E+02  0.13031860217E+02  0.16311338579E+03  0.16416508401E+03  0.41800000000E+01 0.  1.
         -5    1    3    3    0  502 -0.48062817975E+02 -0.12091949239E+02 -0.52258554794E+00  0.49739272248E+02  0.41800000000E+01 0.  1.
        -11    1    1    2    0    0  0.44384853199E+02  0.25010817235E+02  0.23610091218E+02  0.56151514491E+02  0.00000000000E+00 0.  1.
         11    1    1    2    0    0  0.16203794141E+02 -0.25950728213E+02  0.11820269097E+03  0.12209782714E+03  0.00000000000E+00 0. -1.
</event>
<event>
 7    1  0.2480409E-009  0.1377629E+03  0.7561462E-02  0.1216371E+00
         -1   -1    0    0    0  501 -0.00000000000E+00  0.00000000000E+00  0.25893707665E+02  0.25893707665E+02  0.00000000000E+00 0.  1.
          1   -1    0    0  501    0  0.00000000000E+00 -0.00000000000E+00 -0.15658645612E+04  0.15658645612E+04  0.00000000000E+00 0. -1.
         25    2    1    2    0    0 -0.11680173232E+03  0.69961607822E+02 -0.12038092287E+04  0.12179252464E+04  0.12509186849E+03 0.  0.
          5    1    3    3  502    0 -0.17083914742E+02  0.18068500216E+02 -0.32055459276E+02  0.40784258144E+02  0.41800000000E+01 0.  1.
         -5    1    3    3    0  502 -0.99717817582E+02  0.51893107606E+02 -0.11717537694E+04  0.11771409883E+04  0.41800000000E+01 0.  1.
        -11    1    1    2    0    0  0.43514341170E+02 -0.38366564087E+02 -0.49473655718E+02  0.76243909510E+02  0.00000000000E+00 0. -1.
         11    1    1    2    0    0  0.73287391154E+02 -0.31595043735E+02 -0.28668796915E+03  0.29758911295E+03  0.00000000000E+00 0.  1.
</event>
<event>
 7    1  0.2480409E-009  0.1300245E+03  0.7561462E-02  0.1227419E+00
         -1   -1    0    0    0  501 -0.00000000000E+00  0.00000000000E+00  0.99733971186E+02  0.99733971186E+02  0.00000000000E+00 0.  1.
          1   -1    0    0  501    0  0.00000000000E+00 -0.00000000000E+00 -0.26353082047E+03  0.26353082047E+03  0.00000000000E+00 0. -1.
         25    2    1    2    0    0 -0.96687094163E+02 -0.59224034895E+02 -0.13501422219E+03  0.21617492521E+03  0.12508747982E+03 0.  0.
          5    1    3    3  502    0 -0.88904845674E+02 -0.43079776322E+02 -0.15820815575E+03  0.18656696293E+03  0.41800000000E+01 0. -1.
         -5    1    3    3    0  502 -0.77822484889E+01 -0.16144258573E+02  0.23193933557E+02  0.29607962278E+02  0.41800000000E+01 0. -1.
        -11    1    1    2    0    0  0.51007373403E+02 -0.17115516757E+02 -0.21114858048E+02  0.57797320749E+02  0.00000000000E+00 0.  1.
         11    1    1    2    0    0  0.45679720760E+02  0.76339551652E+02 -0.76677690451E+01  0.89292545698E+02  0.00000000000E+00 0. -1.
</event>
<event>
 7    1  0.2480409E-009  0.9910004E+02  0.7561462E-02  0.1282200E+00
          2   -1    0    0  501    0  0.00000000000E+00  0.00000000000E+00  0.20393275243E+04  0.20393275243E+04  0.00000000000E+00 0. -1.
         -2   -1    0    0    0  501 -0.00000000000E+00 -0.00000000000E+00 -0.90532743485E+01  0.90532743485E+01  0.00000000000E+00 0.  1.
         25    2    1    2    0    0  0.18369421661E+02  0.63011626194E+02  0.14692107172E+04  0.14759857091E+04  0.12508309648E+03 0.  0.
          5    1    3    3  502    0 -0.16364683748E+02 -0.90146773196E+00  0.10728720988E+04  0.10730054185E+04  0.41800000000E+01 0. -1.
         -5    1    3    3    0  502  0.34734105408E+02  0.63913093926E+02  0.39633861849E+03  0.40298029054E+03  0.41800000000E+01 0. -1.
        -11    1    1    2    0    0  0.54085073136E+01  0.20703263976E+02  0.57202540807E+02  0.61073789512E+02  0.00000000000E+00 0. -1.
         11    1    1    2    0    0 -0.23777928974E+02 -0.83714890169E+02  0.50386099186E+03  0.51132130003E+03  0.00000000000E+00 0.  1.
</event>
<event>
 7    1  0.2480409E-009  0.3389235E+03  0.7561462E-02  0.1067255E+00
         -2   -1    0    0    0  501 -0.00000000000E+00  0.00000000000E+00  0.15370685658E+04  0.15370685658E+04  0.00000000000E+00 0.  1.
          2   -1    0    0  501    0  0.00000000000E+00 -0.00000000000E+00 -0.79589472945E+02  0.79589472945E+02  0.00000000000E+00 0. -1.
         25    2    1    2    0    0 -0.27459093917E+02 -0.33102808922E+03  0.73676487008E+03  0.81780406254E+03  0.12508962080E+03 0.  0.
          5    1    3    3  502    0  0.15460269739E+02 -0.32745623289E+02  0.23215318416E+02  0.43217116912E+02  0.41800000000E+01 0. -1.
         -5    1    3    3    0  502 -0.42919363656E+02 -0.29828246593E+03  0.71354955166E+03  0.77458694563E+03  0.41800000000E+01 0. -1.
        -11    1    1    2    0    0 -0.22710700686E+02  0.16539000671E+03  0.28918374839E+03  0.33391147117E+03  0.00000000000E+00 0. -1.
         11    1    1    2    0    0  0.50169794603E+02  0.16563808251E+03  0.43153047443E+03  0.46494250508E+03  0.00000000000E+00 0.  1.
</event>
<event>
 7    1  0.2480409E-009  0.9527050E+02  0.7561462E-02  0.1290568E+00
         -2   -1    0    0    0  501 -0.00000000000E+00  0.00000000000E+00  0.84260394298E+02  0.84260394298E+02  0.00000000000E+00 0.  1.
          2   -1    0    0  501    0  0.00000000000E+00 -0.00000000000E+00 -0.16391987326E+03  0.16391987326E+03  0.00000000000E+00 0. -1.
         25    2    1    2    0    0  0.10367093060E+02 -0.39542799853E+02 -0.25276621505E+02  0.13401694048E+03  0.12510205076E+03 0.  0.
          5    1    3    3  502    0  0.54092459956E+02 -0.12916284275E+02 -0.51881558952E+02  0.76170815821E+02  0.41800000000E+01 0.  1.
         -5    1    3    3    0  502 -0.43725366896E+02 -0.26626515578E+02  0.26604937447E+02  0.57846124663E+02  0.41800000000E+01 0.  1.
        -11    1    1    2    0    0 -0.41058909446E+02  0.13702818373E+02  0.38404507514E+01  0.43455153184E+02  0.00000000000E+00 0.  1.
         11    1    1    2    0    0  0.30691816386E+02  0.25839981480E+02 -0.58223308205E+02  0.70708173886E+02  0.00000000000E+00 0. -1.
</event>
<event>
 7    1  0.2480409E-009  0.1584948E+03  0.7561462E-02  0.1190407E+00
         -1   -1    0    0    0  501 -0.00000000000E+00  0.00000000000E+00  0.44191653818E+03  0.44191653818E+03  0.00000000000E+00 0.  1.
          1   -1    0    0  501    0  0.00000000000E+00 -0.00000000000E+00 -0.93853932437E+02  0.93853932437E+02  0.00000000000E+00 0. -1.
         25    2    1    2    0    0  0.13445852744E+03 -0.72311877053E+02  0.11057749228E+03  0.22623586551E+03  0.12508869605E+03 0.  0.
          5    1    3    3  502    0  0.11518557354E+03 -0.37069980790E+02  0.14406809706E+02  0.12193001433E+03  0.41800000000E+01 0. -1.
         -5    1    3    3    0  502  0.19272953900E+02 -0.35241896263E+02  0.96170682578E+02  0.10430585119E+03  0.41800000000E+01 0. -1.
        -11    1    1    2    0    0 -0.80618653880E+02  0.59466708971E+02  0.46045113284E+02  0.11025338674E+03  0.00000000000E+00 0. -1.
         11    1    1    2    0    0 -0.53839873561E+02  0.12845168082E+02  0.19144000017E+03  0.19928121837E+03  0.00000000000E+00 0.  1.
</event>
<event>
 7    1  0.2480409E-009  0.1400151E+03  0.7561462E-02  0.1213309E+00
         -2   -1    0    0    0  501 -0.00000000000E+00  0.00000000000E+00  0.28079491113E+02  0.28079491113E+02  0.00000000000E+00 0. -1.
          2   -1    0    0  501    0  0.00000000000E+00 -0.00000000000E+00 -0.92458993284E+03  0.92458993284E+03  0.00000000000E+00 0.  1.
         25    2    1    2    0    0  0.46898144181E+02 -0.95480036541E+02 -0.65276506602E+03  0.67310126343E+03  0.12508879289E+03 0.  0.
          5    1    3    3  502    0  0.23072726681E+02  0.27143249517E+02 -0.96060610083E+02  0.10253887029E+03  0.41800000000E+01 0. -1.
         -5    1    3    3    0  502  0.23825417500E+02 -0.12262328606E+03 -0.55670445594E+03  0.57056239314E+03  0.41800000000E+01 0. -1.
        -11    1    1    2    0    0 -0.32357192401E+02  0.12114502207E+02 -0.14712957903E+03  0.15113193604E+03  0.00000000000E+00 0.  1.
         11    1    1    2    0    0 -0.14540951779E+02  0.83365534334E+02 -0.96615796668E+02  0.12843622448E+03  0.00000000000E+00 0. -1.
</event>
<event>
 7    1  0.2480409E-009  0.1060101E+03  0.7561462E-02  0.1268142E+00
         -2   -1    0    0    0  501 -0.00000000000E+00  0.00000000000E+00  0.72882431970E+02  0.72882431970E+02  0.00000000000E+00 0. -1.
          2   -1    0    0  501    0  0.00000000000E+00 -0.00000000000E+00 -0.22895835797E+03  0.22895835797E+03  0.00000000000E+00 0.  1.
         25    2    1    2    0    0 -0.69529969497E+02 -0.35030515446E+01 -0.95621443197E+02  0.17215418162E+03  0.12508762458E+03 0.  0.
          5    1    3    3  502    0 -0.77684631274E+02  0.12599675072E+02 -0.42521311647E+01  0.78925323993E+02  0.41800000000E+01 0. -1.
         -5    1    3    3    0  502  0.81546617761E+01 -0.16102726616E+02 -0.91369312032E+02  0.93228857627E+02  0.41800000000E+01 0. -1.
        -11    1    1    2    0    0 -0.13149783539E+01  0.36504062618E+02 -0.17446243469E+02  0.40480207100E+02  0.00000000000E+00 0. -1.
         11    1    1    2    0    0  0.70844947851E+02 -0.33001011073E+02 -0.43008239334E+02  0.89206401220E+02  0.00000000000E+00 0.  1.
</event>
<event>
 7    1  0.2480409E-009  0.1209957E+03  0.7561462E-02  0.1241464E+00
          2   -1    0    0  501    0  0.00000000000E+00  0.00000000000E+00  0.57956344936E+03  0.57956344936E+03  0.00000000000E+00 0. -1.
         -2   -1    0    0    0  501 -0.00000000000E+00 -0.00000000000E+00 -0.27192038788E+02  0.27192038788E+02  0.00000000000E+00 0.  1.
         25    2    1    2    0    0 -0.46829974979E+02 -0.30574410639E+02  0.32853004212E+03  0.35596086669E+03  0.12509320085E+03 0.  0.
          5    1    3    3  502    0 -0.46516039609E+02  0.38691598806E+02  0.21030164733E+03  0.21887219337E+03  0.41800000000E+01 0.  1.
         -5    1    3    3    0  502 -0.31393536967E+00 -0.69266009445E+02  0.11822839479E+03  0.13708867332E+03  0.41800000000E+01 0.  1.
        -11    1    1    2    0    0  0.73776766276E+01 -0.34810979715E+02  0.88659279190E+02  0.95533775219E+02  0.00000000000E+00 0.  1.
         11    1    1    2    0    0  0.39452298351E+02  0.65385390354E+02  0.13518208926E+03  0.15526084624E+03  0.00000000000E+00 0. -1.
</event>
<event>
 7    1  0.2480409E-009  0.1095030E+03  0.7561462E-02  0.1261493E+00
          2   -1    0    0  501    0  0.00000000000E+00  0.00000000000E+00  0.17953817579E+03  0.17953817579E+03  0.00000000000E+00 0. -1.
         -2   -1    0    0    0  501 -0.00000000000E+00 -0.00000000000E+00 -0.95394520206E+02  0.95394520206E+02  0.00000000000E+00 0.  1.
         25    2    1    2    0    0  0.25874408246E+02  0.34925800587E+02 -0.14027977938E+02  0.13316445087E+03  0.12508673096E+03 0.  0.
          5    1    3    3  502    0  0.24276348656E+02  0.81740200466E+02 -0.10265939761E+02  0.85986414017E+02  0.41800000000E+01 0. -1.
         -5    1    3    3    0  502  0.15980595900E+01 -0.46814399879E+02 -0.37620381772E+01  0.47178036858E+02  0.41800000000E+01 0. -1.
        -11    1    1    2    0    0 -0.24112745059E+02  0.20198272996E+02  0.27757797092E+01  0.31576884889E+02  0.00000000000E+00 0.  1.
         11    1    1    2    0    0 -0.17616631874E+01 -0.55124073582E+02  0.95395853817E+02  0.11019136024E+03  0.00000000000E+00 0. -1.
</event>
<event>
 7    1  0.2480409E-009  0.1083291E+03  0.7561462E-02  0.1263696E+00
         -1   -1    0    0    0  501 -0.00000000000E+00  0.00000000000E+00  0.43595450510E+02  0.43595450510E+02  0.00000000000E+00 0.  1.
          1   -1    0    0  501    0  0.00000000000E+00 -0.00000000000E+00 -0.41905323426E+03  0.41905323426E+03  0.00000000000E+00 0. -1.
         25    2    1    2    0    0 -0.77612859147E+02  0.23541196887E+02 -0.17799163854E+03  0.23217879400E+03  0.12509206664E+03 0.  0.
          5    1    3    3  502    0 -0.91452917113E+02  0.29461384641E+02 -0.60426357022E+02  0.11358004339E+03  0.41800000000E+01 0. -1.
         -5    1    3    3    0  502  0.13840057966E+02 -0.59201877537E+01 -0.11756528152E+03  0.11859875061E+03  0.41800000000E+01 0. -1.
        -11    1    1    2    0    0 -0.16960037939E+01 -0.25474646912E+02 -0.10764165008E+03  0.11062802040E+03  0.00000000000E+00 0. -1.
         11    1    1    2    0    0  0.79308862941E+02  0.19334500251E+01 -0.89824495122E+02  0.11984187037E+03  0.00000000000E+00 0.  1.
</event>
<event>
 7    1  0.2480409E-009  0.1053012E+03  0.7561462E-02  0.1269527E+00
         -2   -1    0    0    0  501 -0.00000000000E+00  0.00000000000E+00  0.35921410251E+02  0.35921410251E+02  0.00000000000E+00 0. -1.
          2   -1    0    0  501    0  0.00000000000E+00 -0.00000000000E+00 -0.48534300128E+03  0.48534300128E+03  0.00000000000E+00 0.  1.
         25    2    1    2    0    0 -0.12368827744E+02  0.42019852438E+02 -0.12627006432E+03  0.18306085371E+03  0.12509392918E+03 0.  0.
          5    1    3    3  502    0  0.44605194579E+02  0.25960364606E+02 -0.10304548527E+02  0.52794128786E+02  0.41800000000E+01 0.  1.
         -5    1    3    3    0  502 -0.56974022323E+02  0.16059487832E+02 -0.11596551580E+03  0.13026672493E+03  0.41800000000E+01 0.  1.
        -11    1    1    2    0    0  0.39239442950E+02 -0.56630199532E+02 -0.23535678134E+03  0.24523361904E+03  0.00000000000E+00 0.  1.
         11    1    1    2    0    0 -0.26870615207E+02  0.14610347094E+02 -0.87794745362E+02  0.92969938781E+02  0.00000000000E+00 0. -1.
</event>
<event>
 7    1  0.2480409E-009  0.1157199E+03  0.7561462E-02  0.1250330E+00
         -2   -1    0    0    0  501 -0.00000000000E+00  0.00000000000E+00  0.10466069156E+03  0.10466069156E+03  0.00000000000E+00 0.  1.
          2   -1    0    0  501    0  0.00000000000E+00 -0.00000000000E+00 -0.18073205608E+03  0.18073205608E+03  0.00000000000E+00 0. -1.
         25    2    1    2    0    0  0.50280515565E+02  0.67828455589E+02 -0.69212698720E+02  0.16603148419E+03  0.12508887418E+03 0.  0.
          5    1    3    3  502    0 -0.22645108312E+02  0.59795061106E+02  0.14378159425E+01  0.64092043015E+02  0.41800000000E+01 0. -1.
         -5    1    3    3    0  502  0.72925623876E+02  0.80333944825E+01 -0.70650514662E+02  0.10193944117E+03  0.41800000000E+01 0. -1.
        -11    1    1    2    0    0  0.39236161891E+00 -0.31562217310E+02  0.32781607189E+02  0.45507815582E+02  0.00000000000E+00 0.  1.
         11    1    1    2    0    0 -0.50672877184E+02 -0.36266238279E+02 -0.39640272989E+02  0.73853447879E+02  0.00000000000E+00 0. -1.
</event>
<event>
 7    1  0.2480409E-009  0.1755364E+03  0.7561462E-02  0.1172194E+00
         -1   -1    0    0    0  501 -0.00000000000E+00  0.00000000000E+00  0.28966194416E+03  0.28966194416E+03  0.00000000000E+00 0.  1.
          1   -1    0    0  501    0  0.00000000000E+00 -0.00000000000E+00 -0.14081587395E+03  0.14081587395E+03  0.00000000000E+00 0. -1.
         25    2    1    2    0    0 -0.49426409262E+02  0.14546320661E+03  0.14883290894E+01  0.19811591058E+03  0.12508071192E+03 0.  0.
          5    1    3    3  502    0 -0.50192227679E+02  0.16498089083E+03  0.16274677502E+02  0.17326364762E+03  0.41800000000E+01 0. -1.
         -5    1    3    3    0  502  0.76581841616E+00 -0.19517684221E+02 -0.14786348412E+02  0.24852262967E+02  0.41800000000E+01 0. -1.
        -11    1    1    2    0    0 -0.39087130552E+01 -0.42163158220E+02 -0.28270558996E+01  0.42438216196E+02  0.00000000000E+00 0. -1.
         11    1    1    2    0    0  0.53335122318E+02 -0.10330004839E+03  0.15018479702E+03  0.18992369132E+03  0.00000000000E+00 0.  1.
</event>
<event>
 7    1  0.2480409E-009  0.1249220E+03  0.7561462E-02  0.1235191E+00
         -1   -1    0    0    0  501 -0.00000000000E+00  0.00000000000E+00  0.12516335997E+02  0.12516335997E+02  0.00000000000E+00 0.  1.
          1   -1    0    0  501    0  0.00000000000E+00 -0.00000000000E+00 -0.15288482177E+04  0.15288482177E+04  0.00000000000E+00 0. -1.
         25    2    1    2    0    0  0.17011201457E+02  0.52862100310E+02 -0.10984870039E+04  0.11069803552E+04  0.12509207238E+03 0.  0.
          5    1    3    3  502    0 -0.51757337932E+02  0.42639575497E+02 -0.54994521462E+03  0.55403444560E+03  0.41800000000E+01 0. -1.
         -5    1    3    3    0  502  0.68768539389E+02  0.10222524812E+02 -0.54854178926E+03  0.55294590964E+03  0.41800000000E+01 0. -1.
        -11    1    1    2    0    0 -0.58394028257E+02 -0.33438267888E+02 -0.31054796410E+03  0.31775465111E+03  0.00000000000E+00 0. -1.
         11    1    1    2    0    0  0.41382826800E+02 -0.19423832421E+02 -0.10729691374E+03  0.11662954736E+03  0.00000000000E+00 0.  1.
</event>
<event>
 7    1  0.2480409E-009  0.6097298E+02  0.7561462E-02  0.1393793E+00
         -2   -1    0    0    0  501 -0.00000000000E+00  0.00000000000E+00  0.25283162801E+03  0.25283162801E+03  0.00000000000E+00 0.  1.
          2   -1    0    0  501    0  0.00000000000E+00 -0.00000000000E+00 -0.51027364327E+02  0.51027364327E+02  0.00000000000E+00 0. -1.
         25    2    1    2    0    0  0.33967461664E+02 -0.17534867531E+02  0.11557888128E+03  0.17455022767E+03  0.12509214264E+03 0.  0.
          5    1    3    3  502    0 -0.69686782482E+01 -0.17219169642E+02 -0.23076416794E+02  0.29917481373E+02  0.41800000000E+01 0. -1.
         -5    1    3    3    0  502  0.40936139912E+02 -0.31569788850E+00  0.13865529808E+03  0.14463274630E+03  0.41800000000E+01 0. -1.
        -11    1    1    2    0    0 -0.22725970112E+02 -0.15068979541E+02  0.90535794867E+02  0.94553022237E+02  0.00000000000E+00 0.  1.
         11    1    1    2    0    0 -0.11241491552E+02  0.32603847072E+02 -0.43104124687E+01  0.34755742430E+02  0.00000000000E+00 0. -1.
</event>
<event>
 7    1  0.2480409E-009  0.1263898E+03  0.7561462E-02  0.1232913E+00
          2   -1    0    0  501    0  0.00000000000E+00  0.00000000000E+00  0.39720733419E+03  0.39720733419E+03  0.00000000000E+00 0. -1.
         -2   -1    0    0    0  501 -0.00000000000E+00 -0.00000000000E+00 -0.63742266295E+02  0.63742266295E+02  0.00000000000E+00 0.  1.
         25    2    1    2    0    0  0.89656372205E+02 -0.57509022038E+02  0.11171612897E+03  0.19867093346E+03  0.12507635124E+03 0.  0.
          5    1    3    3  502    0  0.58367348467E+02 -0.14261722974E+02  0.12903291198E+03  0.14239771375E+03  0.41800000000E+01 0.  1.
         -5    1    3    3    0  502  0.31289023738E+02 -0.43247299064E+02 -0.17316783010E+02  0.56273219711E+02  0.41800000000E+01 0.  1.
        -11    1    1    2    0    0 -0.21343947496E+02 -0.24355614522E+02  0.38925223515E+02  0.50635294797E+02  0.00000000000E+00 0.  1.
         11    1    1    2    0    0 -0.68312424708E+02  0.81864636560E+02  0.18282371542E+03  0.21164337223E+03  0.00000000000E+00 0. -1.
</event>
<event>
 7    1  0.2480409E-009  0.9799838E+02  0.7561462E-02  0.1284562E+00
         -1   -1    0    0    0  501 -0.00000000000E+00  0.00000000000E+00  0.31782071919E+02  0.31782071919E+02  0.00000000000E+00 0.  1.
          1   -1    0    0  501    0  0.00000000000E+00 -0.00000000000E+00 -0.42912282110E+03  0.42912282110E+03  0.00000000000E+00 0. -1.
         25    2    1    2    0    0  0.15630191119E+02  0.38039114642E+02 -0.26092071633E+03  0.29226589159E+03  0.12509378106E+03 0.  0.
          5    1    3    3  502    0  0.42927768000E+02 -0.12093311428E+02 -0.28941721043E+02  0.53330451561E+02  0.41800000000E+01 0. -1.
         -5    1    3    3    0  502 -0.27297576881E+02  0.50132426070E+02 -0.23197899529E+03  0.23893544003E+03  0.41800000000E+01 0. -1.
        -11    1    1    2    0    0  0.30080887939E+02 -0.37731908324E+02 -0.96739550618E+02  0.10810687942E+03  0.00000000000E+00 0. -1.
         11    1    1    2    0    0 -0.45711079058E+02 -0.30720631765E+00 -0.39680482235E+02  0.60532122007E+02  0.00000000000E+00 0.  1.
</event>
<event>
 7    1  0.3057335E-009  0.1718635E+03  0.7561462E-02  0.1175918E+00
         -1   -1    0    0    0  501 -0.00000000000E+00  0.00000000000E+00  0.39812148830E+02  0.39812148830E+02  0.00000000000E+00 0.  1.
          1   -1    0    0  501    0  0.00000000000E+00 -0.00000000000E+00 -0.75224753829E+03  0.75224753829E+03  0.00000000000E+00 0. -1.
         25    2    1    2    0    0 -0.15623115881E+02  0.13366068526E+03 -0.37030372809E+03  0.41337838395E+03  0.12509027441E+03 0.  0.
          5    1    3    3  502    0  0.38541978470E+02  0.12220719837E+03 -0.25900657755E+03  0.28900166617E+03  0.41800000000E+01 0.  1.
         -5    1    3    3    0  502 -0.54165094350E+02  0.11453486890E+02 -0.11129715053E+03  0.12437671778E+03  0.41800000000E+01 0.  1.
        -11    1    1    2    0    0 -0.35210895701E+02 -0.71483736725E+02 -0.20228040914E+03  0.21740997151E+03  0.00000000000E+00 0. -1.
         11    1    1    2    0    0  0.50834011582E+02 -0.62176948532E+02 -0.13985125224E+03  0.16127133166E+03  0.00000000000E+00 0.  1.
</event>
<event>
 7    1  0.2480409E-009  0.8848086E+02  0.7561462E-02  0.1306573E+00
          1   -1    0    0  501    0  0.00000000000E+00  0.00000000000E+00  0.40789461045E+02  0.40789461045E+02  0.00000000000E+00 0. -1.
         -1   -1    0    0    0  501 -0.00000000000E+00 -0.00000000000E+00 -0.50991310755E+03  0.50991310755E+03  0.00000000000E+00 0.  1.
         25    2    1    2    0    0 -0.17297686067E+02 -0.13282645216E+02 -0.43115731650E+03  0.44946930785E+03  0.12510151286E+03 0.  0.
          5    1    3    3  502    0 -0.23006837869E+02 -0.67115970962E+02 -0.27915541021E+03  0.28806090258E+03  0.41800000000E+01 0. -1.
         -5    1    3    3    0  502  0.57091518016E+01  0.53833325746E+02 -0.15200190629E+03  0.16140840526E+03  0.41800000000E+01 0. -1.
        -11    1    1    2    0    0 -0.54649532506E+01  0.25278489161E+02 -0.61278779454E+02  0.66512829888E+02  0.00000000000E+00 0.  1.
         11    1    1    2    0    0  0.22762639318E+02 -0.11995843945E+02  0.23312449440E+02  0.34720430866E+02  0.00000000000E+00 0. -1.
</event>
<event>
 7    1  0.2480409E-009  0.9162068E+02  0.7561462E-02  0.1298974E+00
          2   -1    0    0  501    0  0.00000000000E+00  0.00000000000E+00  0.27699071461E+02  0.27699071461E+02  0.00000000000E+00 0. -1.
         -2   -1    0    0    0  501 -0.00000000000E+00 -0.00000000000E+00 -0.60128483446E+03  0.60128483446E+03  0.00000000000E+00 0.  1.
         25    2    1    2    0    0 -0.46008899284E+02  0.34017426348E+02 -0.21354942698E+03  0.25401876588E+03  0.12509265185E+03 0.  0.
          5    1    3    3  502    0 -0.35776935716E+02 -0.15257400037E+02 -0.49932603490E+01  0.39435801425E+02  0.41800000000E+01 0. -1.
         -5    1    3    3    0  502 -0.10231963568E+02  0.49274826385E+02 -0.20855616663E+03  0.21458296445E+03  0.41800000000E+01 0. -1.
        -11    1    1    2    0    0 -0.20473887960E+01 -0.44409462580E+02 -0.25678598137E+03  0.26060589478E+03  0.00000000000E+00 0.  1.
         11    1    1    2    0    0  0.48056288080E+02  0.10392036232E+02 -0.10325035465E+03  0.11435924526E+03  0.00000000000E+00 0. -1.
</event>
<event>
 7    1  0.2480409E-009  0.8805273E+02  0.7561462E-02  0.1307637E+00
          1   -1    0    0  501    0  0.00000000000E+00  0.00000000000E+00  0.17506094912E+03  0.17506094912E+03  0.00000000000E+00 0. -1.
         -1   -1    0    0    0  501 -0.00000000000E+00 -0.00000000000E+00 -0.12586317809E+03  0.12586317809E+03  0.00000000000E+00 0.  1.
         25    2    1    2    0    0 -0.25817859908E+02 -0.31474117484E+01  0.12541820528E+03  0.17903614767E+03  0.12509095837E+03 0.  0.
          5    1    3    3  502    0 -0.71641470634E+02 -0.12049019958E+02  0.10538529726E+03  0.12806721858E+03  0.41800000000E+01 0. -1.
         -5    1    3    3    0  502  0.45823610727E+02  0.89016082091E+01  0.20032908021E+02  0.50968929089E+02  0.41800000000E+01 0. -1.
        -11    1    1    2    0    0  0.92487636454E+01 -0.23408684783E+02 -0.85590404457E+02  0.89214480256E+02  0.00000000000E+00 0.  1.
         11    1    1    2    0    0  0.16569096262E+02  0.26556096532E+02  0.93699702052E+01  0.32673499286E+02  0.00000000000E+00 0. -1.
</event>
<event>
 7    1  0.2480409E-009  0.1204241E+03  0.7561462E-02  0.1242399E+00
         -1   -1    0    0    0  501 -0.00000000000E+00  0.00000000000E+00  0.32168783289E+03  0.32168783289E+03  0.00000000000E+00 0.  1.
          1   -1    0    0  501    0  0.00000000000E+00 -0.00000000000E+00 -0.72801347122E+02  0.72801347122E+02  0.00000000000E+00 0. -1.
         25    2    1    2    0    0 -0.14583489370E+02  0.97288514944E+02  0.81338918622E+02  0.17872321225E+03  0.12509289992E+03 0.  0.
          5    1    3    3  502    0 -0.30489956980E+02  0.50631205662E+02 -0.22756397330E+02  0.63470327578E+02  0.41800000000E+01 0. -1.
         -5    1    3    3    0  502  0.15906467610E+02  0.46657309282E+02  0.10409531595E+03  0.11525288467E+03  0.41800000000E+01 0. -1.
        -11    1    1    2    0    0  0.31550375714E+00 -0.11178550753E+03  0.11973466948E+03  0.16380625846E+03  0.00000000000E+00 0. -1.
         11    1    1    2    0    0  0.14267985613E+02  0.14496992587E+02  0.47812897663E+02  0.51959709299E+02  0.00000000000E+00 0.  1.
</event>
<event>
 7    1  0.2480409E-009  0.1116951E+03  0.7561462E-02  0.1257463E+00
          2   -1    0    0  501    0  0.00000000000E+00  0.00000000000E+00  0.16753676002E+03  0.16753676002E+03  0.00000000000E+00 0. -1.
         -2   -1    0    0    0  501 -0.00000000000E+00 -0.00000000000E+00 -0.11624630081E+03  0.11624630081E+03  0.00000000000E+00 0.  1.
         25    2    1    2    0    0  0.84527781036E+02  0.22699278551E+01  0.28799845422E+01  0.15101604194E+03  0.12508977686E+03 0.  0.
          5    1    3    3  502    0  0.93273087325E+02  0.36329689730E+02  0.31996100878E+02  0.10517099432E+03  0.41800000000E+01 0. -1.
         -5    1    3    3    0  502 -0.87453062889E+01 -0.34059761875E+02 -0.29116116336E+02  0.45845047623E+02  0.41800000000E+01 0. -1.
        -11    1    1    2    0    0 -0.16357401044E+02  0.90414854644E+01 -0.25479574627E+02  0.31599394797E+02  0.00000000000E+00 0.  1.
         11    1    1    2    0    0 -0.68170379992E+02 -0.11311413319E+02  0.73890049298E+02  0.10116762409E+03  0.00000000000E+00 0. -1.
</event>
<event>
 7    1  0.2480409E-009  0.1873521E+03  0.7561462E-02  0.1160872E+00
          2   -1    0    0  501    0  0.00000000000E+00  0.00000000000E+00  0.36055310466E+03  0.36055310466E+03  0.00000000000E+00 0. -1.
         -2   -1    0    0    0  501 -0.00000000000E+00 -0.00000000000E+00 -0.11674901337E+03  0.11674901337E+03  0.00000000000E+00 0.  1.
         25    2    1    2    0    0 -0.15498538695E+03  0.52841950345E+02  0.65305753738E+02  0.21615977364E+03  0.12508982526E+03 0.  0.
          5    1    3    3  502    0 -0.17570776650E+03  0.51701167314E+02  0.66638984175E+02  0.19494731730E+03  0.41800000000E+01 0. -1.
         -5    1    3    3    0  502  0.20722379556E+02  0.11407830309E+01 -0.13332304379E+01  0.21212456336E+02  0.41800000000E+01 0. -1.
        -11    1    1    2    0    0  0.12904780782E+03 -0.61542849710E+02  0.18422175427E+03  0.23319201059E+03  0.00000000000E+00 0. -1.
         11    1    1    2    0    0  0.25937579126E+02  0.87008993657E+01 -0.57234167183E+01  0.27950333802E+02  0.00000000000E+00 0.  1.
</event>
<event>
 7    1  0.2480409E-009  0.1174089E+03  0.7561462E-02  0.1247434E+00
          2   -1    0    0  501    0  0.00000000000E+00  0.00000000000E+00  0.17936091849E+04  0.17936091849E+04  0.00000000000E+00 0. -1.
         -2   -1    0    0    0  501 -0.00000000000E+00 -0.00000000000E+00 -0.14805294859E+02  0.14805294859E+02  0.00000000000E+00 0.  1.
         25    2    1    2    0    0  0.78220294246E+01 -0.56780530592E+02  0.15410166058E+04  0.15471474281E+04  0.12509105515E+03 0.  0.
          5    1    3    3  502    0  0.45376231435E+02 -0.77897418977E+02  0.85029267976E+03  0.85506849077E+03  0.41800000000E+01 0.  1.
         -5    1    3    3    0  502 -0.37554202010E+02  0.21116888384E+02  0.69072392608E+03  0.69207893735E+03  0.41800000000E+01 0.  1.
        -11    1    1    2    0    0  0.90559642971E+01  0.75522163335E+02  0.21183994937E+03  0.22508170027E+03  0.00000000000E+00 0.  1.
         11    1    1    2    0    0 -0.16877993722E+02 -0.18741632743E+02  0.25947334875E+02  0.36185351415E+02  0.00000000000E+00 0. -1.
</event>
<event>
 7    1  0.2480409E-009  0.2252275E+03  0.7561462E-02  0.1130045E+00
          1   -1    0    0  501    0  0.00000000000E+00  0.00000000000E+00  0.77719724410E+03  0.77719724410E+03  0.00000000000E+00 0. -1.
         -1   -1    0    0    0  501 -0.00000000000E+00 -0.00000000000E+00 -0.76167566441E+02  0.76167566441E+02  0.00000000000E+00 0.  1.
         25    2    1    2    0    0 -0.18587747053E+03  0.11248458907E+03  0.34365179487E+03  0.42537958832E+03  0.12509205097E+03 0.  0.
          5    1    3    3  502    0 -0.18213474089E+03  0.11965025836E+03  0.35134609995E+03  0.41346197227E+03  0.41800000000E+01 0. -1.
         -5    1    3    3    0  502 -0.37427296371E+01 -0.71656692948E+01 -0.76943050811E+01  0.11917616048E+02  0.41800000000E+01 0. -1.
        -11    1    1    2    0    0  0.12870983331E+03 -0.48382655825E+02  0.28188208741E+03  0.31363133418E+03  0.00000000000E+00 0. -1.
         11    1    1    2    0    0  0.57167637219E+02 -0.64101933240E+02  0.75495795376E+02  0.11435388804E+03  0.00000000000E+00 0.  1.
</event>
<event>
 7    1  0.2480409E-009  0.7451010E+02  0.7561462E-02  0.1345395E+00
         -4   -1    0    0    0  501 -0.00000000000E+00  0.00000000000E+00  0.42026067788E+02  0.42026067788E+02  0.00000000000E+00 0.  1.
          4   -1    0    0  501    0  0.00000000000E+00 -0.00000000000E+00 -0.31503949435E+03  0.31503949435E+03  0.00000000000E+00 0. -1.
         25    2    1    2    0    0  0.32734616258E+01 -0.38810227034E+02 -0.12073017328E+03  0.17816374301E+03  0.12509834256E+03 0.  0.
          5    1    3    3  502    0  0.20789420193E+02 -0.25442228494E+02  0.17956677474E+02  0.37675212655E+02  0.41800000000E+01 0. -1.
         -5    1    3    3    0  502 -0.17515958567E+02 -0.13367998539E+02 -0.13868685076E+03  0.14048853036E+03  0.41800000000E+01 0. -1.
        -11    1    1    2    0    0  0.88355829062E+01  0.64483774211E+02 -0.11354615413E+03  0.13087762903E+03  0.00000000000E+00 0.  1.
         11    1    1    2    0    0 -0.12109044532E+02 -0.25673547178E+02 -0.38737099145E+02  0.48024190095E+02  0.00000000000E+00 0. -1.
</event>
<event>
 7    1  0.2480409E-009  0.1633166E+03  0.7561462E-02  0.1185002E+00
         -2   -1    0    0    0  501 -0.00000000000E+00  0.00000000000E+00  0.58357432411E+02  0.58357432411E+02  0.00000000000E+00 0. -1.
          2   -1    0    0  501    0  0.00000000000E+00 -0.00000000000E+00 -0.63044032598E+03  0.63044032598E+03  0.00000000000E+00 0.  1.
         25    2    1    2    0    0  0.43549593061E+02 -0.14536335084E+03 -0.38577488445E+03  0.43300800095E+03  0.12508635653E+03 0.  0.
          5    1    3    3  502    0  0.27062556375E+02 -0.82613017609E+02 -0.34602964172E+03  0.35680705989E+03  0.41800000000E+01 0.  1.
         -5    1    3    3    0  502  0.16487036686E+02 -0.62750333228E+02 -0.39745242730E+02  0.76200941061E+02  0.41800000000E+01 0.  1.
        -11    1    1    2    0    0  0.14013137757E+02  0.10085098519E+03 -0.97442584100E+02  0.14093383710E+03  0.00000000000E+00 0. -1.
         11    1    1    2    0    0 -0.57562730818E+02  0.44512365649E+02 -0.88865425022E+02  0.11485592035E+03  0.00000000000E+00 0.  1.
</event>
<event>
 7    1  0.2480409E-009  0.1231711E+03  0.7561462E-02  0.1237956E+00
         -1   -1    0    0    0  501 -0.00000000000E+00  0.00000000000E+00  0.17993560896E+03  0.17993560896E+03  0.00000000000E+00 0.  1.
          1   -1    0    0  501    0  0.00000000000E+00 -0.00000000000E+00 -0.15704126064E+03  0.15704126064E+03  0.00000000000E+00 0. -1.
         25    2    1    2    0    0  0.67037032307E+02  0.54160147618E+02  0.11208474938E+03  0.18878061074E+03  0.12509133726E+03 0.  0.
          5    1    3    3  502    0  0.22063923401E+02  0.87998944078E+02  0.45766704417E+02  0.10169903887E+03  0.41800000000E+01 0.  1.
         -5    1    3    3    0  502  0.44973108907E+02 -0.33838796461E+02  0.66318044961E+02  0.87081571863E+02  0.41800000000E+01 0.  1.
        -11    1    1    2    0    0 -0.51373627092E+02 -0.10143170967E+02 -0.58997520093E+01  0.52696684447E+02  0.00000000000E+00 0.  1.
         11    1    1    2    0    0 -0.15663405215E+02 -0.44016976650E+02 -0.83290649046E+02  0.95499574423E+02  0.00000000000E+00 0. -1.
</event>
<event>
 7    1  0.2480409E-009  0.8396758E+02  0.7561462E-02  0.1318155E+00
         -2   -1    0    0    0  501 -0.00000000000E+00  0.00000000000E+00  0.13337769730E+02  0.13337769730E+02  0.00000000000E+00 0.  1.
          2   -1    0    0  501    0  0.00000000000E+00 -0.00000000000E+00 -0.12334806330E+04  0.12334806330E+04  0.00000000000E+00 0. -1.
         25    2    1    2    0    0  0.59555353031E+02 -0.35723298551E+01 -0.85663716599E+03  0.86777511872E+03  0.12508725308E+03 0.  0.
          5    1    3    3  502    0  0.42207526093E+02 -0.36131389481E+00 -0.76857520481E+02  0.87784717697E+02  0.41800000000E+01 0.  1.
         -5    1    3    3    0  502  0.17347826938E+02 -0.32110159603E+01 -0.77977964551E+03  0.77999040102E+03  0.41800000000E+01 0.  1.
        -11    1    1    2    0    0 -0.47763180807E+01  0.40850366617E+02 -0.14310602455E+03  0.14889895879E+03  0.00000000000E+00 0. -1.
         11    1    1    2    0    0 -0.54779034951E+02 -0.37278036762E+02 -0.22039967276E+03  0.23014432526E+03  0.00000000000E+00 0.  1.
</event>
<event>
 7    1  0.2480409E-009  0.1153795E+03  0.7561462E-02  0.1250920E+00
          2   -1    0    0  501    0  0.00000000000E+00  0.00000000000E+00  0.64948499032E+03  0.64948499032E+03  0.00000000000E+00 0. -1.
         -2   -1    0    0    0  501 -0.00000000000E+00 -0.00000000000E+00 -0.35564764496E+02  0.35564764496E+02  0.00000000000E+00 0.  1.
         25    2    1    2    0    0  0.79239455755E+02  0.24010136892E+02  0.42351666232E+03  0.44929925861E+03  0.12509229593E+03 0.  0.
          5    1    3    3  502    0  0.62042004129E+02 -0.53564460491E+01  0.68651370477E+02  0.92781382071E+02  0.41800000000E+01 0.  1.
         -5    1    3    3    0  502  0.17197451625E+02  0.29366582941E+02  0.35486529184E+03  0.35651787654E+03  0.41800000000E+01 0.  1.
        -11    1    1    2    0    0  0.10912110358E+01  0.34601445064E+02  0.24800033140E+02  0.42585119300E+02  0.00000000000E+00 0.  1.
         11    1    1    2    0    0 -0.80330666790E+02 -0.58611581956E+02  0.16560353036E+03  0.19316537690E+03  0.00000000000E+00 0. -1.
</event>
<event>
 7    1  0.2480409E-009  0.1416200E+03  0.7561462E-02  0.1211166E+00
          4   -1    0    0  501    0  0.00000000000E+00  0.00000000000E+00  0.26964362843E+02  0.26964362843E+02  0.00000000000E+00 0. -1.
         -4   -1    0    0    0  501 -0.00000000000E+00 -0.00000000000E+00 -0.10899161730E+04  0.10899161730E+04  0.00000000000E+00 0.  1.
         25    2    1    2    0    0  0.44915342328E+02 -0.83226475289E+02 -0.86693510047E+03  0.88100392787E+03  0.12508964120E+03 0.  0.
          5    1    3    3  502    0  0.50891181405E+02  0.18711828357E+02 -0.27854897567E+03  0.28380812024E+03  0.41800000000E+01 0.  1.
         -5    1    3    3    0  502 -0.59758390763E+01 -0.10193830365E+03 -0.58838612479E+03  0.59719580763E+03  0.41800000000E+01 0.  1.
        -11    1    1    2    0    0 -0.65433099372E+02  0.83568457520E+02 -0.18307247386E+03  0.21161452755E+03  0.00000000000E+00 0.  1.
         11    1    1    2    0    0  0.20517757044E+02 -0.34198223132E+00 -0.12944235868E+02  0.24262080458E+02  0.00000000000E+00 0. -1.
</event>
<event>
 7    1  0.2480409E-009  0.1073351E+03  0.7561462E-02  0.1265586E+00
          4   -1    0    0  501    0  0.00000000000E+00  0.00000000000E+00  0.98508945086E+02  0.98508945086E+02  0.00000000000E+00 0. -1.
         -4   -1    0    0    0  501 -0.00000000000E+00 -0.00000000000E+00 -0.18282777150E+03  0.18282777150E+03  0.00000000000E+00 0.  1.
         25    2    1    2    0    0  0.18395748243E+02  0.31406452668E+02 -0.11833673024E+03  0.17600488787E+03  0.12509744206E+03 0.  0.
          5    1    3    3  502    0  0.55557384513E+02  0.59773956289E+02 -0.88152271322E+02  0.12019918537E+03  0.41800000000E+01 0. -1.
         -5    1    3    3    0  502 -0.37161636269E+02 -0.28367503621E+02 -0.30184458915E+02  0.55805702503E+02  0.41800000000E+01 0. -1.
        -11    1    1    2    0    0  0.14083946392E+02 -0.47661550638E+02  0.45354916209E+02  0.67283351429E+02  0.00000000000E+00 0. -1.
         11    1    1    2    0    0 -0.32479694636E+02  0.16255097970E+02 -0.11337012385E+02  0.38048477282E+02  0.00000000000E+00 0.  1.
</event>
<event>
 7    1  0.2480409E-009  0.1045493E+03  0.7561462E-02  0.1271010E+00
          1   -1    0    0  501    0  0.00000000000E+00  0.00000000000E+00  0.27814523021E+02  0.27814523021E+02  0.00000000000E+00 0.  1.
         -1   -1    0    0    0  501 -0.00000000000E+00 -0.00000000000E+00 -0.55161530321E+03  0.55161530321E+03  0.00000000000E+00 0. -1.
         25    2    1    2    0    0 -0.54533440704E+02  0.24896520124E+02 -0.29005447159E+03  0.32151655699E+03  0.12509023568E+03 0.  0.
          5    1    3    3  502    0 -0.14620426700E+02  0.71165601814E+02 -0.19798537550E+03  0.21093596438E+03  0.41800000000E+01 0.  1.
         -5    1    3    3    0  502 -0.39913014005E+02 -0.46269081690E+02 -0.92069096090E+02  0.11058059261E+03  0.41800000000E+01 0.  1.
        -11    1    1    2    0    0  0.31893161927E+02  0.10049842087E+02 -0.17590866153E+02  0.37783748831E+02  0.00000000000E+00 0.  1.
         11    1    1    2    0    0  0.22640278778E+02 -0.34946362212E+02 -0.21615544244E+03  0.22012952040E+03  0.00000000000E+00 0. -1.
</event>
<event>
 7    1  0.2480409E-009  0.1050722E+03  0.7561462E-02  0.1269977E+00
          1   -1    0    0  501    0  0.00000000000E+00  0.00000000000E+00  0.76460394500E+02  0.76460394500E+02  0.00000000000E+00 0. -1.
         -1   -1    0    0    0  501 -0.00000000000E+00 -0.00000000000E+00 -0.20756390561E+03  0.20756390561E+03  0.00000000000E+00 0.  1.
         25    2    1    2    0    0 -0.28749306169E+02 -0.49947589622E+02 -0.56443603513E+02  0.14884347587E+03  0.12508883090E+03 0.  0.
          5    1    3    3  502    0  0.45181519237E+02 -0.16397596099E+02 -0.46387233831E+02  0.66929057224E+02  0.41800000000E+01 0. -1.
         -5    1    3    3    0  502 -0.73930825406E+02 -0.33549993522E+02 -0.10056369682E+02  0.81914418643E+02  0.41800000000E+01 0. -1.
        -11    1    1    2    0    0  0.43499044369E+02  0.21417333475E+02  0.55282086305E+01  0.48799898820E+02  0.00000000000E+00 0. -1.
         11    1    1    2    0    0 -0.14749738200E+02  0.28530256147E+02 -0.80188116226E+02  0.86380925422E+02  0.00000000000E+00 0.  1.
</event>
<event>
 7    1  0.2480409E-009  0.2307729E+03  0.7561462E-02  0.1126097E+00
          2   -1    0    0  501    0  0.00000000000E+00  0.00000000000E+00  0.64452746414E+03  0.64452746414E+03  0.00000000000E+00 0.  1.
         -2   -1    0    0    0  501 -0.00000000000E+00 -0.00000000000E+00 -0.11027482090E+03  0.11027482090E+03  0.00000000000E+00 0. -1.
         25    2    1    2    0    0  0.14110723478E+03 -0.15967116519E+03  0.43711242998E+03  0.50211627501E+03  0.12508934601E+03 0.  0.
          5    1    3    3  502    0  0.12760694955E+03 -0.17639573655E+03  0.42385838922E+03  0.47652113905E+03  0.41800000000E+01 0.  1.
         -5    1    3    3    0  502  0.13500285232E+02  0.16724571359E+02  0.13254040760E+02  0.25595135963E+02  0.41800000000E+01 0.  1.
        -11    1    1    2    0    0 -0.82395635296E+02  0.47030914407E+02  0.36077155531E+01  0.94941894005E+02  0.00000000000E+00 0.  1.
         11    1    1    2    0    0 -0.58711599482E+02  0.11264025079E+03  0.93532497712E+02  0.15774411602E+03  0.00000000000E+00 0. -1.
</event>
<event>
 7    1  0.2480409E-009  0.1018837E+03  0.7561462E-02  0.1276384E+00
         -1   -1    0    0    0  501 -0.00000000000E+00  0.00000000000E+00  0.50900093101E+02  0.50900093101E+02  0.00000000000E+00 0.  1.
          1   -1    0    0  501    0  0.00000000000E+00 -0.00000000000E+00 -0.27894210931E+03  0.27894210931E+03  0.00000000000E+00 0. -1.
         25    2    1    2    0    0 -0.41271216284E+02 -0.12368808075E+02 -0.11312695287E+03  0.17407379844E+03  0.12509068363E+03 0.  0.
          5    1    3    3  502    0 -0.31120816970E+02 -0.61596790706E+02 -0.10066296142E+03  0.12211950735E+03  0.41800000000E+01 0. -1.
         -5    1    3    3    0  502 -0.10150399314E+02  0.49227982631E+02 -0.12463991458E+02  0.51954291095E+02  0.41800000000E+01 0. -1.
        -11    1    1    2    0    0  0.60808426397E+02  0.18758820937E+02 -0.11887360956E+03  0.13483505899E+03  0.00000000000E+00 0. -1.
         11    1    1    2    0    0 -0.19537210113E+02 -0.63900128624E+01  0.39585462291E+01  0.20933344970E+02  0.00000000000E+00 0.  1.
</event>
<event>
 7    1  0.2480409E-009  0.1222989E+03  0.7561462E-02  0.1239352E+00
          2   -1    0    0  501    0  0.00000000000E+00  0.00000000000E+00  0.62001643230E+03  0.62001643230E+03  0.00000000000E+00 0. -1.
         -2   -1    0    0    0  501 -0.00000000000E+00 -0.00000000000E+00 -0.31887360394E+02  0.31887360394E+02  0.00000000000E+00 0.  1.
         25    2    1    2    0    0  0.84862907322E+02 -0.23724813100E+02  0.27083135411E+03  0.31106022220E+03  0.12507701496E+03 0.  0.
          5    1    3    3  502    0 -0.11310764647E+02 -0.22253039343E+02  0.16914292985E+03  0.17102612162E+03  0.41800000000E+01 0.  1.
         -5    1    3    3    0  502  0.96173671969E+02 -0.14717737567E+01  0.10168842426E+03  0.14003410058E+03  0.41800000000E+01 0.  1.
        -11    1    1    2    0    0 -0.38280221218E+02 -0.32345457346E+02  0.10426207073E+03  0.11568138718E+03  0.00000000000E+00 0.  1.
         11    1    1    2    0    0 -0.46582686104E+02  0.56070270447E+02  0.21303564706E+03  0.22516218331E+03  0.00000000000E+00 0. -1.
</event>
<event>
 7    1  0.2480409E-009  0.1268472E+03  0.7561462E-02  0.1232210E+00
          2   -1    0    0  501    0  0.00000000000E+00  0.00000000000E+00  0.22675943718E+04  0.22675943718E+04  0.00000000000E+00 0. -1.
         -2   -1    0    0    0  501 -0.00000000000E+00 -0.00000000000E+00 -0.90598881921E+01  0.90598881921E+01  0.00000000000E+00 0.  1.
         25    2    1    2    0    0 -0.53366817933E+02  0.41307510400E+02  0.17319473547E+04  0.17377693730E+04  0.12508567759E+03 0.  0.
          5    1    3    3  502    0 -0.43583980270E+02  0.85235054286E+02  0.12732443956E+04  0.12768450733E+04  0.41800000000E+01 0. -1.
         -5    1    3    3    0  502 -0.97828376635E+01 -0.43927543886E+02  0.45870295911E+03  0.46092429977E+03  0.41800000000E+01 0. -1.
        -11    1    1    2    0    0 -0.13071029909E+02 -0.44280741663E+02  0.17049343948E+03  0.17663422321E+03  0.00000000000E+00 0.  1.
         11    1    1    2    0    0  0.66437847842E+02  0.29732312629E+01  0.35609368940E+03  0.36225066371E+03  0.00000000000E+00 0. -1.
</event>
<event>
 7    1  0.2480409E-009  0.2318722E+03  0.7561462E-02  0.1125329E+00
         -1   -1    0    0    0  501 -0.00000000000E+00  0.00000000000E+00  0.42510437149E+02  0.42510437149E+02  0.00000000000E+00 0.  1.
          1   -1    0    0  501    0  0.00000000000E+00 -0.00000000000E+00 -0.20901222195E+04  0.20901222195E+04  0.00000000000E+00 0. -1.
         25    2    1    2    0    0  0.21975540427E+03  0.40045270249E+02 -0.16338526851E+04  0.16537889810E+04  0.12508931081E+03 0.  0.
          5    1    3    3  502    0  0.28928021667E+02  0.12095575463E+02 -0.67406345594E+03  0.67480526703E+03  0.41800000000E+01 0. -1.
         -5    1    3    3    0  502  0.19082738261E+03  0.27949694785E+02 -0.95978922913E+03  0.97898371393E+03  0.41800000000E+01 0. -1.
        -11    1    1    2    0    0 -0.16037226292E+03  0.11204286238E+02 -0.24936579514E+03  0.29669529577E+03  0.00000000000E+00 0. -1.
         11    1    1    2    0    0 -0.59383141358E+02 -0.51249556486E+02 -0.16439330212E+03  0.18214837990E+03  0.00000000000E+00 0.  1.
</event>
<event>
 7    1  0.2480409E-009  0.1702093E+03  0.7561462E-02  0.1177630E+00
         -1   -1    0    0    0  501 -0.00000000000E+00  0.00000000000E+00  0.11925435999E+04  0.11925435999E+04  0.00000000000E+00 0.  1.
          1   -1    0    0  501    0  0.00000000000E+00 -0.00000000000E+00 -0.33325023264E+02  0.33325023264E+02  0.00000000000E+00 0. -1.
         25    2    1    2    0    0  0.13038503962E+03 -0.10338743297E+03  0.69088633014E+03  0.72156784580E+03  0.12508802922E+03 0.  0.
          5    1    3    3  502    0  0.66970807065E+02 -0.84020651866E+02  0.59667886603E+03  0.60629011250E+03  0.41800000000E+01 0.  1.
         -5    1    3    3    0  502  0.63414232553E+02 -0.19366781108E+02  0.94207464110E+02  0.11527773330E+03  0.41800000000E+01 0.  1.
        -11    1    1    2    0    0 -0.75640057503E+02  0.57309179418E+02  0.14607156059E+03  0.17419144972E+03  0.00000000000E+00 0.  1.
         11    1    1    2    0    0 -0.54744982115E+02  0.46078253556E+02  0.32226068588E+03  0.33010932762E+03  0.00000000000E+00 0. -1.
</event>
<event>
 7    1  0.2480409E-009  0.2712299E+03  0.7561462E-02  0.1100578E+00
          2   -1    0    0  501    0  0.00000000000E+00  0.00000000000E+00  0.18492152550E+04  0.18492152550E+04  0.00000000000E+00 0. -1.
         -2   -1    0    0    0  501 -0.00000000000E+00 -0.00000000000E+00 -0.62933196787E+02  0.62933196787E+02  0.00000000000E+00 0.  1.
         25    2    1    2    0    0  0.95048886837E+02  0.22983274034E+03  0.14871076570E+04  0.15129421534E+04  0.12508955408E+03 0.  0.
          5    1    3    3  502    0 -0.19205678955E+02  0.11322050843E+03  0.58809179114E+03  0.59921379226E+03  0.41800000000E+01 0. -1.
         -5    1    3    3    0  502  0.11425456579E+03  0.11661223190E+03  0.89901586587E+03  0.91372836112E+03  0.41800000000E+01 0. -1.
        -11    1    1    2    0    0 -0.65028698006E+02 -0.50302953647E+02  0.88719196453E+02  0.12095542373E+03  0.00000000000E+00 0.  1.
         11    1    1    2    0    0 -0.30020188831E+02 -0.17952978669E+03  0.21045520473E+03  0.27825087465E+03  0.00000000000E+00 0. -1.
</event>
<event>
 7    1  0.2480409E-009  0.1321254E+03  0.7561462E-02  0.1224336E+00
         -3   -1    0    0    0  501 -0.00000000000E+00  0.00000000000E+00  0.65564763813E+02  0.65564763813E+02  0.00000000000E+00 0.  1.
          3   -1    0    0  501    0  0.00000000000E+00 -0.00000000000E+00 -0.42417781016E+03  0.42417781016E+03  0.00000000000E+00 0. -1.
         25    2    1    2    0    0 -0.24796318164E+02  0.86365132246E+02 -0.61448573366E+02  0.16582449093E+03  0.12509213070E+03 0.  0.
          5    1    3    3  502    0  0.42873602302E+02  0.44136983925E+02  0.50659310261E+01  0.61881783923E+02  0.41800000000E+01 0. -1.
         -5    1    3    3    0  502 -0.67669920466E+02  0.42228148321E+02 -0.66514504392E+02  0.10394270701E+03  0.41800000000E+01 0. -1.
        -11    1    1    2    0    0  0.45334883833E+02 -0.13952550234E+02 -0.69581327251E+02  0.84210963967E+02  0.00000000000E+00 0.  1.
         11    1    1    2    0    0 -0.20538565670E+02 -0.72412582012E+02 -0.22758314572E+03  0.23970711907E+03  0.00000000000E+00 0. -1.
</event>
<event>
 7    1  0.2480409E-009  0.3625183E+03  0.7561462E-02  0.1057591E+00
          1   -1    0    0  501    0  0.00000000000E+00  0.00000000000E+00  0.12397202706E+04  0.12397202706E+04  0.00000000000E+00 0. -1.
         -1   -1    0    0    0  501 -0.00000000000E+00 -0.00000000000E+00 -0.11578006313E+03  0.11578006313E+03  0.00000000000E+00 0.  1.
         25    2    1    2    0    0  0.34743082502E+03 -0.80642603447E+02  0.68845600329E+03  0.78538529197E+03  0.12508789196E+03 0.  0.
          5    1    3    3  502    0  0.18990842723E+03 -0.56444882708E+02  0.50413637514E+03  0.54168458780E+03  0.41800000000E+01 0. -1.
         -5    1    3    3    0  502  0.15752239779E+03 -0.24197720739E+02  0.18431962815E+03  0.24370070418E+03  0.41800000000E+01 0. -1.
        -11    1    1    2    0    0 -0.13396352165E+03 -0.12499835485E+02  0.17390367349E+03  0.21987487050E+03  0.00000000000E+00 0.  1.
         11    1    1    2    0    0 -0.21346730337E+03  0.93142438932E+02  0.26158053071E+03  0.35024017129E+03  0.00000000000E+00 0. -1.
</event>
<event>
 7    1  0.2825542E-009  0.9568590E+02  0.7561462E-02  0.1289639E+00
         -3   -1    0    0    0  501 -0.00000000000E+00  0.00000000000E+00  0.25234461108E+03  0.25234461108E+03  0.00000000000E+00 0.  1.
          3   -1    0    0  501    0  0.00000000000E+00 -0.00000000000E+00 -0.60126852877E+02  0.60126852877E+02  0.00000000000E+00 0. -1.
         25    2    1    2    0    0 -0.25730859062E+02  0.48623008675E+02  0.13167130243E+03  0.18976471320E+03  0.12508813057E+03 0.  0.
          5    1    3    3  502    0 -0.74241722640E+02  0.44009942340E+02  0.71004580344E+02  0.11183841574E+03  0.41800000000E+01 0.  1.
         -5    1    3    3    0  502  0.48510863578E+02  0.46130663347E+01  0.60666722090E+02  0.77926297456E+02  0.41800000000E+01 0.  1.
        -11    1    1    2    0    0  0.12383297019E+02 -0.12720259006E+02  0.78444276039E+02  0.80427952091E+02  0.00000000000E+00 0.  1.
         11    1    1    2    0    0  0.13347562043E+02 -0.35902749668E+02 -0.17897820273E+02  0.42278798668E+02  0.00000000000E+00 0. -1.
</event>
<event>
 7    1  0.2480409E-009  0.9665422E+02  0.7561462E-02  0.1287493E+00
         -1   -1    0    0    0  501 -0.00000000000E+00  0.00000000000E+00  0.13839078368E+03  0.13839078368E+03  0.00000000000E+00 0.  1.
          1   -1    0    0  501    0  0.00000000000E+00 -0.00000000000E+00 -0.12431438842E+03  0.12431438842E+03  0.00000000000E+00 0. -1.
         25    2    1    2    0    0 -0.28849834559E+02 -0.47851055091E+02 -0.37721769791E+02  0.14209897898E+03  0.12508857455E+03 0.  0.
          5    1    3    3  502    0 -0.57398357418E+02 -0.58279570140E+01 -0.62722297856E+02  0.85323476052E+02  0.41800000000E+01 0.  1.
         -5    1    3    3    0  502  0.28548522859E+02 -0.42023098077E+02  0.25000528065E+02  0.56775502930E+02  0.41800000000E+01 0.  1.
        -11    1    1    2    0    0  0.19292046807E+02 -0.12759241706E+02  0.54481830271E+02  0.59188268674E+02  0.00000000000E+00 0.  1.
         11    1    1    2    0    0  0.95577877521E+01  0.60610296798E+02 -0.26836652187E+01  0.61417924449E+02  0.00000000000E+00 0. -1.
</event>
<event>
 7    1  0.2480409E-009  0.1253797E+03  0.7561462E-02  0.1234477E+00
          2   -1    0    0  501    0  0.00000000000E+00  0.00000000000E+00  0.63193531136E+03  0.63193531136E+03  0.00000000000E+00 0. -1.
         -2   -1    0    0    0  501 -0.00000000000E+00 -0.00000000000E+00 -0.52574547912E+02  0.52574547912E+02  0.00000000000E+00 0.  1.
         25    2    1    2    0    0 -0.36839646040E+02 -0.10054791646E+03  0.26023311935E+03  0.30795487076E+03  0.12509149849E+03 0.  0.
          5    1    3    3  502    0  0.25404704668E+02 -0.12244531085E+02  0.26876180882E+01  0.28636048117E+02  0.41800000000E+01 0. -1.
         -5    1    3    3    0  502 -0.62244350708E+02 -0.88303385379E+02  0.25754550126E+03  0.27931882264E+03  0.41800000000E+01 0. -1.
        -11    1    1    2    0    0  0.24028229517E+02  0.16581166002E+02 -0.14279031612E+02  0.32498948037E+02  0.00000000000E+00 0.  1.
         11    1    1    2    0    0  0.12811416523E+02  0.83966750462E+02  0.33340667572E+03  0.34405604048E+03  0.00000000000E+00 0. -1.
</event>
<event>
 7    1  0.2480409E-009  0.8658656E+02  0.7561462E-02  0.1311335E+00
         -2   -1    0    0    0  501 -0.00000000000E+00  0.00000000000E+00  0.74579944848E+03  0.74579944848E+03  0.00000000000E+00 0.  1.
          2   -1    0    0  501    0  0.00000000000E+00 -0.00000000000E+00 -0.33270399160E+02  0.33270399160E+02  0.00000000000E+00 0. -1.
         25    2    1    2    0    0 -0.20088529580E+02 -0.83442896851E+02  0.56440096480E+03  0.58443356186E+03  0.12509145900E+03 0.  0.
          5    1    3    3  502    0 -0.23025514173E+01 -0.38816725958E+02  0.51095283500E+03  0.51244737481E+03  0.41800000000E+01 0.  1.
         -5    1    3    3    0  502 -0.17785978163E+02 -0.44626170892E+02  0.53448129800E+02  0.71986187056E+02  0.41800000000E+01 0.  1.
        -11    1    1    2    0    0  0.18086965255E+02  0.72797879714E+02  0.16111761587E+03  0.17772325606E+03  0.00000000000E+00 0.  1.
         11    1    1    2    0    0  0.20015643247E+01  0.10645017137E+02 -0.12989531343E+02  0.16913029713E+02  0.00000000000E+00 0. -1.
</event>
<event>
 7    1  0.2480409E-009  0.1191520E+03  0.7561462E-02  0.1244503E+00
          1   -1    0    0  501    0  0.00000000000E+00  0.00000000000E+00  0.14655802447E+04  0.14655802447E+04  0.00000000000E+00 0. -1.
         -1   -1    0    0    0  501 -0.00000000000E+00 -0.00000000000E+00 -0.12423281568E+02  0.12423281568E+02  0.00000000000E+00 0.  1.
         25    2    1    2    0    0  0.22250757328E+02  0.54872508449E+02  0.10590716633E+04  0.10680772378E+04  0.12510039716E+03 0.  0.
          5    1    3    3  502    0  0.61256313844E+02  0.69889815742E+02  0.61108660887E+03  0.61812720234E+03  0.41800000000E+01 0.  1.
         -5    1    3    3    0  502 -0.39005556517E+02 -0.15017307293E+02  0.44798505447E+03  0.44995003543E+03  0.41800000000E+01 0.  1.
        -11    1    1    2    0    0  0.11860384218E+02 -0.66256257173E+02  0.32653808498E+03  0.33340318126E+03  0.00000000000E+00 0. -1.
         11    1    1    2    0    0 -0.34111141546E+02  0.11383748724E+02  0.67547214782E+02  0.76523107212E+02  0.00000000000E+00 0.  1.
</event>
<event>
 7    1  0.2480409E-009  0.1960028E+03  0.7561462E-02  0.1153156E+00
          1   -1    0    0  501    0  0.00000000000E+00  0.00000000000E+00  0.88781263723E+03  0.88781263723E+03  0.00000000000E+00 0. -1.
         -1   -1    0    0    0  501 -0.00000000000E+00 -0.00000000000E+00 -0.57116765573E+02  0.57116765573E+02  0.00000000000E+00 0.  1.
         25    2    1    2    0    0  0.64577343634E+02 -0.15391439953E+03  0.20989278142E+03  0.29590893324E+03  0.12508893390E+03 0.  0.
          5    1    3    3  502    0  0.33246434315E+02 -0.16644460105E+03  0.19564322741E+03  0.25904222715E+03  0.41800000000E+01 0.  1.
         -5    1    3    3    0  502  0.31330909319E+02  0.12530201517E+02  0.14249554011E+02  0.36866706095E+02  0.41800000000E+01 0.  1.
        -11    1    1    2    0    0  0.21702772202E+02  0.25121187625E+02  0.13814510371E+03  0.14207798586E+03  0.00000000000E+00 0.  1.
         11    1    1    2    0    0 -0.86280115836E+02  0.12879321190E+03  0.48265798653E+03  0.50694248370E+03  0.00000000000E+00 0. -1.
</event>
<event>
 7    1  0.2480409E-009  0.1044523E+03  0.7561462E-02  0.1271203E+00
         -3   -1    0    0    0  501 -0.00000000000E+00  0.00000000000E+00  0.83860807910E+02  0.83860807910E+02  0.00000000000E+00 0.  1.
          3   -1    0    0  501    0  0.00000000000E+00 -0.00000000000E+00 -0.21690587732E+03  0.21690587732E+03  0.00000000000E+00 0. -1.
         25    2    1    2    0    0  0.53421485940E+02 -0.39555847956E+02 -0.22391492465E+02  0.14340768710E+03  0.12508343422E+03 0.  0.
          5    1    3    3  502    0 -0.65696999810E+01 -0.46659726700E+02 -0.56673889596E+02  0.73822037465E+02  0.41800000000E+01 0. -1.
         -5    1    3    3    0  502  0.59991185921E+02  0.71038787436E+01  0.34282397131E+02  0.69585649630E+02  0.41800000000E+01 0. -1.
        -11    1    1    2    0    0 -0.33050968333E+02  0.62292487200E+02 -0.41636814974E+02  0.81892275768E+02  0.00000000000E+00 0.  1.
         11    1    1    2    0    0 -0.20370517607E+02 -0.22736639243E+02 -0.69016761967E+02  0.75466722362E+02  0.00000000000E+00 0. -1.
</event>
<event>
 7    1  0.2480409E-009  0.1098791E+03  0.7561462E-02  0.1260794E+00
         -1   -1    0    0    0  501 -0.00000000000E+00  0.00000000000E+00  0.64788594105E+02  0.64788594105E+02  0.00000000000E+00 0.  1.
          1   -1    0    0  501    0  0.00000000000E+00 -0.00000000000E+00 -0.27634436689E+03  0.27634436689E+03  0.00000000000E+00 0. -1.
         25    2    1    2    0    0 -0.33977846645E+02  0.26539609525E+02 -0.19661883799E+03  0.23699181514E+03  0.12508920040E+03 0.  0.
          5    1    3    3  502    0  0.39859825878E+02 -0.13754350055E+02 -0.10124805190E+03  0.10975713316E+03  0.41800000000E+01 0. -1.
         -5    1    3    3    0  502 -0.73837672523E+02  0.40293959580E+02 -0.95370786084E+02  0.12723468199E+03  0.41800000000E+01 0. -1.
        -11    1    1    2    0    0  0.60614115612E+02 -0.90154743630E+01  0.11948477040E+02  0.62434893233E+02  0.00000000000E+00 0.  1.
         11    1    1    2    0    0 -0.26636268968E+02 -0.17524135162E+02 -0.26885411836E+02  0.41706252616E+02  0.00000000000E+00 0. -1.
</event>
<event>
 7    1  0.2480409E-009  0.1617583E+03  0.7561462E-02  0.1186726E+00
          1   -1    0    0  501    0  0.00000000000E+00  0.00000000000E+00  0.56661066669E+03  0.56661066669E+03  0.00000000000E+00 0. -1.
         -1   -1    0    0    0  501 -0.00000000000E+00 -0.00000000000E+00 -0.68419181844E+02  0.68419181844E+02  0.00000000000E+00 0.  1.
         25    2    1    2    0    0 -0.14159842484E+03 -0.89494208387E+01  0.13033993199E+03  0.22971020842E+03  0.12509226967E+03 0.  0.
          5    1    3    3  502    0 -0.99055337269E+02 -0.34806783370E+02  0.17791471601E+02  0.10657148245E+03  0.41800000000E+01 0. -1.
         -5    1    3    3    0  502 -0.42543087569E+02  0.25857362531E+02  0.11254846039E+03  0.12313872597E+03  0.41800000000E+01 0. -1.
        -11    1    1    2    0    0  0.11434429323E+03 -0.32500590246E+02  0.23174735679E+03  0.26045679707E+03  0.00000000000E+00 0.  1.
         11    1    1    2    0    0  0.27254131606E+02  0.41450011085E+02  0.13610419606E+03  0.14486284304E+03  0.00000000000E+00 0. -1.
</event>
<event>
 7    1  0.2480409E-009  0.2019021E+03  0.7561462E-02  0.1148144E+00
          2   -1    0    0  501    0  0.00000000000E+00  0.00000000000E+00  0.10098367578E+03  0.10098367578E+03  0.00000000000E+00 0. -1.
         -2   -1    0    0    0  501 -0.00000000000E+00 -0.00000000000E+00 -0.41924371473E+03  0.41924371473E+03  0.00000000000E+00 0.  1.
         25    2    1    2    0    0 -0.11602296162E+03  0.12947682842E+03 -0.18305018798E+03  0.28174524698E+03  0.12508971244E+03 0.  0.
          5    1    3    3  502    0 -0.74085489441E+02  0.44430064006E+00 -0.39051052433E+02  0.83852932238E+02  0.41800000000E+01 0.  1.
         -5    1    3    3    0  502 -0.41937472177E+02  0.12903252778E+03 -0.14399913555E+03  0.19789231475E+03  0.41800000000E+01 0.  1.
        -11    1    1    2    0    0 -0.14126528734E+02 -0.12218563244E+02 -0.27921028087E+01  0.18885124831E+02  0.00000000000E+00 0. -1.
         11    1    1    2    0    0  0.13014949035E+03 -0.11725826518E+03 -0.13241774816E+03  0.21959701869E+03  0.00000000000E+00 0.  1.
</event>
<event>
 7    1  0.2480409E-009  0.1783290E+03  0.7561462E-02  0.1169430E+00
          1   -1    0    0  501    0  0.00000000000E+00  0.00000000000E+00  0.19425774944E+03  0.19425774944E+03  0.00000000000E+00 0. -1.
         -1   -1    0    0    0  501 -0.00000000000E+00 -0.00000000000E+00 -0.23485540664E+03  0.23485540664E+03  0.00000000000E+00 0.  1.
         25    2    1    2    0    0 -0.16288228978E+03 -0.65047859481E+02 -0.77618623194E+02  0.22898592279E+03  0.12509211735E+03 0.  0.
          5    1    3    3  502    0 -0.12309845050E+03 -0.38938267874E+02 -0.11131910772E+03  0.17052516930E+03  0.41800000000E+01 0. -1.
         -5    1    3    3    0  502 -0.39783839282E+02 -0.26109591608E+02  0.33700484527E+02  0.58460753495E+02  0.41800000000E+01 0. -1.
        -11    1    1    2    0    0  0.47154252927E+02  0.41226750001E+00 -0.25454340201E+02  0.53587470258E+02  0.00000000000E+00 0.  1.
         11    1    1    2    0    0  0.11572803685E+03  0.64635591981E+02  0.62475306195E+02  0.14653976303E+03  0.00000000000E+00 0. -1.
</event>
<event>
 7    1  0.2480409E-009  0.1474593E+03  0.7561462E-02  0.1203630E+00
         -1   -1    0    0    0  501 -0.00000000000E+00  0.00000000000E+00  0.10012464186E+03  0.10012464186E+03  0.00000000000E+00 0.  1.
          1   -1    0    0  501    0  0.00000000000E+00 -0.00000000000E+00 -0.37513206850E+03  0.37513206850E+03  0.00000000000E+00 0. -1.
         25    2    1    2    0    0  0.10679920988E+03  0.75112643313E+02 -0.25114208679E+03  0.30945750621E+03  0.12507445772E+03 0.  0.
          5    1    3    3  502    0  0.70266677784E+02  0.49000650450E+02 -0.25004466277E+03  0.26434499339E+03  0.41800000000E+01 0. -1.
         -5    1    3    3    0  502  0.36532532098E+02  0.26111992863E+02 -0.10974240155E+01  0.45112512812E+02  0.41800000000E+01 0. -1.
        -11    1    1    2    0    0  0.13777812191E+02 -0.33956489983E+02 -0.64106790858E+01  0.37201722099E+02  0.00000000000E+00 0. -1.
         11    1    1    2    0    0 -0.12057702207E+03 -0.41156153330E+02 -0.17454660762E+02  0.12859748206E+03  0.00000000000E+00 0.  1.
</event>
<event>
 7    1  0.2480409E-009  0.9701273E+02  0.7561462E-02  0.1286706E+00
          2   -1    0    0  501    0  0.00000000000E+00  0.00000000000E+00  0.29100560275E+03  0.29100560275E+03  0.00000000000E+00 0. -1.
         -2   -1    0    0    0  501 -0.00000000000E+00 -0.00000000000E+00 -0.49521336321E+02  0.49521336321E+02  0.00000000000E+00 0.  1.
         25    2    1    2    0    0 -0.48253902419E+02 -0.11696377070E+02  0.15049578763E+03  0.20189319458E+03  0.12508651242E+03 0.  0.
          5    1    3    3  502    0 -0.62490773797E+02  0.24092348434E+02  0.26776304795E+02  0.72249435716E+02  0.41800000000E+01 0.  1.
         -5    1    3    3    0  502  0.14236871378E+02 -0.35788725503E+02  0.12371948283E+03  0.12964375886E+03  0.41800000000E+01 0.  1.
        -11    1    1    2    0    0 -0.15338837175E+02  0.18716917227E+02 -0.35733763428E+01  0.24461642113E+02  0.00000000000E+00 0.  1.
         11    1    1    2    0    0  0.63592739594E+02 -0.70205401576E+01  0.94561855142E+02  0.11417210238E+03  0.00000000000E+00 0. -1.
</event>
<event>
 7    1  0.2480409E-009  0.2319691E+03  0.7561462E-02  0.1125261E+00
          2   -1    0    0  501    0  0.00000000000E+00  0.00000000000E+00  0.62792629516E+03  0.62792629516E+03  0.00000000000E+00 0. -1.
         -2   -1    0    0    0  501 -0.00000000000E+00 -0.00000000000E+00 -0.10309548099E+03  0.10309548099E+03  0.00000000000E+00 0.  1.
         25    2    1    2    0    0  0.14101972353E+03 -0.16516778377E+03  0.37746250779E+03  0.45309223327E+03  0.12509063853E+03 0.  0.
          5    1    3    3  502    0  0.11191447046E+03 -0.42823554416E+02  0.13979071727E+03  0.18416737645E+03  0.41800000000E+01 0.  1.
         -5    1    3    3    0  502  0.29105253062E+02 -0.12234422935E+03  0.23767179051E+03  0.26892485682E+03  0.41800000000E+01 0.  1.
        -11    1    1    2    0    0 -0.11244507629E+03  0.11751459108E+03  0.57963663154E+02  0.17266545846E+03  0.00000000000E+00 0.  1.
         11    1    1    2    0    0 -0.28574647234E+02  0.47653192686E+02  0.89404643225E+02  0.10526408442E+03  0.00000000000E+00 0. -1.
</event>
<event>
 7    1  0.2480409E-009  0.1111504E+03  0.7561462E-02  0.1258454E+00
         -2   -1    0    0    0  501 -0.00000000000E+00  0.00000000000E+00  0.33234695346E+03  0.33234695346E+03  0.00000000000E+00 0.  1.
          2   -1    0    0  501    0  0.00000000000E+00 -0.00000000000E+00 -0.47179948168E+02  0.47179948168E+02  0.00000000000E+00 0. -1.
         25    2    1    2    0    0  0.54237538846E+02  0.33424023358E+02  0.23103322203E+03  0.27033833190E+03  0.12509031960E+03 0.  0.
          5    1    3    3  502    0  0.45870849877E+02  0.74801195511E+02  0.19786814343E+03  0.21649163565E+03  0.41800000000E+01 0. -1.
         -5    1    3    3    0  502  0.83666889692E+01 -0.41377172153E+02  0.33165078596E+02  0.53846696258E+02  0.41800000000E+01 0. -1.
        -11    1    1    2    0    0 -0.67951731083E+02 -0.15909295522E+02  0.28864564983E+02  0.75522887610E+02  0.00000000000E+00 0. -1.
         11    1    1    2    0    0  0.13714192237E+02 -0.17514727836E+02  0.25269218283E+02  0.33665682119E+02  0.00000000000E+00 0.  1.
</event>
<event>
 7    1  0.2480409E-009  0.1327712E+03  0.7561462E-02  0.1223401E+00
         -1   -1    0    0    0  501 -0.00000000000E+00  0.00000000000E+00  0.18439336678E+03  0.18439336678E+03  0.00000000000E+00 0.  1.
          1   -1    0    0  501    0  0.00000000000E+00 -0.00000000000E+00 -0.14620387326E+03  0.14620387326E+03  0.00000000000E+00 0. -1.
         25    2    1    2    0    0  0.73563690551E+01  0.10370222714E+03  0.86255737572E+02  0.18409840815E+03  0.12507559131E+03 0.  0.
          5    1    3    3  502    0 -0.22048813271E+02 -0.21036905722E+02  0.33397738917E+02  0.45404657622E+02  0.41800000000E+01 0.  1.
         -5    1    3    3    0  502  0.29405182327E+02  0.12473913286E+03  0.52857998656E+02  0.13869375053E+03  0.41800000000E+01 0.  1.
        -11    1    1    2    0    0  0.77535650624E+01 -0.55559308248E+02 -0.71486934895E+02  0.90869887008E+02  0.00000000000E+00 0.  1.
         11    1    1    2    0    0 -0.15109934117E+02 -0.48142918894E+02  0.23420690840E+02  0.55628944876E+02  0.00000000000E+00 0. -1.
</event>
<event>
 7    1  0.2480409E-009  0.1821164E+03  0.7561462E-02  0.1165770E+00
          1   -1    0    0  501    0  0.00000000000E+00  0.00000000000E+00  0.48438868376E+03  0.48438868376E+03  0.00000000000E+00 0. -1.
         -1   -1    0    0    0  501 -0.00000000000E+00 -0.00000000000E+00 -0.77710509143E+02  0.77710509143E+02  0.00000000000E+00 0.  1.
         25    2    1    2    0    0 -0.58475096378E+02 -0.14252998701E+03  0.27604783161E+03  0.33997595609E+03  0.12508841388E+03 0.  0.
          5    1    3    3  502    0 -0.83984768789E+02 -0.58188585896E+02  0.99815091287E+02  0.14289813773E+03  0.41800000000E+01 0.  1.
         -5    1    3    3    0  502  0.25509672411E+02 -0.84341401112E+02  0.17623274032E+03  0.19707781836E+03  0.41800000000E+01 0.  1.
        -11    1    1    2    0    0  0.38623055363E+01  0.11025654105E+03  0.54573807005E+02  0.12308420963E+03  0.00000000000E+00 0.  1.
         11    1    1    2    0    0  0.54612790841E+02  0.32273445953E+02  0.76056535999E+02  0.99039027183E+02  0.00000000000E+00 0. -1.
</event>
<event>
 7    1  0.2480409E-009  0.9588572E+02  0.7561462E-02  0.1289194E+00
          1   -1    0    0  501    0  0.00000000000E+00  0.00000000000E+00  0.14525201296E+03  0.14525201296E+03  0.00000000000E+00 0. -1.
         -1   -1    0    0    0  501 -0.00000000000E+00 -0.00000000000E+00 -0.85224292853E+02  0.85224292853E+02  0.00000000000E+00 0.  1.
         25    2    1    2    0    0  0.83681720985E+01  0.16966253844E+02  0.53377254841E+02  0.13730853069E+03  0.12508645487E+03 0.  0.
          5    1    3    3  502    0  0.36832065547E+02 -0.40881361190E+02  0.27936881833E+01  0.55255441713E+02  0.41800000000E+01 0. -1.
         -5    1    3    3    0  502 -0.28463893448E+02  0.57847615034E+02  0.50583566658E+02  0.82053088980E+02  0.41800000000E+01 0. -1.
        -11    1    1    2    0    0  0.28261267481E+02  0.58025547079E+01 -0.26184882613E+02  0.38961737105E+02  0.00000000000E+00 0.  1.
         11    1    1    2    0    0 -0.36629439580E+02 -0.22768808552E+02  0.32835347875E+02  0.54206038011E+02  0.00000000000E+00 0. -1.
</event>
<event>
 7    1  0.2480409E-009  0.7945814E+02  0.7561462E-02  0.1330596E+00
          1   -1    0    0  501    0  0.00000000000E+00  0.00000000000E+00  0.27582574705E+03  0.27582574705E+03  0.00000000000E+00 0. -1.
         -1   -1    0    0    0  501 -0.00000000000E+00 -0.00000000000E+00 -0.73194838796E+02  0.73194838796E+02  0.00000000000E+00 0.  1.
         25    2    1    2    0    0  0.10676107889E+02 -0.71758379654E+02  0.17785682571E+03  0.22922461100E+03  0.12509047728E+03 0.  0.
          5    1    3    3  502    0 -0.95388292371E+01 -0.63140514603E+02  0.16179696384E+02  0.66007339157E+02  0.41800000000E+01 0.  1.
         -5    1    3    3    0  502  0.20214937126E+02 -0.86178650519E+01  0.16167712932E+03  0.16321727184E+03  0.41800000000E+01 0.  1.
        -11    1    1    2    0    0 -0.37770867900E+01  0.22654797598E+02 -0.35167427484E+02  0.42003026018E+02  0.00000000000E+00 0.  1.
         11    1    1    2    0    0 -0.68990210988E+01  0.49103582057E+02  0.59941510031E+02  0.77792948830E+02  0.00000000000E+00 0. -1.
</event>
<event>
 7    1  0.2480409E-009  0.1367219E+03  0.7561462E-02  0.1217809E+00
          1   -1    0    0  501    0  0.00000000000E+00  0.00000000000E+00  0.31849731225E+03  0.31849731225E+03  0.00000000000E+00 0. -1.
         -1   -1    0    0    0  501 -0.00000000000E+00 -0.00000000000E+00 -0.10342245731E+03  0.10342245731E+03  0.00000000000E+00 0.  1.
         25    2    1    2    0    0  0.70500543715E+02 -0.11051336764E+03  0.18663889018E+03  0.26012754908E+03  0.12509490546E+03 0.  0.
          5    1    3    3  502    0 -0.20298118146E+01  0.35648932405E+01  0.98546706494E+02  0.98720587319E+02  0.41800000000E+01 0.  1.
         -5    1    3    3    0  502  0.72530355529E+02 -0.11407826088E+03  0.88092183691E+02  0.16140696176E+03  0.41800000000E+01 0.  1.
        -11    1    1    2    0    0 -0.23442495778E+02  0.53521417146E+02 -0.31730364732E+02  0.66489914631E+02  0.00000000000E+00 0.  1.
         11    1    1    2    0    0 -0.47058047936E+02  0.56991950490E+02  0.60166329480E+02  0.95302305845E+02  0.00000000000E+00 0. -1.
</event>
<event>
 7    1  0.2480409E-009  0.9628168E+02  0.7561462E-02  0.1288315E+00
          1   -1    0    0  501    0  0.00000000000E+00  0.00000000000E+00  0.15086634371E+03  0.15086634371E+03  0.00000000000E+00 0. -1.
         -1   -1    0    0    0  501 -0.00000000000E+00 -0.00000000000E+00 -0.11555774918E+03  0.11555774918E+03  0.00000000000E+00 0.  1.
         25    2    1    2    0    0 -0.27175296013E+02  0.82044230335E+02  0.39307409125E+02  0.15704897379E+03  0.12509818269E+03 0.  0.
          5    1    3    3  502    0 -0.39022488609E+02  0.40937711509E+02  0.79864953518E+02  0.97951692386E+02  0.41800000000E+01 0.  1.
         -5    1    3    3    0  502  0.11847192596E+02  0.41106518826E+02 -0.40557544393E+02  0.59097281407E+02  0.41800000000E+01 0.  1.
        -11    1    1    2    0    0 -0.70197257423E+01 -0.28386914206E+02 -0.28839595751E+02  0.41070862308E+02  0.00000000000E+00 0.  1.
         11    1    1    2    0    0  0.34195021755E+02 -0.53657316129E+02  0.24840781150E+02  0.68304256787E+02  0.00000000000E+00 0. -1.
</event>
<event>
 7    1  0.2480409E-009  0.8540482E+02  0.7561462E-02  0.1314377E+00
          1   -1    0    0  501    0  0.00000000000E+00  0.00000000000E+00  0.17716710246E+03  0.17716710246E+03  0.00000000000E+00 0. -1.
         -1   -1    0    0    0  501 -0.00000000000E+00 -0.00000000000E+00 -0.66915908528E+02  0.66915908528E+02  0.00000000000E+00 0.  1.
         25    2    1    2    0    0 -0.13438466845E+01 -0.11846113958E+02  0.44449727206E+02  0.13328668349E+03  0.12508966947E+03 0.  0.
          5    1    3    3  502    0 -0.40419470522E+02  0.39373173741E+02  0.38536234396E+02  0.68457973744E+02  0.41800000000E+01 0.  1.
         -5    1    3    3    0  502  0.39075623838E+02 -0.51219287699E+02  0.59134928102E+01  0.64828709750E+02  0.41800000000E+01 0.  1.
        -11    1    1    2    0    0 -0.58618403599E+01 -0.18018593867E+02 -0.15118701423E+02  0.24240586421E+02  0.00000000000E+00 0.  1.
         11    1    1    2    0    0  0.72056870445E+01  0.29864707825E+02  0.80920168148E+02  0.86555741071E+02  0.00000000000E+00 0. -1.
</event>
<event>
 7    1  0.2480409E-009  0.2337892E+03  0.7561462E-02  0.1124001E+00
          2   -1    0    0  501    0  0.00000000000E+00  0.00000000000E+00  0.60031879026E+03  0.60031879026E+03  0.00000000000E+00 0. -1.
         -2   -1    0    0    0  501 -0.00000000000E+00 -0.00000000000E+00 -0.10757665770E+03  0.10757665770E+03  0.00000000000E+00 0.  1.
         25    2    1    2    0    0 -0.71980884791E+02 -0.20665117594E+03  0.34585565077E+03  0.42796266145E+03  0.12509976872E+03 0.  0.
          5    1    3    3  502    0 -0.14184201638E+02  0.10560109379E+02  0.68875547832E+02  0.71232162507E+02  0.41800000000E+01 0.  1.
         -5    1    3    3    0  502 -0.57796683154E+02 -0.21721128531E+03  0.27698010294E+03  0.35673049894E+03  0.41800000000E+01 0.  1.
        -11    1    1    2    0    0  0.15323262248E+02  0.12060839361E+03  0.32201263917E+02  0.12577006152E+03  0.00000000000E+00 0.  1.
         11    1    1    2    0    0  0.56657622544E+02  0.86042782322E+02  0.11468521787E+03  0.15416272500E+03  0.00000000000E+00 0. -1.
</event>
<event>
 7    1  0.2480409E-009  0.1525019E+03  0.7561462E-02  0.1197432E+00
          3   -1    0    0  501    0  0.00000000000E+00  0.00000000000E+00  0.26084094969E+03  0.26084094969E+03  0.00000000000E+00 0. -1.
         -3   -1    0    0    0  501 -0.00000000000E+00 -0.00000000000E+00 -0.16292241537E+03  0.16292241537E+03  0.00000000000E+00 0.  1.
         25    2    1    2    0    0 -0.13955835954E+02 -0.13090604002E+03 -0.67680852804E+02  0.19380437805E+03  0.12509309512E+03 0.  0.
          5    1    3    3  502    0  0.16692436396E+02 -0.40721757687E+01  0.27181704484E+02  0.32427419061E+02  0.41800000000E+01 0. -1.
         -5    1    3    3    0  502 -0.30648272350E+02 -0.12683386425E+03 -0.94862557288E+02  0.16137695899E+03  0.41800000000E+01 0. -1.
        -11    1    1    2    0    0  0.45821134780E+02  0.41375661776E+02  0.44901711924E+02  0.76339278970E+02  0.00000000000E+00 0.  1.
         11    1    1    2    0    0 -0.31865298826E+02  0.89530378241E+02  0.12069767520E+03  0.15361970803E+03  0.00000000000E+00 0. -1.
</event>
<event>
 7    1  0.2480409E-009  0.1832768E+03  0.7561462E-02  0.1164669E+00
          2   -1    0    0  501    0  0.00000000000E+00  0.00000000000E+00  0.12123314283E+03  0.12123314283E+03  0.00000000000E+00 0. -1.
         -2   -1    0    0    0  501 -0.00000000000E+00 -0.00000000000E+00 -0.40729862033E+03  0.40729862033E+03  0.00000000000E+00 0.  1.
         25    2    1    2    0    0  0.13006172998E+03 -0.90098497285E+02 -0.27902498690E+03  0.34429055775E+03  0.12508897645E+03 0.  0.
          5    1    3    3  502    0  0.82502388524E+02 -0.11705797951E+03 -0.22867972899E+03  0.26985385958E+03  0.41800000000E+01 0.  1.
         -5    1    3    3    0  502  0.47559341455E+02  0.26959482225E+02 -0.50345257905E+02  0.74436698174E+02  0.41800000000E+01 0.  1.
        -11    1    1    2    0    0 -0.10267027652E+03  0.37784190866E+02  0.31352632732E+02  0.11380605581E+03  0.00000000000E+00 0.  1.
         11    1    1    2    0    0 -0.27391453456E+02  0.52314306419E+02 -0.38393123340E+02  0.70435149594E+02  0.00000000000E+00 0. -1.
</event>
<event>
 7    1  0.2873083E-009  0.1455912E+03  0.7561462E-02  0.1205998E+00
         -1   -1    0    0    0  501 -0.00000000000E+00  0.00000000000E+00  0.79224357610E+02  0.79224357610E+02  0.00000000000E+00 0.  1.
          1   -1    0    0  501    0  0.00000000000E+00 -0.00000000000E+00 -0.41281487937E+03  0.41281487937E+03  0.00000000000E+00 0. -1.
         25    2    1    2    0    0 -0.11553351739E+03 -0.71400272262E+02 -0.24142671239E+03  0.30394173494E+03  0.12509088002E+03 0.  0.
          5    1    3    3  502    0 -0.50170212215E+02 -0.17023403539E+02 -0.20424967587E+03  0.21105034697E+03  0.41800000000E+01 0.  1.
         -5    1    3    3    0  502 -0.65363305175E+02 -0.54376868723E+02 -0.37177036519E+02  0.92891387974E+02  0.41800000000E+01 0.  1.
        -11    1    1    2    0    0  0.69539755395E+02  0.18949500440E+01 -0.76306561945E+02  0.10325725065E+03  0.00000000000E+00 0. -1.
         11    1    1    2    0    0  0.45993761995E+02  0.69505322218E+02 -0.15857247423E+02  0.84840251384E+02  0.00000000000E+00 0.  1.
</event>
<event>
 7    1  0.2480409E-009  0.2169786E+03  0.7561462E-02  0.1136156E+00
         -2   -1    0    0    0  501 -0.00000000000E+00  0.00000000000E+00  0.43057263595E+02  0.43057263595E+02  0.00000000000E+00 0.  1.
          2   -1    0    0  501    0  0.00000000000E+00 -0.00000000000E+00 -0.14547071921E+04  0.14547071921E+04  0.00000000000E+00 0. -1.
         25    2    1    2    0    0 -0.14800570411E+03 -0.14993261855E+03 -0.48729648550E+03  0.54542842677E+03  0.12509526526E+03 0.  0.
          5    1    3    3  502    0 -0.24740524329E+02 -0.33643758773E+02 -0.25176294548E+03  0.25523724094E+03  0.41800000000E+01 0. -1.
         -5    1    3    3    0  502 -0.12326517978E+03 -0.11628885978E+03 -0.23553354002E+03  0.29019118582E+03  0.41800000000E+01 0. -1.
        -11    1    1    2    0    0  0.13387404142E+03  0.91009229787E+02 -0.55805873691E+03  0.58106324330E+03  0.00000000000E+00 0.  1.
         11    1    1    2    0    0  0.14131662689E+02  0.58923388763E+02 -0.36629470612E+03  0.37127278565E+03  0.00000000000E+00 0. -1.
</event>
<event>
 7    1  0.2480409E-009  0.1219397E+03  0.7561462E-02  0.1239931E+00
         -2   -1    0    0    0  501 -0.00000000000E+00  0.00000000000E+00  0.27939896027E+03  0.27939896027E+03  0.00000000000E+00 0. -1.
          2   -1    0    0  501    0  0.00000000000E+00 -0.00000000000E+00 -0.81050066810E+02  0.81050066810E+02  0.00000000000E+00 0.  1.
         25    2    1    2    0    0  0.74799925169E+02 -0.52988943355E+02  0.88255112952E+02  0.17843462282E+03  0.12508833973E+03 0.  0.
          5    1    3    3  502    0  0.35967796774E+01  0.16276977741E+02  0.76396831073E+02  0.78305970567E+02  0.41800000000E+01 0.  1.
         -5    1    3    3    0  502  0.71203145492E+02 -0.69265921096E+02  0.11858281879E+02  0.10012865225E+03  0.41800000000E+01 0.  1.
        -11    1    1    2    0    0  0.36703184496E+00  0.52096176529E+02  0.43567327121E+01  0.52279321354E+02  0.00000000000E+00 0.  1.
         11    1    1    2    0    0 -0.75166957014E+02  0.89276682625E+00  0.10573704780E+03  0.12973508290E+03  0.00000000000E+00 0. -1.
</event>
<event>
 7    1  0.2480409E-009  0.1285435E+03  0.7561462E-02  0.1229633E+00
          2   -1    0    0  501    0  0.00000000000E+00  0.00000000000E+00  0.41903334574E+03  0.41903334574E+03  0.00000000000E+00 0. -1.
         -2   -1    0    0    0  501 -0.00000000000E+00 -0.00000000000E+00 -0.44597975817E+02  0.44597975817E+02  0.00000000000E+00 0.  1.
         25    2    1    2    0    0 -0.17009338772E+02  0.65885662518E+02  0.26794763320E+03  0.30343566970E+03  0.12508810245E+03 0.  0.
          5    1    3    3  502    0  0.51543245136E+02  0.44728524040E+02  0.10441587358E+03  0.12480983149E+03  0.41800000000E+01 0.  1.
         -5    1    3    3    0  502 -0.68552583908E+02  0.21157138478E+02  0.16353175962E+03  0.17862583820E+03  0.41800000000E+01 0.  1.
        -11    1    1    2    0    0 -0.21780280232E+02  0.15473003898E+02  0.11014722429E+02  0.28898418068E+02  0.00000000000E+00 0. -1.
         11    1    1    2    0    0  0.38789619004E+02 -0.81358666416E+02  0.95473014294E+02  0.13129723379E+03  0.00000000000E+00 0.  1.
</event>
<event>
 7    1  0.2480409E-009  0.1157795E+03  0.7561462E-02  0.1250227E+00
         -2   -1    0    0    0  501 -0.00000000000E+00  0.00000000000E+00  0.68624523194E+02  0.68624523194E+02  0.00000000000E+00 0.  1.
          2   -1    0    0  501    0  0.00000000000E+00 -0.00000000000E+00 -0.22189942898E+03  0.22189942898E+03  0.00000000000E+00 0. -1.
         25    2    1    2    0    0  0.26477112555E+02 -0.35672196365E+02 -0.13616691658E+03  0.19016581016E+03  0.12509221838E+03 0.  0.
          5    1    3    3  502    0  0.67058127837E+02  0.13805687340E+02 -0.68464048620E+02  0.96913300766E+02  0.41800000000E+01 0. -1.
         -5    1    3    3    0  502 -0.40581015282E+02 -0.49477883705E+02 -0.67702867963E+02  0.93252509390E+02  0.41800000000E+01 0. -1.
        -11    1    1    2    0    0  0.27691924657E+02 -0.84741919488E+01 -0.64664544427E+01  0.29672708900E+02  0.00000000000E+00 0. -1.
         11    1    1    2    0    0 -0.54169037212E+02  0.44146388314E+02 -0.10641534766E+02  0.70685433123E+02  0.00000000000E+00 0.  1.
</event>
<event>
 7    1  0.2480409E-009  0.1555327E+03  0.7561462E-02  0.1193835E+00
          1   -1    0    0  501    0  0.00000000000E+00  0.00000000000E+00  0.89643142247E+03  0.89643142247E+03  0.00000000000E+00 0. -1.
         -1   -1    0    0    0  501 -0.00000000000E+00 -0.00000000000E+00 -0.42013016206E+02  0.42013016206E+02  0.00000000000E+00 0.  1.
         25    2    1    2    0    0  0.13619953350E+03  0.14541995898E+02  0.24520828236E+03  0.30747000586E+03  0.12509564419E+03 0.  0.
          5    1    3    3  502    0  0.14173130390E+03  0.85715388768E+01  0.25633538478E+03  0.29306404705E+03  0.41800000000E+01 0. -1.
         -5    1    3    3    0  502 -0.55317703979E+01  0.59704570210E+01 -0.11127102425E+02  0.14405958807E+02  0.41800000000E+01 0. -1.
        -11    1    1    2    0    0 -0.11717553913E+03  0.21478844366E+02  0.38209472894E+03  0.40023471814E+03  0.00000000000E+00 0.  1.
         11    1    1    2    0    0 -0.19023994367E+02 -0.36020840264E+02  0.22711539497E+03  0.23073971468E+03  0.00000000000E+00 0. -1.
</event>
<event>
 7    1  0.2699162E-009  0.1043651E+03  0.7561462E-02  0.1271376E+00
         -1   -1    0    0    0  501 -0.00000000000E+00  0.00000000000E+00  0.39998184974E+02  0.39998184974E+02  0.00000000000E+00 0.  1.
          1   -1    0    0  501    0  0.00000000000E+00 -0.00000000000E+00 -0.42403744242E+03  0.42403744242E+03  0.00000000000E+00 0. -1.
         25    2    1    2    0    0 -0.13082971047E+02  0.65584710300E+02 -0.26015097007E+03  0.29630801730E+03  0.12508955004E+03 0.  0.
          5    1    3    3  502    0  0.30586670130E+02  0.19537338772E+02 -0.21556037024E+03  0.21863439257E+03  0.41800000000E+01 0.  1.
         -5    1    3    3    0  502 -0.43669641178E+02  0.46047371528E+02 -0.44590599831E+02  0.77673624729E+02  0.41800000000E+01 0.  1.
        -11    1    1    2    0    0  0.47901251121E+02 -0.21726305046E+02 -0.36816683004E+02  0.64203039939E+02  0.00000000000E+00 0.  1.
         11    1    1    2    0    0 -0.34818280074E+02 -0.43858405254E+02 -0.87071604369E+02  0.10352457016E+03  0.00000000000E+00 0. -1.
</event>
<event>
 7    1  0.2480409E-009  0.1107522E+03  0.7561462E-02  0.1259183E+00
         -1   -1    0    0    0  501 -0.00000000000E+00  0.00000000000E+00  0.74282672780E+02  0.74282672780E+02  0.00000000000E+00 0.  1.
          1   -1    0    0  501    0  0.00000000000E+00 -0.00000000000E+00 -0.35084135603E+03  0.35084135603E+03  0.00000000000E+00 0. -1.
         25    2    1    2    0    0 -0.35422273989E+02 -0.50860773527E+02 -0.14270417756E+02  0.14032646136E+03  0.12508523157E+03 0.  0.
          5    1    3    3  502    0 -0.42257248721E+02  0.24917916016E+02 -0.36110355125E+02  0.61057413598E+02  0.41800000000E+01 0.  1.
         -5    1    3    3    0  502  0.68349747327E+01 -0.75778689543E+02  0.21839937368E+02  0.79269047760E+02  0.41800000000E+01 0.  1.
        -11    1    1    2    0    0  0.55547233383E+02  0.19626820431E+02 -0.83509837549E+02  0.10219882673E+03  0.00000000000E+00 0.  1.
         11    1    1    2    0    0 -0.20124959395E+02  0.31233953096E+02 -0.17877842795E+03  0.18259874073E+03  0.00000000000E+00 0. -1.
</event>
<event>
 7    1  0.2480409E-009  0.1059949E+03  0.7561462E-02  0.1268172E+00
         -2   -1    0    0    0  501 -0.00000000000E+00  0.00000000000E+00  0.55566410980E+03  0.55566410980E+03  0.00000000000E+00 0.  1.
          2   -1    0    0  501    0  0.00000000000E+00 -0.00000000000E+00 -0.27384029806E+02  0.27384029806E+02  0.00000000000E+00 0. -1.
         25    2    1    2    0    0  0.76480898764E+01 -0.33108146130E+02  0.40754340808E+03  0.42765955288E+03  0.12508565500E+03 0.  0.
          5    1    3    3  502    0 -0.46696486954E+02 -0.43317396955E+02  0.29938661812E+03  0.30611562895E+03  0.41800000000E+01 0.  1.
         -5    1    3    3    0  502  0.54344576831E+02  0.10209250826E+02  0.10815678995E+03  0.12154392394E+03  0.41800000000E+01 0.  1.
        -11    1    1    2    0    0 -0.46478549772E+02  0.10076162803E+02  0.36997958994E+02  0.60254739361E+02  0.00000000000E+00 0. -1.
         11    1    1    2    0    0  0.38830459896E+02  0.23031983327E+02  0.83738712926E+02  0.95133847363E+02  0.00000000000E+00 0.  1.
</event>
<event>
 7    1  0.2480409E-009  0.1069878E+03  0.7561462E-02  0.1266252E+00
         -2   -1    0    0    0  501 -0.00000000000E+00  0.00000000000E+00  0.22973536958E+02  0.22973536958E+02  0.00000000000E+00 0. -1.
          2   -1    0    0  501    0  0.00000000000E+00 -0.00000000000E+00 -0.70199426861E+03  0.70199426861E+03  0.00000000000E+00 0.  1.
         25    2    1    2    0    0  0.46753775293E+01 -0.29739540483E+01 -0.53240319397E+03  0.54692943345E+03  0.12509172900E+03 0.  0.
          5    1    3    3  502    0 -0.51027768755E+02  0.21039440296E+02 -0.15342839479E+03  0.16310804996E+03  0.41800000000E+01 0.  1.
         -5    1    3    3    0  502  0.55703146284E+02 -0.24013394344E+02 -0.37897479917E+03  0.38382138349E+03  0.41800000000E+01 0.  1.
        -11    1    1    2    0    0  0.30504925498E+02  0.37626817673E+02 -0.50485739643E+02  0.69965261346E+02  0.00000000000E+00 0.  1.
         11    1    1    2    0    0 -0.35180303027E+02 -0.34652863625E+02 -0.96131798045E+02  0.10807311078E+03  0.00000000000E+00 0. -1.
</event>
<event>
 7    1  0.2480409E-009  0.1442541E+03  0.7561462E-02  0.1207717E+00
         -2   -1    0    0    0  501 -0.00000000000E+00  0.00000000000E+00  0.24204877492E+03  0.24204877492E+03  0.00000000000E+00 0.  1.
          2   -1    0    0  501    0  0.00000000000E+00 -0.00000000000E+00 -0.10966495259E+03  0.10966495259E+03  0.00000000000E+00 0. -1.
         25    2    1    2    0    0  0.94200949831E+02  0.71295890941E+02  0.50114939443E+02  0.17922033562E+03  0.12510594922E+03 0.  0.
          5    1    3    3  502    0 -0.99343691823E+01  0.63161886498E+02  0.36662319190E+02  0.73822175837E+02  0.41800000000E+01 0. -1.
         -5    1    3    3    0  502  0.10413531901E+03  0.81340044431E+01  0.13452620254E+02  0.10539815978E+03  0.41800000000E+01 0. -1.
        -11    1    1    2    0    0 -0.41712670397E+02 -0.19112396047E+02  0.86968603893E+02  0.98329896865E+02  0.00000000000E+00 0.  1.
         11    1    1    2    0    0 -0.52488279433E+02 -0.52183494894E+02 -0.46997210106E+01  0.74163495028E+02  0.00000000000E+00 0. -1.
</event>
<event>
 7    1  0.2480409E-009  0.1827537E+03  0.7561462E-02  0.1165164E+00
         -1   -1    0    0    0  501 -0.00000000000E+00  0.00000000000E+00  0.35533879013E+03  0.35533879013E+03  0.00000000000E+00 0.  1.
          1   -1    0    0  501    0  0.00000000000E+00 -0.00000000000E+00 -0.16426587028E+03  0.16426587028E+03  0.00000000000E+00 0. -1.
         25    2    1    2    0    0  0.15906658407E+03 -0.27353993586E+02  0.23294747546E+03  0.30977821054E+03  0.12509034442E+03 0.  0.
          5    1    3    3  502    0  0.12835193694E+03 -0.10764796746E+02  0.24137653248E+03  0.27362420104E+03  0.41800000000E+01 0. -1.
         -5    1    3    3    0  502  0.30714647134E+02 -0.16589196840E+02 -0.84290570164E+01  0.36154009495E+02  0.41800000000E+01 0. -1.
        -11    1    1    2    0    0 -0.58535402567E+02  0.70883696307E+02  0.16570145398E+01  0.91943664562E+02  0.00000000000E+00 0.  1.
         11    1    1    2    0    0 -0.10053118150E+03 -0.43529702721E+02 -0.43531570150E+02  0.11788278531E+03  0.00000000000E+00 0. -1.
</event>
<event>
 7    1  0.2480409E-009  0.7044028E+02  0.7561462E-02  0.1358602E+00
         -4   -1    0    0    0  501 -0.00000000000E+00  0.00000000000E+00  0.28032353455E+02  0.28032353455E+02  0.00000000000E+00 0.  1.
          4   -1    0    0  501    0  0.00000000000E+00 -0.00000000000E+00 -0.46616719324E+03  0.46616719324E+03  0.00000000000E+00 0. -1.
         25    2    1    2    0    0 -0.13066623389E+02  0.40156804674E+02 -0.29509411425E+03  0.32328199488E+03  0.12508959325E+03 0.  0.
          5    1    3    3  502    0  0.36080590926E+02  0.29877227061E+02 -0.25384787481E+03  0.25816791761E+03  0.41800000000E+01 0.  1.
         -5    1    3    3    0  502 -0.49147214315E+02  0.10279577614E+02 -0.41246239444E+02  0.65114077273E+02  0.41800000000E+01 0.  1.
        -11    1    1    2    0    0  0.10364153695E+02 -0.15410043659E+02  0.62277563256E+01  0.19587497957E+02  0.00000000000E+00 0.  1.
         11    1    1    2    0    0  0.27024696945E+01 -0.24746761015E+02 -0.14926848186E+03  0.15133005385E+03  0.00000000000E+00 0. -1.
</event>
<event>
 7    1  0.2480409E-009  0.1137701E+03  0.7561462E-02  0.1253743E+00
         -2   -1    0    0    0  501 -0.00000000000E+00  0.00000000000E+00  0.23150317599E+02  0.23150317599E+02  0.00000000000E+00 0.  1.
          2   -1    0    0  501    0  0.00000000000E+00 -0.00000000000E+00 -0.69698596763E+03  0.69698596763E+03  0.00000000000E+00 0. -1.
         25    2    1    2    0    0 -0.18662327144E+02  0.64094526876E+02 -0.35113826791E+03  0.37868726689E+03  0.12509824972E+03 0.  0.
          5    1    3    3  502    0 -0.56453190539E+02  0.49576594931E+02 -0.31625770987E+03  0.32508646994E+03  0.41800000000E+01 0.  1.
         -5    1    3    3    0  502  0.37790863395E+02  0.14517931944E+02 -0.34880558042E+02  0.53600796947E+02  0.41800000000E+01 0.  1.
        -11    1    1    2    0    0 -0.34725042883E+02 -0.40146412248E+02 -0.15215988907E+03  0.16115270666E+03  0.00000000000E+00 0. -1.
         11    1    1    2    0    0  0.53387370028E+02 -0.23948114627E+02 -0.17053749305E+03  0.18029631169E+03  0.00000000000E+00 0.  1.
</event>
<event>
 7    1  0.2480409E-009  0.1192190E+03  0.7561462E-02  0.1244391E+00
          2   -1    0    0  501    0  0.00000000000E+00  0.00000000000E+00  0.66931451536E+03  0.66931451536E+03  0.00000000000E+00 0. -1.
         -2   -1    0    0    0  501 -0.00000000000E+00 -0.00000000000E+00 -0.32077410637E+02  0.32077410637E+02  0.00000000000E+00 0.  1.
         25    2    1    2    0    0  0.49266762001E+02 -0.67247119936E+02  0.22019794217E+03  0.26661601586E+03  0.12509027619E+03 0.  0.
          5    1    3    3  502    0  0.42247778989E+01 -0.76088956906E+02  0.20392037007E+03  0.21773462711E+03  0.41800000000E+01 0.  1.
         -5    1    3    3    0  502  0.45041984102E+02  0.88418369701E+01  0.16277572101E+02  0.48881388753E+02  0.41800000000E+01 0.  1.
        -11    1    1    2    0    0 -0.68494162951E+01  0.72910906483E+02  0.18773318770E+03  0.20151095393E+03  0.00000000000E+00 0.  1.
         11    1    1    2    0    0 -0.42417345706E+02 -0.56637865475E+01  0.22930597484E+03  0.23326495621E+03  0.00000000000E+00 0. -1.
</event>
<event>
 7    1  0.2480409E-009  0.1176530E+03  0.7561462E-02  0.1247020E+00
          2   -1    0    0  501    0  0.00000000000E+00  0.00000000000E+00  0.13074312719E+04  0.13074312719E+04  0.00000000000E+00 0. -1.
         -2   -1    0    0    0  501 -0.00000000000E+00 -0.00000000000E+00 -0.16696784492E+02  0.16696784492E+02  0.00000000000E+00 0.  1.
         25    2    1    2    0    0 -0.66596441434E+02 -0.39770213718E+02  0.98857680741E+03  0.99947414599E+03  0.12509080074E+03 0.  0.
          5    1    3    3  502    0  0.20423604680E+02 -0.26336005309E+02  0.81867311805E+02  0.88489761814E+02  0.41800000000E+01 0.  1.
         -5    1    3    3    0  502 -0.87020046114E+02 -0.13434208409E+02  0.90670949561E+03  0.91098438417E+03  0.41800000000E+01 0.  1.
        -11    1    1    2    0    0  0.20834742160E+02 -0.26078348328E+02  0.50542386039E+02  0.60569790481E+02  0.00000000000E+00 0.  1.
         11    1    1    2    0    0  0.45761699274E+02  0.65848562046E+02  0.25161529399E+03  0.26408411996E+03  0.00000000000E+00 0. -1.
</event>
<event>
 7    1  0.2480409E-009  0.1112759E+03  0.7561462E-02  0.1258225E+00
          2   -1    0    0  501    0  0.00000000000E+00  0.00000000000E+00  0.29123131697E+03  0.29123131697E+03  0.00000000000E+00 0. -1.
         -2   -1    0    0    0  501 -0.00000000000E+00 -0.00000000000E+00 -0.69269201398E+02  0.69269201398E+02  0.00000000000E+00 0.  1.
         25    2    1    2    0    0  0.47752744814E+01 -0.42102473270E+02  0.22524545292E+02  0.13397985773E+03  0.12509126922E+03 0.  0.
          5    1    3    3  502    0 -0.51577210513E+02 -0.91374146330E+01  0.40261706678E+02  0.66198024254E+02  0.41800000000E+01 0. -1.
         -5    1    3    3    0  502  0.56352484995E+02 -0.32965058637E+02 -0.17737161386E+02  0.67781833481E+02  0.41800000000E+01 0. -1.
        -11    1    1    2    0    0 -0.47918100822E+02  0.59283712723E+01  0.66750294837E+02  0.82382594236E+02  0.00000000000E+00 0.  1.
         11    1    1    2    0    0  0.43142826340E+02  0.36174101997E+02  0.13268727544E+03  0.14413806640E+03  0.00000000000E+00 0. -1.
</event>
<event>
 7    1  0.2480409E-009  0.1112120E+03  0.7561462E-02  0.1258342E+00
          2   -1    0    0  501    0  0.00000000000E+00  0.00000000000E+00  0.18860363908E+03  0.18860363908E+03  0.00000000000E+00 0. -1.
         -2   -1    0    0    0  501 -0.00000000000E+00 -0.00000000000E+00 -0.10471217535E+03  0.10471217535E+03  0.00000000000E+00 0.  1.
         25    2    1    2    0    0  0.13778047019E+01  0.86724558500E+02  0.44617281361E+02  0.15862275979E+03  0.12508969076E+03 0.  0.
          5    1    3    3  502    0 -0.27354230354E+02  0.18713432801E+02 -0.36077975269E+02  0.49168477554E+02  0.41800000000E+01 0. -1.
         -5    1    3    3    0  502  0.28732035056E+02  0.68011125698E+02  0.80695256630E+02  0.10945428224E+03  0.41800000000E+01 0. -1.
        -11    1    1    2    0    0  0.11191758607E+02  0.11498106240E+02  0.31516517029E+02  0.35365982999E+02  0.00000000000E+00 0. -1.
         11    1    1    2    0    0 -0.12569563309E+02 -0.98222664739E+02  0.77576653425E+01  0.99327071646E+02  0.00000000000E+00 0.  1.
</event>
<event>
 7    1  0.2480409E-009  0.1213162E+03  0.7561462E-02  0.1240941E+00
          2   -1    0    0  501    0  0.00000000000E+00  0.00000000000E+00  0.16620982092E+04  0.16620982092E+04  0.00000000000E+00 0. -1.
         -2   -1    0    0    0  501 -0.00000000000E+00 -0.00000000000E+00 -0.11432684413E+02  0.11432684413E+02  0.00000000000E+00 0.  1.
         25    2    1    2    0    0 -0.38391645847E+02 -0.34871781761E+02  0.12700473589E+04  0.12772468470E+04  0.12509698078E+03 0.  0.
          5    1    3    3  502    0 -0.81377713117E+02 -0.33052929059E+01  0.71974143035E+03  0.72434691696E+03  0.41800000000E+01 0.  1.
         -5    1    3    3    0  502  0.42986067270E+02 -0.31566488855E+02  0.55030592856E+03  0.55289993002E+03  0.41800000000E+01 0.  1.
        -11    1    1    2    0    0 -0.27779699754E+02  0.30522147156E+02  0.19089165451E+03  0.19530216831E+03  0.00000000000E+00 0.  1.
         11    1    1    2    0    0  0.66171345601E+02  0.43496346050E+01  0.18972651134E+03  0.20098187830E+03  0.00000000000E+00 0. -1.
</event>
<event>
 7    1  0.2480409E-009  0.6826138E+02  0.7561462E-02  0.1366107E+00
         -1   -1    0    0    0  501 -0.00000000000E+00  0.00000000000E+00  0.47452021234E+02  0.47452021234E+02  0.00000000000E+00 0.  1.
          1   -1    0    0  501    0  0.00000000000E+00 -0.00000000000E+00 -0.22545103672E+03  0.22545103672E+03  0.00000000000E+00 0. -1.
         25    2    1    2    0    0 -0.16060028648E+02 -0.24480468888E+02 -0.10237900003E+03  0.16427127609E+03  0.12508546928E+03 0.  0.
          5    1    3    3  502    0 -0.18453333579E+01 -0.51791458077E+02 -0.11840004720E+03  0.12931281438E+03  0.41800000000E+01 0. -1.
         -5    1    3    3    0  502 -0.14214695290E+02  0.27310989189E+02  0.16021047176E+02  0.34958461712E+02  0.41800000000E+01 0. -1.
        -11    1    1    2    0    0 -0.14282879086E+02  0.17007435306E+02  0.44757367411E+01  0.22655809631E+02  0.00000000000E+00 0.  1.
         11    1    1    2    0    0  0.30342907734E+02  0.74730335819E+01 -0.80095752201E+02  0.85975972232E+02  0.00000000000E+00 0. -1.
</event>
<event>
 7    1  0.2480409E-009  0.1101639E+03  0.7561462E-02  0.1260267E+00
          1   -1    0    0  501    0  0.00000000000E+00  0.00000000000E+00  0.33552059897E+03  0.33552059897E+03  0.00000000000E+00 0. -1.
         -1   -1    0    0    0  501 -0.00000000000E+00 -0.00000000000E+00 -0.42028751417E+02  0.42028751417E+02  0.00000000000E+00 0.  1.
         25    2    1    2    0    0 -0.18032805891E+02 -0.45232923272E+02  0.16244942842E+03  0.21073327357E+03  0.12508995306E+03 0.  0.
          5    1    3    3  502    0  0.50755938634E+02 -0.17085885927E+02  0.10021341696E+03  0.11370265671E+03  0.41800000000E+01 0.  1.
         -5    1    3    3    0  502 -0.68788744525E+02 -0.28147037345E+02  0.62236011465E+02  0.97030616857E+02  0.41800000000E+01 0.  1.
        -11    1    1    2    0    0  0.66470196068E+01  0.67145756946E+02  0.55585983701E+02  0.87421605622E+02  0.00000000000E+00 0.  1.
         11    1    1    2    0    0  0.11385786285E+02 -0.21912833674E+02  0.75456435432E+02  0.79394471199E+02  0.00000000000E+00 0. -1.
</event>
<event>
 7    1  0.2480409E-009  0.1858224E+03  0.7561462E-02  0.1162284E+00
         -1   -1    0    0    0  501 -0.00000000000E+00  0.00000000000E+00  0.30929289855E+02  0.30929289855E+02  0.00000000000E+00 0.  1.
          1   -1    0    0  501    0  0.00000000000E+00 -0.00000000000E+00 -0.14321511245E+04  0.14321511245E+04  0.00000000000E+00 0. -1.
         25    2    1    2    0    0  0.87497339735E+02 -0.13012132617E+03 -0.10386027024E+04  0.10577951227E+04  0.12509038368E+03 0.  0.
          5    1    3    3  502    0  0.10309425804E+03 -0.14304515271E+03 -0.85299332451E+03  0.87103698303E+03  0.41800000000E+01 0. -1.
         -5    1    3    3    0  502 -0.15596918301E+02  0.12923826538E+02 -0.18560937793E+03  0.18675813966E+03  0.41800000000E+01 0. -1.
        -11    1    1    2    0    0 -0.77031638400E+01  0.79975066422E+02 -0.11455427849E+03  0.13992152337E+03  0.00000000000E+00 0.  1.
         11    1    1    2    0    0 -0.79794175895E+02  0.50146259748E+02 -0.24806485373E+03  0.26536376831E+03  0.00000000000E+00 0. -1.
</event>
<event>
 7    1  0.2480409E-009  0.1073053E+03  0.7561462E-02  0.1265643E+00
         -2   -1    0    0    0  501 -0.00000000000E+00  0.00000000000E+00  0.60630844030E+02  0.60630844030E+02  0.00000000000E+00 0.  1.
          2   -1    0    0  501    0  0.00000000000E+00 -0.00000000000E+00 -0.32382094902E+03  0.32382094902E+03  0.00000000000E+00 0. -1.
         25    2    1    2    0    0 -0.28734557850E+02  0.45568907401E+02 -0.24096971115E+03  0.27679615507E+03  0.12509000613E+03 0.  0.
          5    1    3    3  502    0  0.32950347368E+02  0.44515686717E+02 -0.45562432484E+02  0.71838564917E+02  0.41800000000E+01 0.  1.
         -5    1    3    3    0  502 -0.61684905218E+02  0.10532206841E+01 -0.19540727867E+03  0.20495759015E+03  0.41800000000E+01 0.  1.
        -11    1    1    2    0    0 -0.94934056294E+01 -0.56643992566E+02 -0.33238681742E+02  0.66358696553E+02  0.00000000000E+00 0. -1.
         11    1    1    2    0    0  0.38227963480E+02  0.11075085165E+02  0.11018287898E+02  0.41296941430E+02  0.00000000000E+00 0.  1.
</event>
<event>
 7    1  0.2480409E-009  0.8073705E+02  0.7561462E-02  0.1326973E+00
          2   -1    0    0  501    0  0.00000000000E+00  0.00000000000E+00  0.23502407955E+03  0.23502407955E+03  0.00000000000E+00 0. -1.
         -2   -1    0    0    0  501 -0.00000000000E+00 -0.00000000000E+00 -0.99046561807E+02  0.99046561807E+02  0.00000000000E+00 0.  1.
         25    2    1    2    0    0 -0.33436212175E+02  0.26759884832E+01  0.18360061228E+03  0.22468043573E+03  0.12508785781E+03 0.  0.
          5    1    3    3  502    0 -0.14904242048E+02  0.46228911306E+02  0.16759421861E+03  0.17454094988E+03  0.41800000000E+01 0. -1.
         -5    1    3    3    0  502 -0.18531970127E+02 -0.43552922823E+02  0.16006393664E+02  0.50139485850E+02  0.41800000000E+01 0. -1.
        -11    1    1    2    0    0  0.26038905902E+02  0.25277908770E+02 -0.65864915212E+02  0.75200959756E+02  0.00000000000E+00 0.  1.
         11    1    1    2    0    0  0.73973062731E+01 -0.27953897253E+02  0.18241820675E+02  0.34189245872E+02  0.00000000000E+00 0. -1.
</event>
<event>
 7    1  0.2480409E-009  0.1887572E+03  0.7561462E-02  0.1159587E+00
          2   -1    0    0  501    0  0.00000000000E+00  0.00000000000E+00  0.25541657188E+03  0.25541657188E+03  0.00000000000E+00 0. -1.
         -2   -1    0    0    0  501 -0.00000000000E+00 -0.00000000000E+00 -0.14536080939E+03  0.14536080939E+03  0.00000000000E+00 0.  1.
         25    2    1    2    0    0  0.93181155863E+01  0.15288019060E+03  0.28221053499E+02  0.19975822010E+03  0.12509092166E+03 0.  0.
          5    1    3    3  502    0  0.63171688236E+02  0.63307399634E+02  0.32032715181E+02  0.95089727546E+02  0.41800000000E+01 0. -1.
         -5    1    3    3    0  502 -0.53853572650E+02  0.89572790963E+02 -0.38116616819E+01  0.10466849255E+03  0.41800000000E+01 0. -1.
        -11    1    1    2    0    0 -0.42207953463E+02 -0.14291425205E+03  0.70315961914E+02  0.16477356971E+03  0.00000000000E+00 0.  1.
         11    1    1    2    0    0  0.32889837877E+02 -0.99659385500E+01  0.11518747078E+02  0.36245591470E+02  0.00000000000E+00 0. -1.
</event>
<event>
 7    1  0.2480409E-009  0.1234054E+03  0.7561462E-02  0.1237583E+00
          3   -1    0    0  501    0  0.00000000000E+00  0.00000000000E+00  0.37579148377E+03  0.37579148377E+03  0.00000000000E+00 0. -1.
         -3   -1    0    0    0  501 -0.00000000000E+00 -0.00000000000E+00 -0.55041931388E+02  0.55041931388E+02  0.00000000000E+00 0.  1.
         25    2    1    2    0    0  0.29185611611E+01  0.93255955775E+02  0.16410993346E+03  0.22646237528E+03  0.12509174981E+03 0.  0.
          5    1    3    3  502    0 -0.12400938637E+02  0.11994319097E+03  0.14958145408E+03  0.19217761614E+03  0.41800000000E+01 0. -1.
         -5    1    3    3    0  502  0.15319499798E+02 -0.26687235197E+02  0.14528479383E+02  0.34284759146E+02  0.41800000000E+01 0. -1.
        -11    1    1    2    0    0 -0.98867262656E+01 -0.73303166314E+02  0.36676934357E+02  0.82560880941E+02  0.00000000000E+00 0.  1.
         11    1    1    2    0    0  0.69681651044E+01 -0.19952789461E+02  0.11996268456E+03  0.12181015893E+03  0.00000000000E+00 0. -1.
</event>
<event>
 7    1  0.2480409E-009  0.1368750E+03  0.7561462E-02  0.1217597E+00
          2   -1    0    0  501    0  0.00000000000E+00  0.00000000000E+00  0.49807087182E+03  0.49807087182E+03  0.00000000000E+00 0. -1.
         -2   -1    0    0    0  501 -0.00000000000E+00 -0.00000000000E+00 -0.49633007386E+02  0.49633007386E+02  0.00000000000E+00 0.  1.
         25    2    1    2    0    0 -0.61139884957E+02  0.67180941821E+02  0.12010515525E+03  0.19576602088E+03  0.12509085554E+03 0.  0.
          5    1    3    3  502    0 -0.90566523758E+02  0.73497232635E+02  0.66982195092E+02  0.13456680605E+03  0.41800000000E+01 0. -1.
         -5    1    3    3    0  502  0.29426638802E+02 -0.63162908142E+01  0.53122960154E+02  0.61199214834E+02  0.41800000000E+01 0. -1.
        -11    1    1    2    0    0  0.17200214585E+02 -0.79242307189E+02  0.20466333675E+03  0.22014148187E+03  0.00000000000E+00 0.  1.
         11    1    1    2    0    0  0.43939670372E+02  0.12061365368E+02  0.12366937244E+03  0.13179637645E+03  0.00000000000E+00 0. -1.
</event>
<event>
 7    1  0.2480409E-009  0.1957027E+03  0.7561462E-02  0.1153416E+00
          2   -1    0    0  501    0  0.00000000000E+00  0.00000000000E+00  0.70539006862E+03  0.70539006862E+03  0.00000000000E+00 0. -1.
         -2   -1    0    0    0  501 -0.00000000000E+00 -0.00000000000E+00 -0.54920448501E+02  0.54920448501E+02  0.00000000000E+00 0.  1.
         25    2    1    2    0    0 -0.25614219251E+02  0.15895744916E+03  0.30053229610E+03  0.36316768099E+03  0.12509014606E+03 0.  0.
          5    1    3    3  502    0 -0.53404840150E+02  0.16619656689E+03  0.25110539220E+03  0.30585088881E+03  0.41800000000E+01 0. -1.
         -5    1    3    3    0  502  0.27790620899E+02 -0.72391177264E+01  0.49426903904E+02  0.57316792172E+02  0.41800000000E+01 0. -1.
        -11    1    1    2    0    0 -0.36072744472E+02 -0.40671721204E+02  0.98412260973E+02  0.11242955532E+03  0.00000000000E+00 0.  1.
         11    1    1    2    0    0  0.61686963723E+02 -0.11828572796E+03  0.25152506305E+03  0.28471328081E+03  0.00000000000E+00 0. -1.
</event>
<event>
 7    1  0.2480409E-009  0.3246601E+03  0.7561462E-02  0.1073524E+00
          2   -1    0    0  501    0  0.00000000000E+00  0.00000000000E+00  0.92673679637E+03  0.92673679637E+03  0.00000000000E+00 0. -1.
         -2   -1    0    0    0  501 -0.00000000000E+00 -0.00000000000E+00 -0.16127487857E+03  0.16127487857E+03  0.00000000000E+00 0.  1.
         25    2    1    2    0    0 -0.38401398871E+02 -0.31431492804E+03  0.11567465782E+03  0.35958075563E+03  0.12509657043E+03 0.  0.
          5    1    3    3  502    0 -0.24577029551E+02 -0.55071261042E+02 -0.23654035019E+02  0.64914250723E+02  0.41800000000E+01 0.  1.
         -5    1    3    3    0  502 -0.13824369321E+02 -0.25924366700E+03  0.13932869284E+03  0.29466650490E+03  0.41800000000E+01 0.  1.
        -11    1    1    2    0    0 -0.15582451770E+02  0.22000364263E+03  0.43507630613E+03  0.48778664161E+03  0.00000000000E+00 0.  1.
         11    1    1    2    0    0  0.53983850642E+02  0.94311285410E+02  0.21471095385E+03  0.24064427770E+03  0.00000000000E+00 0. -1.
</event>
<event>
 7    1  0.2480409E-009  0.3078248E+03  0.7561462E-02  0.1081393E+00
          1   -1    0    0  501    0  0.00000000000E+00  0.00000000000E+00  0.13894871472E+03  0.13894871472E+03  0.00000000000E+00 0. -1.
         -1   -1    0    0    0  501 -0.00000000000E+00 -0.00000000000E+00 -0.74936616734E+03  0.74936616734E+03  0.00000000000E+00 0.  1.
         25    2    1    2    0    0 -0.17284118565E+03 -0.23457236742E+03 -0.19404512025E+03  0.37175053188E+03  0.12508668293E+03 0.  0.
          5    1    3    3  502    0 -0.13287713088E+03 -0.23523608684E+03 -0.13975908141E+03  0.30420785937E+03  0.41800000000E+01 0.  1.
         -5    1    3    3    0  502 -0.39964054767E+02  0.66371942315E+00 -0.54286038848E+02  0.67542672516E+02  0.41800000000E+01 0.  1.
        -11    1    1    2    0    0  0.12970986570E+03  0.99530160595E+02 -0.20861431411E+03  0.26504873926E+03  0.00000000000E+00 0.  1.
         11    1    1    2    0    0  0.43131319944E+02  0.13504220683E+03 -0.20775801826E+03  0.25151561092E+03  0.00000000000E+00 0. -1.
</event>
<event>
 7    1  0.2480409E-009  0.8348188E+02  0.7561462E-02  0.1319451E+00
         -1   -1    0    0    0  501 -0.00000000000E+00  0.00000000000E+00  0.58451609292E+02  0.58451609292E+02  0.00000000000E+00 0.  1.
          1   -1    0    0  501    0  0.00000000000E+00 -0.00000000000E+00 -0.21784712115E+03  0.21784712115E+03  0.00000000000E+00 0. -1.
         25    2    1    2    0    0 -0.13727388563E+02 -0.96185074808E+01 -0.12686609914E+03  0.17895103397E+03  0.12509000186E+03 0.  0.
          5    1    3    3  502    0  0.14366520546E+02  0.34220977535E+02 -0.12070654459E+03  0.12635273849E+03  0.41800000000E+01 0. -1.
         -5    1    3    3    0  502 -0.28093909109E+02 -0.43839485016E+02 -0.61595545439E+01  0.52598295483E+02  0.41800000000E+01 0. -1.
        -11    1    1    2    0    0  0.23113086948E+02  0.39660768410E+02 -0.44252519619E+02  0.63761091833E+02  0.00000000000E+00 0. -1.
         11    1    1    2    0    0 -0.93856983852E+01 -0.30042260929E+02  0.11723106896E+02  0.33586604639E+02  0.00000000000E+00 0.  1.
</event>
<event>
 7    1  0.2480409E-009  0.1152721E+03  0.7561462E-02  0.1251107E+00
         -2   -1    0    0    0  501 -0.00000000000E+00  0.00000000000E+00  0.28717111745E+02  0.28717111745E+02  0.00000000000E+00 0.  1.
          2   -1    0    0  501    0  0.00000000000E+00 -0.00000000000E+00 -0.77683449805E+03  0.77683449805E+03  0.00000000000E+00 0. -1.
         25    2    1    2    0    0  0.20770061639E+02  0.24303898965E+02 -0.16440395742E+03  0.20903824491E+03  0.12508497773E+03 0.  0.
          5    1    3    3  502    0  0.22659613298E+02  0.63990749286E+02 -0.15308685842E+03  0.16751517153E+03  0.41800000000E+01 0.  1.
         -5    1    3    3    0  502 -0.18895516591E+01 -0.39686850321E+02 -0.11317099000E+02  0.41523073389E+02  0.41800000000E+01 0.  1.
        -11    1    1    2    0    0 -0.46397875070E+02  0.34906114301E+02 -0.29836180801E+03  0.30395882633E+03  0.00000000000E+00 0. -1.
         11    1    1    2    0    0  0.25627813431E+02 -0.59210013266E+02 -0.28535162087E+03  0.29255453855E+03  0.00000000000E+00 0.  1.
</event>
<event>
 7    1  0.2480409E-009  0.1081587E+03  0.7561462E-02  0.1264018E+00
         -3   -1    0    0    0  501 -0.00000000000E+00  0.00000000000E+00  0.40315360396E+03  0.40315360396E+03  0.00000000000E+00 0.  1.
          3   -1    0    0  501    0  0.00000000000E+00 -0.00000000000E+00 -0.60507880825E+02  0.60507880825E+02  0.00000000000E+00 0. -1.
         25    2    1    2    0    0 -0.55446370444E+02  0.73929119864E+02  0.27519768180E+03  0.31610277855E+03  0.12508951907E+03 0.  0.
          5    1    3    3  502    0 -0.57655228475E+02  0.30306718349E+02  0.26240138729E+03  0.27039708393E+03  0.41800000000E+01 0.  1.
         -5    1    3    3    0  502  0.22088580313E+01  0.43622401514E+02  0.12796294512E+02  0.45705694622E+02  0.41800000000E+01 0.  1.
        -11    1    1    2    0    0  0.59769037304E+02 -0.37659961015E+02 -0.23972133355E+00  0.70644659743E+02  0.00000000000E+00 0. -1.
         11    1    1    2    0    0 -0.43226668604E+01 -0.36269158848E+02  0.67687762670E+02  0.76914046491E+02  0.00000000000E+00 0.  1.
</event>
<event>
 7    1  0.2480409E-009  0.2314165E+03  0.7561462E-02  0.1125647E+00
          2   -1    0    0  501    0  0.00000000000E+00  0.00000000000E+00  0.58787650177E+02  0.58787650177E+02  0.00000000000E+00 0. -1.
         -2   -1    0    0    0  501 -0.00000000000E+00 -0.00000000000E+00 -0.16494641585E+04  0.16494641585E+04  0.00000000000E+00 0.  1.
         25    2    1    2    0    0 -0.18609682606E+02 -0.21392575786E+03 -0.13526998458E+04  0.13753378369E+04  0.12508694035E+03 0.  0.
          5    1    3    3  502    0 -0.59911257877E+02 -0.66700560758E+02 -0.36559496034E+03  0.37645115360E+03  0.41800000000E+01 0. -1.
         -5    1    3    3    0  502  0.41301575271E+02 -0.14722519710E+03 -0.98710488541E+03  0.99888668326E+03  0.41800000000E+01 0. -1.
        -11    1    1    2    0    0  0.23976673155E+02  0.44051115364E+02 -0.10757745077E+03  0.11869410067E+03  0.00000000000E+00 0.  1.
         11    1    1    2    0    0 -0.53669905485E+01  0.16987464250E+03 -0.13039921178E+03  0.21421987112E+03  0.00000000000E+00 0. -1.
</event>
<event>
 7    1  0.2480409E-009  0.1073825E+03  0.7561462E-02  0.1265495E+00
         -2   -1    0    0    0  501 -0.00000000000E+00  0.00000000000E+00  0.28970723002E+02  0.28970723002E+02  0.00000000000E+00 0. -1.
          2   -1    0    0  501    0  0.00000000000E+00 -0.00000000000E+00 -0.50224559940E+03  0.50224559940E+03  0.00000000000E+00 0.  1.
         25    2    1    2    0    0  0.26096290538E+02  0.11593276918E+02 -0.37049243444E+03  0.39208272665E+03  0.12509516422E+03 0.  0.
          5    1    3    3  502    0 -0.28683188994E+02 -0.40648626235E+02 -0.11034322066E+03  0.12111207574E+03  0.41800000000E+01 0.  1.
         -5    1    3    3    0  502  0.54779479532E+02  0.52241903153E+02 -0.26014921378E+03  0.27097065091E+03  0.41800000000E+01 0.  1.
        -11    1    1    2    0    0 -0.56580293949E+02 -0.48303227459E+00 -0.85068163436E+02  0.10216729131E+03  0.00000000000E+00 0.  1.
         11    1    1    2    0    0  0.30484003411E+02 -0.11110244643E+02 -0.17714278516E+02  0.36966304432E+02  0.00000000000E+00 0. -1.
</event>
<event>
 7    1  0.2480409E-009  0.7541560E+02  0.7561462E-02  0.1342589E+00
          1   -1    0    0  501    0  0.00000000000E+00  0.00000000000E+00  0.19708185048E+03  0.19708185048E+03  0.00000000000E+00 0. -1.
         -1   -1    0    0    0  501 -0.00000000000E+00 -0.00000000000E+00 -0.10206431399E+03  0.10206431399E+03  0.00000000000E+00 0.  1.
         25    2    1    2    0    0 -0.31135570851E+02  0.56764011430E+02  0.11904668435E+03  0.18442236907E+03  0.12509164797E+03 0.  0.
          5    1    3    3  502    0  0.51966081091E+01  0.10088068657E+01 -0.24891746694E+02  0.25789414119E+02  0.41800000000E+01 0. -1.
         -5    1    3    3    0  502 -0.36332178960E+02  0.55755204565E+02  0.14393843105E+03  0.15863295495E+03  0.41800000000E+01 0. -1.
        -11    1    1    2    0    0  0.27604445165E+02 -0.83154167337E+01 -0.51424342257E+02  0.58954342714E+02  0.00000000000E+00 0.  1.
         11    1    1    2    0    0  0.35311256858E+01 -0.48448594697E+02  0.27395194395E+02  0.55769452684E+02  0.00000000000E+00 0. -1.
</event>
<event>
 7    1  0.2480409E-009  0.8422894E+02  0.7561462E-02  0.1317461E+00
          3   -1    0    0  501    0  0.00000000000E+00  0.00000000000E+00  0.80899648030E+02  0.80899648030E+02  0.00000000000E+00 0. -1.
         -3   -1    0    0    0  501 -0.00000000000E+00 -0.00000000000E+00 -0.29836681545E+03  0.29836681545E+03  0.00000000000E+00 0.  1.
         25    2    1    2    0    0  0.13614189236E+02 -0.15240004039E+02  0.14646207569E+02  0.12758544473E+03  0.12508369373E+03 0.  0.
          5    1    3    3  502    0 -0.35368049967E+02 -0.62834682495E+01 -0.39737841910E+02  0.53730339766E+02  0.41800000000E+01 0.  1.
         -5    1    3    3    0  502  0.48982239203E+02 -0.89565357899E+01  0.54384049480E+02  0.73855104959E+02  0.41800000000E+01 0.  1.
        -11    1    1    2    0    0  0.32226742543E+02  0.17027062596E+02 -0.39783913365E+02  0.53955940898E+02  0.00000000000E+00 0. -1.
         11    1    1    2    0    0 -0.45840931779E+02 -0.17870585567E+01 -0.19232946162E+03  0.19772507786E+03  0.00000000000E+00 0.  1.
</event>
<event>
 7    1  0.2480409E-009  0.2203151E+03  0.7561462E-02  0.1133648E+00
         -1   -1    0    0    0  501 -0.00000000000E+00  0.00000000000E+00  0.13115368372E+04  0.13115368372E+04  0.00000000000E+00 0.  1.
          1   -1    0    0  501    0  0.00000000000E+00 -0.00000000000E+00 -0.40310249561E+02  0.40310249561E+02  0.00000000000E+00 0. -1.
         25    2    1    2    0    0 -0.94140392466E+02  0.17665986790E+03  0.61328164639E+03  0.65713959702E+03  0.12508776822E+03 0.  0.
          5    1    3    3  502    0 -0.16984626137E+02  0.15418129771E+03  0.38527837627E+03  0.41535195884E+03  0.41800000000E+01 0. -1.
         -5    1    3    3    0  502 -0.77155766329E+02  0.22478570198E+02  0.22800327012E+03  0.24178763818E+03  0.41800000000E+01 0. -1.
        -11    1    1    2    0    0  0.73232744032E+02 -0.90971484639E+02  0.50335389133E+03  0.51672428406E+03  0.00000000000E+00 0.  1.
         11    1    1    2    0    0  0.20907648434E+02 -0.85688383264E+02  0.15459104993E+03  0.17798320569E+03  0.00000000000E+00 0. -1.
</event>
<event>
 7    1  0.2480409E-009  0.7640231E+02  0.7561462E-02  0.1339583E+00
          3   -1    0    0  501    0  0.00000000000E+00  0.00000000000E+00  0.48336473488E+03  0.48336473488E+03  0.00000000000E+00 0. -1.
         -3   -1    0    0    0  501 -0.00000000000E+00 -0.00000000000E+00 -0.25831786653E+02  0.25831786653E+02  0.00000000000E+00 0.  1.
         25    2    1    2    0    0  0.10389050750E+02  0.22006679957E+02  0.30468803621E+03  0.33026899181E+03  0.12510228299E+03 0.  0.
          5    1    3    3  502    0 -0.33359946599E+02  0.35333792761E+02  0.26536334502E+03  0.26980833980E+03  0.41800000000E+01 0. -1.
         -5    1    3    3    0  502  0.43748997349E+02 -0.13327112804E+02  0.39324691190E+02  0.60460652014E+02  0.41800000000E+01 0. -1.
        -11    1    1    2    0    0  0.18978765763E+02 -0.21576753404E+02  0.62349374180E+01  0.29404494247E+02  0.00000000000E+00 0.  1.
         11    1    1    2    0    0 -0.29367816513E+02 -0.42992655342E+00  0.14660997461E+03  0.14952303548E+03  0.00000000000E+00 0. -1.
</event>
<event>
 7    1  0.2480409E-009  0.1475549E+03  0.7561462E-02  0.1203510E+00
         -2   -1    0    0    0  501 -0.00000000000E+00  0.00000000000E+00  0.23692071035E+03  0.23692071035E+03  0.00000000000E+00 0.  1.
          2   -1    0    0  501    0  0.00000000000E+00 -0.00000000000E+00 -0.11500517697E+03  0.11500517697E+03  0.00000000000E+00 0. -1.
         25    2    1    2    0    0 -0.40131326749E+02 -0.97436083776E+02  0.13493361041E+03  0.21203466664E+03  0.12508919551E+03 0.  0.
          5    1    3    3  502    0 -0.36986250042E+02  0.18193019732E+02  0.11883841146E+02  0.43100658226E+02  0.41800000000E+01 0. -1.
         -5    1    3    3    0  502 -0.31450767070E+01 -0.11562910351E+03  0.12304976926E+03  0.16893400842E+03  0.41800000000E+01 0. -1.
        -11    1    1    2    0    0  0.53498818574E+02  0.16623885956E+02 -0.14862685344E+02  0.57960129302E+02  0.00000000000E+00 0.  1.
         11    1    1    2    0    0 -0.13367491825E+02  0.80812197820E+02  0.18446083134E+01  0.81931091376E+02  0.00000000000E+00 0. -1.
</event>
<event>
 7    1  0.2480409E-009  0.9691536E+02  0.7561462E-02  0.1286920E+00
         -2   -1    0    0    0  501 -0.00000000000E+00  0.00000000000E+00  0.66870821707E+02  0.66870821707E+02  0.00000000000E+00 0.  1.
          2   -1    0    0  501    0  0.00000000000E+00 -0.00000000000E+00 -0.19004584123E+03  0.19004584123E+03  0.00000000000E+00 0. -1.
         25    2    1    2    0    0  0.88057622046E+01 -0.14840748328E+02 -0.10067344248E+03  0.16149726928E+03  0.12509371169E+03 0.  0.
          5    1    3    3  502    0  0.59257867734E+02  0.13399362495E+02 -0.78685636278E+02  0.99498439989E+02  0.41800000000E+01 0. -1.
         -5    1    3    3    0  502 -0.50452105530E+02 -0.28240110823E+02 -0.21987806204E+02  0.61998829290E+02  0.41800000000E+01 0. -1.
        -11    1    1    2    0    0  0.32099543295E+02  0.23092464737E+01  0.17686408600E+02  0.36722232342E+02  0.00000000000E+00 0.  1.
         11    1    1    2    0    0 -0.40905305499E+02  0.12531501854E+02 -0.40187985639E+02  0.58697161315E+02  0.00000000000E+00 0. -1.
</event>
<event>
 7    1  0.2921810E-009  0.1741891E+03  0.7561462E-02  0.1173548E+00
          2   -1    0    0  501    0  0.00000000000E+00  0.00000000000E+00  0.41111497201E+03  0.41111497201E+03  0.00000000000E+00 0. -1.
         -2   -1    0    0    0  501 -0.00000000000E+00 -0.00000000000E+00 -0.97528108563E+02  0.97528108563E+02  0.00000000000E+00 0.  1.
         25    2    1    2    0    0  0.16182381336E+03 -0.14032662173E+02  0.21831557454E+03  0.29948632546E+03  0.12508599791E+03 0.  0.
          5    1    3    3  502    0  0.14723664887E+03 -0.15566281462E+02  0.23442863484E+03  0.27729983253E+03  0.41800000000E+01 0.  1.
         -5    1    3    3    0  502  0.14587164496E+02  0.15336192895E+01 -0.16113060303E+02  0.22186492929E+02  0.41800000000E+01 0.  1.
        -11    1    1    2    0    0 -0.83546693840E+02  0.51588059603E+02  0.62299074839E+02  0.11628651113E+03  0.00000000000E+00 0.  1.
         11    1    1    2    0    0 -0.78277119523E+02 -0.37555397431E+02  0.32972214071E+02  0.92870243985E+02  0.00000000000E+00 0. -1.
</event>
<event>
 7    1  0.2480409E-009  0.1086035E+03  0.7561462E-02  0.1263178E+00
          1   -1    0    0  501    0  0.00000000000E+00  0.00000000000E+00  0.37317893634E+03  0.37317893634E+03  0.00000000000E+00 0. -1.
         -1   -1    0    0    0  501 -0.00000000000E+00 -0.00000000000E+00 -0.43599173604E+02  0.43599173604E+02  0.00000000000E+00 0.  1.
         25    2    1    2    0    0  0.13875798107E+02 -0.20182948269E+02  0.28374872263E+03  0.31106181148E+03  0.12508486635E+03 0.  0.
          5    1    3    3  502    0 -0.41246896880E+02 -0.47748953097E+02  0.11311355711E+03  0.12958942174E+03  0.41800000000E+01 0. -1.
         -5    1    3    3    0  502  0.55122694987E+02  0.27566004828E+02  0.17063516552E+03  0.18147238974E+03  0.41800000000E+01 0. -1.
        -11    1    1    2    0    0  0.68228355286E+00  0.54717095613E+02  0.13846353963E+02  0.56445970461E+02  0.00000000000E+00 0.  1.
         11    1    1    2    0    0 -0.14558081660E+02 -0.34534147344E+02  0.31984686140E+02  0.49270328006E+02  0.00000000000E+00 0. -1.
</event>
<event>
 7    1  0.2480409E-009  0.1356117E+03  0.7561462E-02  0.1219359E+00
          1   -1    0    0  501    0  0.00000000000E+00  0.00000000000E+00  0.58330304319E+03  0.58330304319E+03  0.00000000000E+00 0. -1.
         -1   -1    0    0    0  501 -0.00000000000E+00 -0.00000000000E+00 -0.35226488642E+02  0.35226488642E+02  0.00000000000E+00 0.  1.
         25    2    1    2    0    0 -0.90945945007E+02  0.33924710056E+02  0.29838836236E+03  0.33779259510E+03  0.12508465792E+03 0.  0.
          5    1    3    3  502    0 -0.21512602766E+02  0.74002088329E+02  0.16398767138E+03  0.18124163407E+03  0.41800000000E+01 0.  1.
         -5    1    3    3    0  502 -0.69433342241E+02 -0.40077378273E+02  0.13440069098E+03  0.15655096103E+03  0.41800000000E+01 0.  1.
        -11    1    1    2    0    0  0.25117225836E+02  0.17178282790E+02  0.13839314949E+03  0.14169909054E+03  0.00000000000E+00 0. -1.
         11    1    1    2    0    0  0.65828719171E+02 -0.51102992846E+02  0.11129504270E+03  0.13903784620E+03  0.00000000000E+00 0.  1.
</event>
<event>
 7    1  0.2480409E-009  0.1198422E+03  0.7561462E-02  0.1243358E+00
          1   -1    0    0  501    0  0.00000000000E+00  0.00000000000E+00  0.58481220401E+03  0.58481220401E+03  0.00000000000E+00 0. -1.
         -1   -1    0    0    0  501 -0.00000000000E+00 -0.00000000000E+00 -0.33634804427E+02  0.33634804427E+02  0.00000000000E+00 0.  1.
         25    2    1    2    0    0  0.76028062898E+01 -0.81782500386E+02  0.24509280872E+03  0.28716651495E+03  0.12509173589E+03 0.  0.
          5    1    3    3  502    0 -0.23739314552E+02 -0.87261047739E+02  0.23752978214E+03  0.25419660759E+03  0.41800000000E+01 0.  1.
         -5    1    3    3    0  502  0.31342120842E+02  0.54785473534E+01  0.75630265819E+01  0.32969907356E+02  0.41800000000E+01 0.  1.
        -11    1    1    2    0    0  0.19357461419E+02 -0.97286415833E+01  0.19194747913E+02  0.28944708102E+02  0.00000000000E+00 0.  1.
         11    1    1    2    0    0 -0.26960267709E+02  0.91511141969E+02  0.28688984295E+03  0.30233578539E+03  0.00000000000E+00 0. -1.
</event>
<event>
 7    1  0.2480409E-009  0.7171751E+02  0.7561462E-02  0.1354348E+00
          3   -1    0    0  501    0  0.00000000000E+00  0.00000000000E+00  0.38211148874E+02  0.38211148874E+02  0.00000000000E+00 0. -1.
         -3   -1    0    0    0  501 -0.00000000000E+00 -0.00000000000E+00 -0.31469622989E+03  0.31469622989E+03  0.00000000000E+00 0.  1.
         25    2    1    2    0    0  0.17528786896E+02  0.17523311721E+02 -0.14498088216E+03  0.19308435412E+03  0.12509111396E+03 0.  0.
          5    1    3    3  502    0 -0.53485695541E+01 -0.28535247985E+02 -0.13792249962E+03  0.14100693556E+03  0.41800000000E+01 0. -1.
         -5    1    3    3    0  502  0.22877356450E+02  0.46058559705E+02 -0.70583825361E+01  0.52077418564E+02  0.41800000000E+01 0. -1.
        -11    1    1    2    0    0 -0.33814544648E+02  0.55477010126E+01 -0.12660613386E+03  0.13116140266E+03  0.00000000000E+00 0.  1.
         11    1    1    2    0    0  0.16285757752E+02 -0.23071012733E+02 -0.48980650017E+01  0.28661621986E+02  0.00000000000E+00 0. -1.
</event>
<event>
 7    1  0.2480409E-009  0.1189448E+03  0.7561462E-02  0.1244848E+00
          2   -1    0    0  501    0  0.00000000000E+00  0.00000000000E+00  0.10820185793E+03  0.10820185793E+03  0.00000000000E+00 0. -1.
         -2   -1    0    0    0  501 -0.00000000000E+00 -0.00000000000E+00 -0.33599441774E+03  0.33599441774E+03  0.00000000000E+00 0.  1.
         25    2    1    2    0    0 -0.15618340196E+02  0.10925690466E+03 -0.24749972246E+03  0.29847119728E+03  0.12509172326E+03 0.  0.
          5    1    3    3  502    0 -0.37604802228E+02  0.57715472272E+02 -0.32558910061E+02  0.76306958494E+02  0.41800000000E+01 0.  1.
         -5    1    3    3    0  502  0.21986462032E+02  0.51541432383E+02 -0.21494081239E+03  0.22216423879E+03  0.41800000000E+01 0.  1.
        -11    1    1    2    0    0  0.19614497024E+02 -0.57061106266E+02 -0.35205812793E+02  0.69858053195E+02  0.00000000000E+00 0.  1.
         11    1    1    2    0    0 -0.39961568279E+01 -0.52195798389E+02  0.54912975446E+02  0.75867025190E+02  0.00000000000E+00 0. -1.
</event>
<event>
 7    1  0.2480409E-009  0.8222136E+02  0.7561462E-02  0.1322863E+00
          2   -1    0    0  501    0  0.00000000000E+00  0.00000000000E+00  0.30236917978E+03  0.30236917978E+03  0.00000000000E+00 0.  1.
         -2   -1    0    0    0  501 -0.00000000000E+00 -0.00000000000E+00 -0.43882773521E+02  0.43882773521E+02  0.00000000000E+00 0. -1.
         25    2    1    2    0    0  0.25251511897E+02 -0.32108694069E+02  0.14124107617E+03  0.19304241474E+03  0.12509086779E+03 0.  0.
          5    1    3    3  502    0 -0.18636288065E+02  0.12485119619E+02 -0.13196703222E+02  0.26359340292E+02  0.41800000000E+01 0.  1.
         -5    1    3    3    0  502  0.43887799962E+02 -0.44593813688E+02  0.15443777939E+03  0.16668307445E+03  0.41800000000E+01 0.  1.
        -11    1    1    2    0    0 -0.64135326575E+01 -0.21320579914E+02  0.85326985969E+02  0.88183870767E+02  0.00000000000E+00 0. -1.
         11    1    1    2    0    0 -0.18837979239E+02  0.53429273983E+02  0.31918344120E+02  0.65025667790E+02  0.00000000000E+00 0.  1.
</event>
<event>
 7    1  0.2480409E-009  0.9405896E+02  0.7561462E-02  0.1293310E+00
         -1   -1    0    0    0  501 -0.00000000000E+00  0.00000000000E+00  0.21780186275E+02  0.21780186275E+02  0.00000000000E+00 0.  1.
          1   -1    0    0  501    0  0.00000000000E+00 -0.00000000000E+00 -0.55455848918E+03  0.55455848918E+03  0.00000000000E+00 0. -1.
         25    2    1    2    0    0 -0.66072878833E+01 -0.73030891750E+01 -0.32836978123E+03  0.35152548064E+03  0.12508580634E+03 0.  0.
          5    1    3    3  502    0 -0.53975386392E+02  0.19763312288E+02 -0.89358564088E+02  0.10633135109E+03  0.41800000000E+01 0.  1.
         -5    1    3    3    0  502  0.47368098509E+02 -0.27066401463E+02 -0.23901121715E+03  0.24519412955E+03  0.41800000000E+01 0.  1.
        -11    1    1    2    0    0  0.40087794095E+02  0.12270456243E+02 -0.17507307029E+03  0.18002270766E+03  0.00000000000E+00 0. -1.
         11    1    1    2    0    0 -0.33480506212E+02 -0.49673670678E+01 -0.29335451378E+02  0.44790487152E+02  0.00000000000E+00 0.  1.
</event>
<event>
 7    1  0.2480409E-009  0.1059734E+03  0.7561462E-02  0.1268214E+00
         -1   -1    0    0    0  501 -0.00000000000E+00  0.00000000000E+00  0.29725717734E+02  0.29725717734E+02  0.00000000000E+00 0.  1.
          1   -1    0    0  501    0  0.00000000000E+00 -0.00000000000E+00 -0.57531749216E+03  0.57531749216E+03  0.00000000000E+00 0. -1.
         25    2    1    2    0    0  0.10019957868E+02 -0.13517945424E+01 -0.18521981477E+03  0.22373228010E+03  0.12509007344E+03 0.  0.
          5    1    3    3  502    0  0.54111472531E+02 -0.20812004222E+02 -0.15771160566E+03  0.16808216425E+03  0.41800000000E+01 0.  1.
         -5    1    3    3    0  502 -0.44091514663E+02  0.19460209679E+02 -0.27508209113E+02  0.55650115854E+02  0.41800000000E+01 0.  1.
        -11    1    1    2    0    0 -0.52940694972E+02  0.22587304446E+02 -0.90709378182E+02  0.10742948756E+03  0.00000000000E+00 0.  1.
         11    1    1    2    0    0  0.42920737104E+02 -0.21235509904E+02 -0.26966258147E+03  0.27388144223E+03  0.00000000000E+00 0. -1.
</event>
<event>
 7    1  0.2480409E-009  0.6582979E+02  0.7561462E-02  0.1374877E+00
          1   -1    0    0  501    0  0.00000000000E+00  0.00000000000E+00  0.40068326359E+02  0.40068326359E+02  0.00000000000E+00 0. -1.
         -1   -1    0    0    0  501 -0.00000000000E+00 -0.00000000000E+00 -0.32332190750E+03  0.32332190750E+03  0.00000000000E+00 0.  1.
         25    2    1    2    0    0 -0.18336175535E+02  0.46550390006E+00 -0.21266749875E+03  0.24740972898E+03  0.12509067489E+03 0.  0.
          5    1    3    3  502    0 -0.17142473197E+02  0.15922118220E+02 -0.22556574544E+03  0.22681436496E+03  0.41800000000E+01 0.  1.
         -5    1    3    3    0  502 -0.11937023383E+01 -0.15456614320E+02  0.12898246694E+02  0.20595364024E+02  0.41800000000E+01 0.  1.
        -11    1    1    2    0    0 -0.12344605224E+02 -0.39961220688E+02 -0.28441023548E+02  0.50578456456E+02  0.00000000000E+00 0.  1.
         11    1    1    2    0    0  0.30680780759E+02  0.39495716788E+02 -0.42145058850E+02  0.65402048424E+02  0.00000000000E+00 0. -1.
</event>
<event>
 7    1  0.2480409E-009  0.1728645E+03  0.7561462E-02  0.1174893E+00
         -2   -1    0    0    0  501 -0.00000000000E+00  0.00000000000E+00  0.13538853701E+02  0.13538853701E+02  0.00000000000E+00 0.  1.
          2   -1    0    0  501    0  0.00000000000E+00 -0.00000000000E+00 -0.23584267207E+04  0.23584267207E+04  0.00000000000E+00 0. -1.
         25    2    1    2    0    0 -0.57876851282E+02 -0.10119310100E+03 -0.14422088104E+04  0.14523098689E+04  0.12509168192E+03 0.  0.
          5    1    3    3  502    0 -0.20907268134E+02 -0.12500675246E+03 -0.10648701989E+04  0.10723944307E+04  0.41800000000E+01 0. -1.
         -5    1    3    3    0  502 -0.36969583148E+02  0.23813651459E+02 -0.37733861148E+03  0.37991543821E+03  0.41800000000E+01 0. -1.
        -11    1    1    2    0    0  0.93002126860E+02  0.34182623315E+02 -0.45912021828E+03  0.46969056002E+03  0.00000000000E+00 0.  1.
         11    1    1    2    0    0 -0.35125275578E+02  0.67010477684E+02 -0.44355883834E+03  0.44996514551E+03  0.00000000000E+00 0. -1.
</event>
<event>
 7    1  0.2480409E-009  0.8334786E+02  0.7561462E-02  0.1319810E+00
         -1   -1    0    0    0  501 -0.00000000000E+00  0.00000000000E+00  0.75960753280E+02  0.75960753280E+02  0.00000000000E+00 0.  1.
          1   -1    0    0  501    0  0.00000000000E+00 -0.00000000000E+00 -0.18367576305E+03  0.18367576305E+03  0.00000000000E+00 0. -1.
         25    2    1    2    0    0 -0.30507469222E+02  0.29040838109E+02 -0.39588879616E+02  0.13779631327E+03  0.12508584494E+03 0.  0.
          5    1    3    3  502    0 -0.15640501043E+02 -0.22406594822E+02 -0.70567123395E+02  0.75788337286E+02  0.41800000000E+01 0.  1.
         -5    1    3    3    0  502 -0.14866968179E+02  0.51447432931E+02  0.30978243779E+02  0.62007975984E+02  0.41800000000E+01 0.  1.
        -11    1    1    2    0    0 -0.16171712897E+02 -0.34731885081E+02  0.89445909679E+00  0.38322685140E+02  0.00000000000E+00 0.  1.
         11    1    1    2    0    0  0.46679182119E+02  0.56910469720E+01 -0.69020589254E+02  0.83517517923E+02  0.00000000000E+00 0. -1.
</event>
<event>
 7    1  0.2480409E-009  0.6235989E+02  0.7561462E-02  0.1388187E+00
          2   -1    0    0  501    0  0.00000000000E+00  0.00000000000E+00  0.58756214016E+03  0.58756214016E+03  0.00000000000E+00 0.  1.
         -2   -1    0    0    0  501 -0.00000000000E+00 -0.00000000000E+00 -0.26652036467E+02  0.26652036467E+02  0.00000000000E+00 0. -1.
         25    2    1    2    0    0  0.10526750570E+02  0.44655085743E+02  0.48316660688E+03  0.50120095939E+03  0.12509013758E+03 0.  0.
          5    1    3    3  502    0  0.41937415106E+00 -0.16001694770E+02  0.38456347579E+03  0.38491917258E+03  0.41800000000E+01 0. -1.
         -5    1    3    3    0  502  0.10107376419E+02  0.60656780514E+02  0.98603131096E+02  0.11628178680E+03  0.41800000000E+01 0. -1.
        -11    1    1    2    0    0 -0.80933750554E+01 -0.17545244365E+02  0.83061913894E+02  0.85279656773E+02  0.00000000000E+00 0.  1.
         11    1    1    2    0    0 -0.24333755150E+01 -0.27109841378E+02 -0.53184170861E+01  0.27733560468E+02  0.00000000000E+00 0. -1.
</event>
<event>
 7    1  0.2480409E-009  0.1089894E+03  0.7561462E-02  0.1262453E+00
          2   -1    0    0  501    0  0.00000000000E+00  0.00000000000E+00  0.56556437346E+03  0.56556437346E+03  0.00000000000E+00 0. -1.
         -2   -1    0    0    0  501 -0.00000000000E+00 -0.00000000000E+00 -0.26688509584E+02  0.26688509584E+02  0.00000000000E+00 0.  1.
         25    2    1    2    0    0 -0.56816443820E+02 -0.28842925510E+00  0.31828516000E+03  0.34667038040E+03  0.12508684222E+03 0.  0.
          5    1    3    3  502    0  0.28634723549E+02 -0.20040457811E+02  0.33261981142E+02  0.48429320990E+02  0.41800000000E+01 0.  1.
         -5    1    3    3    0  502 -0.85451167369E+02  0.19752028556E+02  0.28502317885E+03  0.29824105941E+03  0.41800000000E+01 0.  1.
        -11    1    1    2    0    0  0.31880288290E+02 -0.37800520593E+02  0.17212864175E+03  0.17909076316E+03  0.00000000000E+00 0. -1.
         11    1    1    2    0    0  0.24936155530E+02  0.38088949848E+02  0.48462062130E+02  0.66491739480E+02  0.00000000000E+00 0.  1.
</event>
<event>
 7    1  0.2480409E-009  0.1133049E+03  0.7561462E-02  0.1254569E+00
          1   -1    0    0  501    0  0.00000000000E+00  0.00000000000E+00  0.38992001084E+02  0.38992001084E+02  0.00000000000E+00 0. -1.
         -1   -1    0    0    0  501 -0.00000000000E+00 -0.00000000000E+00 -0.47186384982E+03  0.47186384982E+03  0.00000000000E+00 0.  1.
         25    2    1    2    0    0 -0.63895326720E+02 -0.28315147537E+02 -0.31557504683E+03  0.34658066506E+03  0.12508471870E+03 0.  0.
          5    1    3    3  502    0 -0.56890311262E+02 -0.71971187832E+02 -0.15682956630E+03  0.18173977182E+03  0.41800000000E+01 0. -1.
         -5    1    3    3    0  502 -0.70050154581E+01  0.43656040295E+02 -0.15874548053E+03  0.16484089324E+03  0.41800000000E+01 0. -1.
        -11    1    1    2    0    0  0.66713432368E+02  0.40373637083E+02 -0.43189953908E+02  0.89140814155E+02  0.00000000000E+00 0. -1.
         11    1    1    2    0    0 -0.28181056485E+01 -0.12058489546E+02 -0.74106847993E+02  0.75134371689E+02  0.00000000000E+00 0.  1.
</event>
<event>
 7    1  0.2763859E-009  0.1962690E+03  0.7561462E-02  0.1152926E+00
          2   -1    0    0  501    0  0.00000000000E+00  0.00000000000E+00  0.91191970809E+03  0.91191970809E+03  0.00000000000E+00 0. -1.
         -2   -1    0    0    0  501 -0.00000000000E+00 -0.00000000000E+00 -0.43472191152E+02  0.43472191152E+02  0.00000000000E+00 0.  1.
         25    2    1    2    0    0 -0.97793958762E+02 -0.13176203070E+03  0.38845988587E+03  0.43985640051E+03  0.12509068325E+03 0.  0.
          5    1    3    3  502    0 -0.10191720073E+03 -0.15290394281E+03  0.35642550975E+03  0.40102786428E+03  0.41800000000E+01 0. -1.
         -5    1    3    3    0  502  0.41232419716E+01  0.21141912112E+02  0.32034376115E+02  0.38828536222E+02  0.41800000000E+01 0. -1.
        -11    1    1    2    0    0  0.10421721448E+03  0.71964208252E+02  0.29564598456E+03  0.32163119135E+03  0.00000000000E+00 0.  1.
         11    1    1    2    0    0 -0.64232557199E+01  0.59797822443E+02  0.18434164651E+03  0.19390430738E+03  0.00000000000E+00 0. -1.
</event>
<event>
 7    1  0.2480409E-009  0.1083385E+03  0.7561462E-02  0.1263678E+00
         -2   -1    0    0    0  501 -0.00000000000E+00  0.00000000000E+00  0.12887799207E+03  0.12887799207E+03  0.00000000000E+00 0.  1.
          2   -1    0    0  501    0  0.00000000000E+00 -0.00000000000E+00 -0.17183258707E+03  0.17183258707E+03  0.00000000000E+00 0. -1.
         25    2    1    2    0    0  0.13055302708E+02  0.49649037276E+02 -0.11211188369E+03  0.17564641919E+03  0.12508845781E+03 0.  0.
          5    1    3    3  502    0  0.19005678964E+02  0.79668003731E+02 -0.29009805432E+02  0.86989929662E+02  0.41800000000E+01 0. -1.
         -5    1    3    3    0  502 -0.59503762563E+01 -0.30018966455E+02 -0.83102078256E+02  0.88656489526E+02  0.41800000000E+01 0. -1.
        -11    1    1    2    0    0 -0.50859003116E+02 -0.40159722549E+02  0.48571251808E+02  0.80985233317E+02  0.00000000000E+00 0. -1.
         11    1    1    2    0    0  0.37803700408E+02 -0.94893147263E+01  0.20586036882E+02  0.44078926632E+02  0.00000000000E+00 0.  1.
</event>
<event>
 7    1  0.2480409E-009  0.1002181E+03  0.7561462E-02  0.1279838E+00
         -4   -1    0    0    0  501 -0.00000000000E+00  0.00000000000E+00  0.54659623584E+02  0.54659623584E+02  0.00000000000E+00 0.  1.
          4   -1    0    0  501    0  0.00000000000E+00 -0.00000000000E+00 -0.32198061113E+03  0.32198061113E+03  0.00000000000E+00 0. -1.
         25    2    1    2    0    0  0.71814065637E+02 -0.19475131999E+02 -0.18344563631E+03  0.23416489060E+03  0.12507739092E+03 0.  0.
          5    1    3    3  502    0  0.54143929503E+02  0.15021131479E+02 -0.18672800933E+03  0.19504363963E+03  0.41800000000E+01 0. -1.
         -5    1    3    3    0  502  0.17670136134E+02 -0.34496263479E+02  0.32823730181E+01  0.39121250972E+02  0.41800000000E+01 0. -1.
        -11    1    1    2    0    0 -0.70323742829E+02 -0.13913420604E+02 -0.82119507536E+02  0.10900745661E+03  0.00000000000E+00 0.  1.
         11    1    1    2    0    0 -0.14903228082E+01  0.33388552603E+02 -0.17558437047E+01  0.33467887506E+02  0.00000000000E+00 0. -1.
</event>
<event>
 7    1  0.2480409E-009  0.9080153E+02  0.7561462E-02  0.1300922E+00
         -3   -1    0    0    0  501 -0.00000000000E+00  0.00000000000E+00  0.10524338336E+04  0.10524338336E+04  0.00000000000E+00 0.  1.
          3   -1    0    0  501    0  0.00000000000E+00 -0.00000000000E+00 -0.15745321685E+02  0.15745321685E+02  0.00000000000E+00 0. -1.
         25    2    1    2    0    0  0.39529186038E+02  0.18416774680E+02  0.80215108393E+03  0.81301456918E+03  0.12507835184E+03 0.  0.
          5    1    3    3  502    0  0.47490501376E+02 -0.12571928968E+02  0.75046885862E+03  0.75208668468E+03  0.41800000000E+01 0.  1.
         -5    1    3    3    0  502 -0.79613153386E+01  0.30988703647E+02  0.51682225318E+02  0.60927884499E+02  0.41800000000E+01 0.  1.
        -11    1    1    2    0    0  0.40590467001E+01 -0.47473597671E+02  0.99425375298E+02  0.11025254459E+03  0.00000000000E+00 0.  1.
         11    1    1    2    0    0 -0.43588232738E+02  0.29056822991E+02  0.13511205268E+03  0.14491204151E+03  0.00000000000E+00 0. -1.
</event>
<event>
 7    1  0.2480409E-009  0.1814299E+03  0.7561462E-02  0.1166426E+00
          1   -1    0    0  501    0  0.00000000000E+00  0.00000000000E+00  0.85688284197E+03  0.85688284197E+03  0.00000000000E+00 0. -1.
         -1   -1    0    0    0  501 -0.00000000000E+00 -0.00000000000E+00 -0.10757458645E+03  0.10757458645E+03  0.00000000000E+00 0.  1.
         25    2    1    2    0    0 -0.17488336841E+03 -0.85618823331E+00  0.28229221116E+02  0.21686204871E+03  0.12508930268E+03 0.  0.
          5    1    3    3  502    0 -0.38457001262E+02 -0.24004566650E+02 -0.41723027085E+02  0.61753085390E+02  0.41800000000E+01 0. -1.
         -5    1    3    3    0  502 -0.13642636714E+03  0.23148378417E+02  0.69952248200E+02  0.15510896332E+03  0.41800000000E+01 0. -1.
        -11    1    1    2    0    0  0.16319602521E+03 -0.92295072853E+01  0.71005385093E+03  0.72862514208E+03  0.00000000000E+00 0. -1.
         11    1    1    2    0    0  0.11687343194E+02  0.10085695519E+02  0.11025183473E+02  0.18970237627E+02  0.00000000000E+00 0.  1.
</event>
<event>
 7    1  0.2480409E-009  0.1225020E+03  0.7561462E-02  0.1239026E+00
          1   -1    0    0  501    0  0.00000000000E+00  0.00000000000E+00  0.81471652209E+03  0.81471652209E+03  0.00000000000E+00 0. -1.
         -1   -1    0    0    0  501 -0.00000000000E+00 -0.00000000000E+00 -0.28519743531E+02  0.28519743531E+02  0.00000000000E+00 0.  1.
         25    2    1    2    0    0 -0.49193658751E+02  0.90206579254E+02  0.50842536534E+03  0.53357438881E+03  0.12509209915E+03 0.  0.
          5    1    3    3  502    0  0.19066520269E+02  0.43855475457E+02  0.56405815738E+02  0.74067019461E+02  0.41800000000E+01 0.  1.
         -5    1    3    3    0  502 -0.68260179020E+02  0.46351103797E+02  0.45201954960E+03  0.45950736935E+03  0.41800000000E+01 0.  1.
        -11    1    1    2    0    0  0.10319785210E+02 -0.69650508100E+02  0.77878926488E+02  0.10498961109E+03  0.00000000000E+00 0.  1.
         11    1    1    2    0    0  0.38873873541E+02 -0.20556071154E+02  0.19989248673E+03  0.20467226572E+03  0.00000000000E+00 0. -1.
</event>
<event>
 7    1  0.2480409E-009  0.1268094E+03  0.7561462E-02  0.1232268E+00
         -1   -1    0    0    0  501 -0.00000000000E+00  0.00000000000E+00  0.29000080347E+02  0.29000080347E+02  0.00000000000E+00 0.  1.
          1   -1    0    0  501    0  0.00000000000E+00 -0.00000000000E+00 -0.66379275846E+03  0.66379275846E+03  0.00000000000E+00 0. -1.
         25    2    1    2    0    0 -0.68952013677E+02 -0.43378608341E+01 -0.47684501183E+03  0.49779732846E+03  0.12509123743E+03 0.  0.
          5    1    3    3  502    0 -0.60761575699E+02 -0.58964033280E+02 -0.33393315968E+03  0.34452511350E+03  0.41800000000E+01 0.  1.
         -5    1    3    3    0  502 -0.81904379784E+01  0.54626172446E+02 -0.14291185216E+03  0.15327221495E+03  0.41800000000E+01 0.  1.
        -11    1    1    2    0    0  0.55193374283E+02  0.44564182375E+02 -0.86647426885E+02  0.11198237139E+03  0.00000000000E+00 0. -1.
         11    1    1    2    0    0  0.13758639395E+02 -0.40226321541E+02 -0.71300239393E+02  0.83013138962E+02  0.00000000000E+00 0.  1.
</event>
<event>
 7    1  0.2480409E-009  0.9236100E+02  0.7561462E-02  0.1297233E+00
         -1   -1    0    0    0  501 -0.00000000000E+00  0.00000000000E+00  0.13712582768E+03  0.13712582768E+03  0.00000000000E+00 0.  1.
          1   -1    0    0  501    0  0.00000000000E+00 -0.00000000000E+00 -0.11031526581E+03  0.11031526581E+03  0.00000000000E+00 0. -1.
         25    2    1    2    0    0  0.30602359514E+02  0.50738435242E+02  0.20082292689E+02  0.13986021338E+03  0.12508672027E+03 0.  0.
          5    1    3    3  502    0  0.46176633187E+02  0.52871787841E+02  0.62718035132E+02  0.94227022307E+02  0.41800000000E+01 0.  1.
         -5    1    3    3    0  502 -0.15574273672E+02 -0.21333525991E+01 -0.42635742443E+02  0.45633191072E+02  0.41800000000E+01 0.  1.
        -11    1    1    2    0    0  0.13857400862E+02 -0.51840496384E+02 -0.18118946480E+02  0.56637097785E+02  0.00000000000E+00 0. -1.
         11    1    1    2    0    0 -0.44459760376E+02  0.11020611418E+01  0.24847215665E+02  0.50943782327E+02  0.00000000000E+00 0.  1.
</event>
<event>
 7    1  0.2480409E-009  0.1673029E+03  0.7561462E-02  0.1180690E+00
          1   -1    0    0  501    0  0.00000000000E+00  0.00000000000E+00  0.26246583079E+04  0.26246583079E+04  0.00000000000E+00 0. -1.
         -1   -1    0    0    0  501 -0.00000000000E+00 -0.00000000000E+00 -0.23217528354E+02  0.23217528354E+02  0.00000000000E+00 0.  1.
         25    2    1    2    0    0 -0.12818002035E+03  0.41932071895E+02  0.22879929305E+04  0.22953751581E+04  0.12508816966E+03 0.  0.
          5    1    3    3  502    0 -0.31100102384E+02  0.66447665655E+02  0.13606776452E+04  0.13626604988E+04  0.41800000000E+01 0.  1.
         -5    1    3    3    0  502 -0.97079917964E+02 -0.24515593760E+02  0.92731528531E+03  0.93271465925E+03  0.41800000000E+01 0.  1.
        -11    1    1    2    0    0  0.12136133599E+03 -0.30172500692E+01  0.22597793272E+03  0.25652232602E+03  0.00000000000E+00 0.  1.
         11    1    1    2    0    0  0.68186843603E+01 -0.38914821826E+02  0.87469916350E+02  0.95978352145E+02  0.00000000000E+00 0. -1.
</event>
<event>
 7    1  0.2480409E-009  0.1624200E+03  0.7561462E-02  0.1185991E+00
          3   -1    0    0  501    0  0.00000000000E+00  0.00000000000E+00  0.16693492001E+03  0.16693492001E+03  0.00000000000E+00 0. -1.
         -3   -1    0    0    0  501 -0.00000000000E+00 -0.00000000000E+00 -0.19029424791E+03  0.19029424791E+03  0.00000000000E+00 0.  1.
         25    2    1    2    0    0 -0.14092590137E+03 -0.42707722942E+01 -0.87494659620E+01  0.18868608187E+03  0.12509010818E+03 0.  0.
          5    1    3    3  502    0 -0.86952498151E+02  0.32147360559E+02 -0.55765815226E+02  0.10826582228E+03  0.41800000000E+01 0.  1.
         -5    1    3    3    0  502 -0.53973403218E+02 -0.36418132854E+02  0.47016349264E+02  0.80420259596E+02  0.41800000000E+01 0.  1.
        -11    1    1    2    0    0  0.14405508625E+03  0.24675239454E+02 -0.62956832193E+01  0.14628865624E+03  0.00000000000E+00 0.  1.
         11    1    1    2    0    0 -0.31291848851E+01 -0.20404467160E+02 -0.83141787187E+01  0.22254429804E+02  0.00000000000E+00 0. -1.
</event>
<event>
 7    1  0.2480409E-009  0.1165675E+03  0.7561462E-02  0.1248869E+00
         -2   -1    0    0    0  501 -0.00000000000E+00  0.00000000000E+00  0.47345915457E+02  0.47345915457E+02  0.00000000000E+00 0.  1.
          2   -1    0    0  501    0  0.00000000000E+00 -0.00000000000E+00 -0.47033363653E+03  0.47033363653E+03  0.00000000000E+00 0. -1.
         25    2    1    2    0    0 -0.87535752785E+02  0.43783706305E+02 -0.27851102468E+03  0.32061770370E+03  0.12509116718E+03 0.  0.
          5    1    3    3  502    0 -0.63542188355E+02  0.65988688587E+01 -0.26718315562E+03  0.27474618435E+03  0.41800000000E+01 0.  1.
         -5    1    3    3    0  502 -0.23993564429E+02  0.37184837446E+02 -0.11327869061E+02  0.45871519349E+02  0.41800000000E+01 0.  1.
        -11    1    1    2    0    0  0.27264019169E+02 -0.56798149814E+02 -0.10906905380E+03  0.12595798927E+03  0.00000000000E+00 0.  1.
         11    1    1    2    0    0  0.60271733616E+02  0.13014443510E+02 -0.35407642594E+02  0.71103859016E+02  0.00000000000E+00 0. -1.
</event>
<event>
 7    1  0.2480409E-009  0.5356216E+02  0.7561462E-02  0.1427023E+00
         -1   -1    0    0    0  501 -0.00000000000E+00  0.00000000000E+00  0.14263004591E+03  0.14263004591E+03  0.00000000000E+00 0.  1.
          1   -1    0    0  501    0  0.00000000000E+00 -0.00000000000E+00 -0.10837939783E+03  0.10837939783E+03  0.00000000000E+00 0. -1.
         25    2    1    2    0    0  0.22851949031E+02  0.34526890000E+01  0.74938052174E+02  0.14763924063E+03  0.12508997191E+03 0.  0.
          5    1    3    3  502    0  0.30426396576E+01  0.22279777844E+01 -0.35200930533E+02  0.35648274173E+02  0.41800000000E+01 0.  1.
         -5    1    3    3    0  502  0.19809309373E+02  0.12247112157E+01  0.11013898271E+03  0.11199096645E+03  0.41800000000E+01 0.  1.
        -11    1    1    2    0    0  0.11205304888E+02 -0.33791750618E+02  0.81752528038E+01  0.36527743235E+02  0.00000000000E+00 0. -1.
         11    1    1    2    0    0 -0.34057253919E+02  0.30339061618E+02 -0.48862656890E+02  0.66842459879E+02  0.00000000000E+00 0.  1.
</event>
<event>
 7    1  0.2480409E-009  0.1115112E+03  0.7561462E-02  0.1257797E+00
         -1   -1    0    0    0  501 -0.00000000000E+00  0.00000000000E+00  0.50706194952E+02  0.50706194952E+02  0.00000000000E+00 0.  1.
          1   -1    0    0  501    0  0.00000000000E+00 -0.00000000000E+00 -0.29391029773E+03  0.29391029773E+03  0.00000000000E+00 0. -1.
         25    2    1    2    0    0  0.28643813486E+01  0.45921748593E+02 -0.15046466832E+03  0.20100754888E+03  0.12508959437E+03 0.  0.
          5    1    3    3  502    0  0.44775042053E+02 -0.24355191213E+02 -0.52394106305E+02  0.73216080920E+02  0.41800000000E+01 0. -1.
         -5    1    3    3    0  502 -0.41910660704E+02  0.70276939806E+02 -0.98070562013E+02  0.12779146796E+03  0.41800000000E+01 0. -1.
        -11    1    1    2    0    0  0.25018008692E+02 -0.55166372815E+02 -0.96559396430E+02  0.11398660661E+03  0.00000000000E+00 0. -1.
         11    1    1    2    0    0 -0.27882390041E+02  0.92446242216E+01  0.38199619675E+01  0.29622337194E+02  0.00000000000E+00 0.  1.
</event>
<event>
 7    1  0.2480409E-009  0.5890937E+02  0.7561462E-02  0.1402466E+00
          1   -1    0    0  501    0  0.00000000000E+00  0.00000000000E+00  0.12225160527E+03  0.12225160527E+03  0.00000000000E+00 0. -1.
         -1   -1    0    0    0  501 -0.00000000000E+00 -0.00000000000E+00 -0.14636631788E+03  0.14636631788E+03  0.00000000000E+00 0.  1.
         25    2    1    2    0    0  0.36896599574E+02 -0.30913952948E+01  0.53348970085E+02  0.14094237020E+03  0.12509086028E+03 0.  0.
          5    1    3    3  502    0 -0.15495117850E+02 -0.38177117054E+00 -0.34773825201E+02  0.38300597195E+02  0.41800000000E+01 0. -1.
         -5    1    3    3    0  502  0.52391717424E+02 -0.27096241242E+01  0.88122795286E+02  0.10264177301E+03  0.41800000000E+01 0. -1.
        -11    1    1    2    0    0 -0.24696438657E+02 -0.13807752229E+02  0.15597620997E+02  0.32308727686E+02  0.00000000000E+00 0. -1.
         11    1    1    2    0    0 -0.12200160917E+02  0.16899147524E+02 -0.93061303696E+02  0.95366825254E+02  0.00000000000E+00 0.  1.
</event>
<event>
 7    1  0.2480409E-009  0.1408765E+03  0.7561462E-02  0.1212154E+00
         -1   -1    0    0    0  501 -0.00000000000E+00  0.00000000000E+00  0.18185882421E+03  0.18185882421E+03  0.00000000000E+00 0.  1.
          1   -1    0    0  501    0  0.00000000000E+00 -0.00000000000E+00 -0.11589379878E+03  0.11589379878E+03  0.00000000000E+00 0. -1.
         25    2    1    2    0    0 -0.16769055083E+02 -0.94690485907E+02  0.34761829063E+02  0.16156663328E+03  0.12509157806E+03 0.  0.
          5    1    3    3  502    0  0.42731951499E+02 -0.85470201801E+02  0.94375750708E+01  0.96113033966E+02  0.41800000000E+01 0. -1.
         -5    1    3    3    0  502 -0.59501006582E+02 -0.92202841059E+01  0.25324253992E+02  0.65453599317E+02  0.41800000000E+01 0. -1.
        -11    1    1    2    0    0  0.15727379611E+02 -0.11543609809E+02 -0.10379965562E+02  0.22098621720E+02  0.00000000000E+00 0. -1.
         11    1    1    2    0    0  0.10416754725E+01  0.10623409572E+03  0.41583161929E+02  0.11408736800E+03  0.00000000000E+00 0.  1.
</event>
<event>
 7    1  0.2480409E-009  0.1300403E+03  0.7561462E-02  0.1227396E+00
         -2   -1    0    0    0  501 -0.00000000000E+00  0.00000000000E+00  0.90520809793E+02  0.90520809793E+02  0.00000000000E+00 0.  1.
          2   -1    0    0  501    0  0.00000000000E+00 -0.00000000000E+00 -0.31580337996E+03  0.31580337996E+03  0.00000000000E+00 0. -1.
         25    2    1    2    0    0  0.90792918100E+02 -0.36141645189E+02 -0.21140009600E+03  0.26436351408E+03  0.12509394268E+03 0.  0.
          5    1    3    3  502    0 -0.18084051149E+01  0.27767587634E+02 -0.10762350916E+03  0.11124118561E+03  0.41800000000E+01 0.  1.
         -5    1    3    3    0  502  0.92601323215E+02 -0.63909232823E+02 -0.10377658684E+03  0.15312232847E+03  0.41800000000E+01 0.  1.
        -11    1    1    2    0    0 -0.83541576066E+02  0.54408496833E+02  0.21035235398E+02  0.10189190639E+03  0.00000000000E+00 0.  1.
         11    1    1    2    0    0 -0.72513420335E+01 -0.18266851644E+02 -0.34917709561E+02  0.40068769276E+02  0.00000000000E+00 0. -1.
</event>
<event>
 7    1  0.2480409E-009  0.1032185E+03  0.7561462E-02  0.1273670E+00
         -2   -1    0    0    0  501 -0.00000000000E+00  0.00000000000E+00  0.13023029857E+04  0.13023029857E+04  0.00000000000E+00 0.  1.
          2   -1    0    0  501    0  0.00000000000E+00 -0.00000000000E+00 -0.15813145000E+02  0.15813145000E+02  0.00000000000E+00 0. -1.
         25    2    1    2    0    0  0.14335835246E+02  0.56815614584E+02  0.10317958749E+04  0.10410009184E+04  0.12508658790E+03 0.  0.
          5    1    3    3  502    0  0.58998816854E+02  0.36076332651E+02  0.31621730025E+03  0.32371780232E+03  0.41800000000E+01 0.  1.
         -5    1    3    3    0  502 -0.44662981608E+02  0.20739281933E+02  0.71557857463E+03  0.71728311608E+03  0.41800000000E+01 0.  1.
        -11    1    1    2    0    0 -0.36570991790E+02 -0.13383578070E+02  0.20027085419E+03  0.20402199058E+03  0.00000000000E+00 0.  1.
         11    1    1    2    0    0  0.22235156544E+02 -0.43432036513E+02  0.54423111667E+02  0.73093221750E+02  0.00000000000E+00 0. -1.
</event>
<event>
 7    1  0.2480409E-009  0.3305853E+03  0.7561462E-02  0.1070878E+00
         -2   -1    0    0    0  501 -0.00000000000E+00  0.00000000000E+00  0.19092170781E+03  0.19092170781E+03  0.00000000000E+00 0.  1.
          2   -1    0    0  501    0  0.00000000000E+00 -0.00000000000E+00 -0.69568926992E+03  0.69568926992E+03  0.00000000000E+00 0. -1.
         25    2    1    2    0    0 -0.14040784342E+02  0.32975183171E+03 -0.38869885942E+03  0.52504038840E+03  0.12508873651E+03 0.  0.
          5    1    3    3  502    0 -0.15098180757E+02  0.27970288752E+03 -0.38294955962E+03  0.47447813223E+03  0.41800000000E+01 0.  1.
         -5    1    3    3    0  502  0.10573964149E+01  0.50048944188E+02 -0.57492998008E+01  0.50562256177E+02  0.41800000000E+01 0.  1.
        -11    1    1    2    0    0  0.19488711702E+02 -0.20500828714E+03 -0.25901270182E+02  0.20755501314E+03  0.00000000000E+00 0.  1.
         11    1    1    2    0    0 -0.54479273599E+01 -0.12474354457E+03 -0.90167432505E+02  0.15401557619E+03  0.00000000000E+00 0. -1.
</event>
<event>
 7    1  0.2719183E-009  0.1017932E+03  0.7561462E-02  0.1276570E+00
          1   -1    0    0  501    0  0.00000000000E+00  0.00000000000E+00  0.12066605731E+04  0.12066605731E+04  0.00000000000E+00 0.  1.
         -1   -1    0    0    0  501 -0.00000000000E+00 -0.00000000000E+00 -0.17393139854E+02  0.17393139854E+02  0.00000000000E+00 0. -1.
         25    2    1    2    0    0  0.36404648011E+02 -0.35874254767E+02  0.98998465576E+03  0.99916413694E+03  0.12508834224E+03 0.  0.
          5    1    3    3  502    0 -0.28394875100E+02  0.21768588071E+02  0.51858634762E+03  0.51983594786E+03  0.41800000000E+01 0. -1.
         -5    1    3    3    0  502  0.64799523111E+02 -0.57642842838E+02  0.47139830814E+03  0.47932818908E+03  0.41800000000E+01 0. -1.
        -11    1    1    2    0    0 -0.34727115960E+02 -0.89645078649E+01  0.16381258750E+03  0.16769287048E+03  0.00000000000E+00 0.  1.
         11    1    1    2    0    0 -0.16775320510E+01  0.44838762632E+02  0.35470190025E+02  0.57196705575E+02  0.00000000000E+00 0. -1.
</event>
<event>
 7    1  0.2480409E-009  0.2004724E+03  0.7561462E-02  0.1149341E+00
          2   -1    0    0  501    0  0.00000000000E+00  0.00000000000E+00  0.12309385151E+04  0.12309385151E+04  0.00000000000E+00 0. -1.
         -2   -1    0    0    0  501 -0.00000000000E+00 -0.00000000000E+00 -0.38136631735E+02  0.38136631735E+02  0.00000000000E+00 0.  1.
         25    2    1    2    0    0  0.11504219142E+03  0.13679497421E+03  0.79136439208E+03  0.82088563985E+03  0.12509221349E+03 0.  0.
          5    1    3    3  502    0  0.60894207441E+02  0.14718323720E+03  0.64599080909E+03  0.66535149180E+03  0.41800000000E+01 0.  1.
         -5    1    3    3    0  502  0.54147983977E+02 -0.10388262985E+02  0.14537358299E+03  0.15553414805E+03  0.41800000000E+01 0.  1.
        -11    1    1    2    0    0 -0.31080028009E+02 -0.77570847813E+02  0.10345033450E+03  0.13298562433E+03  0.00000000000E+00 0. -1.
         11    1    1    2    0    0 -0.83962163409E+02 -0.59224126399E+02  0.29798715679E+03  0.31520388266E+03  0.00000000000E+00 0.  1.
</event>
<event>
 7    1  0.2480409E-009  0.1076083E+03  0.7561462E-02  0.1265064E+00
          2   -1    0    0  501    0  0.00000000000E+00  0.00000000000E+00  0.75033104769E+02  0.75033104769E+02  0.00000000000E+00 0. -1.
         -2   -1    0    0    0  501 -0.00000000000E+00 -0.00000000000E+00 -0.18000349275E+03  0.18000349275E+03  0.00000000000E+00 0.  1.
         25    2    1    2    0    0  0.24765746847E+02  0.29248697166E+02 -0.76379848361E+02  0.15149337106E+03  0.12509009448E+03 0.  0.
          5    1    3    3  502    0  0.75522084336E+02  0.18960088118E+02 -0.54400063422E+02  0.95078438483E+02  0.41800000000E+01 0. -1.
         -5    1    3    3    0  502 -0.50756337489E+02  0.10288609048E+02 -0.21979784939E+02  0.56414932575E+02  0.41800000000E+01 0. -1.
        -11    1    1    2    0    0  0.13429157786E+02 -0.42719745325E+02 -0.41480561256E+02  0.61040608463E+02  0.00000000000E+00 0. -1.
         11    1    1    2    0    0 -0.38194904633E+02  0.13471048159E+02  0.12890021640E+02  0.42502617994E+02  0.00000000000E+00 0.  1.
</event>
<event>
 7    1  0.2480409E-009  0.1604441E+03  0.7561462E-02  0.1188196E+00
          1   -1    0    0  501    0  0.00000000000E+00  0.00000000000E+00  0.39685378006E+03  0.39685378006E+03  0.00000000000E+00 0. -1.
         -1   -1    0    0    0  501 -0.00000000000E+00 -0.00000000000E+00 -0.14350228976E+03  0.14350228976E+03  0.00000000000E+00 0.  1.
         25    2    1    2    0    0 -0.13615862205E+03  0.40649964100E+00 -0.53571384971E+02  0.19250273504E+03  0.12509226239E+03 0.  0.
          5    1    3    3  502    0 -0.10314858474E+03 -0.55794312587E+02 -0.48566238734E+02  0.12699916454E+03  0.41800000000E+01 0. -1.
         -5    1    3    3    0  502 -0.33010037308E+02  0.56200812228E+02 -0.50051462374E+01  0.65503570491E+02  0.41800000000E+01 0. -1.
        -11    1    1    2    0    0  0.68534837720E+02  0.11713495014E+02  0.60934196585E+02  0.92451101996E+02  0.00000000000E+00 0.  1.
         11    1    1    2    0    0  0.67623784326E+02 -0.12119994655E+02  0.24598867868E+03  0.25540223280E+03  0.00000000000E+00 0. -1.
</event>
<event>
 7    1  0.2887202E-009  0.1347233E+03  0.7561462E-02  0.1220611E+00
         -1   -1    0    0    0  501 -0.00000000000E+00  0.00000000000E+00  0.15012850526E+02  0.15012850526E+02  0.00000000000E+00 0.  1.
          1   -1    0    0  501    0  0.00000000000E+00 -0.00000000000E+00 -0.15198682036E+04  0.15198682036E+04  0.00000000000E+00 0. -1.
         25    2    1    2    0    0 -0.18478602447E+02  0.85014340702E+02 -0.11104433040E+04  0.11208480903E+04  0.12508882132E+03 0.  0.
          5    1    3    3  502    0 -0.11884757152E+02 -0.31686702730E+02 -0.19439537432E+03  0.19736344276E+03  0.41800000000E+01 0.  1.
         -5    1    3    3    0  502 -0.65938452955E+01  0.11670104343E+03 -0.91604792965E+03  0.92348464749E+03  0.41800000000E+01 0.  1.
        -11    1    1    2    0    0 -0.18423071385E+02 -0.78848251920E+02 -0.19502778341E+03  0.21116887245E+03  0.00000000000E+00 0.  1.
         11    1    1    2    0    0  0.36901673832E+02 -0.61660887820E+01 -0.19938426569E+03  0.20286409142E+03  0.00000000000E+00 0. -1.
</event>
<event>
 7    1  0.2480409E-009  0.9064456E+02  0.7561462E-02  0.1301298E+00
         -3   -1    0    0    0  501 -0.00000000000E+00  0.00000000000E+00  0.28183730068E+03  0.28183730068E+03  0.00000000000E+00 0.  1.
          3   -1    0    0  501    0  0.00000000000E+00 -0.00000000000E+00 -0.48175984804E+02  0.48175984804E+02  0.00000000000E+00 0. -1.
         25    2    1    2    0    0  0.20398348146E+02  0.19471828084E+02  0.81159172641E+02  0.15175483812E+03  0.12508986726E+03 0.  0.
          5    1    3    3  502    0  0.62832091387E+02  0.85095058653E+00  0.84178854700E+02  0.10512919577E+03  0.41800000000E+01 0.  1.
         -5    1    3    3    0  502 -0.42433743242E+02  0.18620877497E+02 -0.30196820584E+01  0.46625642344E+02  0.41800000000E+01 0.  1.
        -11    1    1    2    0    0 -0.26250550164E+02 -0.41437582911E+02  0.14686178617E+03  0.15483716898E+03  0.00000000000E+00 0.  1.
         11    1    1    2    0    0  0.58522020182E+01  0.21965754827E+02  0.56403570677E+01  0.23421278390E+02  0.00000000000E+00 0. -1.
</event>
<event>
 7    1  0.2480409E-009  0.7065831E+02  0.7561462E-02  0.1357869E+00
         -2   -1    0    0    0  501 -0.00000000000E+00  0.00000000000E+00  0.48039597691E+02  0.48039597691E+02  0.00000000000E+00 0.  1.
          2   -1    0    0  501    0  0.00000000000E+00 -0.00000000000E+00 -0.27545919223E+03  0.27545919223E+03  0.00000000000E+00 0. -1.
         25    2    1    2    0    0 -0.35451057774E+01  0.21131652353E+02 -0.79016629341E+02  0.14950669988E+03  0.12509800594E+03 0.  0.
          5    1    3    3  502    0  0.17232121798E+01 -0.21245379376E+02 -0.99583446872E+02  0.10192482963E+03  0.41800000000E+01 0.  1.
         -5    1    3    3    0  502 -0.52683179572E+01  0.42377031729E+02  0.20566817531E+02  0.47581870241E+02  0.41800000000E+01 0.  1.
        -11    1    1    2    0    0 -0.28192748410E+02 -0.32455543897E+02 -0.34239997257E+02  0.54959719839E+02  0.00000000000E+00 0.  1.
         11    1    1    2    0    0  0.31737854187E+02  0.11323891544E+02 -0.11416296794E+03  0.11903237020E+03  0.00000000000E+00 0. -1.
</event>
<event>
 7    1  0.2480409E-009  0.1198542E+03  0.7561462E-02  0.1243338E+00
         -1   -1    0    0    0  501 -0.00000000000E+00  0.00000000000E+00  0.10196950362E+03  0.10196950362E+03  0.00000000000E+00 0.  1.
          1   -1    0    0  501    0  0.00000000000E+00 -0.00000000000E+00 -0.15932675056E+03  0.15932675056E+03  0.00000000000E+00 0. -1.
         25    2    1    2    0    0  0.60087059980E+02 -0.28749546884E+02 -0.22705374434E+02  0.14353034418E+03  0.12509370268E+03 0.  0.
          5    1    3    3  502    0  0.27622279114E+02  0.42068146576E+02  0.20322231267E+02  0.54435142541E+02  0.41800000000E+01 0.  1.
         -5    1    3    3    0  502  0.32464780866E+02 -0.70817693459E+02 -0.43027605700E+02  0.89095201644E+02  0.41800000000E+01 0.  1.
        -11    1    1    2    0    0 -0.67552625593E+02  0.52972248621E+02 -0.18830472588E+02  0.87886307502E+02  0.00000000000E+00 0.  1.
         11    1    1    2    0    0  0.74655656127E+01 -0.24222701737E+02 -0.15821399922E+02  0.29879602488E+02  0.00000000000E+00 0. -1.
</event>
<event>
 7    1  0.2480409E-009  0.1394495E+03  0.7561462E-02  0.1214072E+00
         -2   -1    0    0    0  501 -0.00000000000E+00  0.00000000000E+00  0.15444695685E+03  0.15444695685E+03  0.00000000000E+00 0.  1.
          2   -1    0    0  501    0  0.00000000000E+00 -0.00000000000E+00 -0.18659283140E+03  0.18659283140E+03  0.00000000000E+00 0. -1.
         25    2    1    2    0    0 -0.93712450791E+02  0.52715310968E+02 -0.91459522910E+02  0.18860534826E+03  0.12508479370E+03 0.  0.
          5    1    3    3  502    0  0.26286179777E+02  0.56314745602E+01 -0.42888753237E+02  0.50789706706E+02  0.41800000000E+01 0. -1.
         -5    1    3    3    0  502 -0.11999863057E+03  0.47083836407E+02 -0.48570769672E+02  0.13781564155E+03  0.41800000000E+01 0. -1.
        -11    1    1    2    0    0  0.26191441103E+01  0.11160225386E+02  0.37298567542E+02  0.39020426538E+02  0.00000000000E+00 0.  1.
         11    1    1    2    0    0  0.91093306681E+02 -0.63875536354E+02  0.22015080818E+02  0.11341401346E+03  0.00000000000E+00 0. -1.
</event>
<event>
 7    1  0.2480409E-009  0.1412446E+03  0.7561462E-02  0.1211664E+00
          1   -1    0    0  501    0  0.00000000000E+00  0.00000000000E+00  0.21734590559E+02  0.21734590559E+02  0.00000000000E+00 0. -1.
         -1   -1    0    0    0  501 -0.00000000000E+00 -0.00000000000E+00 -0.12139351695E+04  0.12139351695E+04  0.00000000000E+00 0.  1.
         25    2    1    2    0    0  0.59109470330E+02  0.10632319376E+03 -0.69367446763E+03  0.71528353618E+03  0.12509084334E+03 0.  0.
          5    1    3    3  502    0  0.68043274231E+02  0.12054550329E+03 -0.44602141444E+03  0.46702642331E+03  0.41800000000E+01 0.  1.
         -5    1    3    3    0  502 -0.89338039017E+01 -0.14222309525E+02 -0.24765305319E+03  0.24825711288E+03  0.41800000000E+01 0.  1.
        -11    1    1    2    0    0 -0.20383739187E+02 -0.72391254171E+02 -0.41866339213E+03  0.42536458058E+03  0.00000000000E+00 0.  1.
         11    1    1    2    0    0 -0.38725731142E+02 -0.33931939592E+02 -0.79862719138E+02  0.95021643246E+02  0.00000000000E+00 0. -1.
</event>
<event>
 7    1  0.2480409E-009  0.9756588E+02  0.7561462E-02  0.1285499E+00
          1   -1    0    0  501    0  0.00000000000E+00  0.00000000000E+00  0.27248643176E+03  0.27248643176E+03  0.00000000000E+00 0. -1.
         -1   -1    0    0    0  501 -0.00000000000E+00 -0.00000000000E+00 -0.47945054702E+02  0.47945054702E+02  0.00000000000E+00 0.  1.
         25    2    1    2    0    0  0.16934287168E+01  0.11053320172E+02  0.79573603663E+02  0.14867539597E+03  0.12508945351E+03 0.  0.
          5    1    3    3  502    0 -0.58910237121E+02  0.14608156047E+02  0.58160849586E+02  0.84166329879E+02  0.41800000000E+01 0.  1.
         -5    1    3    3    0  502  0.60603665837E+02 -0.35548358752E+01  0.21412754077E+02  0.64509066093E+02  0.41800000000E+01 0.  1.
        -11    1    1    2    0    0 -0.37131167106E+02 -0.44909451265E+01  0.12516503237E+03  0.13063375325E+03  0.00000000000E+00 0. -1.
         11    1    1    2    0    0  0.35437738389E+02 -0.65623750457E+01  0.19802741026E+02  0.41122337245E+02  0.00000000000E+00 0.  1.
</event>
<event>
 7    1  0.2480409E-009  0.7057218E+02  0.7561462E-02  0.1358158E+00
         -1   -1    0    0    0  501 -0.00000000000E+00  0.00000000000E+00  0.11480594593E+03  0.11480594593E+03  0.00000000000E+00 0.  1.
          1   -1    0    0  501    0  0.00000000000E+00 -0.00000000000E+00 -0.13084862169E+03  0.13084862169E+03  0.00000000000E+00 0. -1.
         25    2    1    2    0    0  0.28297959986E+02  0.74733561927E+01 -0.65231834378E+02  0.14408321771E+03  0.12509258898E+03 0.  0.
          5    1    3    3  502    0 -0.36164070762E+02  0.50975355144E+01  0.16151577349E+02  0.40151845951E+02  0.41800000000E+01 0.  1.
         -5    1    3    3    0  502  0.64462030748E+02  0.23758206783E+01 -0.81383411727E+02  0.10393137176E+03  0.41800000000E+01 0.  1.
        -11    1    1    2    0    0 -0.54998051654E+01 -0.14806357536E+02 -0.21646781383E+02  0.26796627113E+02  0.00000000000E+00 0. -1.
         11    1    1    2    0    0 -0.22798154820E+02  0.73330013436E+01  0.70835940006E+02  0.74774722791E+02  0.00000000000E+00 0.  1.
</event>
<event>
 7    1  0.2480409E-009  0.1145859E+03  0.7561462E-02  0.1252306E+00
         -1   -1    0    0    0  501 -0.00000000000E+00  0.00000000000E+00  0.12087669642E+02  0.12087669642E+02  0.00000000000E+00 0.  1.
          1   -1    0    0  501    0  0.00000000000E+00 -0.00000000000E+00 -0.12780070321E+04  0.12780070321E+04  0.00000000000E+00 0. -1.
         25    2    1    2    0    0 -0.59913358835E+02 -0.46808680138E+00 -0.73113943601E+03  0.74417760302E+03  0.12508237400E+03 0.  0.
          5    1    3    3  502    0  0.24167529812E+02 -0.24014772185E+02 -0.78059949153E+02  0.85273717183E+02  0.41800000000E+01 0.  1.
         -5    1    3    3    0  502 -0.84080888647E+02  0.23546685383E+02 -0.65307948685E+03  0.65890388584E+03  0.41800000000E+01 0.  1.
        -11    1    1    2    0    0  0.32909297380E+02  0.44759662869E+02 -0.33147998258E+03  0.33610329978E+03  0.00000000000E+00 0. -1.
         11    1    1    2    0    0  0.27004061456E+02 -0.44291576068E+02 -0.20329994392E+03  0.20981379898E+03  0.00000000000E+00 0.  1.
</event>
<event>
 7    1  0.2480409E-009  0.7759341E+02  0.7561462E-02  0.1336023E+00
          1   -1    0    0  501    0  0.00000000000E+00  0.00000000000E+00  0.92741082007E+02  0.92741082007E+02  0.00000000000E+00 0. -1.
         -1   -1    0    0    0  501 -0.00000000000E+00 -0.00000000000E+00 -0.13609222976E+03  0.13609222976E+03  0.00000000000E+00 0.  1.
         25    2    1    2    0    0  0.14554191943E+02  0.20686317375E+02 -0.52281993022E+01  0.12772990819E+03  0.12509135521E+03 0.  0.
          5    1    3    3  502    0  0.40503589915E+02 -0.54601470849E+01 -0.53127431447E+02  0.67159142150E+02  0.41800000000E+01 0.  1.
         -5    1    3    3    0  502 -0.25949397972E+02  0.26146464460E+02  0.47899232145E+02  0.60570766042E+02  0.41800000000E+01 0.  1.
        -11    1    1    2    0    0  0.27193607341E+02  0.55062794047E+01  0.12518440152E+02  0.30438835999E+02  0.00000000000E+00 0. -1.
         11    1    1    2    0    0 -0.41747799284E+02 -0.26192596780E+02 -0.50641388601E+02  0.70664567575E+02  0.00000000000E+00 0.  1.
</event>
<event>
 7    1  0.2480409E-009  0.8512771E+02  0.7561462E-02  0.1315099E+00
         -1   -1    0    0    0  501 -0.00000000000E+00  0.00000000000E+00  0.26819466591E+03  0.26819466591E+03  0.00000000000E+00 0.  1.
          1   -1    0    0  501    0  0.00000000000E+00 -0.00000000000E+00 -0.46888346283E+02  0.46888346283E+02  0.00000000000E+00 0. -1.
         25    2    1    2    0    0  0.10826983191E+02 -0.23309421659E+02  0.11191607577E+03  0.16980343645E+03  0.12508975302E+03 0.  0.
          5    1    3    3  502    0 -0.43975807727E+02  0.16042992642E+02  0.10880315786E+02  0.48240055449E+02  0.41800000000E+01 0. -1.
         -5    1    3    3    0  502  0.54802790918E+02 -0.39352414300E+02  0.10103575999E+03  0.12156338100E+03  0.41800000000E+01 0. -1.
        -11    1    1    2    0    0 -0.21844506154E+02  0.33932612411E+02  0.12003474574E+03  0.12663705943E+03  0.00000000000E+00 0.  1.
         11    1    1    2    0    0  0.11017522963E+02 -0.10623190752E+02 -0.10644501895E+02  0.18642516316E+02  0.00000000000E+00 0. -1.
</event>
<event>
 7    1  0.2480409E-009  0.8416531E+02  0.7561462E-02  0.1317630E+00
         -1   -1    0    0    0  501 -0.00000000000E+00  0.00000000000E+00  0.78501937482E+02  0.78501937482E+02  0.00000000000E+00 0.  1.
          1   -1    0    0  501    0  0.00000000000E+00 -0.00000000000E+00 -0.23036166648E+03  0.23036166648E+03  0.00000000000E+00 0. -1.
         25    2    1    2    0    0 -0.79674644997E+02 -0.21364382931E+02 -0.81484420032E+02  0.17056445158E+03  0.12509210815E+03 0.  0.
          5    1    3    3  502    0 -0.70284613890E+02 -0.11078535243E+02 -0.11428269274E+03  0.13468729395E+03  0.41800000000E+01 0. -1.
         -5    1    3    3    0  502 -0.93900311072E+01 -0.10285847687E+02  0.32798272706E+02  0.35877157627E+02  0.41800000000E+01 0. -1.
        -11    1    1    2    0    0  0.50249259829E+02  0.12454370563E+02 -0.88558194473E+02  0.10257998473E+03  0.00000000000E+00 0. -1.
         11    1    1    2    0    0  0.29425385168E+02  0.89100123674E+01  0.18182885502E+02  0.35719167653E+02  0.00000000000E+00 0.  1.
</event>
<event>
 7    1  0.2480409E-009  0.7377102E+02  0.7561462E-02  0.1347720E+00
         -4   -1    0    0    0  501 -0.00000000000E+00  0.00000000000E+00  0.16826749720E+03  0.16826749720E+03  0.00000000000E+00 0.  1.
          4   -1    0    0  501    0  0.00000000000E+00 -0.00000000000E+00 -0.73258432850E+02  0.73258432850E+02  0.00000000000E+00 0. -1.
         25    2    1    2    0    0  0.46628177261E+02 -0.25872607142E+02  0.54491003538E+02  0.14649424509E+03  0.12509082965E+03 0.  0.
          5    1    3    3  502    0 -0.62479630351E+01  0.12988666600E+02  0.75879495209E+02  0.77349290206E+02  0.41800000000E+01 0.  1.
         -5    1    3    3    0  502  0.52876140296E+02 -0.38861273743E+02 -0.21388491670E+02  0.69144954881E+02  0.41800000000E+01 0.  1.
        -11    1    1    2    0    0  0.55895087582E+01  0.11238210866E+02  0.38794780478E+02  0.40774685577E+02  0.00000000000E+00 0.  1.
         11    1    1    2    0    0 -0.52217686019E+02  0.14634396277E+02  0.17232803377E+01  0.54256999389E+02  0.00000000000E+00 0. -1.
</event>
<event>
 7    1  0.2916947E-009  0.9577569E+02  0.7561462E-02  0.1289439E+00
          1   -1    0    0  501    0  0.00000000000E+00  0.00000000000E+00  0.11528768941E+03  0.11528768941E+03  0.00000000000E+00 0. -1.
         -1   -1    0    0    0  501 -0.00000000000E+00 -0.00000000000E+00 -0.13697565342E+03  0.13697565342E+03  0.00000000000E+00 0.  1.
         25    2    1    2    0    0  0.51881985267E+02  0.28777275425E+02  0.12056842157E+02  0.13897214272E+03  0.12509203425E+03 0.  0.
          5    1    3    3  502    0 -0.14257007690E+02 -0.24290391285E+02 -0.32402475222E+02  0.43135579022E+02  0.41800000000E+01 0. -1.
         -5    1    3    3    0  502  0.66138992957E+02  0.53067666710E+02  0.44459317379E+02  0.95836563697E+02  0.41800000000E+01 0. -1.
        -11    1    1    2    0    0 -0.60555735412E+02 -0.15825237171E+02  0.13078562914E+02  0.63941254529E+02  0.00000000000E+00 0. -1.
         11    1    1    2    0    0  0.86737501452E+01 -0.12952038254E+02 -0.46823369088E+02  0.49349945585E+02  0.00000000000E+00 0.  1.
</event>
<event>
 7    1  0.2480409E-009  0.1199702E+03  0.7561462E-02  0.1243146E+00
         -1   -1    0    0    0  501 -0.00000000000E+00  0.00000000000E+00  0.50716878029E+03  0.50716878029E+03  0.00000000000E+00 0.  1.
          1   -1    0    0  501    0  0.00000000000E+00 -0.00000000000E+00 -0.42357398362E+02  0.42357398362E+02  0.00000000000E+00 0. -1.
         25    2    1    2    0    0 -0.38155062366E+02 -0.72082120090E+02  0.35283771122E+03  0.38313834415E+03  0.12509556138E+03 0.  0.
          5    1    3    3  502    0  0.44878395243E+02 -0.11762325638E+02  0.10622944961E+03  0.11599392668E+03  0.41800000000E+01 0. -1.
         -5    1    3    3    0  502 -0.83033457610E+02 -0.60319794452E+02  0.24660826162E+03  0.26714441746E+03  0.41800000000E+01 0. -1.
        -11    1    1    2    0    0 -0.81794817559E+01  0.70880052578E+01 -0.13730207008E+02  0.17483201217E+02  0.00000000000E+00 0. -1.
         11    1    1    2    0    0  0.46334544122E+02  0.64994114832E+02  0.12570387772E+03  0.14890463329E+03  0.00000000000E+00 0.  1.
</event>
<event>
 7    1  0.2480409E-009  0.1049659E+03  0.7561462E-02  0.1270187E+00
         -2   -1    0    0    0  501 -0.00000000000E+00  0.00000000000E+00  0.53048251303E+02  0.53048251303E+02  0.00000000000E+00 0.  1.
          2   -1    0    0  501    0  0.00000000000E+00 -0.00000000000E+00 -0.25155235560E+03  0.25155235560E+03  0.00000000000E+00 0. -1.
         25    2    1    2    0    0  0.87768753483E+01  0.31180660054E+02 -0.83170601058E+02  0.15367913002E+03  0.12510259398E+03 0.  0.
          5    1    3    3  502    0  0.41688226645E+02 -0.26155022985E+02 -0.70747016103E+02  0.86282131149E+02  0.41800000000E+01 0.  1.
         -5    1    3    3    0  502 -0.32911351296E+02  0.57335683040E+02 -0.12423584955E+02  0.67396998872E+02  0.41800000000E+01 0.  1.
        -11    1    1    2    0    0 -0.46430792225E+02 -0.16739591793E+01 -0.38157339222E+02  0.60121569694E+02  0.00000000000E+00 0.  1.
         11    1    1    2    0    0  0.37653916877E+02 -0.29506700875E+02 -0.77176164015E+02  0.90799907185E+02  0.00000000000E+00 0. -1.
</event>
<event>
 7    1  0.2480409E-009  0.9932731E+02  0.7561462E-02  0.1281717E+00
         -2   -1    0    0    0  501 -0.00000000000E+00  0.00000000000E+00  0.60236845473E+02  0.60236845473E+02  0.00000000000E+00 0. -1.
          2   -1    0    0  501    0  0.00000000000E+00 -0.00000000000E+00 -0.21743924167E+03  0.21743924167E+03  0.00000000000E+00 0.  1.
         25    2    1    2    0    0 -0.52667253109E+01  0.11451046176E+02 -0.34029266770E+02  0.13024639461E+03  0.12508903812E+03 0.  0.
          5    1    3    3  502    0 -0.62790292645E+02  0.47970799019E+01 -0.32126723161E+00  0.63112664646E+02  0.41800000000E+01 0. -1.
         -5    1    3    3    0  502  0.57523567334E+02  0.66539662736E+01 -0.33707999539E+02  0.67133729964E+02  0.41800000000E+01 0. -1.
        -11    1    1    2    0    0 -0.10725251037E+02  0.30637559047E+02 -0.73722760455E+02  0.80552693582E+02  0.00000000000E+00 0.  1.
         11    1    1    2    0    0  0.15991976348E+02 -0.42088605223E+02 -0.49450368968E+02  0.66876998947E+02  0.00000000000E+00 0. -1.
</event>
<event>
 7    1  0.2480409E-009  0.1027735E+03  0.7561462E-02  0.1274569E+00
          2   -1    0    0  501    0  0.00000000000E+00  0.00000000000E+00  0.27048306640E+03  0.27048306640E+03  0.00000000000E+00 0. -1.
         -2   -1    0    0    0  501 -0.00000000000E+00 -0.00000000000E+00 -0.72393891366E+02  0.72393891366E+02  0.00000000000E+00 0.  1.
         25    2    1    2    0    0  0.57934878859E+02  0.61126292097E+02  0.73734734363E+02  0.16785944464E+03  0.12508840206E+03 0.  0.
          5    1    3    3  502    0  0.54592356596E+02  0.55276573453E+02 -0.14607316352E+02  0.79162308344E+02  0.41800000000E+01 0. -1.
         -5    1    3    3    0  502  0.33425222632E+01  0.58497186441E+01  0.88342050714E+02  0.88697136299E+02  0.41800000000E+01 0. -1.
        -11    1    1    2    0    0  0.26255207560E+01 -0.59165015937E+02  0.41266070040E+02  0.72182276264E+02  0.00000000000E+00 0. -1.
         11    1    1    2    0    0 -0.60560399615E+02 -0.19612761602E+01  0.83088370636E+02  0.10283523686E+03  0.00000000000E+00 0.  1.
</event>
<event>
 7    1  0.2480409E-009  0.9246396E+02  0.7561462E-02  0.1296992E+00
          1   -1    0    0  501    0  0.00000000000E+00  0.00000000000E+00  0.98941743953E+02  0.98941743953E+02  0.00000000000E+00 0. -1.
         -1   -1    0    0    0  501 -0.00000000000E+00 -0.00000000000E+00 -0.13205028237E+03  0.13205028237E+03  0.00000000000E+00 0.  1.
         25    2    1    2    0    0 -0.41959235831E+01  0.18729783115E+02 -0.47909356673E+02  0.13531640689E+03  0.12508722143E+03 0.  0.
          5    1    3    3  502    0  0.75588047088E+01 -0.48774605525E+02  0.33437963228E+01  0.49646259140E+02  0.41800000000E+01 0. -1.
         -5    1    3    3    0  502 -0.11754728292E+02  0.67504388640E+02 -0.51253152996E+02  0.85670147746E+02  0.41800000000E+01 0. -1.
        -11    1    1    2    0    0  0.31346151462E+02 -0.23504921731E+02 -0.25573721235E+02  0.46787581417E+02  0.00000000000E+00 0.  1.
         11    1    1    2    0    0 -0.27150227879E+02  0.47751386159E+01  0.40374539489E+02  0.48888038022E+02  0.00000000000E+00 0. -1.
</event>
<event>
 7    1  0.2480409E-009  0.1163934E+03  0.7561462E-02  0.1249168E+00
          1   -1    0    0  501    0  0.00000000000E+00  0.00000000000E+00  0.21900583310E+03  0.21900583310E+03  0.00000000000E+00 0. -1.
         -1   -1    0    0    0  501 -0.00000000000E+00 -0.00000000000E+00 -0.25471048118E+03  0.25471048118E+03  0.00000000000E+00 0.  1.
         25    2    1    2    0    0  0.15680088593E+02 -0.40968453380E+02 -0.22349350063E+03  0.25984938914E+03  0.12509228939E+03 0.  0.
          5    1    3    3  502    0  0.61303641397E+02 -0.55502392583E+02 -0.16063825751E+03  0.18072292109E+03  0.41800000000E+01 0.  1.
         -5    1    3    3    0  502 -0.45623552804E+02  0.14533939203E+02 -0.62855243115E+02  0.79126468051E+02  0.41800000000E+01 0.  1.
        -11    1    1    2    0    0  0.30875038844E+02  0.45671284201E+02  0.11120386676E+03  0.12411862957E+03  0.00000000000E+00 0. -1.
         11    1    1    2    0    0 -0.46555127437E+02 -0.47028308215E+01  0.76584985787E+02  0.89748295562E+02  0.00000000000E+00 0.  1.
</event>
<event>
 7    1  0.2480409E-009  0.1563386E+03  0.7561462E-02  0.1192894E+00
         -1   -1    0    0    0  501 -0.00000000000E+00  0.00000000000E+00  0.16330699001E+04  0.16330699001E+04  0.00000000000E+00 0.  1.
          1   -1    0    0  501    0  0.00000000000E+00 -0.00000000000E+00 -0.17476307602E+02  0.17476307602E+02  0.00000000000E+00 0. -1.
         25    2    1    2    0    0  0.86089020477E+02  0.94232847221E+02  0.94426350167E+03  0.96102653035E+03  0.12508909831E+03 0.  0.
          5    1    3    3  502    0  0.27253842250E+01 -0.16433813639E+02  0.36519425576E+03  0.36559788674E+03  0.41800000000E+01 0. -1.
         -5    1    3    3    0  502  0.83363636252E+02  0.11066666086E+03  0.57906924591E+03  0.59542864362E+03  0.41800000000E+01 0. -1.
        -11    1    1    2    0    0 -0.10271895710E+03 -0.60329240573E+02  0.53091663736E+03  0.54411697019E+03  0.00000000000E+00 0.  1.
         11    1    1    2    0    0  0.16629936624E+02 -0.33903606648E+02  0.14041345346E+03  0.14540270716E+03  0.00000000000E+00 0. -1.
</event>
<event>
 7    1  0.2480409E-009  0.1125172E+03  0.7561462E-02  0.1255978E+00
          2   -1    0    0  501    0  0.00000000000E+00  0.00000000000E+00  0.88619088602E+03  0.88619088602E+03  0.00000000000E+00 0. -1.
         -2   -1    0    0    0  501 -0.00000000000E+00 -0.00000000000E+00 -0.16439894417E+02  0.16439894417E+02  0.00000000000E+00 0.  1.
         25    2    1    2    0    0 -0.18027634738E+02 -0.48793719822E+02  0.42564877540E+03  0.44668531184E+03  0.12508023467E+03 0.  0.
          5    1    3    3  502    0 -0.64863418414E+02 -0.30279246352E+02  0.14776706961E+03  0.16424577641E+03  0.41800000000E+01 0. -1.
         -5    1    3    3    0  502  0.46835783675E+02 -0.18514473470E+02  0.27788170579E+03  0.28243953543E+03  0.41800000000E+01 0. -1.
        -11    1    1    2    0    0 -0.70362777509E+01 -0.24417668465E+02  0.92376764548E+02  0.95808133090E+02  0.00000000000E+00 0.  1.
         11    1    1    2    0    0  0.25063912489E+02  0.73211388288E+02  0.35172545166E+03  0.36013733551E+03  0.00000000000E+00 0. -1.
</event>
<event>
 7    1  0.2480409E-009  0.6940090E+02  0.7561462E-02  0.1362142E+00
          3   -1    0    0  501    0  0.00000000000E+00  0.00000000000E+00  0.85200903838E+02  0.85200903838E+02  0.00000000000E+00 0. -1.
         -3   -1    0    0    0  501 -0.00000000000E+00 -0.00000000000E+00 -0.15568393086E+03  0.15568393086E+03  0.00000000000E+00 0.  1.
         25    2    1    2    0    0 -0.16608009113E+01 -0.71742177540E+01 -0.78749998406E+02  0.14799746504E+03  0.12508980673E+03 0.  0.
          5    1    3    3  502    0  0.20003830386E+02  0.84750142283E+01 -0.10677750113E+03  0.10904534032E+03  0.41800000000E+01 0.  1.
         -5    1    3    3    0  502 -0.21664631297E+02 -0.15649231982E+02  0.28027502729E+02  0.38952124719E+02  0.41800000000E+01 0.  1.
        -11    1    1    2    0    0  0.24377659217E+02  0.41697646366E+02 -0.70512921459E+01  0.48812751431E+02  0.00000000000E+00 0.  1.
         11    1    1    2    0    0 -0.22716858306E+02 -0.34523428612E+02  0.15318263532E+02  0.44074618229E+02  0.00000000000E+00 0. -1.
</event>
<event>
 7    1  0.2480409E-009  0.1067359E+03  0.7561462E-02  0.1266737E+00
         -1   -1    0    0    0  501 -0.00000000000E+00  0.00000000000E+00  0.69647959900E+03  0.69647959900E+03  0.00000000000E+00 0.  1.
          1   -1    0    0  501    0  0.00000000000E+00 -0.00000000000E+00 -0.28512126856E+02  0.28512126856E+02  0.00000000000E+00 0. -1.
         25    2    1    2    0    0 -0.33668947955E+02 -0.78592846974E+02  0.29628437995E+03  0.33277899736E+03  0.12508794357E+03 0.  0.
          5    1    3    3  502    0 -0.31761272245E+02 -0.11996937182E+02  0.24811000305E+03  0.25045708401E+03  0.41800000000E+01 0. -1.
         -5    1    3    3    0  502 -0.19076757102E+01 -0.66595909792E+02  0.48174376903E+02  0.82321913350E+02  0.41800000000E+01 0. -1.
        -11    1    1    2    0    0  0.48074402926E+02  0.19824385161E+02  0.26041591569E+03  0.26555715695E+03  0.00000000000E+00 0.  1.
         11    1    1    2    0    0 -0.14405454971E+02  0.58768461814E+02  0.11126717650E+03  0.12665557154E+03  0.00000000000E+00 0. -1.
</event>
<event>
 7    1  0.2480409E-009  0.9573894E+02  0.7561462E-02  0.1289520E+00
          2   -1    0    0  501    0  0.00000000000E+00  0.00000000000E+00  0.18252262308E+03  0.18252262308E+03  0.00000000000E+00 0. -1.
         -2   -1    0    0    0  501 -0.00000000000E+00 -0.00000000000E+00 -0.77153670116E+02  0.77153670116E+02  0.00000000000E+00 0.  1.
         25    2    1    2    0    0 -0.24966930519E+02  0.42257583255E+02  0.58496740713E+02  0.14655405134E+03  0.12508864987E+03 0.  0.
          5    1    3    3  502    0  0.20743933034E+02  0.54664155753E+02  0.75918311456E+02  0.95914248661E+02  0.41800000000E+01 0. -1.
         -5    1    3    3    0  502 -0.45710863554E+02 -0.12406572498E+02 -0.17421570743E+02  0.50639802677E+02  0.41800000000E+01 0. -1.
        -11    1    1    2    0    0 -0.18058394639E+02  0.74810082330E+01 -0.13574203961E+02  0.23797691364E+02  0.00000000000E+00 0.  1.
         11    1    1    2    0    0  0.43025325158E+02 -0.49738591488E+02  0.60446416210E+02  0.89324550493E+02  0.00000000000E+00 0. -1.
</event>
<event>
 7    1  0.2480409E-009  0.6758888E+02  0.7561462E-02  0.1368490E+00
         -1   -1    0    0    0  501 -0.00000000000E+00  0.00000000000E+00  0.15891459922E+02  0.15891459922E+02  0.00000000000E+00 0.  1.
          1   -1    0    0  501    0  0.00000000000E+00 -0.00000000000E+00 -0.91124905129E+03  0.91124905129E+03  0.00000000000E+00 0. -1.
         25    2    1    2    0    0  0.12344289245E+02  0.38352108791E+01 -0.69172691262E+03  0.70306531409E+03  0.12509046290E+03 0.  0.
          5    1    3    3  502    0  0.12751805194E+02 -0.16776272873E+02 -0.15451096359E+02  0.26462438397E+02  0.41800000000E+01 0. -1.
         -5    1    3    3    0  502 -0.40751594960E+00  0.20611483752E+02 -0.67627581626E+03  0.67660287569E+03  0.41800000000E+01 0. -1.
        -11    1    1    2    0    0  0.37413328437E+02  0.13788254904E+02 -0.72946973862E+02  0.83133231103E+02  0.00000000000E+00 0.  1.
         11    1    1    2    0    0 -0.49757617682E+02 -0.17623465783E+02 -0.13068370489E+03  0.14094196603E+03  0.00000000000E+00 0. -1.
</event>
<event>
 7    1  0.2480409E-009  0.2560090E+03  0.7561462E-02  0.1109565E+00
          2   -1    0    0  501    0  0.00000000000E+00  0.00000000000E+00  0.45088749011E+03  0.45088749011E+03  0.00000000000E+00 0. -1.
         -2   -1    0    0    0  501 -0.00000000000E+00 -0.00000000000E+00 -0.16721353166E+03  0.16721353166E+03  0.00000000000E+00 0.  1.
         25    2    1    2    0    0 -0.17311101827E+03 -0.16484396171E+03  0.20967973970E+03  0.34168988033E+03  0.12508167219E+03 0.  0.
          5    1    3    3  502    0 -0.11080053637E+02 -0.76503557351E+02  0.27012150068E+02  0.81992015021E+02  0.41800000000E+01 0.  1.
         -5    1    3    3    0  502 -0.16203096463E+03 -0.88340404363E+02  0.18266758964E+03  0.25969786531E+03  0.41800000000E+01 0.  1.
        -11    1    1    2    0    0  0.59732972415E+02  0.10743390770E+03 -0.11169711882E+02  0.12342947371E+03  0.00000000000E+00 0.  1.
         11    1    1    2    0    0  0.11337804585E+03  0.57410054015E+02  0.85163930629E+02  0.15298166774E+03  0.00000000000E+00 0. -1.
</event>
<event>
 7    1  0.2480409E-009  0.1071097E+03  0.7561462E-02  0.1266018E+00
          1   -1    0    0  501    0  0.00000000000E+00  0.00000000000E+00  0.18050419867E+03  0.18050419867E+03  0.00000000000E+00 0. -1.
         -1   -1    0    0    0  501 -0.00000000000E+00 -0.00000000000E+00 -0.10447152006E+03  0.10447152006E+03  0.00000000000E+00 0.  1.
         25    2    1    2    0    0 -0.22969950929E+02 -0.56522908352E+02  0.98682250400E+02  0.17061276494E+03  0.12509225077E+03 0.  0.
          5    1    3    3  502    0 -0.69277146814E+02 -0.56253797102E+01  0.57562133055E+02  0.90342899718E+02  0.41800000000E+01 0. -1.
         -5    1    3    3    0  502  0.46307195886E+02 -0.50897528642E+02  0.41120117345E+02  0.80269865224E+02  0.41800000000E+01 0. -1.
        -11    1    1    2    0    0 -0.13271774479E+02  0.21407608338E+02  0.31508256426E+02  0.40338516527E+02  0.00000000000E+00 0. -1.
         11    1    1    2    0    0  0.36241725408E+02  0.35115300014E+02 -0.54157828213E+02  0.74024437265E+02  0.00000000000E+00 0.  1.
</event>
<event>
 7    1  0.2480409E-009  0.4495320E+03  0.7561462E-02  0.1027862E+00
          1   -1    0    0  501    0  0.00000000000E+00  0.00000000000E+00  0.14343318963E+03  0.14343318963E+03  0.00000000000E+00 0. -1.
         -1   -1    0    0    0  501 -0.00000000000E+00 -0.00000000000E+00 -0.14444165029E+04  0.14444165029E+04  0.00000000000E+00 0.  1.
         25    2    1    2    0    0 -0.11893263459E+03 -0.42304291936E+03 -0.58470143199E+03  0.74204611238E+03  0.12508551129E+03 0.  0.
          5    1    3    3  502    0 -0.43810690711E+02 -0.34544534175E+03 -0.46168472248E+03  0.57829241403E+03  0.41800000000E+01 0. -1.
         -5    1    3    3    0  502 -0.75121943880E+02 -0.77597577606E+02 -0.12301670951E+03  0.16375369835E+03  0.41800000000E+01 0. -1.
        -11    1    1    2    0    0  0.77513290730E+02  0.17687362912E+03 -0.38790045024E+03  0.43331207023E+03  0.00000000000E+00 0.  1.
         11    1    1    2    0    0  0.41419343861E+02  0.24616929024E+03 -0.32838143108E+03  0.41249150995E+03  0.00000000000E+00 0. -1.
</event>
<event>
 7    1  0.2480409E-009  0.8368241E+02  0.7561462E-02  0.1318915E+00
          4   -1    0    0  501    0  0.00000000000E+00  0.00000000000E+00  0.59778573132E+03  0.59778573132E+03  0.00000000000E+00 0. -1.
         -4   -1    0    0    0  501 -0.00000000000E+00 -0.00000000000E+00 -0.26050477915E+02  0.26050477915E+02  0.00000000000E+00 0.  1.
         25    2    1    2    0    0  0.30061701948E+02 -0.28585438396E+02  0.20061477989E+03  0.24002785170E+03  0.12508495700E+03 0.  0.
          5    1    3    3  502    0  0.46183790402E+02 -0.13025931501E+02  0.11469200839E+02  0.49513961216E+02  0.41800000000E+01 0.  1.
         -5    1    3    3    0  502 -0.16122088455E+02 -0.15559506895E+02  0.18914557905E+03  0.19051389048E+03  0.41800000000E+01 0.  1.
        -11    1    1    2    0    0 -0.92826028077E+01 -0.31494179519E+02  0.15955327659E+03  0.16289658722E+03  0.00000000000E+00 0.  1.
         11    1    1    2    0    0 -0.20779099140E+02  0.60079617915E+02  0.21156719693E+03  0.22091177032E+03  0.00000000000E+00 0. -1.
</event>
<event>
 7    1  0.2480409E-009  0.1114916E+03  0.7561462E-02  0.1257832E+00
         -3   -1    0    0    0  501 -0.00000000000E+00  0.00000000000E+00  0.44120020793E+02  0.44120020793E+02  0.00000000000E+00 0.  1.
          3   -1    0    0  501    0  0.00000000000E+00 -0.00000000000E+00 -0.40863358458E+03  0.40863358458E+03  0.00000000000E+00 0. -1.
         25    2    1    2    0    0  0.63774361245E+02 -0.29536073647E+02 -0.25377773615E+03  0.29152985104E+03  0.12508783267E+03 0.  0.
          5    1    3    3  502    0  0.62656347118E+02 -0.62856261933E+02 -0.23870440944E+03  0.25470373963E+03  0.41800000000E+01 0. -1.
         -5    1    3    3    0  502  0.11180141274E+01  0.33320188286E+02 -0.15073326711E+02  0.36826111404E+02  0.41800000000E+01 0. -1.
        -11    1    1    2    0    0 -0.44190105044E+02  0.53626184539E+02 -0.31832035281E+02  0.76431744204E+02  0.00000000000E+00 0.  1.
         11    1    1    2    0    0 -0.19584256201E+02 -0.24090110892E+02 -0.78903792363E+02  0.84792010137E+02  0.00000000000E+00 0. -1.
</event>
<event>
 7    1  0.2480409E-009  0.1105797E+03  0.7561462E-02  0.1259500E+00
          1   -1    0    0  501    0  0.00000000000E+00  0.00000000000E+00  0.80584976448E+02  0.80584976448E+02  0.00000000000E+00 0. -1.
         -1   -1    0    0    0  501 -0.00000000000E+00 -0.00000000000E+00 -0.42127253109E+03  0.42127253109E+03  0.00000000000E+00 0.  1.
         25    2    1    2    0    0 -0.67867201123E+02 -0.85230715159E+02 -0.32601452426E+03  0.36578821272E+03  0.12508123258E+03 0.  0.
          5    1    3    3  502    0 -0.29259856408E+02 -0.56046063595E+02 -0.30724581044E+03  0.31371126992E+03  0.41800000000E+01 0. -1.
         -5    1    3    3    0  502 -0.38607344714E+02 -0.29184651564E+02 -0.18768713813E+02  0.52076942796E+02  0.41800000000E+01 0. -1.
        -11    1    1    2    0    0  0.33334762895E+02  0.35745046146E+02  0.33163121805E+02  0.59065280741E+02  0.00000000000E+00 0. -1.
         11    1    1    2    0    0  0.34532438228E+02  0.49485669013E+02 -0.47836152188E+02  0.77004014075E+02  0.00000000000E+00 0.  1.
</event>
<event>
 7    1  0.2480409E-009  0.2208080E+03  0.7561462E-02  0.1133282E+00
          1   -1    0    0  501    0  0.00000000000E+00  0.00000000000E+00  0.12868097292E+03  0.12868097292E+03  0.00000000000E+00 0. -1.
         -1   -1    0    0    0  501 -0.00000000000E+00 -0.00000000000E+00 -0.44910536056E+03  0.44910536056E+03  0.00000000000E+00 0.  1.
         25    2    1    2    0    0  0.19190640049E+03 -0.93529149036E+02 -0.18738994497E+03  0.31038387369E+03  0.12508952514E+03 0.  0.
          5    1    3    3  502    0  0.96322104338E+02 -0.34796328765E+02 -0.13474629943E+02  0.10338167309E+03  0.41800000000E+01 0.  1.
         -5    1    3    3    0  502  0.95584296149E+02 -0.58732820271E+02 -0.17391531503E+03  0.20700220059E+03  0.41800000000E+01 0.  1.
        -11    1    1    2    0    0 -0.10861156238E+03  0.93871458952E+02 -0.56467218247E+02  0.15426233832E+03  0.00000000000E+00 0. -1.
         11    1    1    2    0    0 -0.83294838108E+02 -0.34230991567E+00 -0.76567224421E+02  0.11314012147E+03  0.00000000000E+00 0.  1.
</event>
<event>
 7    1  0.2480409E-009  0.1262680E+03  0.7561462E-02  0.1233101E+00
          4   -1    0    0  501    0  0.00000000000E+00  0.00000000000E+00  0.58442033567E+02  0.58442033567E+02  0.00000000000E+00 0. -1.
         -4   -1    0    0    0  501 -0.00000000000E+00 -0.00000000000E+00 -0.31512156355E+03  0.31512156355E+03  0.00000000000E+00 0.  1.
         25    2    1    2    0    0  0.54077982397E+02  0.60419820514E+02 -0.15484364233E+03  0.21493909446E+03  0.12508907973E+03 0.  0.
          5    1    3    3  502    0 -0.28337126389E+02  0.33810167982E+02 -0.89226338474E+01  0.45201836088E+02  0.41800000000E+01 0. -1.
         -5    1    3    3    0  502  0.82415108786E+02  0.26609652532E+02 -0.14592100848E+03  0.16973725838E+03  0.41800000000E+01 0. -1.
        -11    1    1    2    0    0 -0.69461933904E+02 -0.11716613055E+02 -0.62206094146E+02  0.93977856073E+02  0.00000000000E+00 0. -1.
         11    1    1    2    0    0  0.15383951507E+02 -0.48703207459E+02 -0.39629793511E+02  0.64646646584E+02  0.00000000000E+00 0.  1.
</event>
<event>
 7    1  0.2480409E-009  0.1184694E+03  0.7561462E-02  0.1245644E+00
          2   -1    0    0  501    0  0.00000000000E+00  0.00000000000E+00  0.16727376433E+04  0.16727376433E+04  0.00000000000E+00 0. -1.
         -2   -1    0    0    0  501 -0.00000000000E+00 -0.00000000000E+00 -0.93812924059E+01  0.93812924059E+01  0.00000000000E+00 0.  1.
         25    2    1    2    0    0  0.50686941024E+02 -0.18228002666E+02  0.11759582103E+04  0.11838185578E+04  0.12508892576E+03 0.  0.
          5    1    3    3  502    0  0.18413249460E+02  0.53119915156E+02  0.41030614318E+03  0.41416105162E+03  0.41800000000E+01 0. -1.
         -5    1    3    3    0  502  0.32273691564E+02 -0.71347917822E+02  0.76565206714E+03  0.76965750621E+03  0.41800000000E+01 0. -1.
        -11    1    1    2    0    0 -0.24631048432E+02 -0.35047893412E+02  0.24753193083E+03  0.25121126599E+03  0.00000000000E+00 0.  1.
         11    1    1    2    0    0 -0.26055892592E+02  0.53275896077E+02  0.23986620978E+03  0.24708911193E+03  0.00000000000E+00 0. -1.
</event>
<event>
 7    1  0.2480409E-009  0.1100635E+03  0.7561462E-02  0.1260452E+00
          4   -1    0    0  501    0  0.00000000000E+00  0.00000000000E+00  0.66294944419E+02  0.66294944419E+02  0.00000000000E+00 0. -1.
         -4   -1    0    0    0  501 -0.00000000000E+00 -0.00000000000E+00 -0.21991805726E+03  0.21991805726E+03  0.00000000000E+00 0.  1.
         25    2    1    2    0    0 -0.57263656286E+02 -0.12503218142E+02 -0.82567280769E+02  0.16093567220E+03  0.12508987944E+03 0.  0.
          5    1    3    3  502    0  0.17819344158E+02 -0.47091349517E+02 -0.52525319368E+02  0.72880078212E+02  0.41800000000E+01 0. -1.
         -5    1    3    3    0  502 -0.75083000445E+02  0.34588131375E+02 -0.30041961401E+02  0.88055593988E+02  0.41800000000E+01 0. -1.
        -11    1    1    2    0    0  0.12838420824E+02 -0.25383016725E+02 -0.59228699192E+02  0.65705109354E+02  0.00000000000E+00 0.  1.
         11    1    1    2    0    0  0.44425235462E+02  0.37886234867E+02 -0.11827132881E+02  0.59572220124E+02  0.00000000000E+00 0. -1.
</event>
<event>
 7    1  0.2480409E-009  0.8624070E+02  0.7561462E-02  0.1312219E+00
          1   -1    0    0  501    0  0.00000000000E+00  0.00000000000E+00  0.14168498462E+03  0.14168498462E+03  0.00000000000E+00 0. -1.
         -1   -1    0    0    0  501 -0.00000000000E+00 -0.00000000000E+00 -0.11132469171E+03  0.11132469171E+03  0.00000000000E+00 0.  1.
         25    2    1    2    0    0 -0.63408970148E+02  0.43952571231E+01  0.24378088148E+02  0.14241353500E+03  0.12508920012E+03 0.  0.
          5    1    3    3  502    0 -0.33085278482E+02 -0.18612484724E+02  0.71881895729E+02  0.81397417486E+02  0.41800000000E+01 0.  1.
         -5    1    3    3    0  502 -0.30323691665E+02  0.23007741847E+02 -0.47503807581E+02  0.61016117509E+02  0.41800000000E+01 0.  1.
        -11    1    1    2    0    0  0.77106345164E+02  0.80053907030E+01 -0.18719203827E+02  0.79748876712E+02  0.00000000000E+00 0.  1.
         11    1    1    2    0    0 -0.13697375017E+02 -0.12400647826E+02  0.24701408590E+02  0.30847264630E+02  0.00000000000E+00 0. -1.
</event>
<event>
 7    1  0.2480409E-009  0.8320703E+02  0.7561462E-02  0.1320189E+00
          1   -1    0    0  501    0  0.00000000000E+00  0.00000000000E+00  0.10270638168E+03  0.10270638168E+03  0.00000000000E+00 0. -1.
         -1   -1    0    0    0  501 -0.00000000000E+00 -0.00000000000E+00 -0.14104361800E+03  0.14104361800E+03  0.00000000000E+00 0.  1.
         25    2    1    2    0    0  0.43000458685E+02 -0.29427014119E+02 -0.88953565771E+01  0.13580045414E+03  0.12509055667E+03 0.  0.
          5    1    3    3  502    0  0.53500411189E+02 -0.15996988422E+02  0.49552572288E+02  0.74773842059E+02  0.41800000000E+01 0.  1.
         -5    1    3    3    0  502 -0.10499952504E+02 -0.13430025697E+02 -0.58447928865E+02  0.61026612076E+02  0.41800000000E+01 0.  1.
        -11    1    1    2    0    0 -0.11829827406E+02 -0.26397622789E+02  0.12469000357E+02  0.31500083734E+02  0.00000000000E+00 0. -1.
         11    1    1    2    0    0 -0.31170631278E+02  0.55824636908E+02 -0.41910880097E+02  0.76449461808E+02  0.00000000000E+00 0.  1.
</event>
<event>
 7    1  0.2480409E-009  0.1196688E+03  0.7561462E-02  0.1243644E+00
         -2   -1    0    0    0  501 -0.00000000000E+00  0.00000000000E+00  0.14898710411E+03  0.14898710411E+03  0.00000000000E+00 0.  1.
          2   -1    0    0  501    0  0.00000000000E+00 -0.00000000000E+00 -0.11392090898E+03  0.11392090898E+03  0.00000000000E+00 0. -1.
         25    2    1    2    0    0 -0.40588943060E+02  0.38590236496E+02 -0.24661099519E+02  0.13924714014E+03  0.12507968482E+03 0.  0.
          5    1    3    3  502    0  0.40355049373E+02  0.31438623489E+02  0.72712070052E+01  0.51838787679E+02  0.41800000000E+01 0. -1.
         -5    1    3    3    0  502 -0.80943992433E+02  0.71516130068E+01 -0.31932306524E+02  0.87408352458E+02  0.41800000000E+01 0. -1.
        -11    1    1    2    0    0  0.10747673742E+02 -0.65551981965E+02  0.47371804481E+02  0.81588373499E+02  0.00000000000E+00 0.  1.
         11    1    1    2    0    0  0.29841269318E+02  0.26961745470E+02  0.12355490161E+02  0.42072499455E+02  0.00000000000E+00 0. -1.
</event>
<event>
 7    1  0.2480409E-009  0.9532351E+02  0.7561462E-02  0.1290449E+00
          1   -1    0    0  501    0  0.00000000000E+00  0.00000000000E+00  0.28935038766E+03  0.28935038766E+03  0.00000000000E+00 0. -1.
         -1   -1    0    0    0  501 -0.00000000000E+00 -0.00000000000E+00 -0.76287891474E+02  0.76287891474E+02  0.00000000000E+00 0.  1.
         25    2    1    2    0    0  0.68033847051E+02 -0.63529730128E+01  0.20948187119E+03  0.25337519803E+03  0.12508945603E+03 0.  0.
          5    1    3    3  502    0  0.84173917427E+02 -0.28991984384E+02  0.76502012801E+02  0.11745558265E+03  0.41800000000E+01 0.  1.
         -5    1    3    3    0  502 -0.16140070375E+02  0.22639011371E+02  0.13297985839E+03  0.13591961538E+03  0.41800000000E+01 0.  1.
        -11    1    1    2    0    0 -0.53178588487E+02  0.16190922126E+02 -0.37790838108E+02  0.67217971389E+02  0.00000000000E+00 0.  1.
         11    1    1    2    0    0 -0.14855258564E+02 -0.98379491132E+01  0.41371463110E+02  0.45045109719E+02  0.00000000000E+00 0. -1.
</event>
<event>
 7    1  0.2480409E-009  0.1806788E+03  0.7561462E-02  0.1167148E+00
          1   -1    0    0  501    0  0.00000000000E+00  0.00000000000E+00  0.25938785189E+03  0.25938785189E+03  0.00000000000E+00 0. -1.
         -1   -1    0    0    0  501 -0.00000000000E+00 -0.00000000000E+00 -0.27922677217E+03  0.27922677217E+03  0.00000000000E+00 0.  1.
         25    2    1    2    0    0  0.15496776532E+03  0.39930146315E+02  0.17680239184E+03  0.26928992816E+03  0.12509418362E+03 0.  0.
          5    1    3    3  502    0  0.15340001828E+03  0.70500174433E+02  0.16533352479E+03  0.23633553906E+03  0.41800000000E+01 0. -1.
         -5    1    3    3    0  502  0.15677470453E+01 -0.30570028118E+02  0.11468867050E+02  0.32954389106E+02  0.41800000000E+01 0. -1.
        -11    1    1    2    0    0 -0.11686836194E+03 -0.19925413137E+02 -0.19252033802E+03  0.22609581301E+03  0.00000000000E+00 0.  1.
         11    1    1    2    0    0 -0.38099403383E+02 -0.20004733178E+02 -0.41209740968E+01  0.43228882881E+02  0.00000000000E+00 0. -1.
</event>
<event>
 7    1  0.2480409E-009  0.7952861E+02  0.7561462E-02  0.1330395E+00
          1   -1    0    0  501    0  0.00000000000E+00  0.00000000000E+00  0.16390374078E+03  0.16390374078E+03  0.00000000000E+00 0. -1.
         -1   -1    0    0    0  501 -0.00000000000E+00 -0.00000000000E+00 -0.73663764855E+02  0.73663764855E+02  0.00000000000E+00 0.  1.
         25    2    1    2    0    0 -0.82997014761E+01 -0.27517454435E+02  0.55456094705E+02  0.13981650077E+03  0.12508868896E+03 0.  0.
          5    1    3    3  502    0  0.32226750298E+02 -0.10800755444E+02 -0.28800517892E+02  0.44745524735E+02  0.41800000000E+01 0. -1.
         -5    1    3    3    0  502 -0.40526451774E+02 -0.16716698991E+02  0.84256612598E+02  0.95070976039E+02  0.41800000000E+01 0. -1.
        -11    1    1    2    0    0 -0.32273398684E+02  0.96905708839E+00 -0.78025240096E+01  0.33217325527E+02  0.00000000000E+00 0.  1.
         11    1    1    2    0    0  0.40573100160E+02  0.26548397347E+02  0.42586405231E+02  0.64533679337E+02  0.00000000000E+00 0. -1.
</event>
<event>
 7    1  0.2480409E-009  0.1362233E+03  0.7561462E-02  0.1218503E+00
          1   -1    0    0  501    0  0.00000000000E+00  0.00000000000E+00  0.32895565581E+03  0.32895565581E+03  0.00000000000E+00 0. -1.
         -1   -1    0    0    0  501 -0.00000000000E+00 -0.00000000000E+00 -0.79952949236E+02  0.79952949236E+02  0.00000000000E+00 0.  1.
         25    2    1    2    0    0  0.30030659173E+02  0.11401113338E+03  0.16576282910E+03  0.23879690946E+03  0.12508504881E+03 0.  0.
          5    1    3    3  502    0  0.50386857657E+02  0.11434291187E+03  0.75235263305E+02  0.14591420138E+03  0.41800000000E+01 0. -1.
         -5    1    3    3    0  502 -0.20356198484E+02 -0.33177848623E+00  0.90527565792E+02  0.92882708089E+02  0.41800000000E+01 0. -1.
        -11    1    1    2    0    0 -0.28828830085E+02 -0.26614390763E+02  0.71987271362E+02  0.81985330870E+02  0.00000000000E+00 0.  1.
         11    1    1    2    0    0 -0.12018290876E+01 -0.87396742616E+02  0.11252606115E+02  0.88126364712E+02  0.00000000000E+00 0. -1.
</event>
<event>
 7    1  0.2540236E-009  0.9775902E+02  0.7561462E-02  0.1285080E+00
         -4   -1    0    0    0  501 -0.00000000000E+00  0.00000000000E+00  0.14280464854E+03  0.14280464854E+03  0.00000000000E+00 0.  1.
          4   -1    0    0  501    0  0.00000000000E+00 -0.00000000000E+00 -0.14100980184E+03  0.14100980184E+03  0.00000000000E+00 0. -1.
         25    2    1    2    0    0  0.87743777000E+02  0.21121003382E+02  0.15012606109E+02  0.15497707142E+03  0.12508975633E+03 0.  0.
          5    1    3    3  502    0  0.57008010742E+02  0.21667562305E+02  0.69325822934E+02  0.92428018861E+02  0.41800000000E+01 0.  1.
         -5    1    3    3    0  502  0.30735766257E+02 -0.54655892355E+00 -0.54313216825E+02  0.62549052559E+02  0.41800000000E+01 0.  1.
        -11    1    1    2    0    0 -0.28539069191E+02  0.16742580814E+02  0.31381976998E+02  0.45602861345E+02  0.00000000000E+00 0.  1.
         11    1    1    2    0    0 -0.59204707809E+02 -0.37863584196E+02 -0.44599736413E+02  0.83234517617E+02  0.00000000000E+00 0. -1.
</event>
<event>
 7    1  0.2480409E-009  0.2513211E+03  0.7561462E-02  0.1112473E+00
         -2   -1    0    0    0  501 -0.00000000000E+00  0.00000000000E+00  0.10060682179E+03  0.10060682179E+03  0.00000000000E+00 0. -1.
          2   -1    0    0  501    0  0.00000000000E+00 -0.00000000000E+00 -0.63886801752E+03  0.63886801752E+03  0.00000000000E+00 0.  1.
         25    2    1    2    0    0 -0.16128022161E+03 -0.16180640833E+03 -0.25722440768E+03  0.36606694278E+03  0.12509191433E+03 0.  0.
          5    1    3    3  502    0 -0.11788571312E+02 -0.90212690539E+02 -0.12120291075E+03  0.15160777659E+03  0.41800000000E+01 0.  1.
         -5    1    3    3    0  502 -0.14949165030E+03 -0.71593717787E+02 -0.13602149693E+03  0.21445916619E+03  0.41800000000E+01 0.  1.
        -11    1    1    2    0    0  0.27286594468E+02  0.89370385841E+02 -0.10154554187E+03  0.13799681582E+03  0.00000000000E+00 0. -1.
         11    1    1    2    0    0  0.13399362714E+03  0.72436022486E+02 -0.17949124618E+03  0.23541108072E+03  0.00000000000E+00 0.  1.
</event>
<event>
 7    1  0.2480409E-009  0.1012531E+03  0.7561462E-02  0.1277683E+00
         -1   -1    0    0    0  501 -0.00000000000E+00  0.00000000000E+00  0.13939750059E+02  0.13939750059E+02  0.00000000000E+00 0.  1.
          1   -1    0    0  501    0  0.00000000000E+00 -0.00000000000E+00 -0.10106250969E+04  0.10106250969E+04  0.00000000000E+00 0. -1.
         25    2    1    2    0    0  0.61036526963E+01 -0.17565985256E+02 -0.75794887833E+03  0.76842726584E+03  0.12509253498E+03 0.  0.
          5    1    3    3  502    0 -0.24632667220E+02  0.38863183814E+02 -0.51572522398E+03  0.51779058933E+03  0.41800000000E+01 0. -1.
         -5    1    3    3    0  502  0.30736319917E+02 -0.56429169070E+02 -0.24222365435E+03  0.25063667651E+03  0.41800000000E+01 0. -1.
        -11    1    1    2    0    0  0.30327452821E+02 -0.22497420578E+02 -0.81111836297E+02  0.89470767935E+02  0.00000000000E+00 0.  1.
         11    1    1    2    0    0 -0.36431105518E+02  0.40063405834E+02 -0.15762463218E+03  0.16666681315E+03  0.00000000000E+00 0. -1.
</event>
<event>
 7    1  0.2480409E-009  0.1298045E+03  0.7561462E-02  0.1227746E+00
          1   -1    0    0  501    0  0.00000000000E+00  0.00000000000E+00  0.21045614614E+02  0.21045614614E+02  0.00000000000E+00 0.  1.
         -1   -1    0    0    0  501 -0.00000000000E+00 -0.00000000000E+00 -0.10599892997E+04  0.10599892997E+04  0.00000000000E+00 0. -1.
         25    2    1    2    0    0  0.10675601781E+03  0.19818898967E+02 -0.54364920125E+03  0.56832352127E+03  0.12509010639E+03 0.  0.
          5    1    3    3  502    0  0.52878329090E+02  0.43123147765E+02 -0.46550516593E+03  0.47049788041E+03  0.41800000000E+01 0. -1.
         -5    1    3    3    0  502  0.53877688724E+02 -0.23304248798E+02 -0.78144035314E+02  0.97825640859E+02  0.41800000000E+01 0. -1.
        -11    1    1    2    0    0 -0.45076657936E+02 -0.46886686234E+02 -0.25340270739E+03  0.26161651047E+03  0.00000000000E+00 0.  1.
         11    1    1    2    0    0 -0.61679359878E+02  0.27067787267E+02 -0.24189177645E+03  0.25109488258E+03  0.00000000000E+00 0. -1.
</event>
<event>
 7    1  0.2480409E-009  0.1173284E+03  0.7561462E-02  0.1247571E+00
         -3   -1    0    0    0  501 -0.00000000000E+00  0.00000000000E+00  0.15980432853E+03  0.15980432853E+03  0.00000000000E+00 0.  1.
          3   -1    0    0  501    0  0.00000000000E+00 -0.00000000000E+00 -0.11916104612E+03  0.11916104612E+03  0.00000000000E+00 0. -1.
         25    2    1    2    0    0  0.23722339910E+02  0.51964138741E+02  0.84797760353E+02  0.16156022421E+03  0.12509206513E+03 0.  0.
          5    1    3    3  502    0  0.91056863947E+01 -0.37140707770E+02  0.12778180269E+01  0.38489620904E+02  0.41800000000E+01 0.  1.
         -5    1    3    3    0  502  0.14616653515E+02  0.89104846511E+02  0.83519942326E+02  0.12307060331E+03  0.41800000000E+01 0.  1.
        -11    1    1    2    0    0 -0.40138650539E+02  0.10271099560E+02 -0.30912253436E+02  0.51693076575E+02  0.00000000000E+00 0. -1.
         11    1    1    2    0    0  0.16416310629E+02 -0.62235238301E+02 -0.13242224507E+02  0.65712073860E+02  0.00000000000E+00 0.  1.
</event>
<event>
 7    1  0.2480409E-009  0.1341709E+03  0.7561462E-02  0.1221395E+00
         -2   -1    0    0    0  501 -0.00000000000E+00  0.00000000000E+00  0.14104925777E+02  0.14104925777E+02  0.00000000000E+00 0.  1.
          2   -1    0    0  501    0  0.00000000000E+00 -0.00000000000E+00 -0.15677984414E+04  0.15677984414E+04  0.00000000000E+00 0. -1.
         25    2    1    2    0    0 -0.51600764817E+02 -0.64233179828E+02 -0.11558240162E+04  0.11654898650E+04  0.12509567758E+03 0.  0.
          5    1    3    3  502    0  0.38191722640E+02 -0.42392970817E+02 -0.42398832375E+03  0.42783097449E+03  0.41800000000E+01 0.  1.
         -5    1    3    3    0  502 -0.89792487457E+02 -0.21840209011E+02 -0.73183569248E+03  0.73765889049E+03  0.41800000000E+01 0.  1.
        -11    1    1    2    0    0  0.41459023366E+02  0.85523169192E+02 -0.26641299869E+03  0.28285853171E+03  0.00000000000E+00 0.  1.
         11    1    1    2    0    0  0.10141741451E+02 -0.21289989365E+02 -0.13145650066E+03  0.13355497045E+03  0.00000000000E+00 0. -1.
</event>
<event>
 7    1  0.2480409E-009  0.2341926E+03  0.7561462E-02  0.1123723E+00
         -2   -1    0    0    0  501 -0.00000000000E+00  0.00000000000E+00  0.67141358460E+02  0.67141358460E+02  0.00000000000E+00 0.  1.
          2   -1    0    0  501    0  0.00000000000E+00 -0.00000000000E+00 -0.89142892536E+03  0.89142892536E+03  0.00000000000E+00 0. -1.
         25    2    1    2    0    0  0.11169635664E+03 -0.18784570803E+03 -0.39535184028E+03  0.46873573507E+03  0.12509206853E+03 0.  0.
          5    1    3    3  502    0 -0.24106851672E+02 -0.19275819955E+02 -0.25859944195E+02  0.40483411989E+02  0.41800000000E+01 0.  1.
         -5    1    3    3    0  502  0.13580320831E+03 -0.16856988807E+03 -0.36949189609E+03  0.42825232308E+03  0.41800000000E+01 0.  1.
        -11    1    1    2    0    0 -0.66199769488E+02  0.13910612977E+03 -0.20658197996E+03  0.25769951351E+03  0.00000000000E+00 0.  1.
         11    1    1    2    0    0 -0.45496587153E+02  0.48739578260E+02 -0.22235374666E+03  0.23213503524E+03  0.00000000000E+00 0. -1.
</event>
<event>
 7    1  0.2480409E-009  0.1923445E+03  0.7561462E-02  0.1156364E+00
          2   -1    0    0  501    0  0.00000000000E+00  0.00000000000E+00  0.38732311161E+03  0.38732311161E+03  0.00000000000E+00 0.  1.
         -2   -1    0    0    0  501 -0.00000000000E+00 -0.00000000000E+00 -0.16608529888E+03  0.16608529888E+03  0.00000000000E+00 0. -1.
         25    2    1    2    0    0 -0.75505264430E+02  0.15734663675E+03  0.27334491152E+03  0.34759794825E+03  0.12509150220E+03 0.  0.
          5    1    3    3  502    0 -0.80631600045E+02  0.35821048651E+02  0.15158103585E+03  0.17543912130E+03  0.41800000000E+01 0.  1.
         -5    1    3    3    0  502  0.51263356155E+01  0.12152558810E+03  0.12176387567E+03  0.17215882695E+03  0.41800000000E+01 0.  1.
        -11    1    1    2    0    0  0.43859599667E+02 -0.83664461092E+02  0.21588979293E+02  0.96899383691E+02  0.00000000000E+00 0.  1.
         11    1    1    2    0    0  0.31645664763E+02 -0.73682175659E+02 -0.73696078075E+02  0.10891107855E+03  0.00000000000E+00 0. -1.
</event>
<event>
 7    1  0.2480409E-009  0.2049524E+03  0.7561462E-02  0.1145627E+00
          1   -1    0    0  501    0  0.00000000000E+00  0.00000000000E+00  0.66472767545E+03  0.66472767545E+03  0.00000000000E+00 0. -1.
         -1   -1    0    0    0  501 -0.00000000000E+00 -0.00000000000E+00 -0.77602624775E+02  0.77602624775E+02  0.00000000000E+00 0.  1.
         25    2    1    2    0    0 -0.19201097943E+03 -0.38656044480E+02  0.36450717802E+03  0.43229502378E+03  0.12510395182E+03 0.  0.
          5    1    3    3  502    0 -0.13140426352E+03 -0.11129417548E+01  0.12152963582E+03  0.17903978299E+03  0.41800000000E+01 0.  1.
         -5    1    3    3    0  502 -0.60606715917E+02 -0.37543102725E+02  0.24297754220E+03  0.25325524079E+03  0.41800000000E+01 0.  1.
        -11    1    1    2    0    0  0.69744984880E+02  0.47570733855E+02  0.49364169778E+02  0.97796517797E+02  0.00000000000E+00 0.  1.
         11    1    1    2    0    0  0.12226599455E+03 -0.89146893751E+01  0.17325370288E+03  0.21223875865E+03  0.00000000000E+00 0. -1.
</event>
<event>
 7    1  0.2480409E-009  0.1409960E+03  0.7561462E-02  0.1211995E+00
          2   -1    0    0  501    0  0.00000000000E+00  0.00000000000E+00  0.62446352166E+02  0.62446352166E+02  0.00000000000E+00 0. -1.
         -2   -1    0    0    0  501 -0.00000000000E+00 -0.00000000000E+00 -0.33933909342E+03  0.33933909342E+03  0.00000000000E+00 0.  1.
         25    2    1    2    0    0 -0.35948286195E+02 -0.89931099626E+02 -0.15200453763E+03  0.21939123788E+03  0.12508898368E+03 0.  0.
          5    1    3    3  502    0 -0.54616425397E+02 -0.11436066384E+03 -0.11594757922E+03  0.17182150298E+03  0.41800000000E+01 0.  1.
         -5    1    3    3    0  502  0.18668139202E+02  0.24429564215E+02 -0.36056958412E+02  0.47569734905E+02  0.41800000000E+01 0.  1.
        -11    1    1    2    0    0  0.39768576656E+02  0.10307108001E+03 -0.12724080984E+03  0.16850937930E+03  0.00000000000E+00 0.  1.
         11    1    1    2    0    0 -0.38202904612E+01 -0.13139980388E+02  0.23526062161E+01  0.13884828405E+02  0.00000000000E+00 0. -1.
</event>
<event>
 7    1  0.3744733E-009  0.1358870E+03  0.7561462E-02  0.1218973E+00
         -2   -1    0    0    0  501 -0.00000000000E+00  0.00000000000E+00  0.57235232136E+02  0.57235232136E+02  0.00000000000E+00 0.  1.
          2   -1    0    0  501    0  0.00000000000E+00 -0.00000000000E+00 -0.48411058182E+03  0.48411058182E+03  0.00000000000E+00 0. -1.
         25    2    1    2    0    0  0.28245474536E+02  0.12307005948E+03 -0.22293249186E+03  0.28511467715E+03  0.12508971510E+03 0.  0.
          5    1    3    3  502    0  0.44450148628E+01  0.79860918796E+02 -0.29350046841E+02  0.85301946975E+02  0.41800000000E+01 0.  1.
         -5    1    3    3    0  502  0.23800459673E+02  0.43209140688E+02 -0.19358244502E+03  0.19981273017E+03  0.41800000000E+01 0.  1.
        -11    1    1    2    0    0 -0.44497512622E+02 -0.48365046251E+02 -0.14661988906E+03  0.16067544367E+03  0.00000000000E+00 0. -1.
         11    1    1    2    0    0  0.16252038086E+02 -0.74705013234E+02 -0.57322968759E+02  0.95555693140E+02  0.00000000000E+00 0.  1.
</event>
<event>
 7    1  0.2480409E-009  0.1028526E+03  0.7561462E-02  0.1274409E+00
          2   -1    0    0  501    0  0.00000000000E+00  0.00000000000E+00  0.32346317115E+03  0.32346317115E+03  0.00000000000E+00 0. -1.
         -2   -1    0    0    0  501 -0.00000000000E+00 -0.00000000000E+00 -0.49804560747E+02  0.49804560747E+02  0.00000000000E+00 0.  1.
         25    2    1    2    0    0  0.49610735263E+02 -0.24338076593E+02  0.20219034745E+03  0.24410018366E+03  0.12510154289E+03 0.  0.
          5    1    3    3  502    0 -0.18460278453E+02  0.11620282874E+02  0.14849393040E+03  0.15014570464E+03  0.41800000000E+01 0.  1.
         -5    1    3    3    0  502  0.68071013717E+02 -0.35958359467E+02  0.53696417046E+02  0.93954479018E+02  0.41800000000E+01 0.  1.
        -11    1    1    2    0    0  0.15384111808E+02 -0.21806594957E+02  0.99594090388E+01  0.28484878587E+02  0.00000000000E+00 0.  1.
         11    1    1    2    0    0 -0.64994847072E+02  0.46144671550E+02  0.61508853911E+02  0.10068266965E+03  0.00000000000E+00 0. -1.
</event>
<event>
 7    1  0.2480409E-009  0.1494499E+03  0.7561462E-02  0.1201151E+00
         -4   -1    0    0    0  501 -0.00000000000E+00  0.00000000000E+00  0.89653397296E+02  0.89653397296E+02  0.00000000000E+00 0.  1.
          4   -1    0    0  501    0  0.00000000000E+00 -0.00000000000E+00 -0.34213575860E+03  0.34213575860E+03  0.00000000000E+00 0. -1.
         25    2    1    2    0    0 -0.13742364410E+03  0.96358681689E+01 -0.13384306863E+03  0.22921567527E+03  0.12509097032E+03 0.  0.
          5    1    3    3  502    0 -0.92430392069E+02  0.27597822438E+00 -0.15336196098E+03  0.17911118619E+03  0.41800000000E+01 0. -1.
         -5    1    3    3    0  502 -0.44993252027E+02  0.93598899445E+01  0.19518892347E+02  0.50104489082E+02  0.41800000000E+01 0. -1.
        -11    1    1    2    0    0  0.65096731543E+02 -0.45574602571E+02 -0.80995982954E+02  0.11346796073E+03  0.00000000000E+00 0. -1.
         11    1    1    2    0    0  0.72326912553E+02  0.35938734403E+02 -0.37643309719E+02  0.89105519899E+02  0.00000000000E+00 0.  1.
</event>
<event>
 7    1  0.2480409E-009  0.1163402E+03  0.7561462E-02  0.1249260E+00
         -1   -1    0    0    0  501 -0.00000000000E+00  0.00000000000E+00  0.34870309052E+03  0.34870309052E+03  0.00000000000E+00 0.  1.
          1   -1    0    0  501    0  0.00000000000E+00 -0.00000000000E+00 -0.61210925070E+02  0.61210925070E+02  0.00000000000E+00 0. -1.
         25    2    1    2    0    0  0.95546951629E+02  0.18372659093E+02  0.16181849316E+03  0.22649643988E+03  0.12509451620E+03 0.  0.
          5    1    3    3  502    0  0.85383331613E+02 -0.18407260993E+02  0.35331577879E+02  0.94312954412E+02  0.41800000000E+01 0.  1.
         -5    1    3    3    0  502  0.10163620016E+02  0.36779920086E+02  0.12648691528E+03  0.13218348547E+03  0.41800000000E+01 0.  1.
        -11    1    1    2    0    0 -0.76900474215E+02 -0.32468554529E+02  0.13461133927E+03  0.15839224296E+03  0.00000000000E+00 0.  1.
         11    1    1    2    0    0 -0.18646477413E+02  0.14095895436E+02 -0.89376669863E+01  0.25025332750E+02  0.00000000000E+00 0. -1.
</event>
<event>
 7    1  0.2480409E-009  0.1108699E+03  0.7561462E-02  0.1258967E+00
         -2   -1    0    0    0  501 -0.00000000000E+00  0.00000000000E+00  0.10658472174E+03  0.10658472174E+03  0.00000000000E+00 0.  1.
          2   -1    0    0  501    0  0.00000000000E+00 -0.00000000000E+00 -0.26406966509E+03  0.26406966509E+03  0.00000000000E+00 0. -1.
         25    2    1    2    0    0  0.80711168377E+02 -0.54005561419E+02 -0.17550292003E+03  0.23638804622E+03  0.12508852902E+03 0.  0.
          5    1    3    3  502    0  0.30222363186E+02  0.98279235175E+01 -0.14637686595E+03  0.14984538232E+03  0.41800000000E+01 0.  1.
         -5    1    3    3    0  502  0.50488805192E+02 -0.63833484937E+02 -0.29126054078E+02  0.86542663901E+02  0.41800000000E+01 0.  1.
        -11    1    1    2    0    0 -0.56612373506E+02  0.92536827570E+01 -0.29658774380E+02  0.64577351883E+02  0.00000000000E+00 0. -1.
         11    1    1    2    0    0 -0.24098794872E+02  0.44751878662E+02  0.47676751055E+02  0.69688988723E+02  0.00000000000E+00 0.  1.
</event>
<event>
 7    1  0.2480409E-009  0.1250339E+03  0.7561462E-02  0.1235016E+00
          2   -1    0    0  501    0  0.00000000000E+00  0.00000000000E+00  0.52771134914E+03  0.52771134914E+03  0.00000000000E+00 0. -1.
         -2   -1    0    0    0  501 -0.00000000000E+00 -0.00000000000E+00 -0.43233902548E+02  0.43233902548E+02  0.00000000000E+00 0.  1.
         25    2    1    2    0    0  0.86597076291E+02  0.29366738813E+02  0.36160576928E+03  0.39340538970E+03  0.12509040451E+03 0.  0.
          5    1    3    3  502    0  0.10480806723E+03 -0.18449860629E+01  0.32615384542E+03  0.34261047592E+03  0.41800000000E+01 0.  1.
         -5    1    3    3    0  502 -0.18210990936E+02  0.31211724876E+02  0.35451923858E+02  0.50794913779E+02  0.41800000000E+01 0.  1.
        -11    1    1    2    0    0 -0.84111969910E+02 -0.49683113884E+01  0.44228207248E+02  0.95161136588E+02  0.00000000000E+00 0.  1.
         11    1    1    2    0    0 -0.24851063810E+01 -0.24398427425E+02  0.78643470070E+02  0.82378725404E+02  0.00000000000E+00 0. -1.
</event>
<event>
 7    1  0.2480409E-009  0.1186517E+03  0.7561462E-02  0.1245338E+00
         -1   -1    0    0    0  501 -0.00000000000E+00  0.00000000000E+00  0.55172170556E+03  0.55172170556E+03  0.00000000000E+00 0.  1.
          1   -1    0    0  501    0  0.00000000000E+00 -0.00000000000E+00 -0.27149000324E+02  0.27149000324E+02  0.00000000000E+00 0. -1.
         25    2    1    2    0    0  0.11984685505E+02  0.50505634237E+02  0.33597853276E+03  0.36224779876E+03  0.12508973362E+03 0.  0.
          5    1    3    3  502    0 -0.26497182339E+02 -0.33165853627E+02  0.12245949323E+03  0.12967603634E+03  0.41800000000E+01 0. -1.
         -5    1    3    3    0  502  0.38481867844E+02  0.83671487865E+02  0.21351903953E+03  0.23257176242E+03  0.41800000000E+01 0. -1.
        -11    1    1    2    0    0 -0.45255968107E+02 -0.42191413293E+01  0.11410851601E+03  0.12282775431E+03  0.00000000000E+00 0.  1.
         11    1    1    2    0    0  0.33271282602E+02 -0.46286492908E+02  0.74485656461E+02  0.93795152807E+02  0.00000000000E+00 0. -1.
</event>
<event>
 7    1  0.2480409E-009  0.1085149E+03  0.7561462E-02  0.1263345E+00
         -1   -1    0    0    0  501 -0.00000000000E+00  0.00000000000E+00  0.73610832170E+02  0.73610832170E+02  0.00000000000E+00 0.  1.
          1   -1    0    0  501    0  0.00000000000E+00 -0.00000000000E+00 -0.26486029106E+03  0.26486029106E+03  0.00000000000E+00 0. -1.
         25    2    1    2    0    0  0.48538291894E+01  0.22834016776E+02 -0.25796229291E+01  0.12727300525E+03  0.12508721529E+03 0.  0.
          5    1    3    3  502    0  0.80314769966E+01 -0.49357395665E+02 -0.17917226333E+02  0.53283736065E+02  0.41800000000E+01 0. -1.
         -5    1    3    3    0  502 -0.31776478072E+01  0.72191412441E+02  0.15337603404E+02  0.73989269181E+02  0.41800000000E+01 0. -1.
        -11    1    1    2    0    0 -0.23311321430E+02  0.30293417077E+02 -0.86543713315E+02  0.94609318460E+02  0.00000000000E+00 0.  1.
         11    1    1    2    0    0  0.18457492240E+02 -0.53127433853E+02 -0.10212612264E+03  0.11658879952E+03  0.00000000000E+00 0. -1.
</event>
<event>
 7    1  0.2480409E-009  0.1781247E+03  0.7561462E-02  0.1169630E+00
          2   -1    0    0  501    0  0.00000000000E+00  0.00000000000E+00  0.16991330835E+04  0.16991330835E+04  0.00000000000E+00 0. -1.
         -2   -1    0    0    0  501 -0.00000000000E+00 -0.00000000000E+00 -0.21544176231E+02  0.21544176231E+02  0.00000000000E+00 0.  1.
         25    2    1    2    0    0  0.10849197865E+03 -0.11357734169E+03  0.95449482368E+03  0.97538676032E+03  0.12509453147E+03 0.  0.
          5    1    3    3  502    0  0.11534844719E+03 -0.71962964967E+02  0.87297211784E+03  0.88350536134E+03  0.41800000000E+01 0. -1.
         -5    1    3    3    0  502 -0.68564685400E+01 -0.41614376724E+02  0.81522705842E+02  0.91881398982E+02  0.41800000000E+01 0. -1.
        -11    1    1    2    0    0  0.11717487357E+02  0.27809842373E+02  0.81117460210E+02  0.86548998802E+02  0.00000000000E+00 0. -1.
         11    1    1    2    0    0 -0.12020946600E+03  0.85767499318E+02  0.64197662341E+03  0.65874150064E+03  0.00000000000E+00 0.  1.
</event>
<event>
 7    1  0.2480409E-009  0.1219017E+03  0.7561462E-02  0.1239992E+00
          1   -1    0    0  501    0  0.00000000000E+00  0.00000000000E+00  0.16564400973E+03  0.16564400973E+03  0.00000000000E+00 0. -1.
         -1   -1    0    0    0  501 -0.00000000000E+00 -0.00000000000E+00 -0.96680143117E+02  0.96680143117E+02  0.00000000000E+00 0.  1.
         25    2    1    2    0    0  0.29012040934E+02  0.50353815415E+02  0.27293177319E+02  0.14060132468E+03  0.12508640904E+03 0.  0.
          5    1    3    3  502    0 -0.24864118875E+02 -0.31187668605E+02  0.81038498290E+01  0.40915032231E+02  0.41800000000E+01 0.  1.
         -5    1    3    3    0  502  0.53876159810E+02  0.81541484020E+02  0.19189327490E+02  0.99686292446E+02  0.41800000000E+01 0.  1.
        -11    1    1    2    0    0 -0.59316178286E+02 -0.46415693396E+02  0.49561061461E+02  0.90161657112E+02  0.00000000000E+00 0. -1.
         11    1    1    2    0    0  0.30304137352E+02 -0.39381220192E+01 -0.78903721673E+01  0.31561171059E+02  0.00000000000E+00 0.  1.
</event>
<event>
 7    1  0.2480409E-009  0.8907609E+02  0.7561462E-02  0.1305105E+00
         -1   -1    0    0    0  501 -0.00000000000E+00  0.00000000000E+00  0.41812529545E+03  0.41812529545E+03  0.00000000000E+00 0.  1.
          1   -1    0    0  501    0  0.00000000000E+00 -0.00000000000E+00 -0.28127468183E+02  0.28127468183E+02  0.00000000000E+00 0. -1.
         25    2    1    2    0    0  0.44396419665E+01  0.26535790525E+01  0.20931279329E+03  0.24389914734E+03  0.12509275251E+03 0.  0.
          5    1    3    3  502    0  0.29134492541E+02 -0.44530087335E+02  0.40983405914E+02  0.67296800028E+02  0.41800000000E+01 0.  1.
         -5    1    3    3    0  502 -0.24694850574E+02  0.47183666388E+02  0.16832938738E+03  0.17660234731E+03  0.41800000000E+01 0.  1.
        -11    1    1    2    0    0  0.21943900576E+02 -0.27453241033E+02  0.26615380469E+02  0.44086207517E+02  0.00000000000E+00 0. -1.
         11    1    1    2    0    0 -0.26383542543E+02  0.24799661981E+02  0.15406965350E+03  0.15826740878E+03  0.00000000000E+00 0.  1.
</event>
<event>
 7    1  0.2480409E-009  0.3821851E+03  0.7561462E-02  0.1050129E+00
          2   -1    0    0  501    0  0.00000000000E+00  0.00000000000E+00  0.17209539348E+04  0.17209539348E+04  0.00000000000E+00 0. -1.
         -2   -1    0    0    0  501 -0.00000000000E+00 -0.00000000000E+00 -0.92650424690E+02  0.92650424690E+02  0.00000000000E+00 0.  1.
         25    2    1    2    0    0 -0.10985099569E+02 -0.37095191094E+03  0.10482045252E+04  0.11189753475E+04  0.12508840425E+03 0.  0.
          5    1    3    3  502    0 -0.36406991877E+02 -0.25846232501E+02  0.10007255505E+03  0.10966077451E+03  0.41800000000E+01 0.  1.
         -5    1    3    3    0  502  0.25421892308E+02 -0.34510567844E+03  0.94813197018E+03  0.10093145730E+04  0.41800000000E+01 0.  1.
        -11    1    1    2    0    0 -0.15180728732E+02  0.19285403728E+03  0.22665916236E+03  0.29798911071E+03  0.00000000000E+00 0.  1.
         11    1    1    2    0    0  0.26165828301E+02  0.17809787366E+03  0.35343982256E+03  0.39663990135E+03  0.00000000000E+00 0. -1.
</event>
<event>
 7    1  0.2480409E-009  0.1661235E+03  0.7561462E-02  0.1181952E+00
         -3   -1    0    0    0  501 -0.00000000000E+00  0.00000000000E+00  0.52957239152E+02  0.52957239152E+02  0.00000000000E+00 0.  1.
          3   -1    0    0  501    0  0.00000000000E+00 -0.00000000000E+00 -0.60938635987E+03  0.60938635987E+03  0.00000000000E+00 0. -1.
         25    2    1    2    0    0 -0.16865450114E+02 -0.14019977480E+03 -0.33182237440E+03  0.38169836173E+03  0.12508849240E+03 0.  0.
          5    1    3    3  502    0 -0.59791239817E+02 -0.13165547534E+03 -0.25695640543E+03  0.29487662376E+03  0.41800000000E+01 0. -1.
         -5    1    3    3    0  502  0.42925789703E+02 -0.85442994626E+01 -0.74865968966E+02  0.86821737970E+02  0.41800000000E+01 0. -1.
        -11    1    1    2    0    0  0.23020697222E+02  0.84344535734E+02 -0.20193748829E+03  0.22005159028E+03  0.00000000000E+00 0. -1.
         11    1    1    2    0    0 -0.61552471082E+01  0.55855239068E+02 -0.22669258022E+02  0.60593647007E+02  0.00000000000E+00 0.  1.
</event>
<event>
 7    1  0.2480409E-009  0.1314188E+03  0.7561462E-02  0.1225366E+00
         -3   -1    0    0    0  501 -0.00000000000E+00  0.00000000000E+00  0.26734390769E+03  0.26734390769E+03  0.00000000000E+00 0.  1.
          3   -1    0    0  501    0  0.00000000000E+00 -0.00000000000E+00 -0.17794929623E+03  0.17794929623E+03  0.00000000000E+00 0. -1.
         25    2    1    2    0    0  0.19184054045E+02  0.10261091384E+03  0.20686274915E+03  0.26331722203E+03  0.12508690924E+03 0.  0.
          5    1    3    3  502    0  0.64912995404E+02  0.80252601099E+02  0.17470892158E+03  0.20296516114E+03  0.41800000000E+01 0. -1.
         -5    1    3    3    0  502 -0.45728941359E+02  0.22358312736E+02  0.32153827570E+02  0.60352060889E+02  0.41800000000E+01 0. -1.
        -11    1    1    2    0    0  0.79007247528E+01 -0.19192678571E+02  0.13204052389E+02  0.24599336614E+02  0.00000000000E+00 0.  1.
         11    1    1    2    0    0 -0.27084778797E+02 -0.83418235265E+02 -0.13067219008E+03  0.15737664527E+03  0.00000000000E+00 0. -1.
</event>
<event>
 7    1  0.2480409E-009  0.1468796E+03  0.7561462E-02  0.1204361E+00
         -1   -1    0    0    0  501 -0.00000000000E+00  0.00000000000E+00  0.86470871175E+02  0.86470871175E+02  0.00000000000E+00 0. -1.
          1   -1    0    0  501    0  0.00000000000E+00 -0.00000000000E+00 -0.36800055628E+03  0.36800055628E+03  0.00000000000E+00 0.  1.
         25    2    1    2    0    0 -0.51387793760E+02  0.11033193366E+03 -0.25053144926E+03  0.30533162428E+03  0.12509017862E+03 0.  0.
          5    1    3    3  502    0 -0.97844057937E+00  0.11914884295E+03 -0.20267299291E+03  0.23514084838E+03  0.41800000000E+01 0.  1.
         -5    1    3    3    0  502 -0.50409353181E+02 -0.88169092918E+01 -0.47858456349E+02  0.70190775902E+02  0.41800000000E+01 0.  1.
        -11    1    1    2    0    0  0.34061149988E+02 -0.91318530690E+02 -0.56716026291E+02  0.11276499290E+03  0.00000000000E+00 0.  1.
         11    1    1    2    0    0  0.17326643773E+02 -0.19013402969E+02  0.25717790444E+02  0.36374810271E+02  0.00000000000E+00 0. -1.
</event>
<event>
 7    1  0.2480409E-009  0.1226993E+03  0.7561462E-02  0.1238709E+00
          1   -1    0    0  501    0  0.00000000000E+00  0.00000000000E+00  0.14056523757E+02  0.14056523757E+02  0.00000000000E+00 0. -1.
         -1   -1    0    0    0  501 -0.00000000000E+00 -0.00000000000E+00 -0.19117739303E+04  0.19117739303E+04  0.00000000000E+00 0.  1.
         25    2    1    2    0    0  0.40061538402E+02 -0.97446997070E+02 -0.13809195552E+04  0.13905705650E+04  0.12508730719E+03 0.  0.
          5    1    3    3  502    0  0.31948950796E+02 -0.81807797037E+02 -0.40285013847E+03  0.41233355136E+03  0.41800000000E+01 0.  1.
         -5    1    3    3    0  502  0.81125876062E+01 -0.15639200033E+02 -0.97806941670E+03  0.97823701368E+03  0.41800000000E+01 0.  1.
        -11    1    1    2    0    0  0.50410343364E+01  0.93997521723E+02 -0.34904276693E+03  0.36151320759E+03  0.00000000000E+00 0.  1.
         11    1    1    2    0    0 -0.45102572738E+02  0.34494753469E+01 -0.16775508441E+03  0.17374668139E+03  0.00000000000E+00 0. -1.
</event>
<event>
 7    1  0.3679224E-009  0.1174149E+03  0.7561462E-02  0.1247424E+00
          2   -1    0    0  501    0  0.00000000000E+00  0.00000000000E+00  0.68334162846E+03  0.68334162846E+03  0.00000000000E+00 0. -1.
         -2   -1    0    0    0  501 -0.00000000000E+00 -0.00000000000E+00 -0.22087960061E+02  0.22087960061E+02  0.00000000000E+00 0.  1.
         25    2    1    2    0    0 -0.52343605805E+02 -0.76015801488E+00  0.30150914458E+03  0.33059984999E+03  0.12509222852E+03 0.  0.
          5    1    3    3  502    0  0.37390267707E+02  0.14333516880E+02  0.57940434242E+02  0.70555284320E+02  0.41800000000E+01 0.  1.
         -5    1    3    3    0  502 -0.89733873511E+02 -0.15093674894E+02  0.24356871034E+03  0.26004456567E+03  0.41800000000E+01 0.  1.
        -11    1    1    2    0    0  0.24194745244E+02  0.44971284008E+02  0.14321040898E+03  0.15204283384E+03  0.00000000000E+00 0.  1.
         11    1    1    2    0    0  0.28148860561E+02 -0.44211125994E+02  0.21653411483E+03  0.22278690468E+03  0.00000000000E+00 0. -1.
</event>
<event>
 7    1  0.2480409E-009  0.1916781E+03  0.7561462E-02  0.1156956E+00
         -2   -1    0    0    0  501 -0.00000000000E+00  0.00000000000E+00  0.30088686119E+02  0.30088686119E+02  0.00000000000E+00 0.  1.
          2   -1    0    0  501    0  0.00000000000E+00 -0.00000000000E+00 -0.14460786988E+04  0.14460786988E+04  0.00000000000E+00 0. -1.
         25    2    1    2    0    0  0.17578310972E+03 -0.14030914787E+02 -0.71258894184E+03  0.74466588519E+03  0.12509081620E+03 0.  0.
          5    1    3    3  502    0  0.11950816675E+03 -0.59441925440E+02 -0.34366413600E+03  0.36869778300E+03  0.41800000000E+01 0.  1.
         -5    1    3    3    0  502  0.56274942969E+02  0.45411010653E+02 -0.36892480584E+03  0.37596810218E+03  0.41800000000E+01 0.  1.
        -11    1    1    2    0    0 -0.77863143639E+02 -0.33379586530E+01 -0.14798484907E+03  0.16725228447E+03  0.00000000000E+00 0.  1.
         11    1    1    2    0    0 -0.97919966078E+02  0.17368873440E+02 -0.55541622177E+03  0.56424921527E+03  0.00000000000E+00 0. -1.
</event>
<event>
 7    1  0.2480409E-009  0.2782866E+03  0.7561462E-02  0.1096628E+00
         -1   -1    0    0    0  501 -0.00000000000E+00  0.00000000000E+00  0.28878937020E+03  0.28878937020E+03  0.00000000000E+00 0.  1.
          1   -1    0    0  501    0  0.00000000000E+00 -0.00000000000E+00 -0.33431604953E+03  0.33431604953E+03  0.00000000000E+00 0. -1.
         25    2    1    2    0    0  0.27275228066E+03 -0.17224469209E+02  0.77016988948E+02  0.31027320566E+03  0.12508939449E+03 0.  0.
          5    1    3    3  502    0  0.21039505767E+03 -0.41675723310E+02  0.89859767950E+01  0.21471182171E+03  0.41800000000E+01 0. -1.
         -5    1    3    3    0  502  0.62357222998E+02  0.24451254100E+02  0.68031012153E+02  0.95561383946E+02  0.41800000000E+01 0. -1.
        -11    1    1    2    0    0 -0.16721470356E+03 -0.41186629173E+01 -0.28103720688E+02  0.16960996311E+03  0.00000000000E+00 0.  1.
         11    1    1    2    0    0 -0.10553757711E+03  0.21343132127E+02 -0.94439947591E+02  0.14322225097E+03  0.00000000000E+00 0. -1.
</event>
<event>
 7    1  0.2480409E-009  0.9401993E+02  0.7561462E-02  0.1293399E+00
         -4   -1    0    0    0  501 -0.00000000000E+00  0.00000000000E+00  0.61709808968E+02  0.61709808968E+02  0.00000000000E+00 0.  1.
          4   -1    0    0  501    0  0.00000000000E+00 -0.00000000000E+00 -0.22969168773E+03  0.22969168773E+03  0.00000000000E+00 0. -1.
         25    2    1    2    0    0 -0.11856922397E+02  0.49339599960E+02 -0.76264388234E+02  0.15503867867E+03  0.12508298141E+03 0.  0.
          5    1    3    3  502    0 -0.46932958121E+02  0.45203505490E+02  0.58458018150E+01  0.65556885721E+02  0.41800000000E+01 0. -1.
         -5    1    3    3    0  502  0.35076035724E+02  0.41360944708E+01 -0.82110190049E+02  0.89481792949E+02  0.41800000000E+01 0. -1.
        -11    1    1    2    0    0  0.39438067832E+02 -0.43995668099E+02 -0.90703813932E+02  0.10825045897E+03  0.00000000000E+00 0. -1.
         11    1    1    2    0    0 -0.27581145435E+02 -0.53439318617E+01 -0.10136765930E+01  0.28112359052E+02  0.00000000000E+00 0.  1.
</event>
<event>
 7    1  0.2480409E-009  0.1498729E+03  0.7561462E-02  0.1200629E+00
         -2   -1    0    0    0  501 -0.00000000000E+00  0.00000000000E+00  0.90844065170E+03  0.90844065170E+03  0.00000000000E+00 0.  1.
          2   -1    0    0  501    0  0.00000000000E+00 -0.00000000000E+00 -0.29338108383E+02  0.29338108383E+02  0.00000000000E+00 0. -1.
         25    2    1    2    0    0  0.88695137299E+02  0.73646347204E+02  0.58294594162E+03  0.60725943998E+03  0.12508974678E+03 0.  0.
          5    1    3    3  502    0 -0.83915211650E+01 -0.26359933092E+02  0.14413935563E+03  0.14682945869E+03  0.41800000000E+01 0. -1.
         -5    1    3    3    0  502  0.97086658464E+02  0.10000628030E+03  0.43880658600E+03  0.46042998128E+03  0.41800000000E+01 0. -1.
        -11    1    1    2    0    0 -0.33212172265E+02  0.74763543740E+01  0.25393474818E+02  0.42470846761E+02  0.00000000000E+00 0. -1.
         11    1    1    2    0    0 -0.55482965034E+02 -0.81122701578E+02  0.27076312688E+03  0.28804847334E+03  0.00000000000E+00 0.  1.
</event>
<event>
 7    1  0.2480409E-009  0.8716476E+02  0.7561462E-02  0.1309867E+00
          2   -1    0    0  501    0  0.00000000000E+00  0.00000000000E+00  0.45322666518E+03  0.45322666518E+03  0.00000000000E+00 0. -1.
         -2   -1    0    0    0  501 -0.00000000000E+00 -0.00000000000E+00 -0.31396448031E+02  0.31396448031E+02  0.00000000000E+00 0.  1.
         25    2    1    2    0    0  0.33414688235E+02 -0.21725944863E+02  0.30196193964E+03  0.32926752173E+03  0.12509008675E+03 0.  0.
          5    1    3    3  502    0  0.57864978964E+02 -0.57463007148E+02  0.14524766831E+03  0.16662746032E+03  0.41800000000E+01 0. -1.
         -5    1    3    3    0  502 -0.24450290730E+02  0.35737062285E+02  0.15671427133E+03  0.16264006141E+03  0.41800000000E+01 0. -1.
        -11    1    1    2    0    0 -0.22913905041E+02 -0.22223270279E+01  0.12633755688E+03  0.12841792733E+03  0.00000000000E+00 0. -1.
         11    1    1    2    0    0 -0.10500783193E+02  0.23948271891E+02 -0.64692793751E+01  0.26937664150E+02  0.00000000000E+00 0.  1.
</event>
<event>
 7    1  0.2480409E-009  0.1155346E+03  0.7561462E-02  0.1250651E+00
         -3   -1    0    0    0  501 -0.00000000000E+00  0.00000000000E+00  0.40298452454E+02  0.40298452454E+02  0.00000000000E+00 0.  1.
          3   -1    0    0  501    0  0.00000000000E+00 -0.00000000000E+00 -0.40300169599E+03  0.40300169599E+03  0.00000000000E+00 0. -1.
         25    2    1    2    0    0  0.42717277412E+02  0.41097787695E+02 -0.23761752712E+03  0.27499819474E+03  0.12509246170E+03 0.  0.
          5    1    3    3  502    0  0.73556426184E+02  0.97775152413E+01 -0.21037506949E+03  0.22311721112E+03  0.41800000000E+01 0.  1.
         -5    1    3    3    0  502 -0.30839148773E+02  0.31320272454E+02 -0.27242457632E+02  0.51880983621E+02  0.41800000000E+01 0.  1.
        -11    1    1    2    0    0  0.26648067173E+02 -0.33513142988E+02 -0.48432814982E+02  0.64645091106E+02  0.00000000000E+00 0.  1.
         11    1    1    2    0    0 -0.69365344584E+02 -0.75846447075E+01 -0.76652901431E+02  0.10365686259E+03  0.00000000000E+00 0. -1.
</event>
<event>
 7    1  0.2480409E-009  0.1136534E+03  0.7561462E-02  0.1253950E+00
         -2   -1    0    0    0  501 -0.00000000000E+00  0.00000000000E+00  0.31928878704E+02  0.31928878704E+02  0.00000000000E+00 0.  1.
          2   -1    0    0  501    0  0.00000000000E+00 -0.00000000000E+00 -0.67535194470E+03  0.67535194470E+03  0.00000000000E+00 0. -1.
         25    2    1    2    0    0  0.68254829715E+02 -0.10606832402E+02 -0.51629490041E+03  0.53570465370E+03  0.12509126723E+03 0.  0.
          5    1    3    3  502    0 -0.25292786370E+02 -0.30330921789E+02 -0.24103034328E+03  0.24428014377E+03  0.41800000000E+01 0. -1.
         -5    1    3    3    0  502  0.93547616085E+02  0.19724089387E+02 -0.27526455713E+03  0.29142450993E+03  0.41800000000E+01 0. -1.
        -11    1    1    2    0    0 -0.47871412055E+02  0.35591730039E+02 -0.25355922466E+02  0.64817946153E+02  0.00000000000E+00 0.  1.
         11    1    1    2    0    0 -0.20383417660E+02 -0.24984897637E+02 -0.10177224312E+03  0.10675822355E+03  0.00000000000E+00 0. -1.
</event>
<event>
 7    1  0.2480409E-009  0.1718720E+03  0.7561462E-02  0.1175910E+00
         -2   -1    0    0    0  501 -0.00000000000E+00  0.00000000000E+00  0.26331439787E+03  0.26331439787E+03  0.00000000000E+00 0.  1.
          2   -1    0    0  501    0  0.00000000000E+00 -0.00000000000E+00 -0.14380830718E+03  0.14380830718E+03  0.00000000000E+00 0. -1.
         25    2    1    2    0    0  0.84319220627E+02  0.13460089780E+03  0.34880761202E+02  0.20516802778E+03  0.12510043752E+03 0.  0.
          5    1    3    3  502    0 -0.11676341926E+02  0.42650146430E+01  0.41080620071E+02  0.43123277427E+02  0.41800000000E+01 0. -1.
         -5    1    3    3    0  502  0.95995562553E+02  0.13033588316E+03 -0.61998588688E+01  0.16204475036E+03  0.41800000000E+01 0. -1.
        -11    1    1    2    0    0  0.41767864886E+01 -0.35884077768E+02 -0.11817700265E+02  0.38010138413E+02  0.00000000000E+00 0. -1.
         11    1    1    2    0    0 -0.88496007116E+02 -0.98716820030E+02  0.96443029758E+02  0.16394453886E+03  0.00000000000E+00 0.  1.
</event>
<event>
 7    1  0.2480409E-009  0.1956385E+03  0.7561462E-02  0.1153472E+00
          3   -1    0    0  501    0  0.00000000000E+00  0.00000000000E+00  0.55664410573E+02  0.55664410573E+02  0.00000000000E+00 0. -1.
         -3   -1    0    0    0  501 -0.00000000000E+00 -0.00000000000E+00 -0.83266358180E+03  0.83266358180E+03  0.00000000000E+00 0.  1.
         25    2    1    2    0    0 -0.16641022084E+03 -0.14557845169E+02 -0.57072122202E+03  0.60767923283E+03  0.12508814607E+03 0.  0.
          5    1    3    3  502    0 -0.19661118798E+02 -0.49327418678E+02 -0.99010755455E+02  0.11242933746E+03  0.41800000000E+01 0. -1.
         -5    1    3    3    0  502 -0.14674910204E+03  0.34769573509E+02 -0.47171046657E+03  0.49524989537E+03  0.41800000000E+01 0. -1.
        -11    1    1    2    0    0  0.55736179406E+02  0.45802850532E+02 -0.10509123405E+03  0.12746995837E+03  0.00000000000E+00 0.  1.
         11    1    1    2    0    0  0.11067404143E+03 -0.31245005363E+02 -0.10118671515E+03  0.15317880117E+03  0.00000000000E+00 0. -1.
</event>
<event>
 7    1  0.2480409E-009  0.1165543E+03  0.7561462E-02  0.1248892E+00
         -2   -1    0    0    0  501 -0.00000000000E+00  0.00000000000E+00  0.10032920914E+02  0.10032920914E+02  0.00000000000E+00 0.  1.
          2   -1    0    0  501    0  0.00000000000E+00 -0.00000000000E+00 -0.15703715092E+04  0.15703715092E+04  0.00000000000E+00 0. -1.
         25    2    1    2    0    0  0.58571140231E+02  0.50531280320E+02 -0.11735253434E+04  0.11827078389E+04  0.12510840078E+03 0.  0.
          5    1    3    3  502    0  0.91080080505E+02  0.14416004528E+02 -0.59349229925E+03  0.60062799128E+03  0.41800000000E+01 0.  1.
         -5    1    3    3    0  502 -0.32508940274E+02  0.36115275792E+02 -0.58003304415E+03  0.58207984766E+03  0.41800000000E+01 0.  1.
        -11    1    1    2    0    0 -0.29861426264E+02 -0.55375015794E+02 -0.24725307013E+03  0.25513168725E+03  0.00000000000E+00 0. -1.
         11    1    1    2    0    0 -0.28709713967E+02  0.48437354743E+01 -0.13956017476E+03  0.14256490391E+03  0.00000000000E+00 0.  1.
</event>
<event>
 7    1  0.2480409E-009  0.7235133E+02  0.7561462E-02  0.1352275E+00
         -2   -1    0    0    0  501 -0.00000000000E+00  0.00000000000E+00  0.30549241065E+02  0.30549241065E+02  0.00000000000E+00 0.  1.
          2   -1    0    0  501    0  0.00000000000E+00 -0.00000000000E+00 -0.57158029340E+03  0.57158029340E+03  0.00000000000E+00 0. -1.
         25    2    1    2    0    0  0.59204961025E+02 -0.14323047120E+02 -0.41250860259E+03  0.43534092023E+03  0.12509193629E+03 0.  0.
          5    1    3    3  502    0 -0.78415817312E+01  0.82241457234E+01  0.40739362707E+01  0.12774832041E+02  0.41800000000E+01 0.  1.
         -5    1    3    3    0  502  0.67046542756E+02 -0.22547192843E+02 -0.41658253886E+03  0.42256608819E+03  0.41800000000E+01 0.  1.
        -11    1    1    2    0    0 -0.29748195212E+02  0.12357983809E+02  0.26625000589E+01  0.32322806016E+02  0.00000000000E+00 0.  1.
         11    1    1    2    0    0 -0.29456765812E+02  0.19650633113E+01 -0.13118494980E+03  0.13446580821E+03  0.00000000000E+00 0. -1.
</event>
<event>
 7    1  0.2480409E-009  0.9978749E+02  0.7561462E-02  0.1280743E+00
          1   -1    0    0  501    0  0.00000000000E+00  0.00000000000E+00  0.93719225153E+03  0.93719225153E+03  0.00000000000E+00 0. -1.
         -1   -1    0    0    0  501 -0.00000000000E+00 -0.00000000000E+00 -0.30114323828E+02  0.30114323828E+02  0.00000000000E+00 0.  1.
         25    2    1    2    0    0  0.47645008892E+02  0.17534591561E+02  0.82226507628E+03  0.83327318172E+03  0.12508729319E+03 0.  0.
          5    1    3    3  502    0  0.84394878385E+02  0.26127302928E+02  0.69064438471E+03  0.69628461852E+03  0.41800000000E+01 0.  1.
         -5    1    3    3    0  502 -0.36749869493E+02 -0.85927113670E+01  0.13162069157E+03  0.13698856320E+03  0.41800000000E+01 0.  1.
        -11    1    1    2    0    0  0.79922040356E+01 -0.15551656054E+02  0.75609913495E+02  0.77605337123E+02  0.00000000000E+00 0. -1.
         11    1    1    2    0    0 -0.55637212928E+02 -0.19829355066E+01  0.92029379205E+01  0.56428056514E+02  0.00000000000E+00 0.  1.
</event>
<event>
 7    1  0.2480409E-009  0.1141682E+03  0.7561462E-02  0.1253040E+00
          3   -1    0    0  501    0  0.00000000000E+00  0.00000000000E+00  0.10715490255E+03  0.10715490255E+03  0.00000000000E+00 0. -1.
         -3   -1    0    0    0  501 -0.00000000000E+00 -0.00000000000E+00 -0.13843466948E+03  0.13843466948E+03  0.00000000000E+00 0.  1.
         25    2    1    2    0    0  0.47292226755E+02 -0.71612008155E+01  0.13978329907E+02  0.13465074877E+03  0.12509033907E+03 0.  0.
          5    1    3    3  502    0 -0.33371002522E+02 -0.33961160310E+02 -0.29302927499E+01  0.47885731012E+02  0.41800000000E+01 0. -1.
         -5    1    3    3    0  502  0.80663229277E+02  0.26799959495E+02  0.16908622657E+02  0.86765017757E+02  0.41800000000E+01 0. -1.
        -11    1    1    2    0    0 -0.68302418876E+02  0.19553688050E+02 -0.15962220022E+02  0.72817302948E+02  0.00000000000E+00 0.  1.
         11    1    1    2    0    0  0.21010192121E+02 -0.12392487235E+02 -0.29295876814E+02  0.38121520315E+02  0.00000000000E+00 0. -1.
</event>
<event>
 7    1  0.2480409E-009  0.2307063E+03  0.7561462E-02  0.1126144E+00
         -3   -1    0    0    0  501 -0.00000000000E+00  0.00000000000E+00  0.40600199373E+03  0.40600199373E+03  0.00000000000E+00 0.  1.
          3   -1    0    0  501    0  0.00000000000E+00 -0.00000000000E+00 -0.24864928957E+03  0.24864928957E+03  0.00000000000E+00 0. -1.
         25    2    1    2    0    0  0.21304494514E+03  0.64370817379E+02 -0.12439034172E+03  0.28399257757E+03  0.12508827372E+03 0.  0.
          5    1    3    3  502    0  0.14143427122E+03  0.73034662567E+02 -0.25106195310E+02  0.16120021233E+03  0.41800000000E+01 0.  1.
         -5    1    3    3    0  502  0.71610673912E+02 -0.86638451880E+01 -0.99284146413E+02  0.12279236524E+03  0.41800000000E+01 0.  1.
        -11    1    1    2    0    0 -0.19508402431E+03 -0.39167150846E+02  0.27422762156E+03  0.33881061181E+03  0.00000000000E+00 0.  1.
         11    1    1    2    0    0 -0.17960920824E+02 -0.25203666533E+02  0.75154243288E+01  0.31848093921E+02  0.00000000000E+00 0. -1.
</event>
<event>
 7    1  0.2480409E-009  0.7601500E+02  0.7561462E-02  0.1340756E+00
         -2   -1    0    0    0  501 -0.00000000000E+00  0.00000000000E+00  0.11120294542E+03  0.11120294542E+03  0.00000000000E+00 0.  1.
          2   -1    0    0  501    0  0.00000000000E+00 -0.00000000000E+00 -0.11218724324E+03  0.11218724324E+03  0.00000000000E+00 0. -1.
         25    2    1    2    0    0 -0.24999372757E+02 -0.96438180414E+01  0.37689165549E+01  0.12798707056E+03  0.12509401918E+03 0.  0.
          5    1    3    3  502    0  0.24542050877E+02 -0.29506895309E+02 -0.42362754970E+02  0.57315308083E+02  0.41800000000E+01 0. -1.
         -5    1    3    3    0  502 -0.49541423634E+02  0.19863077268E+02  0.46131671524E+02  0.70671762479E+02  0.41800000000E+01 0. -1.
        -11    1    1    2    0    0  0.32713956504E+02 -0.13574799524E+02  0.34308982939E+02  0.49311098574E+02  0.00000000000E+00 0.  1.
         11    1    1    2    0    0 -0.77145837470E+01  0.23218617565E+02 -0.39062197316E+02  0.46092019517E+02  0.00000000000E+00 0. -1.
</event>
<event>
 7    1  0.2480409E-009  0.2307608E+03  0.7561462E-02  0.1126105E+00
          2   -1    0    0  501    0  0.00000000000E+00  0.00000000000E+00  0.43169838416E+03  0.43169838416E+03  0.00000000000E+00 0. -1.
         -2   -1    0    0    0  501 -0.00000000000E+00 -0.00000000000E+00 -0.19920572976E+03  0.19920572976E+03  0.00000000000E+00 0.  1.
         25    2    1    2    0    0 -0.94057938428E+00  0.22730691905E+03  0.27914210855E+03  0.38109999589E+03  0.12509024729E+03 0.  0.
          5    1    3    3  502    0 -0.48963769701E+01  0.45264075500E+01  0.85521260561E+02  0.85882601734E+02  0.41800000000E+01 0. -1.
         -5    1    3    3    0  502  0.39557975858E+01  0.22278051150E+03  0.19362084799E+03  0.29521739416E+03  0.41800000000E+01 0. -1.
        -11    1    1    2    0    0  0.20323772980E+02 -0.12988772596E+03 -0.68288101461E+02  0.14814567798E+03  0.00000000000E+00 0.  1.
         11    1    1    2    0    0 -0.19383193596E+02 -0.97419193081E+02  0.21638647313E+02  0.10165844004E+03  0.00000000000E+00 0. -1.
</event>
<event>
 7    1  0.2480409E-009  0.1169752E+03  0.7561462E-02  0.1248172E+00
          1   -1    0    0  501    0  0.00000000000E+00  0.00000000000E+00  0.48660406006E+02  0.48660406006E+02  0.00000000000E+00 0. -1.
         -1   -1    0    0    0  501 -0.00000000000E+00 -0.00000000000E+00 -0.33794122361E+03  0.33794122361E+03  0.00000000000E+00 0.  1.
         25    2    1    2    0    0  0.30915064633E+02  0.39481917674E+02 -0.90788505779E+02  0.16249609604E+03  0.12509142817E+03 0.  0.
          5    1    3    3  502    0  0.59946743930E+02 -0.21474852812E+02 -0.62017371601E+02  0.88985438086E+02  0.41800000000E+01 0.  1.
         -5    1    3    3    0  502 -0.29031679297E+02  0.60956770486E+02 -0.28771134178E+02  0.73510657954E+02  0.41800000000E+01 0.  1.
        -11    1    1    2    0    0  0.23425726394E+02 -0.41999378393E+02 -0.11254732001E+03  0.12239122388E+03  0.00000000000E+00 0.  1.
         11    1    1    2    0    0 -0.54340791027E+02  0.25174607189E+01 -0.85944991815E+02  0.10171430969E+03  0.00000000000E+00 0. -1.
</event>
<event>
 7    1  0.2480409E-009  0.1099676E+03  0.7561462E-02  0.1260630E+00
          1   -1    0    0  501    0  0.00000000000E+00  0.00000000000E+00  0.98256755358E+02  0.98256755358E+02  0.00000000000E+00 0. -1.
         -1   -1    0    0    0  501 -0.00000000000E+00 -0.00000000000E+00 -0.14950554943E+03  0.14950554943E+03  0.00000000000E+00 0.  1.
         25    2    1    2    0    0  0.66751094164E+01 -0.24585972853E+02  0.22040668097E+02  0.12954874833E+03  0.12509220598E+03 0.  0.
          5    1    3    3  502    0  0.62737840788E+02 -0.31960956031E+02  0.69528079614E+01  0.70875618627E+02  0.41800000000E+01 0. -1.
         -5    1    3    3    0  502 -0.56062731372E+02  0.73749831778E+01  0.15087860136E+02  0.58673129704E+02  0.41800000000E+01 0. -1.
        -11    1    1    2    0    0 -0.14184398641E+01  0.58432239344E+02 -0.44299952943E+02  0.73340469027E+02  0.00000000000E+00 0.  1.
         11    1    1    2    0    0 -0.52566695523E+01 -0.33846266491E+02 -0.28989509223E+02  0.44873087426E+02  0.00000000000E+00 0. -1.
</event>
<event>
 7    1  0.2480409E-009  0.1327986E+03  0.7561462E-02  0.1223361E+00
          2   -1    0    0  501    0  0.00000000000E+00  0.00000000000E+00  0.65255994517E+03  0.65255994517E+03  0.00000000000E+00 0. -1.
         -2   -1    0    0    0  501 -0.00000000000E+00 -0.00000000000E+00 -0.40613390517E+02  0.40613390517E+02  0.00000000000E+00 0.  1.
         25    2    1    2    0    0  0.53765163442E+02  0.56456149524E+02  0.13029076113E+03  0.19672391470E+03  0.12508647632E+03 0.  0.
          5    1    3    3  502    0 -0.32893458646E+02  0.49418244288E+02  0.42762586466E+02  0.73282014789E+02  0.41800000000E+01 0.  1.
         -5    1    3    3    0  502  0.86658622088E+02  0.70379052354E+01  0.87528174668E+02  0.12344189991E+03  0.41800000000E+01 0.  1.
        -11    1    1    2    0    0 -0.53758744466E+02 -0.79514995620E+02  0.41368167732E+03  0.42467065743E+03  0.00000000000E+00 0.  1.
         11    1    1    2    0    0 -0.64189757083E-02  0.23058846097E+02  0.67974116205E+02  0.71778763561E+02  0.00000000000E+00 0. -1.
</event>
<event>
 7    1  0.2480409E-009  0.1175977E+03  0.7561462E-02  0.1247113E+00
         -2   -1    0    0    0  501 -0.00000000000E+00  0.00000000000E+00  0.72535732173E+02  0.72535732173E+02  0.00000000000E+00 0.  1.
          2   -1    0    0  501    0  0.00000000000E+00 -0.00000000000E+00 -0.23386894871E+03  0.23386894871E+03  0.00000000000E+00 0. -1.
         25    2    1    2    0    0  0.24856891443E+01 -0.54003977295E+02 -0.34839143356E+02  0.14065461181E+03  0.12508935086E+03 0.  0.
          5    1    3    3  502    0 -0.21021563785E+02  0.32180492346E+02 -0.33586326753E+02  0.51215270929E+02  0.41800000000E+01 0.  1.
         -5    1    3    3    0  502  0.23507252930E+02 -0.86184469640E+02 -0.12528166032E+01  0.89439340879E+02  0.41800000000E+01 0.  1.
        -11    1    1    2    0    0  0.10429478474E+02 -0.24978651547E+02 -0.31050804810E+02  0.41192954904E+02  0.00000000000E+00 0.  1.
         11    1    1    2    0    0 -0.12915167618E+02  0.78982628842E+02 -0.95443268373E+02  0.12455711417E+03  0.00000000000E+00 0. -1.
</event>
<event>
 7    1  0.2480409E-009  0.1177629E+03  0.7561462E-02  0.1246834E+00
         -3   -1    0    0    0  501 -0.00000000000E+00  0.00000000000E+00  0.49811801611E+03  0.49811801611E+03  0.00000000000E+00 0.  1.
          3   -1    0    0  501    0  0.00000000000E+00 -0.00000000000E+00 -0.29852876980E+02  0.29852876980E+02  0.00000000000E+00 0. -1.
         25    2    1    2    0    0 -0.47171226848E+02  0.20875068623E+02  0.20467294541E+03  0.24535618932E+03  0.12509097458E+03 0.  0.
          5    1    3    3  502    0 -0.46392938080E+02 -0.47367442056E+02  0.11141772618E+03  0.12972031983E+03  0.41800000000E+01 0. -1.
         -5    1    3    3    0  502 -0.77828876754E+00  0.68242510679E+02  0.93255219239E+02  0.11563586949E+03  0.41800000000E+01 0. -1.
        -11    1    1    2    0    0  0.36676343053E+02  0.30857650296E+02  0.14732289858E+03  0.15492380439E+03  0.00000000000E+00 0.  1.
         11    1    1    2    0    0  0.10494883795E+02 -0.51732718919E+02  0.11626929514E+03  0.12769089938E+03  0.00000000000E+00 0. -1.
</event>
<event>
 7    1  0.2480409E-009  0.1023072E+03  0.7561462E-02  0.1275518E+00
          2   -1    0    0  501    0  0.00000000000E+00  0.00000000000E+00  0.41074150800E+03  0.41074150800E+03  0.00000000000E+00 0. -1.
         -2   -1    0    0    0  501 -0.00000000000E+00 -0.00000000000E+00 -0.36806517051E+02  0.36806517051E+02  0.00000000000E+00 0.  1.
         25    2    1    2    0    0 -0.48728754081E+02 -0.18997768483E+02  0.26690457818E+03  0.29936721416E+03  0.12508904181E+03 0.  0.
          5    1    3    3  502    0  0.33200697718E+02 -0.16306598218E+02  0.27494253168E+02  0.46277400874E+02  0.41800000000E+01 0. -1.
         -5    1    3    3    0  502 -0.81929451799E+02 -0.26911702651E+01  0.23941032501E+03  0.25308981329E+03  0.41800000000E+01 0. -1.
        -11    1    1    2    0    0  0.26250259656E+02  0.44282242059E+02  0.20746848459E+02  0.55501574886E+02  0.00000000000E+00 0.  1.
         11    1    1    2    0    0  0.22478494426E+02 -0.25284473576E+02  0.86283564315E+02  0.92679236006E+02  0.00000000000E+00 0. -1.
</event>
<event>
 7    1  0.2480409E-009  0.9597802E+02  0.7561462E-02  0.1288988E+00
         -1   -1    0    0    0  501 -0.00000000000E+00  0.00000000000E+00  0.79694228793E+03  0.79694228793E+03  0.00000000000E+00 0.  1.
          1   -1    0    0  501    0  0.00000000000E+00 -0.00000000000E+00 -0.15766346806E+02  0.15766346806E+02  0.00000000000E+00 0. -1.
         25    2    1    2    0    0  0.98825747396E+00  0.27245599510E+02  0.49226783273E+03  0.50864340501E+03  0.12508874838E+03 0.  0.
          5    1    3    3  502    0  0.25623419768E+02 -0.27162579219E+02  0.51078597479E+02  0.63410258404E+02  0.41800000000E+01 0. -1.
         -5    1    3    3    0  502 -0.24635162294E+02  0.54408178729E+02  0.44118923525E+03  0.44523314660E+03  0.41800000000E+01 0. -1.
        -11    1    1    2    0    0 -0.90933815642E+01  0.32739956861E+02  0.92640184713E+02  0.98675215669E+02  0.00000000000E+00 0.  1.
         11    1    1    2    0    0  0.81051240903E+01 -0.59985556370E+02  0.19626792368E+03  0.20539001406E+03  0.00000000000E+00 0. -1.
</event>
<event>
 7    1  0.2480409E-009  0.2076644E+03  0.7561462E-02  0.1143429E+00
          3   -1    0    0  501    0  0.00000000000E+00  0.00000000000E+00  0.19398741200E+03  0.19398741200E+03  0.00000000000E+00 0. -1.
         -3   -1    0    0    0  501 -0.00000000000E+00 -0.00000000000E+00 -0.22683495577E+03  0.22683495577E+03  0.00000000000E+00 0.  1.
         25    2    1    2    0    0  0.17910519900E+03 -0.58867120544E+01 -0.29738183835E+02  0.22055509218E+03  0.12508742311E+03 0.  0.
          5    1    3    3  502    0  0.71596544842E+02 -0.61166053598E+02  0.59296888563E+01  0.94445671982E+02  0.41800000000E+01 0.  1.
         -5    1    3    3    0  502  0.10750865416E+03  0.55279341544E+02 -0.35667872691E+02  0.12610942020E+03  0.41800000000E+01 0.  1.
        -11    1    1    2    0    0  0.99176239474E+01 -0.43053352520E+01  0.14900905786E+01  0.10914006887E+02  0.00000000000E+00 0.  1.
         11    1    1    2    0    0 -0.18902282295E+03  0.10192047306E+02 -0.45994505229E+01  0.18935326870E+03  0.00000000000E+00 0. -1.
</event>
<event>
 7    1  0.2480409E-009  0.7709662E+02  0.7561462E-02  0.1337499E+00
         -2   -1    0    0    0  501 -0.00000000000E+00  0.00000000000E+00  0.13628788164E+03  0.13628788164E+03  0.00000000000E+00 0.  1.
          2   -1    0    0  501    0  0.00000000000E+00 -0.00000000000E+00 -0.11991588253E+03  0.11991588253E+03  0.00000000000E+00 0. -1.
         25    2    1    2    0    0 -0.29983219847E+02  0.11743531397E+02  0.69146262805E+02  0.14650752493E+03  0.12508535166E+03 0.  0.
          5    1    3    3  502    0  0.92077228033E+01 -0.31150568605E+02  0.80725152661E+02  0.87115800838E+02  0.41800000000E+01 0.  1.
         -5    1    3    3    0  502 -0.39190942651E+02  0.42894100001E+02 -0.11578889855E+02  0.59391724096E+02  0.41800000000E+01 0.  1.
        -11    1    1    2    0    0  0.13319086444E+02  0.21907901160E+02 -0.65266156453E+02  0.70121504370E+02  0.00000000000E+00 0. -1.
         11    1    1    2    0    0  0.16664133403E+02 -0.33651432557E+02  0.12491892757E+02  0.39574734868E+02  0.00000000000E+00 0.  1.
</event>
<event>
 7    1  0.2480409E-009  0.2009281E+03  0.7561462E-02  0.1148958E+00
         -2   -1    0    0    0  501 -0.00000000000E+00  0.00000000000E+00  0.44931644506E+02  0.44931644506E+02  0.00000000000E+00 0.  1.
          2   -1    0    0  501    0  0.00000000000E+00 -0.00000000000E+00 -0.10444363361E+04  0.10444363361E+04  0.00000000000E+00 0. -1.
         25    2    1    2    0    0  0.29836366124E+02 -0.17697472267E+03 -0.38324076805E+03  0.44128369685E+03  0.12509018187E+03 0.  0.
          5    1    3    3  502    0  0.74288499236E+02 -0.12748189087E+03 -0.21970112166E+03  0.26468182574E+03  0.41800000000E+01 0.  1.
         -5    1    3    3    0  502 -0.44452133112E+02 -0.49492831806E+02 -0.16353964639E+03  0.17660187111E+03  0.41800000000E+01 0.  1.
        -11    1    1    2    0    0  0.93408170921E+01  0.10692530851E+03 -0.23337642984E+03  0.25687512622E+03  0.00000000000E+00 0.  1.
         11    1    1    2    0    0 -0.39177183216E+02  0.70049414165E+02 -0.38288749368E+03  0.39120915752E+03  0.00000000000E+00 0. -1.
</event>
<event>
 7    1  0.2480409E-009  0.1073694E+03  0.7561462E-02  0.1265520E+00
          2   -1    0    0  501    0  0.00000000000E+00  0.00000000000E+00  0.24206460605E+03  0.24206460605E+03  0.00000000000E+00 0. -1.
         -2   -1    0    0    0  501 -0.00000000000E+00 -0.00000000000E+00 -0.57755812823E+02  0.57755812823E+02  0.00000000000E+00 0.  1.
         25    2    1    2    0    0  0.33586361539E+02  0.33708845552E+02  0.11661702899E+03  0.17751507545E+03  0.12509092938E+03 0.  0.
          5    1    3    3  502    0  0.73056084798E+02  0.22163922207E+02  0.31118255711E+02  0.82548465837E+02  0.41800000000E+01 0. -1.
         -5    1    3    3    0  502 -0.39469723258E+02  0.11544923345E+02  0.85498773283E+02  0.94966609616E+02  0.41800000000E+01 0. -1.
        -11    1    1    2    0    0 -0.45777385555E+02 -0.55519618764E+02  0.65359017604E+02  0.97210072925E+02  0.00000000000E+00 0. -1.
         11    1    1    2    0    0  0.12191024015E+02  0.21810773212E+02  0.23327466337E+01  0.25095270500E+02  0.00000000000E+00 0.  1.
</event>
<event>
 7    1  0.2480409E-009  0.1126881E+03  0.7561462E-02  0.1255671E+00
         -3   -1    0    0    0  501 -0.00000000000E+00  0.00000000000E+00  0.37483543122E+02  0.37483543122E+02  0.00000000000E+00 0.  1.
          3   -1    0    0  501    0  0.00000000000E+00 -0.00000000000E+00 -0.43662237840E+03  0.43662237840E+03  0.00000000000E+00 0. -1.
         25    2    1    2    0    0  0.62057456339E+02  0.67466963110E+01 -0.25992946722E+03  0.29513977145E+03  0.12509001146E+03 0.  0.
          5    1    3    3  502    0  0.35181463803E+02  0.50387096750E+02 -0.22423930024E+03  0.23254533125E+03  0.41800000000E+01 0. -1.
         -5    1    3    3    0  502  0.26875992536E+02 -0.43640400439E+02 -0.35690166975E+02  0.62594440200E+02  0.41800000000E+01 0. -1.
        -11    1    1    2    0    0 -0.73835161357E+02 -0.35027437752E+02 -0.10476186201E+03  0.13286685132E+03  0.00000000000E+00 0.  1.
         11    1    1    2    0    0  0.11777705018E+02  0.28280741441E+02 -0.34447506052E+02  0.46099298749E+02  0.00000000000E+00 0. -1.
</event>
<event>
 7    1  0.2480409E-009  0.1318394E+03  0.7561462E-02  0.1224752E+00
          1   -1    0    0  501    0  0.00000000000E+00  0.00000000000E+00  0.78576401881E+02  0.78576401881E+02  0.00000000000E+00 0. -1.
         -1   -1    0    0    0  501 -0.00000000000E+00 -0.00000000000E+00 -0.28938547303E+03  0.28938547303E+03  0.00000000000E+00 0.  1.
         25    2    1    2    0    0 -0.82180781749E+02  0.29912380849E+02 -0.18654576270E+03  0.24102936329E+03  0.12508957179E+03 0.  0.
          5    1    3    3  502    0 -0.67862120391E+02 -0.41510049913E+02 -0.98399260156E+02  0.12660267938E+03  0.41800000000E+01 0.  1.
         -5    1    3    3    0  502 -0.14318661359E+02  0.71422430762E+02 -0.88146502544E+02  0.11442668391E+03  0.41800000000E+01 0.  1.
        -11    1    1    2    0    0  0.94369246094E+02 -0.23363520331E+02 -0.40746325690E+02  0.10541191464E+03  0.00000000000E+00 0.  1.
         11    1    1    2    0    0 -0.12188464345E+02 -0.65488605178E+01  0.16483017241E+02  0.21520596984E+02  0.00000000000E+00 0. -1.
</event>
<event>
 7    1  0.2480409E-009  0.1164095E+03  0.7561462E-02  0.1249141E+00
         -1   -1    0    0    0  501 -0.00000000000E+00  0.00000000000E+00  0.47571334226E+02  0.47571334226E+02  0.00000000000E+00 0.  1.
          1   -1    0    0  501    0  0.00000000000E+00 -0.00000000000E+00 -0.56567854027E+03  0.56567854027E+03  0.00000000000E+00 0. -1.
         25    2    1    2    0    0  0.82814879287E+02 -0.36111912012E+01 -0.44165501273E+03  0.46645332293E+03  0.12509279465E+03 0.  0.
          5    1    3    3  502    0 -0.56941809505E+01 -0.49583981938E+02 -0.13766041898E+03  0.14648842383E+03  0.41800000000E+01 0.  1.
         -5    1    3    3    0  502  0.88509060238E+02  0.45972790736E+02 -0.30399459375E+03  0.31996489911E+03  0.41800000000E+01 0.  1.
        -11    1    1    2    0    0 -0.44617258187E+02  0.11116971180E+01 -0.94474999975E+02  0.10448665570E+03  0.00000000000E+00 0. -1.
         11    1    1    2    0    0 -0.38197621100E+02  0.24994940833E+01  0.18022806658E+02  0.42309895866E+02  0.00000000000E+00 0.  1.
</event>
<event>
 7    1  0.2480409E-009  0.9155904E+02  0.7561462E-02  0.1299120E+00
         -2   -1    0    0    0  501 -0.00000000000E+00  0.00000000000E+00  0.29337934164E+02  0.29337934164E+02  0.00000000000E+00 0.  1.
          2   -1    0    0  501    0  0.00000000000E+00 -0.00000000000E+00 -0.57822184031E+03  0.57822184031E+03  0.00000000000E+00 0. -1.
         25    2    1    2    0    0  0.87879105300E+01 -0.68459560230E+02 -0.34950010500E+03  0.37757590805E+03  0.12509717897E+03 0.  0.
          5    1    3    3  502    0 -0.44218353715E+01 -0.47584825103E+02 -0.28913738554E+02  0.56012006618E+02  0.41800000000E+01 0. -1.
         -5    1    3    3    0  502  0.13209745901E+02 -0.20874735126E+02 -0.32058636645E+03  0.32156390144E+03  0.41800000000E+01 0. -1.
        -11    1    1    2    0    0 -0.24013187602E+02 -0.12941625036E+02 -0.25293302520E+02  0.37200403085E+02  0.00000000000E+00 0.  1.
         11    1    1    2    0    0  0.15225277072E+02  0.81401185266E+02 -0.17409049863E+03  0.19278346334E+03  0.00000000000E+00 0. -1.
</event>
<event>
 7    1  0.2480409E-009  0.2992951E+03  0.7561462E-02  0.1085594E+00
         -1   -1    0    0    0  501 -0.00000000000E+00  0.00000000000E+00  0.75920494227E+02  0.75920494227E+02  0.00000000000E+00 0.  1.
          1   -1    0    0  501    0  0.00000000000E+00 -0.00000000000E+00 -0.14458978005E+04  0.14458978005E+04  0.00000000000E+00 0. -1.
         25    2    1    2    0    0 -0.15544749349E+03  0.25369848466E+03 -0.91653953133E+03  0.97170926597E+03  0.12508933105E+03 0.  0.
          5    1    3    3  502    0 -0.14825549414E+03  0.24132879475E+03 -0.91361398673E+03  0.95651830503E+03  0.41800000000E+01 0. -1.
         -5    1    3    3    0  502 -0.71919993533E+01  0.12369689910E+02 -0.29255446017E+01  0.15190960943E+02  0.41800000000E+01 0. -1.
        -11    1    1    2    0    0  0.95072904072E+02 -0.19115721125E+03 -0.38192164401E+03  0.43754323063E+03  0.00000000000E+00 0.  1.
         11    1    1    2    0    0  0.60374589418E+02 -0.62541273405E+02 -0.71516130961E+02  0.11256579815E+03  0.00000000000E+00 0. -1.
</event>
<event>
 7    1  0.2480409E-009  0.1275164E+03  0.7561462E-02  0.1231188E+00
         -2   -1    0    0    0  501 -0.00000000000E+00  0.00000000000E+00  0.70957509103E+02  0.70957509103E+02  0.00000000000E+00 0. -1.
          2   -1    0    0  501    0  0.00000000000E+00 -0.00000000000E+00 -0.35037075032E+03  0.35037075032E+03  0.00000000000E+00 0.  1.
         25    2    1    2    0    0 -0.52508433316E+02 -0.61464728083E+02 -0.41557797799E+02  0.15462720680E+03  0.12508986432E+03 0.  0.
          5    1    3    3  502    0 -0.85813230480E+02 -0.41358597645E+02  0.29102160122E+01  0.95395942691E+02  0.41800000000E+01 0. -1.
         -5    1    3    3    0  502  0.33304797165E+02 -0.20106130438E+02 -0.44468013811E+02  0.59231264107E+02  0.41800000000E+01 0. -1.
        -11    1    1    2    0    0  0.36119032765E+02 -0.17338184262E+02 -0.74339867279E+02  0.84448878196E+02  0.00000000000E+00 0. -1.
         11    1    1    2    0    0  0.16389400550E+02  0.78802912345E+02 -0.16351557613E+03  0.18225217443E+03  0.00000000000E+00 0.  1.
</event>
<event>
 7    1  0.2480409E-009  0.9236550E+02  0.7561462E-02  0.1297222E+00
          4   -1    0    0  501    0  0.00000000000E+00  0.00000000000E+00  0.54400870776E+03  0.54400870776E+03  0.00000000000E+00 0. -1.
         -4   -1    0    0    0  501 -0.00000000000E+00 -0.00000000000E+00 -0.20733589031E+02  0.20733589031E+02  0.00000000000E+00 0.  1.
         25    2    1    2    0    0 -0.38046529491E+02  0.16710838720E+01  0.33959515342E+03  0.36389949803E+03  0.12509054927E+03 0.  0.
          5    1    3    3  502    0 -0.38838861631E+02  0.59282133535E+02  0.15520224350E+03  0.17066938014E+03  0.41800000000E+01 0.  1.
         -5    1    3    3    0  502  0.79233214045E+00 -0.57611049663E+02  0.18439290992E+03  0.19323011790E+03  0.41800000000E+01 0.  1.
        -11    1    1    2    0    0  0.28986641155E+02  0.18132205018E+02  0.17344034733E+03  0.17677826876E+03  0.00000000000E+00 0.  1.
         11    1    1    2    0    0  0.90598883359E+01 -0.19803288890E+02  0.10239617978E+02  0.24064529995E+02  0.00000000000E+00 0. -1.
</event>
<event>
 7    1  0.2480409E-009  0.1359490E+03  0.7561462E-02  0.1218886E+00
          2   -1    0    0  501    0  0.00000000000E+00  0.00000000000E+00  0.20088551517E+03  0.20088551517E+03  0.00000000000E+00 0. -1.
         -2   -1    0    0    0  501 -0.00000000000E+00 -0.00000000000E+00 -0.13046419492E+03  0.13046419492E+03  0.00000000000E+00 0.  1.
         25    2    1    2    0    0  0.14567723093E+02  0.11622024175E+03  0.60352231136E+02  0.18168474139E+03  0.12509032856E+03 0.  0.
          5    1    3    3  502    0 -0.26022083140E+02  0.65778754128E+02  0.86425318102E+02  0.11176225353E+03  0.41800000000E+01 0.  1.
         -5    1    3    3    0  502  0.40589806232E+02  0.50441487626E+02 -0.26073086966E+02  0.69922487855E+02  0.41800000000E+01 0.  1.
        -11    1    1    2    0    0 -0.33932533394E+02 -0.23112864879E+02 -0.25271698411E+02  0.48210788067E+02  0.00000000000E+00 0.  1.
         11    1    1    2    0    0  0.19364810302E+02 -0.93107376876E+02  0.35340787524E+02  0.10145418064E+03  0.00000000000E+00 0. -1.
</event>
<event>
 7    1  0.2480409E-009  0.1249212E+03  0.7561462E-02  0.1235192E+00
         -2   -1    0    0    0  501 -0.00000000000E+00  0.00000000000E+00  0.17758985092E+02  0.17758985092E+02  0.00000000000E+00 0.  1.
          2   -1    0    0  501    0  0.00000000000E+00 -0.00000000000E+00 -0.10959318289E+04  0.10959318289E+04  0.00000000000E+00 0. -1.
         25    2    1    2    0    0  0.81653206239E+02 -0.11221367985E+02 -0.72149194533E+03  0.73687894269E+03  0.12508710489E+03 0.  0.
          5    1    3    3  502    0  0.44196098750E+01 -0.45469657149E+02 -0.10464227110E+03  0.11425629074E+03  0.41800000000E+01 0. -1.
         -5    1    3    3    0  502  0.77233596364E+02  0.34248289164E+02 -0.61684967423E+03  0.62262265195E+03  0.41800000000E+01 0. -1.
        -11    1    1    2    0    0 -0.58792162877E+02  0.48118093507E+02 -0.25919134135E+03  0.27009631758E+03  0.00000000000E+00 0. -1.
         11    1    1    2    0    0 -0.22861043361E+02 -0.36896725522E+02 -0.97489557083E+02  0.10671555368E+03  0.00000000000E+00 0.  1.
</event>
<event>
 7    1  0.2480409E-009  0.1226877E+03  0.7561462E-02  0.1238728E+00
         -4   -1    0    0    0  501 -0.00000000000E+00  0.00000000000E+00  0.46926386187E+02  0.46926386187E+02  0.00000000000E+00 0.  1.
          4   -1    0    0  501    0  0.00000000000E+00 -0.00000000000E+00 -0.47835319744E+03  0.47835319744E+03  0.00000000000E+00 0. -1.
         25    2    1    2    0    0  0.40090858198E+02  0.49501057640E+02 -0.37370870897E+03  0.39920004589E+03  0.12507935824E+03 0.  0.
          5    1    3    3  502    0 -0.19202490636E+02  0.68421823697E+02 -0.13676938657E+03  0.15418696154E+03  0.41800000000E+01 0.  1.
         -5    1    3    3    0  502  0.59293348834E+02 -0.18920766056E+02 -0.23693932240E+03  0.24501308435E+03  0.41800000000E+01 0.  1.
        -11    1    1    2    0    0 -0.25589728218E+02  0.25079710253E+02 -0.22738191027E+02  0.42436439387E+02  0.00000000000E+00 0.  1.
         11    1    1    2    0    0 -0.14501129980E+02 -0.74580767893E+02 -0.34979911249E+02  0.83643098348E+02  0.00000000000E+00 0. -1.
</event>
<event>
 7    1  0.2480409E-009  0.1548960E+03  0.7561462E-02  0.1194583E+00
         -2   -1    0    0    0  501 -0.00000000000E+00  0.00000000000E+00  0.78299639484E+02  0.78299639484E+02  0.00000000000E+00 0.  1.
          2   -1    0    0  501    0  0.00000000000E+00 -0.00000000000E+00 -0.32459472183E+03  0.32459472183E+03  0.00000000000E+00 0. -1.
         25    2    1    2    0    0  0.74026284174E+00  0.10603495228E+03 -0.17689490584E+03  0.24120537838E+03  0.12507704726E+03 0.  0.
          5    1    3    3  502    0  0.53673144232E+02  0.95790832286E+02 -0.11691401805E+03  0.16044640843E+03  0.41800000000E+01 0.  1.
         -5    1    3    3    0  502 -0.52932881390E+02  0.10244119994E+02 -0.59980887786E+02  0.80758969944E+02  0.41800000000E+01 0.  1.
        -11    1    1    2    0    0 -0.42582938225E+02 -0.14155555337E+02 -0.17440860263E+02  0.48144262186E+02  0.00000000000E+00 0.  1.
         11    1    1    2    0    0  0.41842675383E+02 -0.91879396943E+02 -0.51959316244E+02  0.11354472075E+03  0.00000000000E+00 0. -1.
</event>
<event>
 7    1  0.2480409E-009  0.1196981E+03  0.7561462E-02  0.1243596E+00
         -2   -1    0    0    0  501 -0.00000000000E+00  0.00000000000E+00  0.36776176768E+02  0.36776176768E+02  0.00000000000E+00 0.  1.
          2   -1    0    0  501    0  0.00000000000E+00 -0.00000000000E+00 -0.51214032650E+03  0.51214032650E+03  0.00000000000E+00 0. -1.
         25    2    1    2    0    0 -0.85997130302E+02  0.10101040989E+01 -0.25707200763E+03  0.29854698633E+03  0.12509100370E+03 0.  0.
          5    1    3    3  502    0 -0.58372532954E+02  0.61605342475E+02 -0.14952344876E+03  0.17198053655E+03  0.41800000000E+01 0.  1.
         -5    1    3    3    0  502 -0.27624597349E+02 -0.60595238376E+02 -0.10754855887E+03  0.12656644977E+03  0.41800000000E+01 0.  1.
        -11    1    1    2    0    0  0.44890169966E+02 -0.91014612891E+01 -0.24192865725E+02  0.51800180590E+02  0.00000000000E+00 0.  1.
         11    1    1    2    0    0  0.41106960336E+02  0.80913571901E+01 -0.19409927637E+03  0.19856933635E+03  0.00000000000E+00 0. -1.
</event>
<event>
 7    1  0.2480409E-009  0.8894616E+02  0.7561462E-02  0.1305424E+00
          2   -1    0    0  501    0  0.00000000000E+00  0.00000000000E+00  0.33576767362E+03  0.33576767362E+03  0.00000000000E+00 0. -1.
         -2   -1    0    0    0  501 -0.00000000000E+00 -0.00000000000E+00 -0.34833393747E+02  0.34833393747E+02  0.00000000000E+00 0.  1.
         25    2    1    2    0    0  0.48856210687E+01  0.38162831018E+01  0.18889434521E+03  0.22664220136E+03  0.12508869043E+03 0.  0.
          5    1    3    3  502    0  0.13542282246E+02 -0.41481885783E+02  0.14450198335E+02  0.46156482627E+02  0.41800000000E+01 0. -1.
         -5    1    3    3    0  502 -0.86566611770E+01  0.45298168885E+02  0.17444414687E+03  0.18048571873E+03  0.41800000000E+01 0. -1.
        -11    1    1    2    0    0  0.33897081913E+02 -0.26315272829E+02  0.37580022686E+02  0.57041772863E+02  0.00000000000E+00 0. -1.
         11    1    1    2    0    0 -0.38782702982E+02  0.22498989727E+02  0.74459911977E+02  0.86917093146E+02  0.00000000000E+00 0.  1.
</event>
<event>
 7    1  0.2480409E-009  0.1885854E+03  0.7561462E-02  0.1159743E+00
         -1   -1    0    0    0  501 -0.00000000000E+00  0.00000000000E+00  0.58527376113E+03  0.58527376113E+03  0.00000000000E+00 0.  1.
          1   -1    0    0  501    0  0.00000000000E+00 -0.00000000000E+00 -0.80530857070E+02  0.80530857070E+02  0.00000000000E+00 0. -1.
         25    2    1    2    0    0 -0.16126697623E+03 -0.66186590063E+02  0.21152757809E+03  0.30129577649E+03  0.12509007280E+03 0.  0.
          5    1    3    3  502    0 -0.42731493063E+02  0.18087899564E+02  0.12166953943E+03  0.13028469532E+03  0.41800000000E+01 0.  1.
         -5    1    3    3    0  502 -0.11853548317E+03 -0.84274489628E+02  0.89858038664E+02  0.17101108117E+03  0.41800000000E+01 0.  1.
        -11    1    1    2    0    0  0.10658250463E+03  0.10606017727E+02  0.69716483832E+02  0.12779947584E+03  0.00000000000E+00 0. -1.
         11    1    1    2    0    0  0.54684471596E+02  0.55580572336E+02  0.22349884214E+03  0.23670936587E+03  0.00000000000E+00 0.  1.
</event>
<event>
 7    1  0.2480409E-009  0.8718655E+02  0.7561462E-02  0.1309812E+00
         -2   -1    0    0    0  501 -0.00000000000E+00  0.00000000000E+00  0.23085378785E+02  0.23085378785E+02  0.00000000000E+00 0. -1.
          2   -1    0    0  501    0  0.00000000000E+00 -0.00000000000E+00 -0.57939859751E+03  0.57939859751E+03  0.00000000000E+00 0.  1.
         25    2    1    2    0    0 -0.34614157103E+02  0.20891313939E+02 -0.30918796163E+03  0.33597508712E+03  0.12508987440E+03 0.  0.
          5    1    3    3  502    0 -0.47556232301E+02 -0.20020983878E+02 -0.45917252638E+02  0.69197554263E+02  0.41800000000E+01 0.  1.
         -5    1    3    3    0  502  0.12942075198E+02  0.40912297817E+02 -0.26327070899E+03  0.26677753286E+03  0.41800000000E+01 0.  1.
        -11    1    1    2    0    0  0.30775358183E+02 -0.45309838350E+02 -0.23001410947E+03  0.23644575420E+03  0.00000000000E+00 0.  1.
         11    1    1    2    0    0  0.38387989205E+01  0.24418524411E+02 -0.17111147617E+02  0.30063134972E+02  0.00000000000E+00 0. -1.
</event>
<event>
 7    1  0.2556424E-009  0.1104109E+03  0.7561462E-02  0.1259811E+00
         -1   -1    0    0    0  501 -0.00000000000E+00  0.00000000000E+00  0.10447802897E+03  0.10447802897E+03  0.00000000000E+00 0.  1.
          1   -1    0    0  501    0  0.00000000000E+00 -0.00000000000E+00 -0.20821467709E+03  0.20821467709E+03  0.00000000000E+00 0. -1.
         25    2    1    2    0    0  0.84554321261E+02 -0.29336347849E+02 -0.10284625829E+03  0.18502825378E+03  0.12509215524E+03 0.  0.
          5    1    3    3  502    0  0.63196084481E+02  0.26104615923E+02 -0.10506815636E+03  0.12542721374E+03  0.41800000000E+01 0. -1.
         -5    1    3    3    0  502  0.21358236780E+02 -0.55440963772E+02  0.22218980705E+01  0.59601040035E+02  0.41800000000E+01 0. -1.
        -11    1    1    2    0    0 -0.61180984371E+02  0.32325022345E+02  0.40398166538E+02  0.80125100798E+02  0.00000000000E+00 0.  1.
         11    1    1    2    0    0 -0.23373336890E+02 -0.29886744959E+01 -0.41288556373E+02  0.47539351488E+02  0.00000000000E+00 0. -1.
</event>
<event>
 7    1  0.2480409E-009  0.1275352E+03  0.7561462E-02  0.1231160E+00
          1   -1    0    0  501    0  0.00000000000E+00  0.00000000000E+00  0.88721014124E+03  0.88721014124E+03  0.00000000000E+00 0. -1.
         -1   -1    0    0    0  501 -0.00000000000E+00 -0.00000000000E+00 -0.35121972671E+02  0.35121972671E+02  0.00000000000E+00 0.  1.
         25    2    1    2    0    0  0.82368367152E+02  0.30478367609E+02  0.73806574971E+03  0.75372342505E+03  0.12507786287E+03 0.  0.
          5    1    3    3  502    0  0.16644945395E+01 -0.41215973803E+02  0.14125858638E+03  0.14721748424E+03  0.41800000000E+01 0. -1.
         -5    1    3    3    0  502  0.80703872613E+02  0.71694341411E+02  0.59680716333E+03  0.60650594081E+03  0.41800000000E+01 0. -1.
        -11    1    1    2    0    0 -0.15794365160E+02 -0.35460124354E+02  0.28394836641E+01  0.38922295122E+02  0.00000000000E+00 0.  1.
         11    1    1    2    0    0 -0.66574001992E+02  0.49817567459E+01  0.11118293519E+03  0.12968639373E+03  0.00000000000E+00 0. -1.
</event>
<event>
 7    1  0.2480409E-009  0.8507781E+02  0.7561462E-02  0.1315229E+00
          2   -1    0    0  501    0  0.00000000000E+00  0.00000000000E+00  0.46623993190E+03  0.46623993190E+03  0.00000000000E+00 0. -1.
         -2   -1    0    0    0  501 -0.00000000000E+00 -0.00000000000E+00 -0.28819962245E+02  0.28819962245E+02  0.00000000000E+00 0.  1.
         25    2    1    2    0    0  0.13707936520E+02 -0.15368549314E+02  0.17544741014E+03  0.21645645870E+03  0.12508998744E+03 0.  0.
          5    1    3    3  502    0 -0.53970921335E+01  0.28862641979E+02 -0.46120192545E+01  0.30015393169E+02  0.41800000000E+01 0. -1.
         -5    1    3    3    0  502  0.19105028653E+02 -0.44231191293E+02  0.18005942939E+03  0.18644106553E+03  0.41800000000E+01 0. -1.
        -11    1    1    2    0    0 -0.50306213039E+02  0.22058830441E+02  0.18709912092E+03  0.19499586693E+03  0.00000000000E+00 0. -1.
         11    1    1    2    0    0  0.36598276519E+02 -0.66902811266E+01  0.74873438596E+02  0.83607568514E+02  0.00000000000E+00 0.  1.
</event>
<event>
 7    1  0.2480409E-009  0.8942211E+02  0.7561462E-02  0.1304257E+00
         -1   -1    0    0    0  501 -0.00000000000E+00  0.00000000000E+00  0.10830033244E+04  0.10830033244E+04  0.00000000000E+00 0. -1.
          1   -1    0    0  501    0  0.00000000000E+00 -0.00000000000E+00 -0.15785560941E+02  0.15785560941E+02  0.00000000000E+00 0.  1.
         25    2    1    2    0    0 -0.35687829076E+02  0.26134900068E+01  0.84963552832E+03  0.85953961083E+03  0.12508940854E+03 0.  0.
          5    1    3    3  502    0 -0.31738675132E+02 -0.31715635722E+02  0.78357747684E+03  0.78487219320E+03  0.41800000000E+01 0.  1.
         -5    1    3    3    0  502 -0.39491539435E+01  0.34329125729E+02  0.66058051481E+02  0.74667417630E+02  0.41800000000E+01 0.  1.
        -11    1    1    2    0    0 -0.12217246998E+02 -0.37676364058E+02  0.75371290397E+02  0.85144588489E+02  0.00000000000E+00 0.  1.
         11    1    1    2    0    0  0.47905076073E+02  0.35062874052E+02  0.14221094478E+03  0.15410468606E+03  0.00000000000E+00 0. -1.
</event>
<event>
 7    1  0.2480409E-009  0.1029329E+03  0.7561462E-02  0.1274247E+00
          2   -1    0    0  501    0  0.00000000000E+00  0.00000000000E+00  0.27602685048E+03  0.27602685048E+03  0.00000000000E+00 0. -1.
         -2   -1    0    0    0  501 -0.00000000000E+00 -0.00000000000E+00 -0.71003148529E+02  0.71003148529E+02  0.00000000000E+00 0.  1.
         25    2    1    2    0    0  0.28819507269E+02 -0.59995975016E+02  0.18101881167E+03  0.22988276510E+03  0.12509274357E+03 0.  0.
          5    1    3    3  502    0  0.43795692892E+02 -0.61651139683E+02  0.35710424163E+02  0.83735491483E+02  0.41800000000E+01 0.  1.
         -5    1    3    3    0  502 -0.14976185623E+02  0.16551646670E+01  0.14530838751E+03  0.14614727362E+03  0.41800000000E+01 0.  1.
        -11    1    1    2    0    0  0.33215383977E+02  0.33047353265E+02  0.12974944913E+02  0.48618293738E+02  0.00000000000E+00 0. -1.
         11    1    1    2    0    0 -0.62034891246E+02  0.26948621751E+02  0.11029945369E+02  0.68528940171E+02  0.00000000000E+00 0.  1.
</event>
<event>
 7    1  0.2480409E-009  0.1117761E+03  0.7561462E-02  0.1257316E+00
         -1   -1    0    0    0  501 -0.00000000000E+00  0.00000000000E+00  0.27745321885E+02  0.27745321885E+02  0.00000000000E+00 0.  1.
          1   -1    0    0  501    0  0.00000000000E+00 -0.00000000000E+00 -0.46308555120E+03  0.46308555120E+03  0.00000000000E+00 0. -1.
         25    2    1    2    0    0  0.27745330272E+01 -0.35261330703E+02 -0.25500615619E+03  0.28622880519E+03  0.12509088596E+03 0.  0.
          5    1    3    3  502    0 -0.35788921686E+02  0.32747299833E+02 -0.12896706367E+03  0.13785212538E+03  0.41800000000E+01 0.  1.
         -5    1    3    3    0  502  0.38563454714E+02 -0.68008630537E+02 -0.12603909253E+03  0.14837667981E+03  0.41800000000E+01 0.  1.
        -11    1    1    2    0    0  0.27487361709E+02  0.54268997306E+02 -0.11764663198E+03  0.13244398491E+03  0.00000000000E+00 0.  1.
         11    1    1    2    0    0 -0.30261894736E+02 -0.19007666602E+02 -0.62687441141E+02  0.72158082981E+02  0.00000000000E+00 0. -1.
</event>
<event>
 7    1  0.2810238E-009  0.3227575E+03  0.7561462E-02  0.1074387E+00
          1   -1    0    0  501    0  0.00000000000E+00  0.00000000000E+00  0.11794555981E+04  0.11794555981E+04  0.00000000000E+00 0. -1.
         -1   -1    0    0    0  501 -0.00000000000E+00 -0.00000000000E+00 -0.95059710735E+02  0.95059710735E+02  0.00000000000E+00 0.  1.
         25    2    1    2    0    0 -0.21410785277E+03  0.23185306014E+03  0.50490178612E+03  0.60841801040E+03  0.12509455482E+03 0.  0.
          5    1    3    3  502    0 -0.10492094945E+03  0.62628170501E+02  0.28545843770E+03  0.31053934602E+03  0.41800000000E+01 0. -1.
         -5    1    3    3    0  502 -0.10918690332E+03  0.16922488964E+03  0.21944334842E+03  0.29787866438E+03  0.41800000000E+01 0. -1.
        -11    1    1    2    0    0  0.58831317612E+02 -0.10882309056E+03  0.29024705537E+03  0.31551060540E+03  0.00000000000E+00 0. -1.
         11    1    1    2    0    0  0.15527653516E+03 -0.12302996958E+03  0.28924704592E+03  0.35058669307E+03  0.00000000000E+00 0.  1.
</event>
<event>
 7    1  0.2480409E-009  0.8564752E+02  0.7561462E-02  0.1313748E+00
         -2   -1    0    0    0  501 -0.00000000000E+00  0.00000000000E+00  0.30950546369E+03  0.30950546369E+03  0.00000000000E+00 0.  1.
          2   -1    0    0  501    0  0.00000000000E+00 -0.00000000000E+00 -0.54478933586E+02  0.54478933586E+02  0.00000000000E+00 0. -1.
         25    2    1    2    0    0  0.21692881430E+02 -0.27444833208E+02  0.53893482788E+02  0.14062951912E+03  0.12509338186E+03 0.  0.
          5    1    3    3  502    0  0.32962641930E+02  0.31153852223E+02  0.65416218314E+02  0.79711055004E+02  0.41800000000E+01 0.  1.
         -5    1    3    3    0  502 -0.11269760500E+02 -0.58598685431E+02 -0.11522735527E+02  0.60918464114E+02  0.41800000000E+01 0.  1.
        -11    1    1    2    0    0  0.19070763906E+02  0.69009459950E+01  0.35774194215E+01  0.20594053057E+02  0.00000000000E+00 0. -1.
         11    1    1    2    0    0 -0.40763645336E+02  0.20543887213E+02  0.19755562789E+03  0.20276082510E+03  0.00000000000E+00 0.  1.
</event>
<event>
 7    1  0.2480409E-009  0.9508209E+02  0.7561462E-02  0.1290991E+00
         -1   -1    0    0    0  501 -0.00000000000E+00  0.00000000000E+00  0.10506085016E+03  0.10506085016E+03  0.00000000000E+00 0.  1.
          1   -1    0    0  501    0  0.00000000000E+00 -0.00000000000E+00 -0.14004666249E+03  0.14004666249E+03  0.00000000000E+00 0. -1.
         25    2    1    2    0    0  0.44181314683E+02 -0.83150999014E+01 -0.49925496076E+02  0.14198855913E+03  0.12508823411E+03 0.  0.
          5    1    3    3  502    0 -0.38326392541E+02 -0.17512175099E+02  0.45749548315E+01  0.42590976199E+02  0.41800000000E+01 0. -1.
         -5    1    3    3    0  502  0.82507707225E+02  0.91970751974E+01 -0.54500450908E+02  0.99397582932E+02  0.41800000000E+01 0. -1.
        -11    1    1    2    0    0 -0.64971767752E+01 -0.17732672335E+02 -0.32236116697E+02  0.37360784171E+02  0.00000000000E+00 0. -1.
         11    1    1    2    0    0 -0.37684137908E+02  0.26047772236E+02  0.47175800444E+02  0.65758169347E+02  0.00000000000E+00 0.  1.
</event>
<event>
 7    1  0.2997747E-009  0.1075695E+03  0.7561462E-02  0.1265138E+00
         -1   -1    0    0    0  501 -0.00000000000E+00  0.00000000000E+00  0.24663681742E+02  0.24663681742E+02  0.00000000000E+00 0.  1.
          1   -1    0    0  501    0  0.00000000000E+00 -0.00000000000E+00 -0.55351799305E+03  0.55351799305E+03  0.00000000000E+00 0. -1.
         25    2    1    2    0    0  0.78568797310E+01  0.12540191175E+02 -0.19830753542E+03  0.23493039704E+03  0.12508967143E+03 0.  0.
          5    1    3    3  502    0 -0.54841988321E+02  0.27314996404E+02 -0.96687016859E+02  0.11454084136E+03  0.41800000000E+01 0. -1.
         -5    1    3    3    0  502  0.62698868052E+02 -0.14774805229E+02 -0.10162051856E+03  0.12038955568E+03  0.41800000000E+01 0. -1.
        -11    1    1    2    0    0 -0.79670444403E+01 -0.50546480931E+02 -0.23320284218E+03  0.23875088719E+03  0.00000000000E+00 0. -1.
         11    1    1    2    0    0  0.11016470935E+00  0.38006289756E+02 -0.97343933714E+02  0.10450039056E+03  0.00000000000E+00 0.  1.
</event>
<event>
 7    1  0.2480409E-009  0.1515876E+03  0.7561462E-02  0.1198536E+00
          3   -1    0    0  501    0  0.00000000000E+00  0.00000000000E+00  0.65634363988E+02  0.65634363988E+02  0.00000000000E+00 0. -1.
         -3   -1    0    0    0  501 -0.00000000000E+00 -0.00000000000E+00 -0.38241484264E+03  0.38241484264E+03  0.00000000000E+00 0.  1.
         25    2    1    2    0    0  0.10242332776E+02  0.11500410677E+03 -0.17857516380E+03  0.24671430533E+03  0.12509200363E+03 0.  0.
          5    1    3    3  502    0  0.48270523447E+02  0.11196495042E+03 -0.94578871489E+02  0.15436589289E+03  0.41800000000E+01 0.  1.
         -5    1    3    3    0  502 -0.38028190672E+02  0.30391563464E+01 -0.83996292316E+02  0.92348412438E+02  0.41800000000E+01 0.  1.
        -11    1    1    2    0    0 -0.43346699267E+02 -0.33357313850E+02 -0.75349526719E+02  0.93108527545E+02  0.00000000000E+00 0. -1.
         11    1    1    2    0    0  0.33104366492E+02 -0.81646792917E+02 -0.62855788127E+02  0.10822637375E+03  0.00000000000E+00 0.  1.
</event>
<event>
 7    1  0.2480409E-009  0.1018829E+03  0.7561462E-02  0.1276386E+00
         -1   -1    0    0    0  501 -0.00000000000E+00  0.00000000000E+00  0.96968868568E+03  0.96968868568E+03  0.00000000000E+00 0.  1.
          1   -1    0    0  501    0  0.00000000000E+00 -0.00000000000E+00 -0.13608194428E+02  0.13608194428E+02  0.00000000000E+00 0. -1.
         25    2    1    2    0    0 -0.13757247128E+02  0.36928569336E+02  0.51266409086E+03  0.52917476393E+03  0.12509388333E+03 0.  0.
          5    1    3    3  502    0  0.47367665965E+01  0.69220363027E+02  0.45592195823E+03  0.46118998255E+03  0.41800000000E+01 0.  1.
         -5    1    3    3    0  502 -0.18494013725E+02 -0.32291793691E+02  0.56742132633E+02  0.67984781380E+02  0.41800000000E+01 0.  1.
        -11    1    1    2    0    0 -0.24808759508E+02 -0.50224244182E+02  0.22052925595E+03  0.22753263938E+03  0.00000000000E+00 0. -1.
         11    1    1    2    0    0  0.38566006636E+02  0.13295674846E+02  0.22288714444E+03  0.22658947679E+03  0.00000000000E+00 0.  1.
</event>
<event>
 7    1  0.2480409E-009  0.1194958E+03  0.7561462E-02  0.1243931E+00
         -1   -1    0    0    0  501 -0.00000000000E+00  0.00000000000E+00  0.37101932157E+03  0.37101932157E+03  0.00000000000E+00 0.  1.
          1   -1    0    0  501    0  0.00000000000E+00 -0.00000000000E+00 -0.55556020990E+02  0.55556020990E+02  0.00000000000E+00 0. -1.
         25    2    1    2    0    0  0.73831212777E+02  0.25463909989E+02  0.24909573852E+03  0.28947452562E+03  0.12508938940E+03 0.  0.
          5    1    3    3  502    0  0.10669770270E+03  0.19215761386E+01  0.17791735945E+03  0.20750940078E+03  0.41800000000E+01 0. -1.
         -5    1    3    3    0  502 -0.32866489924E+02  0.23542333850E+02  0.71178379074E+02  0.81965124843E+02  0.41800000000E+01 0. -1.
        -11    1    1    2    0    0 -0.39531637306E+02  0.11455030795E+02  0.75402594540E+02  0.85904128783E+02  0.00000000000E+00 0.  1.
         11    1    1    2    0    0 -0.34299575471E+02 -0.36918940784E+02 -0.90350324866E+01  0.51196688156E+02  0.00000000000E+00 0. -1.
</event>
<event>
 7    1  0.2480409E-009  0.6902129E+02  0.7561462E-02  0.1363453E+00
          2   -1    0    0  501    0  0.00000000000E+00  0.00000000000E+00  0.45658418225E+03  0.45658418225E+03  0.00000000000E+00 0. -1.
         -2   -1    0    0    0  501 -0.00000000000E+00 -0.00000000000E+00 -0.31742772518E+02  0.31742772518E+02  0.00000000000E+00 0.  1.
         25    2    1    2    0    0 -0.26874941295E+02  0.40560703432E+02  0.24736049471E+03  0.28142627442E+03  0.12508437336E+03 0.  0.
          5    1    3    3  502    0 -0.43491855332E+02  0.25678193229E+02  0.22544215430E+02  0.55467333964E+02  0.41800000000E+01 0. -1.
         -5    1    3    3    0  502  0.16616914037E+02  0.14882510203E+02  0.22481627928E+03  0.22595894046E+03  0.41800000000E+01 0. -1.
        -11    1    1    2    0    0  0.11500886560E+02  0.78170794327E+01 -0.69963712909E+01  0.15566834417E+02  0.00000000000E+00 0.  1.
         11    1    1    2    0    0  0.15374054736E+02 -0.48377782864E+02  0.18447728631E+03  0.19133384593E+03  0.00000000000E+00 0. -1.
</event>
<event>
 7    1  0.2480409E-009  0.4142148E+02  0.7561462E-02  0.1498004E+00
         -2   -1    0    0    0  501 -0.00000000000E+00  0.00000000000E+00  0.67551983728E+02  0.67551983728E+02  0.00000000000E+00 0. -1.
          2   -1    0    0  501    0  0.00000000000E+00 -0.00000000000E+00 -0.20619144428E+03  0.20619144428E+03  0.00000000000E+00 0.  1.
         25    2    1    2    0    0  0.67244960954E+01 -0.22419954444E+02 -0.13194977964E+03  0.18332272258E+03  0.12509437662E+03 0.  0.
          5    1    3    3  502    0 -0.14240997646E+01 -0.78172446454E+01  0.24413580883E+02  0.26012164568E+02  0.41800000000E+01 0.  1.
         -5    1    3    3    0  502  0.81485958600E+01 -0.14602709799E+02 -0.15636336052E+03  0.15731055801E+03  0.41800000000E+01 0.  1.
        -11    1    1    2    0    0  0.10066596965E+02  0.34502675707E+02 -0.38376709314E+02  0.52578919950E+02  0.00000000000E+00 0.  1.
         11    1    1    2    0    0 -0.16791093060E+02 -0.12082721263E+02  0.31687028401E+02  0.37841785478E+02  0.00000000000E+00 0. -1.
</event>
<event>
 7    1  0.2480409E-009  0.1298835E+03  0.7561462E-02  0.1227629E+00
         -2   -1    0    0    0  501 -0.00000000000E+00  0.00000000000E+00  0.77114272640E+02  0.77114272640E+02  0.00000000000E+00 0.  1.
          2   -1    0    0  501    0  0.00000000000E+00 -0.00000000000E+00 -0.34283726833E+03  0.34283726833E+03  0.00000000000E+00 0. -1.
         25    2    1    2    0    0 -0.34278898315E+02  0.95892342111E+02 -0.62886607058E+02  0.17312493274E+03  0.12508850004E+03 0.  0.
          5    1    3    3  502    0 -0.78574434096E+02  0.47147326043E+02 -0.18462331802E+02  0.93568916538E+02  0.41800000000E+01 0.  1.
         -5    1    3    3    0  502  0.44295535781E+02  0.48745016068E+02 -0.44424275256E+02  0.79556016200E+02  0.41800000000E+01 0.  1.
        -11    1    1    2    0    0  0.17369728556E+02 -0.58027844001E+02 -0.27266551472E+02  0.66425920985E+02  0.00000000000E+00 0.  1.
         11    1    1    2    0    0  0.16909169760E+02 -0.37864498111E+02 -0.17556983716E+03  0.18040068725E+03  0.00000000000E+00 0. -1.
</event>
<event>
 7    1  0.2480409E-009  0.1146228E+03  0.7561462E-02  0.1252241E+00
         -1   -1    0    0    0  501 -0.00000000000E+00  0.00000000000E+00  0.38255911511E+02  0.38255911511E+02  0.00000000000E+00 0.  1.
          1   -1    0    0  501    0  0.00000000000E+00 -0.00000000000E+00 -0.58987116899E+03  0.58987116899E+03  0.00000000000E+00 0. -1.
         25    2    1    2    0    0  0.75400942835E+02 -0.11600924488E+02 -0.23623422723E+03  0.27798351011E+03  0.12509331776E+03 0.  0.
          5    1    3    3  502    0  0.20031953945E+02 -0.17098776703E+00 -0.21723060850E+03  0.21819238778E+03  0.41800000000E+01 0. -1.
         -5    1    3    3    0  502  0.55368988890E+02 -0.11429936721E+02 -0.19003618728E+02  0.59791122326E+02  0.41800000000E+01 0. -1.
        -11    1    1    2    0    0  0.37952107324E+02  0.73543890287E+01 -0.82116960860E+02  0.90761471722E+02  0.00000000000E+00 0.  1.
         11    1    1    2    0    0 -0.11335305016E+03  0.42465354592E+01 -0.23326406939E+03  0.25938209867E+03  0.00000000000E+00 0. -1.
</event>
<event>
 7    1  0.2480409E-009  0.1179866E+03  0.7561462E-02  0.1246456E+00
          3   -1    0    0  501    0  0.00000000000E+00  0.00000000000E+00  0.39144552751E+02  0.39144552751E+02  0.00000000000E+00 0. -1.
         -3   -1    0    0    0  501 -0.00000000000E+00 -0.00000000000E+00 -0.48671990479E+03  0.48671990479E+03  0.00000000000E+00 0.  1.
         25    2    1    2    0    0  0.31643019546E+02 -0.91654776294E+02 -0.27619625467E+03  0.31832878615E+03  0.12508783431E+03 0.  0.
          5    1    3    3  502    0 -0.17003806653E+02  0.14126707618E+02 -0.48314568822E+01  0.23011055700E+02  0.41800000000E+01 0.  1.
         -5    1    3    3    0  502  0.48646826199E+02 -0.10578148391E+03 -0.27136479779E+03  0.29531773045E+03  0.41800000000E+01 0.  1.
        -11    1    1    2    0    0 -0.26215662951E+02  0.74703180819E+02 -0.73423534764E+02  0.10797611618E+03  0.00000000000E+00 0. -1.
         11    1    1    2    0    0 -0.54273565951E+01  0.16951595475E+02 -0.97955562611E+02  0.99559555218E+02  0.00000000000E+00 0.  1.
</event>
<event>
 7    1  0.2480409E-009  0.1099205E+03  0.7561462E-02  0.1260717E+00
         -2   -1    0    0    0  501 -0.00000000000E+00  0.00000000000E+00  0.72969927410E+02  0.72969927410E+02  0.00000000000E+00 0.  1.
          2   -1    0    0  501    0  0.00000000000E+00 -0.00000000000E+00 -0.18014190647E+03  0.18014190647E+03  0.00000000000E+00 0. -1.
         25    2    1    2    0    0  0.74337777338E+01 -0.37640414964E+02 -0.63732733292E+02  0.14553974787E+03  0.12509154659E+03 0.  0.
          5    1    3    3  502    0  0.61366800476E+02 -0.87612138441E+01 -0.56165553214E+02  0.83753715360E+02  0.41800000000E+01 0. -1.
         -5    1    3    3    0  502 -0.53933022743E+02 -0.28879201120E+02 -0.75671800780E+01  0.61786032514E+02  0.41800000000E+01 0. -1.
        -11    1    1    2    0    0  0.47716618705E+01  0.65657199142E+02 -0.39467881216E+02  0.76755131450E+02  0.00000000000E+00 0. -1.
         11    1    1    2    0    0 -0.12205439604E+02 -0.28016784178E+02 -0.39713645493E+01  0.30816954554E+02  0.00000000000E+00 0.  1.
</event>
<event>
 7    1  0.2480409E-009  0.8891505E+02  0.7561462E-02  0.1305501E+00
          2   -1    0    0  501    0  0.00000000000E+00  0.00000000000E+00  0.22775134584E+02  0.22775134584E+02  0.00000000000E+00 0. -1.
         -2   -1    0    0    0  501 -0.00000000000E+00 -0.00000000000E+00 -0.50405402200E+03  0.50405402200E+03  0.00000000000E+00 0.  1.
         25    2    1    2    0    0 -0.31598248474E+01  0.49777599768E+01 -0.29130332838E+03  0.31707624948E+03  0.12507979961E+03 0.  0.
          5    1    3    3  502    0 -0.35434208254E+02  0.33644102356E+02 -0.25739460204E+03  0.26202473604E+03  0.41800000000E+01 0.  1.
         -5    1    3    3    0  502  0.32274383406E+02 -0.28666342379E+02 -0.33908726334E+02  0.55051513433E+02  0.41800000000E+01 0.  1.
        -11    1    1    2    0    0  0.27466094919E+02  0.31369832254E+02 -0.63804622766E+02  0.76219962162E+02  0.00000000000E+00 0.  1.
         11    1    1    2    0    0 -0.24306270071E+02 -0.36347592231E+02 -0.12617093627E+03  0.13353294494E+03  0.00000000000E+00 0. -1.
</event>
<event>
 7    1  0.2480409E-009  0.1408883E+03  0.7561462E-02  0.1212139E+00
         -1   -1    0    0    0  501 -0.00000000000E+00  0.00000000000E+00  0.26948778691E+02  0.26948778691E+02  0.00000000000E+00 0.  1.
          1   -1    0    0  501    0  0.00000000000E+00 -0.00000000000E+00 -0.10986081149E+04  0.10986081149E+04  0.00000000000E+00 0. -1.
         25    2    1    2    0    0  0.11606627446E+03 -0.66715960724E+02 -0.58122755814E+03  0.60942174609E+03  0.12508793219E+03 0.  0.
          5    1    3    3  502    0  0.39416535987E+02 -0.48043041156E+02 -0.76971500864E+02  0.99014551748E+02  0.41800000000E+01 0.  1.
         -5    1    3    3    0  502  0.76649738475E+02 -0.18672919568E+02 -0.50425605728E+03  0.51040719434E+03  0.41800000000E+01 0.  1.
        -11    1    1    2    0    0 -0.30984189381E+01  0.16632270456E+02 -0.91331234875E+01  0.19226194763E+02  0.00000000000E+00 0.  1.
         11    1    1    2    0    0 -0.11296785552E+03  0.50083690268E+02 -0.48129865458E+03  0.49690895274E+03  0.00000000000E+00 0. -1.
</event>
<event>
 7    1  0.2480409E-009  0.7616039E+02  0.7561462E-02  0.1340315E+00
         -2   -1    0    0    0  501 -0.00000000000E+00  0.00000000000E+00  0.19312116288E+03  0.19312116288E+03  0.00000000000E+00 0.  1.
          2   -1    0    0  501    0  0.00000000000E+00 -0.00000000000E+00 -0.62345508485E+02  0.62345508485E+02  0.00000000000E+00 0. -1.
         25    2    1    2    0    0  0.53855472081E+01  0.10836730050E+02  0.61520130441E+02  0.13992455267E+03  0.12509082762E+03 0.  0.
          5    1    3    3  502    0  0.27907234190E+02 -0.20943411270E+02 -0.26213927283E+02  0.43841562237E+02  0.41800000000E+01 0.  1.
         -5    1    3    3    0  502 -0.22521686982E+02  0.31780141320E+02  0.87734057724E+02  0.96082990438E+02  0.41800000000E+01 0.  1.
        -11    1    1    2    0    0 -0.14701395095E+02  0.31443258066E+02  0.10133125522E+01  0.34725153676E+02  0.00000000000E+00 0.  1.
         11    1    1    2    0    0  0.93158478870E+01 -0.42279988116E+02  0.68242211405E+02  0.80816965016E+02  0.00000000000E+00 0. -1.
</event>
<event>
 7    1  0.2480409E-009  0.1372720E+03  0.7561462E-02  0.1217048E+00
         -2   -1    0    0    0  501 -0.00000000000E+00  0.00000000000E+00  0.67462089517E+02  0.67462089517E+02  0.00000000000E+00 0.  1.
          2   -1    0    0  501    0  0.00000000000E+00 -0.00000000000E+00 -0.38262340088E+03  0.38262340088E+03  0.00000000000E+00 0. -1.
         25    2    1    2    0    0  0.19580418920E+02 -0.10928123182E+03 -0.22391565779E+03  0.27948760566E+03  0.12509724012E+03 0.  0.
          5    1    3    3  502    0  0.24677516065E+02 -0.13106548601E+03 -0.14366548380E+03  0.19607239749E+03  0.41800000000E+01 0. -1.
         -5    1    3    3    0  502 -0.50970971455E+01  0.21784254192E+02 -0.80250173982E+02  0.83415208171E+02  0.41800000000E+01 0. -1.
        -11    1    1    2    0    0 -0.28765564927E+02  0.10366999248E+03 -0.34710925736E+02  0.11304766001E+03  0.00000000000E+00 0.  1.
         11    1    1    2    0    0  0.91851460072E+01  0.56112393343E+01 -0.56534727845E+02  0.57550224731E+02  0.00000000000E+00 0. -1.
</event>
<event>
 7    1  0.2480409E-009  0.1096592E+03  0.7561462E-02  0.1261202E+00
          1   -1    0    0  501    0  0.00000000000E+00  0.00000000000E+00  0.44499999631E+02  0.44499999631E+02  0.00000000000E+00 0. -1.
         -1   -1    0    0    0  501 -0.00000000000E+00 -0.00000000000E+00 -0.36652528403E+03  0.36652528403E+03  0.00000000000E+00 0.  1.
         25    2    1    2    0    0  0.68120584388E+01 -0.39184580352E+02 -0.93708085338E+02  0.16127670678E+03  0.12508851032E+03 0.  0.
          5    1    3    3  502    0 -0.72968973861E+01  0.44553062778E+02 -0.41765765464E+02  0.61644721422E+02  0.41800000000E+01 0. -1.
         -5    1    3    3    0  502  0.14108955825E+02 -0.83737643131E+02 -0.51942319874E+02  0.99631985353E+02  0.41800000000E+01 0. -1.
        -11    1    1    2    0    0 -0.21359392527E+02  0.59928632797E+02 -0.96954655072E+02  0.11596495082E+03  0.00000000000E+00 0.  1.
         11    1    1    2    0    0  0.14547334088E+02 -0.20744052445E+02 -0.13136254399E+03  0.13378362607E+03  0.00000000000E+00 0. -1.
</event>
<event>
 7    1  0.2480409E-009  0.1584685E+03  0.7561462E-02  0.1190437E+00
         -1   -1    0    0    0  501 -0.00000000000E+00  0.00000000000E+00  0.13440989909E+03  0.13440989909E+03  0.00000000000E+00 0.  1.
          1   -1    0    0  501    0  0.00000000000E+00 -0.00000000000E+00 -0.20637049373E+03  0.20637049373E+03  0.00000000000E+00 0. -1.
         25    2    1    2    0    0  0.12452483159E+03 -0.23890259449E+01 -0.19343214883E+02  0.17757628151E+03  0.12508810761E+03 0.  0.
          5    1    3    3  502    0  0.37434847858E+02 -0.60477659627E+02 -0.12680093788E+01  0.71260054701E+02  0.41800000000E+01 0.  1.
         -5    1    3    3    0  502  0.87089983733E+02  0.58088633683E+02 -0.18075205504E+02  0.10631622681E+03  0.41800000000E+01 0.  1.
        -11    1    1    2    0    0 -0.32967050219E+02  0.30737689428E+02 -0.50006830531E+02  0.67322470626E+02  0.00000000000E+00 0. -1.
         11    1    1    2    0    0 -0.91557781372E+02 -0.28348663483E+02 -0.26105492310E+01  0.95881640674E+02  0.00000000000E+00 0.  1.
</event>
<event>
 7    1  0.2480409E-009  0.2074576E+03  0.7561462E-02  0.1143595E+00
         -1   -1    0    0    0  501 -0.00000000000E+00  0.00000000000E+00  0.18546384957E+03  0.18546384957E+03  0.00000000000E+00 0.  1.
          1   -1    0    0  501    0  0.00000000000E+00 -0.00000000000E+00 -0.28706182694E+03  0.28706182694E+03  0.00000000000E+00 0. -1.
         25    2    1    2    0    0  0.19776458960E+03 -0.29404630234E+02 -0.92188787071E+02  0.25322255682E+03  0.12508967041E+03 0.  0.
          5    1    3    3  502    0  0.14170535005E+03 -0.14255024398E+02 -0.12221370421E+03  0.18771593926E+03  0.41800000000E+01 0.  1.
         -5    1    3    3    0  502  0.56059239544E+02 -0.15149605836E+02  0.30024917138E+02  0.65506617562E+02  0.41800000000E+01 0.  1.
        -11    1    1    2    0    0 -0.13016703504E+03 -0.18342229454E+02  0.16730205928E+02  0.13251337360E+03  0.00000000000E+00 0.  1.
         11    1    1    2    0    0 -0.67597554562E+02  0.47746859688E+02 -0.26139396228E+02  0.86789746099E+02  0.00000000000E+00 0. -1.
</event>
<event>
 7    1  0.2480409E-009  0.8004869E+02  0.7561462E-02  0.1328913E+00
          2   -1    0    0  501    0  0.00000000000E+00  0.00000000000E+00  0.23559178388E+03  0.23559178388E+03  0.00000000000E+00 0. -1.
         -2   -1    0    0    0  501 -0.00000000000E+00 -0.00000000000E+00 -0.53143880482E+02  0.53143880482E+02  0.00000000000E+00 0.  1.
         25    2    1    2    0    0 -0.17708773754E+02 -0.12715983811E+02  0.10354123925E+03  0.16384228157E+03  0.12509279792E+03 0.  0.
          5    1    3    3  502    0 -0.36950665220E+02 -0.28812959654E+02  0.12308435170E+03  0.13176785776E+03  0.41800000000E+01 0.  1.
         -5    1    3    3    0  502  0.19241891466E+02  0.16096975844E+02 -0.19543112452E+02  0.32074423811E+02  0.41800000000E+01 0.  1.
        -11    1    1    2    0    0  0.50756250743E+02 -0.33685271651E+01  0.18390072429E+02  0.54090098250E+02  0.00000000000E+00 0.  1.
         11    1    1    2    0    0 -0.33047476989E+02  0.16084510976E+02  0.60516591713E+02  0.70803284537E+02  0.00000000000E+00 0. -1.
</event>
<event>
 7    1  0.2496524E-009  0.1272394E+03  0.7561462E-02  0.1231610E+00
          1   -1    0    0  501    0  0.00000000000E+00  0.00000000000E+00  0.15736056992E+03  0.15736056992E+03  0.00000000000E+00 0. -1.
         -1   -1    0    0    0  501 -0.00000000000E+00 -0.00000000000E+00 -0.10729197492E+03  0.10729197492E+03  0.00000000000E+00 0.  1.
         25    2    1    2    0    0 -0.45068235928E+02  0.54723698660E+02  0.19803247755E+02  0.14513292919E+03  0.12508225065E+03 0.  0.
          5    1    3    3  502    0 -0.26143098689E+02  0.95226648156E+02  0.12114929030E+02  0.99578210636E+02  0.41800000000E+01 0. -1.
         -5    1    3    3    0  502 -0.18925137238E+02 -0.40502949497E+02  0.76883187249E+01  0.45554718551E+02  0.41800000000E+01 0. -1.
        -11    1    1    2    0    0  0.85840191972E+01 -0.70477847788E+02  0.25036944090E+01  0.71042810333E+02  0.00000000000E+00 0.  1.
         11    1    1    2    0    0  0.36484216730E+02  0.15754149128E+02  0.27761652842E+02  0.48476805316E+02  0.00000000000E+00 0. -1.
</event>
<event>
 7    1  0.2480409E-009  0.1388388E+03  0.7561462E-02  0.1214900E+00
          2   -1    0    0  501    0  0.00000000000E+00  0.00000000000E+00  0.96851357628E+03  0.96851357628E+03  0.00000000000E+00 0. -1.
         -2   -1    0    0    0  501 -0.00000000000E+00 -0.00000000000E+00 -0.27098734354E+02  0.27098734354E+02  0.00000000000E+00 0.  1.
         25    2    1    2    0    0  0.82094659100E+02 -0.40169096619E+02  0.74641131459E+03  0.76231890425E+03  0.12508865593E+03 0.  0.
          5    1    3    3  502    0  0.30205998369E+02  0.42268010923E+02  0.17309518262E+03  0.18077168399E+03  0.41800000000E+01 0. -1.
         -5    1    3    3    0  502  0.51888660731E+02 -0.82437107543E+02  0.57331613197E+03  0.58154722026E+03  0.41800000000E+01 0. -1.
        -11    1    1    2    0    0  0.61868994283E+01 -0.20190243230E+02  0.32203674204E+02  0.38509742644E+02  0.00000000000E+00 0.  1.
         11    1    1    2    0    0 -0.88281558528E+02  0.60359339849E+02  0.16279985313E+03  0.19478366375E+03  0.00000000000E+00 0. -1.
</event>
<event>
 7    1  0.2480409E-009  0.1985880E+03  0.7561462E-02  0.1150936E+00
          2   -1    0    0  501    0  0.00000000000E+00  0.00000000000E+00  0.59026560233E+03  0.59026560233E+03  0.00000000000E+00 0. -1.
         -2   -1    0    0    0  501 -0.00000000000E+00 -0.00000000000E+00 -0.10325934147E+03  0.10325934147E+03  0.00000000000E+00 0.  1.
         25    2    1    2    0    0  0.12435338773E+03 -0.11938666799E+03  0.44551833871E+03  0.49381242799E+03  0.12508869804E+03 0.  0.
          5    1    3    3  502    0 -0.41491810554E+01 -0.59914480975E+02  0.69246300795E+02  0.91757742495E+02  0.41800000000E+01 0.  1.
         -5    1    3    3    0  502  0.12850256878E+03 -0.59472187015E+02  0.37627203792E+03  0.40205468550E+03  0.41800000000E+01 0.  1.
        -11    1    1    2    0    0  0.40569659323E+01 -0.11355031201E+02  0.15708961993E+01  0.12159910403E+02  0.00000000000E+00 0.  1.
         11    1    1    2    0    0 -0.12841035366E+03  0.13074169919E+03  0.39917025954E+02  0.18755260541E+03  0.00000000000E+00 0. -1.
</event>
<event>
 7    1  0.2480409E-009  0.1074334E+03  0.7561462E-02  0.1265398E+00
         -2   -1    0    0    0  501 -0.00000000000E+00  0.00000000000E+00  0.38208275421E+02  0.38208275421E+02  0.00000000000E+00 0.  1.
          2   -1    0    0  501    0  0.00000000000E+00 -0.00000000000E+00 -0.34329800760E+03  0.34329800760E+03  0.00000000000E+00 0. -1.
         25    2    1    2    0    0  0.19789224293E+02 -0.34512007672E+01 -0.19289349927E+03  0.23077845888E+03  0.12508905163E+03 0.  0.
          5    1    3    3  502    0  0.63039692152E+02  0.31379071861E+02 -0.97940809578E+02  0.12070013885E+03  0.41800000000E+01 0. -1.
         -5    1    3    3    0  502 -0.43250467859E+02 -0.34830272628E+02 -0.94952689689E+02  0.11007832003E+03  0.41800000000E+01 0. -1.
        -11    1    1    2    0    0  0.72195140947E+01 -0.38265079190E+02 -0.15314290485E+02  0.41843340715E+02  0.00000000000E+00 0. -1.
         11    1    1    2    0    0 -0.27008738388E+02  0.41716279957E+02 -0.96881942430E+02  0.10888448343E+03  0.00000000000E+00 0.  1.
</event>
<event>
 7    1  0.2480409E-009  0.1004112E+03  0.7561462E-02  0.1279434E+00
          2   -1    0    0  501    0  0.00000000000E+00  0.00000000000E+00  0.81779458789E+01  0.81779458789E+01  0.00000000000E+00 0. -1.
         -2   -1    0    0    0  501 -0.00000000000E+00 -0.00000000000E+00 -0.28113513414E+04  0.28113513414E+04  0.00000000000E+00 0.  1.
         25    2    1    2    0    0 -0.96975286262E+00  0.18207933729E+02 -0.24768150270E+04  0.24800388618E+04  0.12509040193E+03 0.  0.
          5    1    3    3  502    0  0.55095907968E+02  0.22539590699E+02 -0.77673307146E+03  0.77902203366E+03  0.41800000000E+01 0.  1.
         -5    1    3    3    0  502 -0.56065660830E+02 -0.43316569705E+01 -0.17000819555E+04  0.17010168281E+04  0.41800000000E+01 0.  1.
        -11    1    1    2    0    0  0.35807094782E+02 -0.31285015914E+02 -0.10827942701E+03  0.11825960667E+03  0.00000000000E+00 0. -1.
         11    1    1    2    0    0 -0.34837341919E+02  0.13077082185E+02 -0.21807894156E+03  0.22123081888E+03  0.00000000000E+00 0.  1.
</event>
<event>
 7    1  0.2480409E-009  0.3363047E+03  0.7561462E-02  0.1068381E+00
          3   -1    0    0  501    0  0.00000000000E+00  0.00000000000E+00  0.42776122169E+03  0.42776122169E+03  0.00000000000E+00 0. -1.
         -3   -1    0    0    0  501 -0.00000000000E+00 -0.00000000000E+00 -0.27577354444E+03  0.27577354444E+03  0.00000000000E+00 0.  1.
         25    2    1    2    0    0  0.31732924839E+03 -0.43981264242E+02  0.13702851406E+03  0.37020857573E+03  0.12508146303E+03 0.  0.
          5    1    3    3  502    0  0.63508976630E+02 -0.62437844249E+02  0.41542873770E+02  0.98362377300E+02  0.41800000000E+01 0. -1.
         -5    1    3    3    0  502  0.25382027176E+03  0.18456580007E+02  0.95485640288E+02  0.27184619843E+03  0.41800000000E+01 0. -1.
        -11    1    1    2    0    0 -0.20031659864E+03 -0.89091076346E+01  0.34425092050E+02  0.20344827070E+03  0.00000000000E+00 0. -1.
         11    1    1    2    0    0 -0.11701264975E+03  0.52890371876E+02 -0.19465928855E+02  0.12987791970E+03  0.00000000000E+00 0.  1.
</event>
<event>
 7    1  0.2480409E-009  0.1122946E+03  0.7561462E-02  0.1256379E+00
          2   -1    0    0  501    0  0.00000000000E+00  0.00000000000E+00  0.47883835043E+02  0.47883835043E+02  0.00000000000E+00 0. -1.
         -2   -1    0    0    0  501 -0.00000000000E+00 -0.00000000000E+00 -0.30899949567E+03  0.30899949567E+03  0.00000000000E+00 0.  1.
         25    2    1    2    0    0 -0.41769532242E+02  0.25089298099E+02 -0.11246108705E+03  0.17512661322E+03  0.12509063856E+03 0.  0.
          5    1    3    3  502    0 -0.60873120251E+02 -0.35344700525E+02 -0.64068311378E+02  0.95273320227E+02  0.41800000000E+01 0.  1.
         -5    1    3    3    0  502  0.19103588008E+02  0.60433998624E+02 -0.48392775669E+02  0.79853292990E+02  0.41800000000E+01 0.  1.
        -11    1    1    2    0    0 -0.10909042494E+02 -0.35255975491E+02 -0.19147686077E+02  0.41576735057E+02  0.00000000000E+00 0. -1.
         11    1    1    2    0    0  0.52678574736E+02  0.10166677392E+02 -0.12950688750E+03  0.14017998243E+03  0.00000000000E+00 0.  1.
</event>
<event>
 7    1  0.2480409E-009  0.1719304E+03  0.7561462E-02  0.1175850E+00
         -1   -1    0    0    0  501 -0.00000000000E+00  0.00000000000E+00  0.15339995984E+03  0.15339995984E+03  0.00000000000E+00 0. -1.
          1   -1    0    0  501    0  0.00000000000E+00 -0.00000000000E+00 -0.31321480168E+03  0.31321480168E+03  0.00000000000E+00 0.  1.
         25    2    1    2    0    0  0.13461093731E+03 -0.10886334631E+02 -0.22445355782E+03  0.29028388649E+03  0.12508684349E+03 0.  0.
          5    1    3    3  502    0 -0.21220062505E+02  0.10469746187E+02 -0.49249206055E+02  0.54798388070E+02  0.41800000000E+01 0. -1.
         -5    1    3    3    0  502  0.15583099982E+03 -0.21356080818E+02 -0.17520435176E+03  0.23548549843E+03  0.41800000000E+01 0. -1.
        -11    1    1    2    0    0 -0.14682732320E+03  0.18660938384E+02  0.65436571988E+02  0.16182842276E+03  0.00000000000E+00 0. -1.
         11    1    1    2    0    0  0.12216385888E+02 -0.77746037529E+01 -0.79785600504E+00  0.14502452271E+02  0.00000000000E+00 0.  1.
</event>
<event>
 7    1  0.2480409E-009  0.9695007E+02  0.7561462E-02  0.1286843E+00
         -2   -1    0    0    0  501 -0.00000000000E+00  0.00000000000E+00  0.20980743310E+03  0.20980743310E+03  0.00000000000E+00 0.  1.
          2   -1    0    0  501    0  0.00000000000E+00 -0.00000000000E+00 -0.68687100808E+02  0.68687100808E+02  0.00000000000E+00 0. -1.
         25    2    1    2    0    0  0.18457863010E+00  0.28188229715E+02  0.29125002039E+02  0.13149313411E+03  0.12509024027E+03 0.  0.
          5    1    3    3  502    0  0.43797324507E+02 -0.59810638436E+01  0.54595827801E+02  0.70371553713E+02  0.41800000000E+01 0. -1.
         -5    1    3    3    0  502 -0.43612745877E+02  0.34169293559E+02 -0.25470825763E+02  0.61121580398E+02  0.41800000000E+01 0. -1.
        -11    1    1    2    0    0  0.24796948668E+02 -0.53132904313E+02  0.81181015973E+02  0.10014165736E+03  0.00000000000E+00 0.  1.
         11    1    1    2    0    0 -0.24981527298E+02  0.24944674598E+02  0.30814314280E+02  0.46859742439E+02  0.00000000000E+00 0. -1.
</event>
<event>
 7    1  0.2480409E-009  0.1125337E+03  0.7561462E-02  0.1255949E+00
          2   -1    0    0  501    0  0.00000000000E+00  0.00000000000E+00  0.67783753121E+03  0.67783753121E+03  0.00000000000E+00 0. -1.
         -2   -1    0    0    0  501 -0.00000000000E+00 -0.00000000000E+00 -0.21168623871E+02  0.21168623871E+02  0.00000000000E+00 0.  1.
         25    2    1    2    0    0  0.14092842685E+02  0.47100905416E+02  0.35131779449E+03  0.37615127940E+03  0.12509391979E+03 0.  0.
          5    1    3    3  502    0  0.66326228383E+02  0.12121369617E+02  0.22611006624E+03  0.23598586955E+03  0.41800000000E+01 0.  1.
         -5    1    3    3    0  502 -0.52233385698E+02  0.34979535799E+02  0.12520772825E+03  0.14016540985E+03  0.41800000000E+01 0.  1.
        -11    1    1    2    0    0 -0.45704051803E+02 -0.42785984843E+02  0.25983359007E+03  0.26726951824E+03  0.00000000000E+00 0. -1.
         11    1    1    2    0    0  0.31611209118E+02 -0.43149205737E+01  0.45517522779E+02  0.55585357437E+02  0.00000000000E+00 0.  1.
</event>
<event>
 7    1  0.2480409E-009  0.1239212E+03  0.7561462E-02  0.1236765E+00
          3   -1    0    0  501    0  0.00000000000E+00  0.00000000000E+00  0.23255100803E+03  0.23255100803E+03  0.00000000000E+00 0.  1.
         -3   -1    0    0    0  501 -0.00000000000E+00 -0.00000000000E+00 -0.95308276845E+02  0.95308276845E+02  0.00000000000E+00 0. -1.
         25    2    1    2    0    0  0.89545034344E+02 -0.14223073406E+01  0.21571054074E+02  0.15534432583E+03  0.12508482346E+03 0.  0.
          5    1    3    3  502    0  0.37008520685E+02 -0.51417982752E+02  0.46330902973E+02  0.78596848053E+02  0.41800000000E+01 0.  1.
         -5    1    3    3    0  502  0.52536513660E+02  0.49995675412E+02 -0.24759848899E+02  0.76747477775E+02  0.41800000000E+01 0.  1.
        -11    1    1    2    0    0 -0.12958529781E+02  0.27828817796E+02  0.76704433995E+02  0.82619227716E+02  0.00000000000E+00 0.  1.
         11    1    1    2    0    0 -0.76586504563E+02 -0.26406510455E+02  0.38967243118E+02  0.89895731332E+02  0.00000000000E+00 0. -1.
</event>
<event>
 7    1  0.2480409E-009  0.1087989E+03  0.7561462E-02  0.1262810E+00
          3   -1    0    0  501    0  0.00000000000E+00  0.00000000000E+00  0.23687807030E+03  0.23687807030E+03  0.00000000000E+00 0. -1.
         -3   -1    0    0    0  501 -0.00000000000E+00 -0.00000000000E+00 -0.69847130173E+02  0.69847130173E+02  0.00000000000E+00 0.  1.
         25    2    1    2    0    0 -0.17186141157E+01 -0.15644175942E+02  0.14906178898E+03  0.19522848432E+03  0.12508817002E+03 0.  0.
          5    1    3    3  502    0  0.55656761332E+02 -0.15263885584E+02  0.35388364844E+02  0.67826765008E+02  0.41800000000E+01 0. -1.
         -5    1    3    3    0  502 -0.57375375448E+02 -0.38029035875E+00  0.11367342414E+03  0.12740171931E+03  0.41800000000E+01 0. -1.
        -11    1    1    2    0    0  0.11701177656E+02 -0.42053596297E+02 -0.12612480377E+02  0.45436738233E+02  0.00000000000E+00 0.  1.
         11    1    1    2    0    0 -0.99825635398E+01  0.57697772239E+02  0.30581631521E+02  0.66059977919E+02  0.00000000000E+00 0. -1.
</event>
<event>
 7    1  0.2480409E-009  0.1150152E+03  0.7561462E-02  0.1251555E+00
          1   -1    0    0  501    0  0.00000000000E+00  0.00000000000E+00  0.92064354989E+03  0.92064354989E+03  0.00000000000E+00 0. -1.
         -1   -1    0    0    0  501 -0.00000000000E+00 -0.00000000000E+00 -0.17396796955E+02  0.17396796955E+02  0.00000000000E+00 0.  1.
         25    2    1    2    0    0 -0.91219919743E+01 -0.55128696098E+02  0.36910040107E+03  0.39370591508E+03  0.12508739996E+03 0.  0.
          5    1    3    3  502    0 -0.46255534334E+02 -0.71011876170E+02  0.31399046625E+03  0.32525335711E+03  0.41800000000E+01 0.  1.
         -5    1    3    3    0  502  0.37133542360E+02  0.15883180073E+02  0.55109934825E+02  0.68452557979E+02  0.41800000000E+01 0.  1.
        -11    1    1    2    0    0  0.16223345605E+02 -0.21880966861E+02  0.15611443735E+03  0.15847299834E+03  0.00000000000E+00 0. -1.
         11    1    1    2    0    0 -0.71013536310E+01  0.77009662959E+02  0.37803191451E+03  0.38586143342E+03  0.00000000000E+00 0.  1.
</event>
<event>
 7    1  0.2480409E-009  0.1381988E+03  0.7561462E-02  0.1215773E+00
         -1   -1    0    0    0  501 -0.00000000000E+00  0.00000000000E+00  0.12151451103E+03  0.12151451103E+03  0.00000000000E+00 0.  1.
          1   -1    0    0  501    0  0.00000000000E+00 -0.00000000000E+00 -0.22762407473E+03  0.22762407473E+03  0.00000000000E+00 0. -1.
         25    2    1    2    0    0 -0.56172761913E+02 -0.10237182732E+03 -0.36936050540E+01  0.17116856158E+03  0.12509861528E+03 0.  0.
          5    1    3    3  502    0 -0.13480343773E+02 -0.11304069709E+03  0.27347302076E+02  0.11715488124E+03  0.41800000000E+01 0. -1.
         -5    1    3    3    0  502 -0.42692418140E+02  0.10668869769E+02 -0.31040907130E+02  0.54013680343E+02  0.41800000000E+01 0. -1.
        -11    1    1    2    0    0  0.44195414440E+02  0.61825591668E+02 -0.10399823080E+02  0.76705897835E+02  0.00000000000E+00 0.  1.
         11    1    1    2    0    0  0.11977347473E+02  0.40546235656E+02 -0.92016135566E+02  0.10126412634E+03  0.00000000000E+00 0. -1.
</event>
<event>
 7    1  0.2480409E-009  0.1419176E+03  0.7561462E-02  0.1210772E+00
         -2   -1    0    0    0  501 -0.00000000000E+00  0.00000000000E+00  0.24874443936E+02  0.24874443936E+02  0.00000000000E+00 0. -1.
          2   -1    0    0  501    0  0.00000000000E+00 -0.00000000000E+00 -0.11063503498E+04  0.11063503498E+04  0.00000000000E+00 0.  1.
         25    2    1    2    0    0 -0.96431225491E+02  0.67459368224E+02 -0.42610338250E+03  0.45941411820E+03  0.12508993487E+03 0.  0.
          5    1    3    3  502    0  0.84655394788E+01  0.27322805176E+02 -0.13737019351E+02  0.32005923546E+02  0.41800000000E+01 0. -1.
         -5    1    3    3    0  502 -0.10489676497E+03  0.40136563048E+02 -0.41236636315E+03  0.42740819465E+03  0.41800000000E+01 0.  1.
        -11    1    1    2    0    0  0.68071547602E+02  0.13782842532E+01 -0.22606533115E+03  0.23609567808E+03  0.00000000000E+00 0.  1.
         11    1    1    2    0    0  0.28359677888E+02 -0.68837652477E+02 -0.42930719225E+03  0.43571499750E+03  0.00000000000E+00 0. -1.
</event>
<event>
 7    1  0.2480409E-009  0.2062082E+03  0.7561462E-02  0.1144604E+00
          2   -1    0    0  501    0  0.00000000000E+00  0.00000000000E+00  0.50049021662E+03  0.50049021662E+03  0.00000000000E+00 0. -1.
         -2   -1    0    0    0  501 -0.00000000000E+00 -0.00000000000E+00 -0.13865898352E+03  0.13865898352E+03  0.00000000000E+00 0.  1.
         25    2    1    2    0    0 -0.18565911718E+02  0.19503505736E+03  0.17980470907E+02  0.23314069621E+03  0.12509164727E+03 0.  0.
          5    1    3    3  502    0  0.12570209767E+02  0.37968828806E+02 -0.45606683336E+02  0.60803652023E+02  0.41800000000E+01 0.  1.
         -5    1    3    3    0  502 -0.31136121485E+02  0.15706622855E+03  0.63587154243E+02  0.17233704418E+03  0.41800000000E+01 0.  1.
        -11    1    1    2    0    0  0.36437305351E+02 -0.33473351231E+02  0.11607967088E+03  0.12618491374E+03  0.00000000000E+00 0. -1.
         11    1    1    2    0    0 -0.17871393633E+02 -0.16156170613E+03  0.22777109131E+03  0.27982359020E+03  0.00000000000E+00 0.  1.
</event>
<event>
 7    1  0.2480409E-009  0.9088196E+02  0.7561462E-02  0.1300730E+00
          3   -1    0    0  501    0  0.00000000000E+00  0.00000000000E+00  0.28747363762E+03  0.28747363762E+03  0.00000000000E+00 0. -1.
         -3   -1    0    0    0  501 -0.00000000000E+00 -0.00000000000E+00 -0.49456795414E+02  0.49456795414E+02  0.00000000000E+00 0.  1.
         25    2    1    2    0    0  0.85584256741E+01  0.11057303690E+02  0.70654783071E+02  0.14433912067E+03  0.12508466241E+03 0.  0.
          5    1    3    3  502    0  0.57927395433E+02  0.78874057847E+00  0.80580530304E+00  0.58088957432E+02  0.41800000000E+01 0. -1.
         -5    1    3    3    0  502 -0.49368969759E+02  0.10268563112E+02  0.69848977768E+02  0.86250163239E+02  0.41800000000E+01 0. -1.
        -11    1    1    2    0    0 -0.16462283004E+02  0.28407890203E+02  0.17074460938E+02  0.37007461462E+02  0.00000000000E+00 0.  1.
         11    1    1    2    0    0  0.79038573303E+01 -0.39465193894E+02  0.15028759819E+03  0.15558385090E+03  0.00000000000E+00 0. -1.
</event>
<event>
 7    1  0.2480409E-009  0.1039087E+03  0.7561462E-02  0.1272285E+00
          1   -1    0    0  501    0  0.00000000000E+00  0.00000000000E+00  0.12075502092E+03  0.12075502092E+03  0.00000000000E+00 0.  1.
         -1   -1    0    0    0  501 -0.00000000000E+00 -0.00000000000E+00 -0.10731164566E+03  0.10731164566E+03  0.00000000000E+00 0. -1.
         25    2    1    2    0    0  0.28086116841E+02 -0.13330291882E+02  0.19572597688E+01  0.12891032419E+03  0.12509002429E+03 0.  0.
          5    1    3    3  502    0  0.36230799178E+02 -0.65915955838E+02  0.45550444031E+01  0.75470556330E+02  0.41800000000E+01 0.  1.
         -5    1    3    3    0  502 -0.81446823370E+01  0.52585663957E+02 -0.25977846342E+01  0.53439767862E+02  0.41800000000E+01 0.  1.
        -11    1    1    2    0    0 -0.65400272273E+01  0.42412518573E+02 -0.23406472571E+02  0.48882068758E+02  0.00000000000E+00 0. -1.
         11    1    1    2    0    0 -0.21546089614E+02 -0.29082226691E+02  0.34892588065E+02  0.50274273628E+02  0.00000000000E+00 0.  1.
</event>
<event>
 7    1  0.2480409E-009  0.8331855E+02  0.7561462E-02  0.1319889E+00
         -1   -1    0    0    0  501 -0.00000000000E+00  0.00000000000E+00  0.29491089160E+02  0.29491089160E+02  0.00000000000E+00 0.  1.
          1   -1    0    0  501    0  0.00000000000E+00 -0.00000000000E+00 -0.49577107646E+03  0.49577107646E+03  0.00000000000E+00 0. -1.
         25    2    1    2    0    0 -0.21232525439E+01 -0.37000136310E+02 -0.18673183936E+03  0.22779201256E+03  0.12508758080E+03 0.  0.
          5    1    3    3  502    0  0.28055634504E+02 -0.20853603787E+02  0.26416211990E+01  0.35304985213E+02  0.41800000000E+01 0. -1.
         -5    1    3    3    0  502 -0.30178887048E+02 -0.16146532523E+02 -0.18937346056E+03  0.19248702735E+03  0.41800000000E+01 0. -1.
        -11    1    1    2    0    0  0.29503013226E+02  0.56224532227E+02 -0.13625075589E+03  0.15031930779E+03  0.00000000000E+00 0.  1.
         11    1    1    2    0    0 -0.27379760682E+02 -0.19224395918E+02 -0.14329739205E+03  0.14715084527E+03  0.00000000000E+00 0. -1.
</event>
<event>
 7    1  0.2480409E-009  0.1115530E+03  0.7561462E-02  0.1257721E+00
         -2   -1    0    0    0  501 -0.00000000000E+00  0.00000000000E+00  0.28020021313E+02  0.28020021313E+02  0.00000000000E+00 0.  1.
          2   -1    0    0  501    0  0.00000000000E+00 -0.00000000000E+00 -0.52822271074E+03  0.52822271074E+03  0.00000000000E+00 0. -1.
         25    2    1    2    0    0 -0.49074360205E+02 -0.25160208409E+02 -0.25539165812E+03  0.28967922673E+03  0.12509127245E+03 0.  0.
          5    1    3    3  502    0 -0.79137705317E+02 -0.53089871685E+02 -0.18259736443E+03  0.20601111809E+03  0.41800000000E+01 0.  1.
         -5    1    3    3    0  502  0.30063345112E+02  0.27929663276E+02 -0.72794293681E+02  0.83668108635E+02  0.41800000000E+01 0.  1.
        -11    1    1    2    0    0  0.39450584112E+02 -0.17195888824E+02 -0.19833384936E+03  0.20294916354E+03  0.00000000000E+00 0. -1.
         11    1    1    2    0    0  0.96237760929E+01  0.42356097233E+02 -0.46477181953E+02  0.63614341790E+02  0.00000000000E+00 0.  1.
</event>
<event>
 7    1  0.2480409E-009  0.1912932E+03  0.7561462E-02  0.1157300E+00
          1   -1    0    0  501    0  0.00000000000E+00  0.00000000000E+00  0.39372041885E+03  0.39372041885E+03  0.00000000000E+00 0. -1.
         -1   -1    0    0    0  501 -0.00000000000E+00 -0.00000000000E+00 -0.10017571996E+03  0.10017571996E+03  0.00000000000E+00 0.  1.
         25    2    1    2    0    0  0.13723105140E+03  0.95462060070E+02  0.13737771212E+03  0.24993191314E+03  0.12509180245E+03 0.  0.
          5    1    3    3  502    0 -0.11329144998E+02  0.44831555030E+02  0.57095047755E+02  0.73590316829E+02  0.41800000000E+01 0.  1.
         -5    1    3    3    0  502  0.14856019639E+03  0.50630505041E+02  0.80282664361E+02  0.17634159631E+03  0.41800000000E+01 0.  1.
        -11    1    1    2    0    0 -0.46192883654E+02  0.14092384331E+01  0.11763600050E+02  0.47688056569E+02  0.00000000000E+00 0.  1.
         11    1    1    2    0    0 -0.91038167742E+02 -0.96871298503E+02  0.14440338672E+03  0.19627616910E+03  0.00000000000E+00 0. -1.
</event>
<event>
 7    1  0.2480409E-009  0.1051293E+03  0.7561462E-02  0.1269865E+00
          2   -1    0    0  501    0  0.00000000000E+00  0.00000000000E+00  0.77768044115E+03  0.77768044115E+03  0.00000000000E+00 0.  1.
         -2   -1    0    0    0  501 -0.00000000000E+00 -0.00000000000E+00 -0.17254417252E+02  0.17254417252E+02  0.00000000000E+00 0. -1.
         25    2    1    2    0    0 -0.19279095585E+02 -0.92266754225E+01  0.55826480623E+03  0.57250854285E+03  0.12509845201E+03 0.  0.
          5    1    3    3  502    0 -0.59334305258E+02 -0.43678642370E+02  0.31272623056E+03  0.32131534551E+03  0.41800000000E+01 0.  1.
         -5    1    3    3    0  502  0.40055209673E+02  0.34451966947E+02  0.24553857567E+03  0.25119319734E+03  0.41800000000E+01 0.  1.
        -11    1    1    2    0    0  0.16144179420E+02  0.44868632876E+02  0.16087666130E+03  0.16779490129E+03  0.00000000000E+00 0.  1.
         11    1    1    2    0    0  0.31349161657E+01 -0.35641957453E+02  0.41284556367E+02  0.54631414268E+02  0.00000000000E+00 0. -1.
</event>
<event>
 7    1  0.2480409E-009  0.1108440E+03  0.7561462E-02  0.1259015E+00
          1   -1    0    0  501    0  0.00000000000E+00  0.00000000000E+00  0.12293249666E+03  0.12293249666E+03  0.00000000000E+00 0. -1.
         -1   -1    0    0    0  501 -0.00000000000E+00 -0.00000000000E+00 -0.11101837318E+03  0.11101837318E+03  0.00000000000E+00 0.  1.
         25    2    1    2    0    0  0.45342142062E+01 -0.41805810763E+02  0.21721363524E+02  0.13374081556E+03  0.12508598324E+03 0.  0.
          5    1    3    3  502    0  0.38422743590E+02 -0.74936700434E+02  0.11767106734E+02  0.85133738893E+02  0.41800000000E+01 0.  1.
         -5    1    3    3    0  502 -0.33888529384E+02  0.33130889671E+02  0.99542567903E+01  0.48607076670E+02  0.41800000000E+01 0.  1.
        -11    1    1    2    0    0  0.37467437449E+02  0.19709628228E+02 -0.26448320544E+02  0.49917852252E+02  0.00000000000E+00 0.  1.
         11    1    1    2    0    0 -0.42001651655E+02  0.22096182535E+02  0.16641080496E+02  0.50292202024E+02  0.00000000000E+00 0. -1.
</event>
<event>
 7    1  0.2480409E-009  0.1309203E+03  0.7561462E-02  0.1226097E+00
          1   -1    0    0  501    0  0.00000000000E+00  0.00000000000E+00  0.16794570443E+03  0.16794570443E+03  0.00000000000E+00 0. -1.
         -1   -1    0    0    0  501 -0.00000000000E+00 -0.00000000000E+00 -0.12515695462E+03  0.12515695462E+03  0.00000000000E+00 0.  1.
         25    2    1    2    0    0 -0.86229849985E+02  0.98935381449E-01 -0.19971987769E+02  0.15323879555E+03  0.12509057259E+03 0.  0.
          5    1    3    3  502    0 -0.11446978281E+03  0.72355032834E+00  0.59090959926E+01  0.11470067356E+03  0.41800000000E+01 0. -1.
         -5    1    3    3    0  502  0.28239932821E+02 -0.62461494689E+00 -0.25881083761E+02  0.38538121987E+02  0.41800000000E+01 0. -1.
        -11    1    1    2    0    0  0.58056976340E+02 -0.39558510635E+02  0.58082288878E+02  0.91153938733E+02  0.00000000000E+00 0. -1.
         11    1    1    2    0    0  0.28172873645E+02  0.39459575253E+02  0.46784486935E+01  0.48709924767E+02  0.00000000000E+00 0.  1.
</event>
<event>
 7    1  0.2480409E-009  0.1476336E+03  0.7561462E-02  0.1203411E+00
         -2   -1    0    0    0  501 -0.00000000000E+00  0.00000000000E+00  0.16025152513E+03  0.16025152513E+03  0.00000000000E+00 0.  1.
          2   -1    0    0  501    0  0.00000000000E+00 -0.00000000000E+00 -0.20340493766E+03  0.20340493766E+03  0.00000000000E+00 0. -1.
         25    2    1    2    0    0  0.15111074572E+02 -0.14296502532E+03 -0.17598512634E+02  0.19137875608E+03  0.12509507422E+03 0.  0.
          5    1    3    3  502    0  0.17898359550E+02 -0.19677772754E+02  0.45440007165E+02  0.52818866575E+02  0.41800000000E+01 0.  1.
         -5    1    3    3    0  502 -0.27872849787E+01 -0.12328725256E+03 -0.63038519798E+02  0.13855988951E+03  0.41800000000E+01 0.  1.
        -11    1    1    2    0    0 -0.19439354677E+02  0.11020792870E+03 -0.57933821759E+02  0.12601588695E+03  0.00000000000E+00 0. -1.
         11    1    1    2    0    0  0.43282801057E+01  0.32757096611E+02  0.32378921855E+02  0.46261819760E+02  0.00000000000E+00 0.  1.
</event>
<event>
 7    1  0.2480409E-009  0.1073620E+03  0.7561462E-02  0.1265534E+00
         -2   -1    0    0    0  501 -0.00000000000E+00  0.00000000000E+00  0.40965764088E+02  0.40965764088E+02  0.00000000000E+00 0.  1.
          2   -1    0    0  501    0  0.00000000000E+00 -0.00000000000E+00 -0.43445172553E+03  0.43445172553E+03  0.00000000000E+00 0. -1.
         25    2    1    2    0    0 -0.64276064298E+01 -0.14288780529E+01 -0.79131308829E+02  0.14816693874E+03  0.12509325274E+03 0.  0.
          5    1    3    3  502    0 -0.26101359944E+02 -0.58342860015E+02 -0.49340956706E+02  0.80852784209E+02  0.41800000000E+01 0. -1.
         -5    1    3    3    0  502  0.19673753514E+02  0.56913981962E+02 -0.29790352123E+02  0.67314154527E+02  0.41800000000E+01 0. -1.
        -11    1    1    2    0    0  0.22489115350E+02 -0.39992752470E+02 -0.14010477530E+03  0.14742634982E+03  0.00000000000E+00 0.  1.
         11    1    1    2    0    0 -0.16061508920E+02  0.41421630523E+02 -0.17424987732E+03  0.17982420107E+03  0.00000000000E+00 0. -1.
</event>
<event>
 7    1  0.2480409E-009  0.2135557E+03  0.7561462E-02  0.1138781E+00
          1   -1    0    0  501    0  0.00000000000E+00  0.00000000000E+00  0.10123114211E+03  0.10123114211E+03  0.00000000000E+00 0. -1.
         -1   -1    0    0    0  501 -0.00000000000E+00 -0.00000000000E+00 -0.60500079609E+03  0.60500079609E+03  0.00000000000E+00 0.  1.
         25    2    1    2    0    0  0.11880129364E+03  0.15461748155E+03 -0.10707351046E+03  0.25521079859E+03  0.12508997602E+03 0.  0.
          5    1    3    3  502    0  0.98160302341E+02  0.17208242611E+03 -0.72228362908E+02  0.21090807273E+03  0.41800000000E+01 0.  1.
         -5    1    3    3    0  502  0.20640991301E+02 -0.17464944564E+02 -0.34845147555E+02  0.44302725860E+02  0.41800000000E+01 0.  1.
        -11    1    1    2    0    0 -0.62693465565E+02 -0.41082631795E+02 -0.22849198917E+03  0.24047212390E+03  0.00000000000E+00 0.  1.
         11    1    1    2    0    0 -0.56107828077E+02 -0.11353484976E+03 -0.16820415435E+03  0.21054901572E+03  0.00000000000E+00 0. -1.
</event>
<event>
 7    1  0.2480409E-009  0.1992769E+03  0.7561462E-02  0.1150350E+00
         -1   -1    0    0    0  501 -0.00000000000E+00  0.00000000000E+00  0.76195517004E+02  0.76195517004E+02  0.00000000000E+00 0.  1.
          1   -1    0    0  501    0  0.00000000000E+00 -0.00000000000E+00 -0.67705095518E+03  0.67705095518E+03  0.00000000000E+00 0. -1.
         25    2    1    2    0    0 -0.20640232653E+02  0.16987976799E+03 -0.14104102385E+03  0.25460822026E+03  0.12509044984E+03 0.  0.
          5    1    3    3  502    0  0.26927710637E+02 -0.42105590491E+01 -0.37354708530E+02  0.46429269400E+02  0.41800000000E+01 0. -1.
         -5    1    3    3    0  502 -0.47567943291E+02  0.17409032704E+03 -0.10368631532E+03  0.20817895086E+03  0.41800000000E+01 0. -1.
        -11    1    1    2    0    0 -0.21033387053E+02 -0.67481397293E+01 -0.83544471829E+02  0.86415389451E+02  0.00000000000E+00 0. -1.
         11    1    1    2    0    0  0.41673619707E+02 -0.16313162826E+03 -0.37626994249E+03  0.41222286247E+03  0.00000000000E+00 0.  1.
</event>
<event>
 7    1  0.2480409E-009  0.7533742E+02  0.7561462E-02  0.1342829E+00
         -1   -1    0    0    0  501 -0.00000000000E+00  0.00000000000E+00  0.15625890575E+02  0.15625890575E+02  0.00000000000E+00 0.  1.
          1   -1    0    0  501    0  0.00000000000E+00 -0.00000000000E+00 -0.86141508181E+03  0.86141508181E+03  0.00000000000E+00 0. -1.
         25    2    1    2    0    0 -0.14864700939E+01  0.41919503114E+01 -0.34959424287E+03  0.37132703266E+03  0.12509136058E+03 0.  0.
          5    1    3    3  502    0 -0.23093137812E+02  0.17042741610E+02 -0.98536019585E+01  0.30631910276E+02  0.41800000000E+01 0. -1.
         -5    1    3    3    0  502  0.21606667718E+02 -0.12850791299E+02 -0.33974064091E+03  0.34069512238E+03  0.41800000000E+01 0. -1.
        -11    1    1    2    0    0 -0.34020626429E+02  0.31121905648E+02 -0.19446474237E+03  0.19985622847E+03  0.00000000000E+00 0.  1.
         11    1    1    2    0    0  0.35507096523E+02 -0.35313855959E+02 -0.30173020599E+03  0.30585771126E+03  0.00000000000E+00 0. -1.
</event>
<event>
 7    1  0.2480409E-009  0.1177709E+03  0.7561462E-02  0.1246820E+00
         -2   -1    0    0    0  501 -0.00000000000E+00  0.00000000000E+00  0.29631316311E+03  0.29631316311E+03  0.00000000000E+00 0.  1.
          2   -1    0    0  501    0  0.00000000000E+00 -0.00000000000E+00 -0.55106537352E+02  0.55106537352E+02  0.00000000000E+00 0. -1.
         25    2    1    2    0    0  0.18915765414E+02 -0.65993577865E+02  0.11369916744E+03  0.18245070831E+03  0.12509117389E+03 0.  0.
          5    1    3    3  502    0 -0.64997304040E+00 -0.10003099673E+03  0.63397135899E+02  0.11850439660E+03  0.41800000000E+01 0. -1.
         -5    1    3    3    0  502  0.19565738455E+02  0.34037418869E+02  0.50302031544E+02  0.63946311715E+02  0.41800000000E+01 0. -1.
        -11    1    1    2    0    0 -0.40485311441E+02  0.61931911783E+02  0.12703894691E+03  0.14701536032E+03  0.00000000000E+00 0.  1.
         11    1    1    2    0    0  0.21569546027E+02  0.40616660823E+01  0.46851140215E+00  0.21953631821E+02  0.00000000000E+00 0. -1.
</event>
<event>
 7    1  0.2480409E-009  0.2254645E+03  0.7561462E-02  0.1129873E+00
          1   -1    0    0  501    0  0.00000000000E+00  0.00000000000E+00  0.64508423020E+03  0.64508423020E+03  0.00000000000E+00 0. -1.
         -1   -1    0    0    0  501 -0.00000000000E+00 -0.00000000000E+00 -0.11787890950E+03  0.11787890950E+03  0.00000000000E+00 0.  1.
         25    2    1    2    0    0 -0.10199095075E+03 -0.18489767190E+03  0.46384398129E+03  0.52477404901E+03  0.12508900999E+03 0.  0.
          5    1    3    3  502    0  0.12596487223E+02 -0.89453926370E+02  0.23281632361E+03  0.24976306647E+03  0.41800000000E+01 0.  1.
         -5    1    3    3    0  502 -0.11458743797E+03 -0.95443745531E+02  0.23102765768E+03  0.27501098254E+03  0.41800000000E+01 0.  1.
        -11    1    1    2    0    0  0.84752332782E+02  0.15936763096E+03  0.86017142851E+02  0.19994986515E+03  0.00000000000E+00 0. -1.
         11    1    1    2    0    0  0.17238617965E+02  0.25530040942E+02 -0.22655803451E+02  0.38239225540E+02  0.00000000000E+00 0.  1.
</event>
<event>
 7    1  0.2480409E-009  0.1382782E+03  0.7561462E-02  0.1215665E+00
          1   -1    0    0  501    0  0.00000000000E+00  0.00000000000E+00  0.11360345741E+04  0.11360345741E+04  0.00000000000E+00 0. -1.
         -1   -1    0    0    0  501 -0.00000000000E+00 -0.00000000000E+00 -0.46630225478E+02  0.46630225478E+02  0.00000000000E+00 0.  1.
         25    2    1    2    0    0  0.66015947332E+02 -0.82591113903E+02  0.10074685470E+04  0.10206959054E+04  0.12509140931E+03 0.  0.
          5    1    3    3  502    0 -0.22448133862E+02  0.46698926525E+01  0.49724152070E+02  0.54915301241E+02  0.41800000000E+01 0.  1.
         -5    1    3    3    0  502  0.88464081193E+02 -0.87261006555E+02  0.95774439492E+03  0.96578060413E+03  0.41800000000E+01 0.  1.
        -11    1    1    2    0    0 -0.48329717062E+02  0.41474675927E+01  0.19453873261E+01  0.48546344565E+02  0.00000000000E+00 0.  1.
         11    1    1    2    0    0 -0.17686230270E+02  0.78443646310E+02  0.79990414342E+02  0.11342254967E+03  0.00000000000E+00 0. -1.
</event>
<event>
 7    1  0.2480409E-009  0.1192346E+03  0.7561462E-02  0.1244365E+00
         -1   -1    0    0    0  501 -0.00000000000E+00  0.00000000000E+00  0.25269573833E+02  0.25269573833E+02  0.00000000000E+00 0.  1.
          1   -1    0    0  501    0  0.00000000000E+00 -0.00000000000E+00 -0.69184803385E+03  0.69184803385E+03  0.00000000000E+00 0. -1.
         25    2    1    2    0    0 -0.56670101539E+02  0.49185516257E+01 -0.23526834775E+03  0.27246133685E+03  0.12509313356E+03 0.  0.
          5    1    3    3  502    0 -0.47679211785E+02  0.61924712355E+02 -0.15336436946E+03  0.17218036896E+03  0.41800000000E+01 0. -1.
         -5    1    3    3    0  502 -0.89908897535E+01 -0.57006160729E+02 -0.81903978292E+02  0.10028096788E+03  0.41800000000E+01 0. -1.
        -11    1    1    2    0    0  0.18663147117E+02  0.39617261147E+02 -0.11673956573E+03  0.12468346582E+03  0.00000000000E+00 0.  1.
         11    1    1    2    0    0  0.38006954422E+02 -0.44535812773E+02 -0.31457054654E+03  0.31997280502E+03  0.00000000000E+00 0. -1.
</event>
<event>
 7    1  0.2480409E-009  0.1069461E+03  0.7561462E-02  0.1266332E+00
         -1   -1    0    0    0  501 -0.00000000000E+00  0.00000000000E+00  0.47747057893E+03  0.47747057893E+03  0.00000000000E+00 0.  1.
          1   -1    0    0  501    0  0.00000000000E+00 -0.00000000000E+00 -0.40578932230E+02  0.40578932230E+02  0.00000000000E+00 0. -1.
         25    2    1    2    0    0 -0.59223773931E+02  0.62259359843E+02  0.25911701281E+03  0.30028741651E+03  0.12508886000E+03 0.  0.
          5    1    3    3  502    0 -0.61641339458E+02  0.97300081796E+01  0.23333726748E+03  0.24157417201E+03  0.41800000000E+01 0.  1.
         -5    1    3    3    0  502  0.24175655272E+01  0.52529351663E+02  0.25779745334E+02  0.58713244492E+02  0.41800000000E+01 0.  1.
        -11    1    1    2    0    0  0.50496174400E+02 -0.18191270126E+02  0.16116242661E+03  0.16986498664E+03  0.00000000000E+00 0.  1.
         11    1    1    2    0    0  0.87275995311E+01 -0.44068089717E+02  0.16612207276E+02  0.47897108007E+02  0.00000000000E+00 0. -1.
</event>
<event>
 7    1  0.2480409E-009  0.6964851E+02  0.7561462E-02  0.1361292E+00
         -1   -1    0    0    0  501 -0.00000000000E+00  0.00000000000E+00  0.27010680644E+02  0.27010680644E+02  0.00000000000E+00 0.  1.
          1   -1    0    0  501    0  0.00000000000E+00 -0.00000000000E+00 -0.51160419239E+03  0.51160419239E+03  0.00000000000E+00 0. -1.
         25    2    1    2    0    0 -0.38243742987E+02 -0.14955046990E+02 -0.33969957608E+03  0.36432288860E+03  0.12509647421E+03 0.  0.
          5    1    3    3  502    0 -0.11312310990E+01  0.17985996179E+02 -0.30017689990E+03  0.30074643701E+03  0.41800000000E+01 0. -1.
         -5    1    3    3    0  502 -0.37112511889E+02 -0.32941043170E+02 -0.39522676177E+02  0.63576451584E+02  0.41800000000E+01 0. -1.
        -11    1    1    2    0    0  0.98613285176E+01 -0.22171466249E+02 -0.24629681227E+01  0.24390283470E+02  0.00000000000E+00 0.  1.
         11    1    1    2    0    0  0.28382414470E+02  0.37126513240E+02 -0.14243096755E+03  0.14990170097E+03  0.00000000000E+00 0. -1.
</event>
<event>
 7    1  0.2480409E-009  0.1120577E+03  0.7561462E-02  0.1256806E+00
         -1   -1    0    0    0  501 -0.00000000000E+00  0.00000000000E+00  0.84183859096E+02  0.84183859096E+02  0.00000000000E+00 0.  1.
          1   -1    0    0  501    0  0.00000000000E+00 -0.00000000000E+00 -0.21173444864E+03  0.21173444864E+03  0.00000000000E+00 0. -1.
         25    2    1    2    0    0 -0.73400056902E+02  0.38508133473E+02 -0.88127240330E+02  0.17402606780E+03  0.12509283389E+03 0.  0.
          5    1    3    3  502    0  0.14346929683E+02 -0.11554044712E+02 -0.68463816487E+02  0.71021805866E+02  0.41800000000E+01 0.  1.
         -5    1    3    3    0  502 -0.87746986586E+02  0.50062178185E+02 -0.19663423843E+02  0.10300426193E+03  0.41800000000E+01 0.  1.
        -11    1    1    2    0    0  0.24372850202E+02  0.17257067073E+02 -0.37069614654E+02  0.47602505412E+02  0.00000000000E+00 0. -1.
         11    1    1    2    0    0  0.49027206700E+02 -0.55765200546E+02 -0.23537345592E+01  0.74289734520E+02  0.00000000000E+00 0.  1.
</event>
<event>
 7    1  0.2480409E-009  0.3015790E+03  0.7561462E-02  0.1084454E+00
          1   -1    0    0  501    0  0.00000000000E+00  0.00000000000E+00  0.63663556377E+03  0.63663556377E+03  0.00000000000E+00 0. -1.
         -1   -1    0    0    0  501 -0.00000000000E+00 -0.00000000000E+00 -0.15410436425E+03  0.15410436425E+03  0.00000000000E+00 0.  1.
         25    2    1    2    0    0 -0.15379026766E+03 -0.24873941546E+03  0.28032062447E+03  0.42396807178E+03  0.12508609095E+03 0.  0.
          5    1    3    3  502    0 -0.51501722658E+02 -0.18017400145E+03  0.12321551424E+03  0.22430923651E+03  0.41800000000E+01 0.  1.
         -5    1    3    3    0  502 -0.10228854500E+03 -0.68565414010E+02  0.15710511024E+03  0.19965883526E+03  0.41800000000E+01 0.  1.
        -11    1    1    2    0    0  0.70163926763E+02  0.11931935057E+03  0.42382773257E+02  0.14476319805E+03  0.00000000000E+00 0.  1.
         11    1    1    2    0    0  0.83626340899E+02  0.12942006488E+03  0.15982780180E+03  0.22200865820E+03  0.00000000000E+00 0. -1.
</event>
<event>
 7    1  0.2480409E-009  0.9851847E+02  0.7561462E-02  0.1283443E+00
         -1   -1    0    0    0  501 -0.00000000000E+00  0.00000000000E+00  0.54117953393E+02  0.54117953393E+02  0.00000000000E+00 0.  1.
          1   -1    0    0  501    0  0.00000000000E+00 -0.00000000000E+00 -0.39706566286E+03  0.39706566286E+03  0.00000000000E+00 0. -1.
         25    2    1    2    0    0  0.32747117353E+02 -0.61972425353E+02 -0.28900630210E+03  0.32262125743E+03  0.12508748096E+03 0.  0.
          5    1    3    3  502    0 -0.73029230832E+01 -0.23488321313E+02  0.31992038925E+01  0.25154348117E+02  0.41800000000E+01 0. -1.
         -5    1    3    3    0  502  0.40050040436E+02 -0.38484104041E+02 -0.29220550600E+03  0.29746690931E+03  0.41800000000E+01 0. -1.
        -11    1    1    2    0    0  0.12916725235E+02  0.68988275453E+02 -0.37097129534E+02  0.79387788484E+02  0.00000000000E+00 0.  1.
         11    1    1    2    0    0 -0.45663842588E+02 -0.70158500996E+01 -0.16844277835E+02  0.49174570342E+02  0.00000000000E+00 0. -1.
</event>
<event>
 7    1  0.2480409E-009  0.2529569E+03  0.7561462E-02  0.1111450E+00
         -2   -1    0    0    0  501 -0.00000000000E+00  0.00000000000E+00  0.20494195040E+03  0.20494195040E+03  0.00000000000E+00 0.  1.
          2   -1    0    0  501    0  0.00000000000E+00 -0.00000000000E+00 -0.34540805594E+03  0.34540805594E+03  0.00000000000E+00 0. -1.
         25    2    1    2    0    0 -0.22930495283E+03  0.44207268328E+02 -0.75040969974E+01  0.26502705626E+03  0.12509190665E+03 0.  0.
          5    1    3    3  502    0 -0.15640663705E+03  0.78282787123E+02 -0.37714226353E+02  0.17897224964E+03  0.41800000000E+01 0.  1.
         -5    1    3    3    0  502 -0.72898315789E+02 -0.34075518795E+02  0.30210129356E+02  0.86054806616E+02  0.41800000000E+01 0.  1.
        -11    1    1    2    0    0  0.16207725063E+03 -0.72362223665E+02 -0.77228270821E+02  0.19357048432E+03  0.00000000000E+00 0.  1.
         11    1    1    2    0    0  0.67227702208E+02  0.28154955337E+02 -0.55733737718E+02  0.91752465766E+02  0.00000000000E+00 0. -1.
</event>
<event>
 7    1  0.2480409E-009  0.8154142E+02  0.7561462E-02  0.1324733E+00
          1   -1    0    0  501    0  0.00000000000E+00  0.00000000000E+00  0.20513979751E+03  0.20513979751E+03  0.00000000000E+00 0. -1.
         -1   -1    0    0    0  501 -0.00000000000E+00 -0.00000000000E+00 -0.79205492396E+02  0.79205492396E+02  0.00000000000E+00 0.  1.
         25    2    1    2    0    0  0.66265446446E+02  0.31167458403E+01  0.84082610015E+02  0.16467349714E+03  0.12508657744E+03 0.  0.
          5    1    3    3  502    0  0.26063478934E+02  0.11213387908E+02  0.11152442258E+03  0.11515300359E+03  0.41800000000E+01 0.  1.
         -5    1    3    3    0  502  0.40201967512E+02 -0.80966420680E+01 -0.27441812566E+02  0.49520493551E+02  0.41800000000E+01 0.  1.
        -11    1    1    2    0    0 -0.67577599807E+02  0.19650442006E+02 -0.18245499812E+01  0.70400290123E+02  0.00000000000E+00 0.  1.
         11    1    1    2    0    0  0.13121533618E+01 -0.22767187846E+02  0.43676245085E+02  0.49271502652E+02  0.00000000000E+00 0. -1.
</event>
<event>
 7    1  0.2480409E-009  0.9194265E+02  0.7561462E-02  0.1298214E+00
          2   -1    0    0  501    0  0.00000000000E+00  0.00000000000E+00  0.67419854045E+02  0.67419854045E+02  0.00000000000E+00 0. -1.
         -2   -1    0    0    0  501 -0.00000000000E+00 -0.00000000000E+00 -0.23620165354E+03  0.23620165354E+03  0.00000000000E+00 0.  1.
         25    2    1    2    0    0  0.27686995397E+02  0.49597271858E+01 -0.16305559655E+03  0.20742326380E+03  0.12508442825E+03 0.  0.
          5    1    3    3  502    0  0.43681942095E+02  0.33540869216E+02 -0.16534495797E+03  0.17432592893E+03  0.41800000000E+01 0. -1.
         -5    1    3    3    0  502 -0.15994946699E+02 -0.28581142030E+02  0.22893614158E+01  0.33097334868E+02  0.41800000000E+01 0. -1.
        -11    1    1    2    0    0  0.87765574083E+01 -0.42443601952E+02 -0.69224397479E+01  0.43890858714E+02  0.00000000000E+00 0.  1.
         11    1    1    2    0    0 -0.36463552805E+02  0.37483874766E+02  0.11962368027E+01  0.52307385072E+02  0.00000000000E+00 0. -1.
</event>
<event>
 7    1  0.2480409E-009  0.1316681E+03  0.7561462E-02  0.1225001E+00
         -2   -1    0    0    0  501 -0.00000000000E+00  0.00000000000E+00  0.42297094017E+03  0.42297094017E+03  0.00000000000E+00 0.  1.
          2   -1    0    0  501    0  0.00000000000E+00 -0.00000000000E+00 -0.41689989764E+02  0.41689989764E+02  0.00000000000E+00 0. -1.
         25    2    1    2    0    0 -0.56226082912E+02  0.51680632010E+02  0.20760567474E+03  0.25412281436E+03  0.12508408559E+03 0.  0.
          5    1    3    3  502    0 -0.15595867459E+01 -0.39677924390E+02  0.52911847045E+02  0.66286544279E+02  0.41800000000E+01 0. -1.
         -5    1    3    3    0  502 -0.54666496166E+02  0.91358556400E+02  0.15469382769E+03  0.18783627008E+03  0.41800000000E+01 0. -1.
        -11    1    1    2    0    0 -0.21651909021E+02 -0.28134258211E+02  0.72353285969E+02  0.80593669974E+02  0.00000000000E+00 0. -1.
         11    1    1    2    0    0  0.77877991932E+02 -0.23546373798E+02  0.10132198970E+03  0.12994444560E+03  0.00000000000E+00 0.  1.
</event>
<event>
 7    1  0.2480409E-009  0.1416886E+03  0.7561462E-02  0.1211075E+00
         -2   -1    0    0    0  501 -0.00000000000E+00  0.00000000000E+00  0.60814415752E+03  0.60814415752E+03  0.00000000000E+00 0.  1.
          2   -1    0    0  501    0  0.00000000000E+00 -0.00000000000E+00 -0.37615588591E+02  0.37615588591E+02  0.00000000000E+00 0. -1.
         25    2    1    2    0    0  0.41212856564E+01 -0.98185319079E+02  0.22887647014E+03  0.27872149067E+03  0.12507553277E+03 0.  0.
          5    1    3    3  502    0  0.47953207347E+02 -0.95485103691E+02  0.11721694699E+03  0.15866379607E+03  0.41800000000E+01 0.  1.
         -5    1    3    3    0  502 -0.43831921690E+02 -0.27002153877E+01  0.11165952315E+03  0.12005769460E+03  0.41800000000E+01 0.  1.
        -11    1    1    2    0    0  0.26577738813E+02 -0.28552757451E+01  0.95949842286E+02  0.99603719985E+02  0.00000000000E+00 0. -1.
         11    1    1    2    0    0 -0.30699024469E+02  0.10104059482E+03  0.24570225650E+03  0.26743453545E+03  0.00000000000E+00 0.  1.
</event>
<event>
 7    1  0.2480409E-009  0.1395723E+03  0.7561462E-02  0.1213906E+00
          1   -1    0    0  501    0  0.00000000000E+00  0.00000000000E+00  0.17093244405E+02  0.17093244405E+02  0.00000000000E+00 0.  1.
         -1   -1    0    0    0  501 -0.00000000000E+00 -0.00000000000E+00 -0.14715760503E+04  0.14715760503E+04  0.00000000000E+00 0. -1.
         25    2    1    2    0    0  0.40603550085E+01  0.11146350063E+03 -0.90350387796E+03  0.91891618149E+03  0.12508833939E+03 0.  0.
          5    1    3    3  502    0  0.20622040548E+02  0.11477846607E+03 -0.88792901123E+03  0.89556393754E+03  0.41800000000E+01 0.  1.
         -5    1    3    3    0  502 -0.16561685539E+02 -0.33149654457E+01 -0.15574866730E+02  0.23352243949E+02  0.41800000000E+01 0.  1.
        -11    1    1    2    0    0 -0.39455573878E+02 -0.10055006421E+03 -0.41117107326E+03  0.42512199332E+03  0.00000000000E+00 0. -1.
         11    1    1    2    0    0  0.35395218870E+02 -0.10913436418E+02 -0.13980785469E+03  0.14463111991E+03  0.00000000000E+00 0.  1.
</event>
<event>
 7    1  0.2480409E-009  0.1613941E+03  0.7561462E-02  0.1187132E+00
         -2   -1    0    0    0  501 -0.00000000000E+00  0.00000000000E+00  0.25048281696E+02  0.25048281696E+02  0.00000000000E+00 0. -1.
          2   -1    0    0  501    0  0.00000000000E+00 -0.00000000000E+00 -0.11897181200E+04  0.11897181200E+04  0.00000000000E+00 0.  1.
         25    2    1    2    0    0  0.13108460077E+03 -0.23083476900E+02 -0.67834324314E+03  0.70250805585E+03  0.12510792762E+03 0.  0.
          5    1    3    3  502    0  0.13259767896E+03  0.11362434713E+02 -0.62375158328E+03  0.63780464049E+03  0.41800000000E+01 0.  1.
         -5    1    3    3    0  502 -0.15130781937E+01 -0.34445911613E+02 -0.54591659864E+02  0.64703415359E+02  0.41800000000E+01 0.  1.
        -11    1    1    2    0    0 -0.10431865181E+03  0.51098572943E+02 -0.41657679632E+03  0.43246927348E+03  0.00000000000E+00 0.  1.
         11    1    1    2    0    0 -0.26765948953E+02 -0.28015096043E+02 -0.69749798795E+02  0.79789072320E+02  0.00000000000E+00 0. -1.
</event>
<event>
 7    1  0.2480409E-009  0.1235521E+03  0.7561462E-02  0.1237350E+00
         -2   -1    0    0    0  501 -0.00000000000E+00  0.00000000000E+00  0.51840415319E+02  0.51840415319E+02  0.00000000000E+00 0.  1.
          2   -1    0    0  501    0  0.00000000000E+00 -0.00000000000E+00 -0.54226982313E+03  0.54226982313E+03  0.00000000000E+00 0. -1.
         25    2    1    2    0    0  0.75659005182E+02  0.13942416314E+02 -0.43957316289E+03  0.46345523087E+03  0.12509000538E+03 0.  0.
          5    1    3    3  502    0  0.96921023731E+02 -0.67334242519E+01 -0.40996381159E+03  0.42133932057E+03  0.41800000000E+01 0. -1.
         -5    1    3    3    0  502 -0.21262018549E+02  0.20675840566E+02 -0.29609351304E+02  0.42115910302E+02  0.41800000000E+01 0. -1.
        -11    1    1    2    0    0 -0.89753658350E+02 -0.33500219759E+02 -0.45012362399E+02  0.10584940567E+03  0.00000000000E+00 0.  1.
         11    1    1    2    0    0  0.14094653168E+02  0.19557803446E+02 -0.58438825210E+01  0.24805601917E+02  0.00000000000E+00 0. -1.
</event>
<event>
 7    1  0.2480409E-009  0.1349671E+03  0.7561462E-02  0.1220266E+00
          1   -1    0    0  501    0  0.00000000000E+00  0.00000000000E+00  0.50756709426E+03  0.50756709426E+03  0.00000000000E+00 0. -1.
         -1   -1    0    0    0  501 -0.00000000000E+00 -0.00000000000E+00 -0.46845902952E+02  0.46845902952E+02  0.00000000000E+00 0.  1.
         25    2    1    2    0    0 -0.81586461528E+02 -0.50550628121E+02  0.34504343585E+03  0.37935791077E+03  0.12508291304E+03 0.  0.
          5    1    3    3  502    0 -0.67072345458E+02  0.18626952981E+02  0.25743334547E+03  0.26671157205E+03  0.41800000000E+01 0.  1.
         -5    1    3    3    0  502 -0.14514116070E+02 -0.69177581102E+02  0.87610090374E+02  0.11264633872E+03  0.41800000000E+01 0.  1.
        -11    1    1    2    0    0  0.43121612482E+02  0.73050618736E+02  0.89768865243E+02  0.12350836218E+03  0.00000000000E+00 0. -1.
         11    1    1    2    0    0  0.38464849046E+02 -0.22499990615E+02  0.25908890215E+02  0.51546724261E+02  0.00000000000E+00 0.  1.
</event>
<event>
 7    1  0.2480409E-009  0.9645145E+02  0.7561462E-02  0.1287940E+00
          2   -1    0    0  501    0  0.00000000000E+00  0.00000000000E+00  0.17900662613E+03  0.17900662613E+03  0.00000000000E+00 0. -1.
         -2   -1    0    0    0  501 -0.00000000000E+00 -0.00000000000E+00 -0.11481773804E+03  0.11481773804E+03  0.00000000000E+00 0.  1.
         25    2    1    2    0    0  0.42242940074E+02 -0.42992283423E+02  0.10768028127E+03  0.17571106070E+03  0.12508609617E+03 0.  0.
          5    1    3    3  502    0  0.68523252731E+02 -0.34229456616E+02  0.14060163523E+02  0.77988797037E+02  0.41800000000E+01 0. -1.
         -5    1    3    3    0  502 -0.26280312657E+02 -0.87628268066E+01  0.93620117751E+02  0.97722263660E+02  0.41800000000E+01 0. -1.
        -11    1    1    2    0    0 -0.59206043086E+02  0.38516641558E+02  0.62693073520E+00  0.70634837418E+02  0.00000000000E+00 0. -1.
         11    1    1    2    0    0  0.16963103013E+02  0.44756418644E+01 -0.44118323917E+02  0.47478466058E+02  0.00000000000E+00 0.  1.
</event>
<event>
 7    1  0.2480409E-009  0.1215540E+03  0.7561462E-02  0.1240555E+00
         -2   -1    0    0    0  501 -0.00000000000E+00  0.00000000000E+00  0.21418715113E+02  0.21418715113E+02  0.00000000000E+00 0.  1.
          2   -1    0    0  501    0  0.00000000000E+00 -0.00000000000E+00 -0.12325597955E+04  0.12325597955E+04  0.00000000000E+00 0. -1.
         25    2    1    2    0    0 -0.10787569954E+03 -0.36482476125E+01 -0.85120912778E+03  0.86709671266E+03  0.12509697685E+03 0.  0.
          5    1    3    3  502    0 -0.40798616264E+02 -0.26467066011E+02 -0.88298353327E+02  0.10089154708E+03  0.41800000000E+01 0. -1.
         -5    1    3    3    0  502 -0.67077083280E+02  0.22818818398E+02 -0.76291077446E+03  0.76620516558E+03  0.41800000000E+01 0. -1.
        -11    1    1    2    0    0  0.34509754098E+02 -0.26994628437E+02 -0.48056869574E+02  0.65031498565E+02  0.00000000000E+00 0.  1.
         11    1    1    2    0    0  0.73365945445E+02  0.30642876049E+02 -0.31187508307E+03  0.32185029943E+03  0.00000000000E+00 0. -1.
</event>
<event>
 7    1  0.2480409E-009  0.1225542E+03  0.7561462E-02  0.1238942E+00
         -3   -1    0    0    0  501 -0.00000000000E+00  0.00000000000E+00  0.11692558284E+03  0.11692558284E+03  0.00000000000E+00 0.  1.
          3   -1    0    0  501    0  0.00000000000E+00 -0.00000000000E+00 -0.16469481609E+03  0.16469481609E+03  0.00000000000E+00 0. -1.
         25    2    1    2    0    0 -0.18863134816E+02  0.82799001452E+02 -0.11583707081E+02  0.15163680038E+03  0.12509214389E+03 0.  0.
          5    1    3    3  502    0 -0.13566092297E+02  0.10062722210E+03 -0.46576469966E+02  0.11178871429E+03  0.41800000000E+01 0. -1.
         -5    1    3    3    0  502 -0.52970425191E+01 -0.17828220649E+02  0.34992762885E+02  0.39848086093E+02  0.41800000000E+01 0. -1.
        -11    1    1    2    0    0 -0.21561535453E+02 -0.81148443299E+02 -0.19366898720E+02  0.86168709094E+02  0.00000000000E+00 0.  1.
         11    1    1    2    0    0  0.40424670269E+02 -0.16505581533E+01 -0.16818627448E+02  0.43814889454E+02  0.00000000000E+00 0. -1.
</event>
<event>
 7    1  0.2480409E-009  0.1128433E+03  0.7561462E-02  0.1255393E+00
          2   -1    0    0  501    0  0.00000000000E+00  0.00000000000E+00  0.27909368343E+03  0.27909368343E+03  0.00000000000E+00 0. -1.
         -2   -1    0    0    0  501 -0.00000000000E+00 -0.00000000000E+00 -0.57251017782E+02  0.57251017782E+02  0.00000000000E+00 0.  1.
         25    2    1    2    0    0  0.39799780193E+02 -0.46311896788E+02  0.14077941524E+03  0.19798012068E+03  0.12509384534E+03 0.  0.
          5    1    3    3  502    0  0.29919865680E+02  0.29718423831E+02  0.59133197683E+01  0.42788115499E+02  0.41800000000E+01 0.  1.
         -5    1    3    3    0  502  0.98799145125E+01 -0.76030320619E+02  0.13486609547E+03  0.15519200518E+03  0.41800000000E+01 0.  1.
        -11    1    1    2    0    0 -0.24890530319E+02 -0.24044141654E+02  0.48089430933E+02  0.59247384878E+02  0.00000000000E+00 0. -1.
         11    1    1    2    0    0 -0.14909249874E+02  0.70356038442E+02  0.32973819470E+02  0.79117195650E+02  0.00000000000E+00 0.  1.
</event>
<event>
 7    1  0.2480409E-009  0.2214726E+03  0.7561462E-02  0.1132790E+00
          1   -1    0    0  501    0  0.00000000000E+00  0.00000000000E+00  0.28832435802E+03  0.28832435802E+03  0.00000000000E+00 0. -1.
         -1   -1    0    0    0  501 -0.00000000000E+00 -0.00000000000E+00 -0.20155907757E+03  0.20155907757E+03  0.00000000000E+00 0.  1.
         25    2    1    2    0    0 -0.16613489159E+03  0.10497925632E+03  0.13353823819E+03  0.26851847352E+03  0.12509301780E+03 0.  0.
          5    1    3    3  502    0  0.18516832677E+02  0.58496545103E+01  0.26596385921E+02  0.33195356518E+02  0.41800000000E+01 0.  1.
         -5    1    3    3    0  502 -0.18465172427E+03  0.99129601807E+02  0.10694185227E+03  0.23532311701E+03  0.41800000000E+01 0.  1.
        -11    1    1    2    0    0  0.31959369799E+02 -0.66654192231E+02 -0.33614738061E+02  0.81204268822E+02  0.00000000000E+00 0. -1.
         11    1    1    2    0    0  0.13417552179E+03 -0.38325064086E+02 -0.13158219677E+02  0.14016069325E+03  0.00000000000E+00 0.  1.
</event>
<event>
 7    1  0.2480409E-009  0.2234098E+03  0.7561462E-02  0.1131366E+00
          1   -1    0    0  501    0  0.00000000000E+00  0.00000000000E+00  0.29722890961E+03  0.29722890961E+03  0.00000000000E+00 0. -1.
         -1   -1    0    0    0  501 -0.00000000000E+00 -0.00000000000E+00 -0.20699261330E+03  0.20699261330E+03  0.00000000000E+00 0.  1.
         25    2    1    2    0    0  0.21942356016E+03 -0.19178189286E+02  0.13825006640E+02  0.25367751712E+03  0.12508657077E+03 0.  0.
          5    1    3    3  502    0  0.21382342653E+03 -0.88015371766E+01 -0.22532313287E+02  0.21522802404E+03  0.41800000000E+01 0.  1.
         -5    1    3    3    0  502  0.56001336226E+01 -0.10376652110E+02  0.36357319926E+02  0.38449493076E+02  0.41800000000E+01 0.  1.
        -11    1    1    2    0    0 -0.15806545790E+03  0.13224950939E+02  0.96549694013E+02  0.18569176536E+03  0.00000000000E+00 0. -1.
         11    1    1    2    0    0 -0.61358102254E+02  0.59532383476E+01 -0.20138404339E+02  0.64852240427E+02  0.00000000000E+00 0.  1.
</event>
<event>
 7    1  0.2480409E-009  0.1225230E+03  0.7561462E-02  0.1238992E+00
         -3   -1    0    0    0  501 -0.00000000000E+00  0.00000000000E+00  0.10463026588E+04  0.10463026588E+04  0.00000000000E+00 0.  1.
          3   -1    0    0  501    0  0.00000000000E+00 -0.00000000000E+00 -0.16419580495E+02  0.16419580495E+02  0.00000000000E+00 0. -1.
         25    2    1    2    0    0 -0.39647216189E+02 -0.54231631625E+02  0.69961640486E+03  0.71387933382E+03  0.12509043807E+03 0.  0.
          5    1    3    3  502    0  0.43857031601E+02 -0.17909122160E+02  0.31738644552E+03  0.32092959364E+03  0.41800000000E+01 0. -1.
         -5    1    3    3    0  502 -0.83504247790E+02 -0.36322509465E+02  0.38222995934E+03  0.39294974018E+03  0.41800000000E+01 0. -1.
        -11    1    1    2    0    0  0.52598132956E+02  0.68953009332E+02  0.30360050700E+03  0.31574411940E+03  0.00000000000E+00 0.  1.
         11    1    1    2    0    0 -0.12950916767E+02 -0.14721377707E+02  0.26666166497E+02  0.33098786116E+02  0.00000000000E+00 0. -1.
</event>
<event>
 7    1  0.2480409E-009  0.9244182E+02  0.7561462E-02  0.1297044E+00
         -2   -1    0    0    0  501 -0.00000000000E+00  0.00000000000E+00  0.36138760888E+02  0.36138760888E+02  0.00000000000E+00 0.  1.
          2   -1    0    0  501    0  0.00000000000E+00 -0.00000000000E+00 -0.35056879007E+03  0.35056879007E+03  0.00000000000E+00 0. -1.
         25    2    1    2    0    0 -0.69949481381E+01  0.30010862441E+02 -0.17156295702E+03  0.21454818050E+03  0.12508993712E+03 0.  0.
          5    1    3    3  502    0 -0.25969598414E+02  0.70767093393E+02 -0.14126549402E+03  0.16017432301E+03  0.41800000000E+01 0.  1.
         -5    1    3    3    0  502  0.18974650276E+02 -0.40756230952E+02 -0.30297462999E+02  0.54373857493E+02  0.41800000000E+01 0.  1.
        -11    1    1    2    0    0 -0.24503496776E+02 -0.18487257008E+02 -0.13399462216E+03  0.13746548219E+03  0.00000000000E+00 0. -1.
         11    1    1    2    0    0  0.31498444914E+02 -0.11523605434E+02 -0.88724500013E+01  0.34693888269E+02  0.00000000000E+00 0.  1.
</event>
<event>
 7    1  0.2480409E-009  0.1759535E+03  0.7561462E-02  0.1171778E+00
          2   -1    0    0  501    0  0.00000000000E+00  0.00000000000E+00  0.89216141018E+02  0.89216141018E+02  0.00000000000E+00 0. -1.
         -2   -1    0    0    0  501 -0.00000000000E+00 -0.00000000000E+00 -0.50327520514E+03  0.50327520514E+03  0.00000000000E+00 0.  1.
         25    2    1    2    0    0  0.55954958850E+02 -0.12772484442E+03 -0.37810870448E+03  0.42197085602E+03  0.12509443482E+03 0.  0.
          5    1    3    3  502    0 -0.34510613217E+02 -0.72967608780E+02 -0.18167499494E+03  0.19884297962E+03  0.41800000000E+01 0. -1.
         -5    1    3    3    0  502  0.90465572066E+02 -0.54757235636E+02 -0.19643370954E+03  0.22312787640E+03  0.41800000000E+01 0. -1.
        -11    1    1    2    0    0 -0.26384676619E+02 -0.70187321674E+01  0.22043952858E+01  0.27391113890E+02  0.00000000000E+00 0. -1.
         11    1    1    2    0    0 -0.29570282230E+02  0.13474357658E+03 -0.38154754922E+02  0.14312937625E+03  0.00000000000E+00 0.  1.
</event>
<event>
 7    1  0.2480409E-009  0.1159265E+03  0.7561462E-02  0.1249972E+00
         -1   -1    0    0    0  501 -0.00000000000E+00  0.00000000000E+00  0.19909780036E+02  0.19909780036E+02  0.00000000000E+00 0.  1.
          1   -1    0    0  501    0  0.00000000000E+00 -0.00000000000E+00 -0.82903695814E+03  0.82903695814E+03  0.00000000000E+00 0. -1.
         25    2    1    2    0    0  0.45708500697E+01 -0.62754537806E+02 -0.57676446976E+03  0.59351824253E+03  0.12509047110E+03 0.  0.
          5    1    3    3  502    0  0.49983675248E+02 -0.14583115556E+01 -0.11492699530E+03  0.12540407135E+03  0.41800000000E+01 0.  1.
         -5    1    3    3    0  502 -0.45412825178E+02 -0.61296226250E+02 -0.46183747446E+03  0.46811417118E+03  0.41800000000E+01 0.  1.
        -11    1    1    2    0    0  0.11894496478E+01 -0.21143844185E+02 -0.60381055048E+02  0.63987098278E+02  0.00000000000E+00 0. -1.
         11    1    1    2    0    0 -0.57602997175E+01  0.83898381991E+02 -0.17198165330E+03  0.19144139736E+03  0.00000000000E+00 0.  1.
</event>
<event>
 7    1  0.2480409E-009  0.1088796E+03  0.7561462E-02  0.1262659E+00
         -1   -1    0    0    0  501 -0.00000000000E+00  0.00000000000E+00  0.12292240357E+03  0.12292240357E+03  0.00000000000E+00 0.  1.
          1   -1    0    0  501    0  0.00000000000E+00 -0.00000000000E+00 -0.10431982434E+03  0.10431982434E+03  0.00000000000E+00 0. -1.
         25    2    1    2    0    0 -0.10456187633E+02 -0.13096607685E+02 -0.16059594453E+02  0.12722423343E+03  0.12508893638E+03 0.  0.
          5    1    3    3  502    0  0.28068605371E+02  0.46786759509E+02 -0.38159762941E+01  0.54853272900E+02  0.41800000000E+01 0. -1.
         -5    1    3    3    0  502 -0.38524793004E+02 -0.59883367193E+02 -0.12243618159E+02  0.72370960530E+02  0.41800000000E+01 0. -1.
        -11    1    1    2    0    0 -0.35751600364E+02  0.25444854719E+02  0.27151714908E+02  0.51602647051E+02  0.00000000000E+00 0.  1.
         11    1    1    2    0    0  0.46207787997E+02 -0.12348247034E+02  0.75104587736E+01  0.48415347436E+02  0.00000000000E+00 0. -1.
</event>
<event>
 7    1  0.2480409E-009  0.9805337E+02  0.7561462E-02  0.1284444E+00
         -2   -1    0    0    0  501 -0.00000000000E+00  0.00000000000E+00  0.44191466558E+02  0.44191466558E+02  0.00000000000E+00 0. -1.
          2   -1    0    0  501    0  0.00000000000E+00 -0.00000000000E+00 -0.33958498968E+03  0.33958498968E+03  0.00000000000E+00 0.  1.
         25    2    1    2    0    0  0.52793951468E+02 -0.24063891527E+02 -0.17929802416E+03  0.22617969523E+03  0.12507278233E+03 0.  0.
          5    1    3    3  502    0 -0.15387875390E+02  0.30775855986E+01  0.12684754145E+02  0.20606640431E+02  0.41800000000E+01 0.  1.
         -5    1    3    3    0  502  0.68181826858E+02 -0.27141477125E+02 -0.19198277831E+03  0.20557305480E+03  0.41800000000E+01 0.  1.
        -11    1    1    2    0    0  0.19486716534E+02 -0.14638537572E+02 -0.22529846986E+02  0.33190554511E+02  0.00000000000E+00 0.  1.
         11    1    1    2    0    0 -0.72280668002E+02  0.38702429098E+02 -0.93565651976E+02  0.12440620650E+03  0.00000000000E+00 0. -1.
</event>
<event>
 7    1  0.2480409E-009  0.6232781E+02  0.7561462E-02  0.1388315E+00
         -1   -1    0    0    0  501 -0.00000000000E+00  0.00000000000E+00  0.31182005243E+02  0.31182005243E+02  0.00000000000E+00 0.  1.
          1   -1    0    0  501    0  0.00000000000E+00 -0.00000000000E+00 -0.41418133032E+03  0.41418133032E+03  0.00000000000E+00 0. -1.
         25    2    1    2    0    0  0.32488560272E+02 -0.10770806444E+02 -0.28095051932E+03  0.30943705337E+03  0.12508628571E+03 0.  0.
          5    1    3    3  502    0  0.10178694171E+02  0.15752325425E+02 -0.27294602680E+03  0.27362154067E+03  0.41800000000E+01 0. -1.
         -5    1    3    3    0  502  0.22309866100E+02 -0.26523131869E+02 -0.80044925180E+01  0.35815512701E+02  0.41800000000E+01 0. -1.
        -11    1    1    2    0    0  0.17217083352E+02  0.11700832729E+02  0.16952358634E+01  0.20885671412E+02  0.00000000000E+00 0.  1.
         11    1    1    2    0    0 -0.49705643624E+02 -0.93002628481E+00 -0.10374404162E+03  0.11504061078E+03  0.00000000000E+00 0. -1.
</event>
<event>
 7    1  0.2480409E-009  0.1839078E+03  0.7561462E-02  0.1164074E+00
          1   -1    0    0  501    0  0.00000000000E+00  0.00000000000E+00  0.17149246979E+03  0.17149246979E+03  0.00000000000E+00 0. -1.
         -1   -1    0    0    0  501 -0.00000000000E+00 -0.00000000000E+00 -0.23639399433E+03  0.23639399433E+03  0.00000000000E+00 0.  1.
         25    2    1    2    0    0 -0.10332925788E+03 -0.13392365025E+03 -0.42060803858E+02  0.21454524836E+03  0.12509225692E+03 0.  0.
          5    1    3    3  502    0  0.47425174010E+01 -0.64568194713E+01  0.30867464226E+02  0.32162940424E+02  0.41800000000E+01 0. -1.
         -5    1    3    3    0  502 -0.10807177528E+03 -0.12746683078E+03 -0.72928268084E+02  0.18238230793E+03  0.41800000000E+01 0. -1.
        -11    1    1    2    0    0 -0.16709132450E+02  0.12475494861E+02 -0.62934553457E+01  0.21781658786E+02  0.00000000000E+00 0. -1.
         11    1    1    2    0    0  0.12003839033E+03  0.12144815539E+03 -0.16547265334E+02  0.17155955698E+03  0.00000000000E+00 0.  1.
</event>
<event>
 7    1  0.2480409E-009  0.1436769E+03  0.7561462E-02  0.1208465E+00
          1   -1    0    0  501    0  0.00000000000E+00  0.00000000000E+00  0.25791192546E+03  0.25791192546E+03  0.00000000000E+00 0. -1.
         -1   -1    0    0    0  501 -0.00000000000E+00 -0.00000000000E+00 -0.11674911857E+03  0.11674911857E+03  0.00000000000E+00 0.  1.
         25    2    1    2    0    0  0.11618805304E+03  0.69411902068E+02  0.80384894275E+02  0.20106499117E+03  0.12509086148E+03 0.  0.
          5    1    3    3  502    0  0.86650192674E+02  0.36645891145E+02 -0.15495750849E+02  0.95439865479E+02  0.41800000000E+01 0.  1.
         -5    1    3    3    0  502  0.29537860369E+02  0.32766010923E+02  0.95880645124E+02  0.10562512569E+03  0.41800000000E+01 0.  1.
        -11    1    1    2    0    0  0.10359718888E+01 -0.22630537128E+02  0.39593686795E+02  0.45616603145E+02  0.00000000000E+00 0. -1.
         11    1    1    2    0    0 -0.11722402493E+03 -0.46781364941E+02  0.21184225822E+02  0.12797944972E+03  0.00000000000E+00 0.  1.
</event>
<event>
 7    1  0.2759077E-009  0.7633820E+02  0.7561462E-02  0.1339776E+00
          2   -1    0    0  501    0  0.00000000000E+00  0.00000000000E+00  0.26968539503E+03  0.26968539503E+03  0.00000000000E+00 0. -1.
         -2   -1    0    0    0  501 -0.00000000000E+00 -0.00000000000E+00 -0.51466219953E+02  0.51466219953E+02  0.00000000000E+00 0.  1.
         25    2    1    2    0    0  0.24393932675E+02  0.37944928844E+02  0.12204962496E+03  0.18049487154E+03  0.12508959237E+03 0.  0.
          5    1    3    3  502    0  0.11896843426E+02 -0.88976289757E+01 -0.22888966161E+02  0.27605793899E+02  0.41800000000E+01 0.  1.
         -5    1    3    3    0  502  0.12497089249E+02  0.46842557820E+02  0.14493859113E+03  0.15288907764E+03  0.41800000000E+01 0.  1.
        -11    1    1    2    0    0 -0.52076797334E+02 -0.21180303074E+02  0.92285361520E+02  0.10806102910E+03  0.00000000000E+00 0.  1.
         11    1    1    2    0    0  0.27682864659E+02 -0.16764625771E+02  0.38841885935E+01  0.32595714350E+02  0.00000000000E+00 0. -1.
</event>
<event>
 7    1  0.2480409E-009  0.1133985E+03  0.7561462E-02  0.1254403E+00
          1   -1    0    0  501    0  0.00000000000E+00  0.00000000000E+00  0.50157313595E+03  0.50157313595E+03  0.00000000000E+00 0. -1.
         -1   -1    0    0    0  501 -0.00000000000E+00 -0.00000000000E+00 -0.36391552438E+02  0.36391552438E+02  0.00000000000E+00 0.  1.
         25    2    1    2    0    0 -0.28802476264E+02  0.67118451549E+02  0.18430943436E+03  0.23441459565E+03  0.12508303593E+03 0.  0.
          5    1    3    3  502    0  0.18747285678E+02 -0.24596126002E+02  0.87015154721E+02  0.92442088281E+02  0.41800000000E+01 0.  1.
         -5    1    3    3    0  502 -0.47549761942E+02  0.91714577551E+02  0.97294279643E+02  0.14197250736E+03  0.41800000000E+01 0.  1.
        -11    1    1    2    0    0 -0.15475110732E+02 -0.32487594756E+02  0.21015397774E+03  0.21321261038E+03  0.00000000000E+00 0. -1.
         11    1    1    2    0    0  0.44277586996E+02 -0.34630856793E+02  0.70718171412E+02  0.90337482366E+02  0.00000000000E+00 0.  1.
</event>
<event>
 7    1  0.2480409E-009  0.1821523E+03  0.7561462E-02  0.1165736E+00
          1   -1    0    0  501    0  0.00000000000E+00  0.00000000000E+00  0.23852657428E+03  0.23852657428E+03  0.00000000000E+00 0. -1.
         -1   -1    0    0    0  501 -0.00000000000E+00 -0.00000000000E+00 -0.17120494952E+03  0.17120494952E+03  0.00000000000E+00 0.  1.
         25    2    1    2    0    0 -0.34921697887E+02 -0.16389450005E+03  0.86225384307E+01  0.20929298802E+03  0.12509306350E+03 0.  0.
          5    1    3    3  502    0  0.29287886472E+02 -0.16995183905E+02 -0.28756325226E+02  0.44620793476E+02  0.41800000000E+01 0.  1.
         -5    1    3    3    0  502 -0.64209584359E+02 -0.14689931614E+03  0.37378863656E+02  0.16467219454E+03  0.41800000000E+01 0.  1.
        -11    1    1    2    0    0  0.29858747773E+02  0.74309221367E+02 -0.18361080613E+02  0.82161636303E+02  0.00000000000E+00 0.  1.
         11    1    1    2    0    0  0.50629501142E+01  0.89585278682E+02  0.77060166951E+02  0.11827689948E+03  0.00000000000E+00 0. -1.
</event>
<event>
 7    1  0.2480409E-009  0.1107393E+03  0.7561462E-02  0.1259207E+00
          1   -1    0    0  501    0  0.00000000000E+00  0.00000000000E+00  0.98456736720E+02  0.98456736720E+02  0.00000000000E+00 0. -1.
         -1   -1    0    0    0  501 -0.00000000000E+00 -0.00000000000E+00 -0.36692383395E+03  0.36692383395E+03  0.00000000000E+00 0.  1.
         25    2    1    2    0    0  0.24012403233E+02 -0.72430736302E+02  0.27211043205E+02  0.14903116581E+03  0.12508813069E+03 0.  0.
          5    1    3    3  502    0 -0.19704089393E+02 -0.81416528999E+02  0.51125455410E+02  0.98225184774E+02  0.41800000000E+01 0. -1.
         -5    1    3    3    0  502  0.43716492626E+02  0.89857926971E+01 -0.23914412204E+02  0.50805981036E+02  0.41800000000E+01 0. -1.
        -11    1    1    2    0    0 -0.14800585873E+02  0.79690348976E+02 -0.29341523933E+03  0.30440451990E+03  0.00000000000E+00 0.  1.
         11    1    1    2    0    0 -0.92118173595E+01 -0.72596126740E+01 -0.22629010977E+01  0.11944884956E+02  0.00000000000E+00 0. -1.
</event>
<event>
 7    1  0.2480409E-009  0.1203553E+03  0.7561462E-02  0.1242512E+00
          1   -1    0    0  501    0  0.00000000000E+00  0.00000000000E+00  0.55466560975E+03  0.55466560975E+03  0.00000000000E+00 0. -1.
         -1   -1    0    0    0  501 -0.00000000000E+00 -0.00000000000E+00 -0.36967693084E+02  0.36967693084E+02  0.00000000000E+00 0.  1.
         25    2    1    2    0    0  0.86364435706E+02  0.41210817577E+02  0.31425968768E+03  0.35151816400E+03  0.12509484834E+03 0.  0.
          5    1    3    3  502    0  0.10277926041E+03  0.13114342145E+02  0.29671664840E+03  0.31431481699E+03  0.41800000000E+01 0. -1.
         -5    1    3    3    0  502 -0.16414824705E+02  0.28096475432E+02  0.17543039282E+02  0.37203347014E+02  0.41800000000E+01 0. -1.
        -11    1    1    2    0    0 -0.93318083149E+01 -0.23328001957E+02  0.38339686691E+01  0.25416090130E+02  0.00000000000E+00 0.  1.
         11    1    1    2    0    0 -0.77032627391E+02 -0.17882815620E+02  0.19960426031E+03  0.21469904870E+03  0.00000000000E+00 0. -1.
</event>
<event>
 7    1  0.2480409E-009  0.1867391E+03  0.7561462E-02  0.1161436E+00
          1   -1    0    0  501    0  0.00000000000E+00  0.00000000000E+00  0.25829642680E+02  0.25829642680E+02  0.00000000000E+00 0. -1.
         -1   -1    0    0    0  501 -0.00000000000E+00 -0.00000000000E+00 -0.13906294786E+04  0.13906294786E+04  0.00000000000E+00 0.  1.
         25    2    1    2    0    0  0.76037427027E+02  0.13395465008E+03 -0.78058226878E+03  0.80540748683E+03  0.12508798068E+03 0.  0.
          5    1    3    3  502    0  0.10727652646E+03  0.11646519373E+03 -0.68932064022E+03  0.70728552361E+03  0.41800000000E+01 0. -1.
         -5    1    3    3    0  502 -0.31239099431E+02  0.17489456358E+02 -0.91261628563E+02  0.98121963214E+02  0.41800000000E+01 0. -1.
        -11    1    1    2    0    0  0.39889063445E+01 -0.85270864794E+02 -0.27089842286E+03  0.28402990558E+03  0.00000000000E+00 0. -1.
         11    1    1    2    0    0 -0.80026333371E+02 -0.48683785291E+02 -0.31331914425E+03  0.32702172884E+03  0.00000000000E+00 0.  1.
</event>
<event>
 7    1  0.2480409E-009  0.8615745E+02  0.7561462E-02  0.1312433E+00
         -2   -1    0    0    0  501 -0.00000000000E+00  0.00000000000E+00  0.35830896388E+02  0.35830896388E+02  0.00000000000E+00 0.  1.
          2   -1    0    0  501    0  0.00000000000E+00 -0.00000000000E+00 -0.48966399844E+03  0.48966399844E+03  0.00000000000E+00 0. -1.
         25    2    1    2    0    0  0.54850732083E+01  0.19916044986E+02 -0.39217020956E+03  0.41215496755E+03  0.12509000415E+03 0.  0.
          5    1    3    3  502    0 -0.52479448122E+02  0.39873275642E+01 -0.92683967510E+02  0.10666668407E+03  0.41800000000E+01 0.  1.
         -5    1    3    3    0  502  0.57964521330E+02  0.15928717422E+02 -0.29948624205E+03  0.30548828349E+03  0.41800000000E+01 0.  1.
        -11    1    1    2    0    0  0.24868736178E+02 -0.13267721913E+02 -0.74549678084E+02  0.79700319864E+02  0.00000000000E+00 0. -1.
         11    1    1    2    0    0 -0.30353809387E+02 -0.66483230723E+01  0.12886785590E+02  0.33639607412E+02  0.00000000000E+00 0.  1.
</event>
<event>
 7    1  0.2480409E-009  0.9479588E+02  0.7561462E-02  0.1291636E+00
         -2   -1    0    0    0  501 -0.00000000000E+00  0.00000000000E+00  0.49153372007E+03  0.49153372007E+03  0.00000000000E+00 0.  1.
          2   -1    0    0  501    0  0.00000000000E+00 -0.00000000000E+00 -0.26467559030E+02  0.26467559030E+02  0.00000000000E+00 0. -1.
         25    2    1    2    0    0  0.34176037180E+02  0.14304725567E+02  0.26818972982E+03  0.29824502610E+03  0.12510690519E+03 0.  0.
          5    1    3    3  502    0  0.13261681294E+02  0.52949230028E+02  0.23932285939E+03  0.24550437181E+03  0.41800000000E+01 0.  1.
         -5    1    3    3    0  502  0.20914355886E+02 -0.38644504461E+02  0.28866870425E+02  0.52740654293E+02  0.41800000000E+01 0.  1.
        -11    1    1    2    0    0  0.29275861510E+01  0.31570566017E+02  0.11189730020E+03  0.11630252444E+03  0.00000000000E+00 0.  1.
         11    1    1    2    0    0 -0.37103623331E+02 -0.45875291584E+02  0.84979131023E+02  0.10345372855E+03  0.00000000000E+00 0. -1.
</event>
<event>
 7    1  0.2480409E-009  0.1149128E+03  0.7561462E-02  0.1251733E+00
          1   -1    0    0  501    0  0.00000000000E+00  0.00000000000E+00  0.18335330491E+03  0.18335330491E+03  0.00000000000E+00 0. -1.
         -1   -1    0    0    0  501 -0.00000000000E+00 -0.00000000000E+00 -0.77946418156E+02  0.77946418156E+02  0.00000000000E+00 0.  1.
         25    2    1    2    0    0  0.50190308605E+02  0.22820240400E+02  0.64564927101E+02  0.15118323172E+03  0.12509160360E+03 0.  0.
          5    1    3    3  502    0 -0.25280467401E+02  0.47504777007E+02  0.10386526098E+02  0.54965063403E+02  0.41800000000E+01 0. -1.
         -5    1    3    3    0  502  0.75470776005E+02 -0.24684536607E+02  0.54178401002E+02  0.96218168313E+02  0.41800000000E+01 0. -1.
        -11    1    1    2    0    0  0.15514344856E+02  0.14103724961E+02 -0.54535310394E+01  0.21664509108E+02  0.00000000000E+00 0.  1.
         11    1    1    2    0    0 -0.65704653461E+02 -0.36923965361E+02  0.46295490696E+02  0.88451982246E+02  0.00000000000E+00 0. -1.
</event>
<event>
 7    1  0.2480409E-009  0.1549877E+03  0.7561462E-02  0.1194475E+00
          2   -1    0    0  501    0  0.00000000000E+00  0.00000000000E+00  0.42335424351E+03  0.42335424351E+03  0.00000000000E+00 0. -1.
         -2   -1    0    0    0  501 -0.00000000000E+00 -0.00000000000E+00 -0.87193841746E+02  0.87193841746E+02  0.00000000000E+00 0.  1.
         25    2    1    2    0    0  0.12417133384E+03  0.66199089876E+02  0.80492799437E+02  0.20476237140E+03  0.12509076038E+03 0.  0.
          5    1    3    3  502    0  0.13631992194E+02  0.14106944190E+02 -0.32556142524E+02  0.38238879450E+02  0.41800000000E+01 0.  1.
         -5    1    3    3    0  502  0.11053934164E+03  0.52092145686E+02  0.11304894196E+03  0.16652349195E+03  0.41800000000E+01 0.  1.
        -11    1    1    2    0    0 -0.48908299521E+02 -0.77397951984E+02  0.13437326163E+03  0.16259962538E+03  0.00000000000E+00 0. -1.
         11    1    1    2    0    0 -0.75263034316E+02  0.11198862108E+02  0.12129434069E+03  0.14318608847E+03  0.00000000000E+00 0.  1.
</event>
<event>
 7    1  0.2480409E-009  0.1130195E+03  0.7561462E-02  0.1255078E+00
         -1   -1    0    0    0  501 -0.00000000000E+00  0.00000000000E+00  0.50077841285E+02  0.50077841285E+02  0.00000000000E+00 0.  1.
          1   -1    0    0  501    0  0.00000000000E+00 -0.00000000000E+00 -0.91161949934E+03  0.91161949934E+03  0.00000000000E+00 0. -1.
         25    2    1    2    0    0  0.71007940667E+02 -0.87525990873E+02 -0.77735835094E+03  0.79538445352E+03  0.12508995325E+03 0.  0.
          5    1    3    3  502    0  0.41746002918E+02 -0.56761497415E+02 -0.14180290209E+03  0.15839864832E+03  0.41800000000E+01 0.  1.
         -5    1    3    3    0  502  0.29261937750E+02 -0.30764493457E+02 -0.63555544885E+03  0.63698580520E+03  0.41800000000E+01 0.  1.
        -11    1    1    2    0    0 -0.58853945337E+02  0.69829101071E+02 -0.10307831140E+03  0.13771357420E+03  0.00000000000E+00 0. -1.
         11    1    1    2    0    0 -0.12153995331E+02  0.17696889801E+02  0.18895004293E+02  0.28599312900E+02  0.00000000000E+00 0.  1.
</event>
<event>
 7    1  0.2480409E-009  0.1357091E+03  0.7561462E-02  0.1219222E+00
          1   -1    0    0  501    0  0.00000000000E+00  0.00000000000E+00  0.10090482922E+04  0.10090482922E+04  0.00000000000E+00 0. -1.
         -1   -1    0    0    0  501 -0.00000000000E+00 -0.00000000000E+00 -0.24718638190E+02  0.24718638190E+02  0.00000000000E+00 0.  1.
         25    2    1    2    0    0  0.85048046407E+02 -0.24146871773E+02  0.77558888517E+03  0.79057059277E+03  0.12508997454E+03 0.  0.
          5    1    3    3  502    0  0.98288136698E+01  0.47815561688E+02  0.25011641239E+03  0.25486982102E+03  0.41800000000E+01 0.  1.
         -5    1    3    3    0  502  0.75219232737E+02 -0.71962433460E+02  0.52547247278E+03  0.53570077175E+03  0.41800000000E+01 0.  1.
        -11    1    1    2    0    0 -0.76183227546E+02  0.49856342629E+02  0.12158401381E+03  0.15189539649E+03  0.00000000000E+00 0.  1.
         11    1    1    2    0    0 -0.88648188611E+01 -0.25709470856E+02  0.87156754999E+02  0.91300941108E+02  0.00000000000E+00 0. -1.
</event>
<event>
 7    1  0.2480409E-009  0.2640010E+03  0.7561462E-02  0.1104763E+00
          2   -1    0    0  501    0  0.00000000000E+00  0.00000000000E+00  0.30300708645E+04  0.30300708645E+04  0.00000000000E+00 0. -1.
         -2   -1    0    0    0  501 -0.00000000000E+00 -0.00000000000E+00 -0.25193856980E+02  0.25193856980E+02  0.00000000000E+00 0.  1.
         25    2    1    2    0    0  0.14538176597E+03 -0.20536373311E+03  0.18027748199E+04  0.18245422860E+04  0.12508949405E+03 0.  0.
          5    1    3    3  502    0  0.11649476838E+03 -0.90596074377E+02  0.12820108835E+04  0.12904836526E+04  0.41800000000E+01 0. -1.
         -5    1    3    3    0  502  0.28886997595E+02 -0.11476765873E+03  0.52076393636E+03  0.53405863343E+03  0.41800000000E+01 0. -1.
        -11    1    1    2    0    0 -0.12783936937E+00  0.47210419288E+02  0.16491309564E+03  0.17153766101E+03  0.00000000000E+00 0.  1.
         11    1    1    2    0    0 -0.14525392660E+03  0.15815331382E+03  0.10371890920E+04  0.10591847745E+04  0.00000000000E+00 0. -1.
</event>
<event>
 7    1  0.2480409E-009  0.1175853E+03  0.7561462E-02  0.1247134E+00
          1   -1    0    0  501    0  0.00000000000E+00  0.00000000000E+00  0.78263767358E+02  0.78263767358E+02  0.00000000000E+00 0. -1.
         -1   -1    0    0    0  501 -0.00000000000E+00 -0.00000000000E+00 -0.17991046943E+03  0.17991046943E+03  0.00000000000E+00 0.  1.
         25    2    1    2    0    0 -0.34326071326E+02 -0.33334025088E+02 -0.53779112402E+02  0.14431409643E+03  0.12507969099E+03 0.  0.
          5    1    3    3  502    0  0.46637871945E+02 -0.78787855807E+01 -0.29652105955E+02  0.55981123152E+02  0.41800000000E+01 0. -1.
         -5    1    3    3    0  502 -0.80963943272E+02 -0.25455239507E+02 -0.24127006447E+02  0.88332973280E+02  0.41800000000E+01 0. -1.
        -11    1    1    2    0    0 -0.25291342388E+02 -0.11828968984E+02 -0.76964643544E+01  0.28962252511E+02  0.00000000000E+00 0. -1.
         11    1    1    2    0    0  0.59617413714E+02  0.45162994071E+02 -0.40171125319E+02  0.84897887846E+02  0.00000000000E+00 0.  1.
</event>
<event>
 7    1  0.2480409E-009  0.8138756E+02  0.7561462E-02  0.1325159E+00
         -1   -1    0    0    0  501 -0.00000000000E+00  0.00000000000E+00  0.33407907333E+03  0.33407907333E+03  0.00000000000E+00 0.  1.
          1   -1    0    0  501    0  0.00000000000E+00 -0.00000000000E+00 -0.38285477723E+02  0.38285477723E+02  0.00000000000E+00 0. -1.
         25    2    1    2    0    0  0.20628227277E+01  0.18707703997E+02  0.20675505377E+03  0.24238141398E+03  0.12508742605E+03 0.  0.
          5    1    3    3  502    0  0.50158889356E+02 -0.10183416356E+02  0.16361291432E+03  0.17148257720E+03  0.41800000000E+01 0.  1.
         -5    1    3    3    0  502 -0.48096066628E+02  0.28891120353E+02  0.43142139446E+02  0.70898836777E+02  0.41800000000E+01 0.  1.
        -11    1    1    2    0    0 -0.26390298889E+02 -0.38893181170E+01  0.96841676171E+02  0.10044841917E+03  0.00000000000E+00 0.  1.
         11    1    1    2    0    0  0.24327476161E+02 -0.14818385880E+02 -0.78031343284E+01  0.29534717907E+02  0.00000000000E+00 0. -1.
</event>
<event>
 7    1  0.2480409E-009  0.8155576E+02  0.7561462E-02  0.1324694E+00
          2   -1    0    0  501    0  0.00000000000E+00  0.00000000000E+00  0.10291893587E+04  0.10291893587E+04  0.00000000000E+00 0. -1.
         -2   -1    0    0    0  501 -0.00000000000E+00 -0.00000000000E+00 -0.18056571808E+02  0.18056571808E+02  0.00000000000E+00 0.  1.
         25    2    1    2    0    0 -0.88812396057E+01  0.55021381238E+01  0.86987137785E+03  0.87888228034E+03  0.12509475910E+03 0.  0.
          5    1    3    3  502    0 -0.30955523171E+02 -0.21321977657E+02  0.82743370959E+02  0.90976969523E+02  0.41800000000E+01 0.  1.
         -5    1    3    3    0  502  0.22074283565E+02  0.26824115780E+02  0.78712800689E+03  0.78790531081E+03  0.41800000000E+01 0.  1.
        -11    1    1    2    0    0 -0.31073501870E+02 -0.30198893576E+02  0.53724529550E+02  0.69020727083E+02  0.00000000000E+00 0.  1.
         11    1    1    2    0    0  0.39954741476E+02  0.24696755452E+02  0.87536879509E+02  0.99342923102E+02  0.00000000000E+00 0. -1.
</event>
<event>
 7    1  0.2480409E-009  0.1319861E+03  0.7561462E-02  0.1224538E+00
          2   -1    0    0  501    0  0.00000000000E+00  0.00000000000E+00  0.63924049556E+03  0.63924049556E+03  0.00000000000E+00 0.  1.
         -2   -1    0    0    0  501 -0.00000000000E+00 -0.00000000000E+00 -0.32223345277E+02  0.32223345277E+02  0.00000000000E+00 0. -1.
         25    2    1    2    0    0 -0.83128900992E+02 -0.42653616245E+02  0.32670683008E+03  0.36209733796E+03  0.12508950467E+03 0.  0.
          5    1    3    3  502    0 -0.76324125604E+01 -0.59358655213E+02  0.61905055689E+02  0.86205637809E+02  0.41800000000E+01 0. -1.
         -5    1    3    3    0  502 -0.75496488432E+02  0.16705038968E+02  0.26480177439E+03  0.27589170015E+03  0.41800000000E+01 0. -1.
        -11    1    1    2    0    0  0.97689279876E+02  0.50535685495E+02  0.26457219391E+03  0.28652311722E+03  0.00000000000E+00 0.  1.
         11    1    1    2    0    0 -0.14560378884E+02 -0.78820692506E+01  0.15738126291E+02  0.22843385652E+02  0.00000000000E+00 0. -1.
</event>
<event>
 7    1  0.2480409E-009  0.1232000E+03  0.7561462E-02  0.1237910E+00
         -2   -1    0    0    0  501 -0.00000000000E+00  0.00000000000E+00  0.61637018938E+02  0.61637018938E+02  0.00000000000E+00 0. -1.
          2   -1    0    0  501    0  0.00000000000E+00 -0.00000000000E+00 -0.48252186923E+03  0.48252186923E+03  0.00000000000E+00 0.  1.
         25    2    1    2    0    0 -0.64953034065E+02  0.89845680519E+02 -0.34425531805E+03  0.38268841129E+03  0.12509018022E+03 0.  0.
          5    1    3    3  502    0 -0.31158326014E+02  0.16028187328E+02 -0.27090884061E+03  0.27319739455E+03  0.41800000000E+01 0. -1.
         -5    1    3    3    0  502 -0.33794708050E+02  0.73817493190E+02 -0.73346477434E+02  0.10949101673E+03  0.41800000000E+01 0. -1.
        -11    1    1    2    0    0  0.26676991253E+02  0.53575183737E+01  0.81109834192E+01  0.28392832150E+02  0.00000000000E+00 0.  1.
         11    1    1    2    0    0  0.38276042811E+02 -0.95203198892E+02 -0.84740515668E+02  0.13307764474E+03  0.00000000000E+00 0. -1.
</event>
<event>
 7    1  0.2480409E-009  0.2112848E+03  0.7561462E-02  0.1140553E+00
          2   -1    0    0  501    0  0.00000000000E+00  0.00000000000E+00  0.11669058315E+04  0.11669058315E+04  0.00000000000E+00 0. -1.
         -2   -1    0    0    0  501 -0.00000000000E+00 -0.00000000000E+00 -0.62960828364E+02  0.62960828364E+02  0.00000000000E+00 0.  1.
         25    2    1    2    0    0  0.60597978997E+02  0.18995810327E+03  0.89917891786E+03  0.92947636766E+03  0.12508955056E+03 0.  0.
          5    1    3    3  502    0 -0.43906279671E+01  0.11640683567E+02  0.30684756590E+01  0.13478541120E+02  0.41800000000E+01 0. -1.
         -5    1    3    3    0  502  0.64988606964E+02  0.17831741970E+03  0.89611044220E+03  0.91599782654E+03  0.41800000000E+01 0. -1.
        -11    1    1    2    0    0 -0.77810390243E+02 -0.93571681317E+02  0.10747434262E+03  0.16236024974E+03  0.00000000000E+00 0.  1.
         11    1    1    2    0    0  0.17212411246E+02 -0.96386421950E+02  0.97291742699E+02  0.13803004251E+03  0.00000000000E+00 0. -1.
</event>
<event>
 7    1  0.2480409E-009  0.1071329E+03  0.7561462E-02  0.1265973E+00
         -1   -1    0    0    0  501 -0.00000000000E+00  0.00000000000E+00  0.82463330270E+02  0.82463330270E+02  0.00000000000E+00 0.  1.
          1   -1    0    0  501    0  0.00000000000E+00 -0.00000000000E+00 -0.19892991219E+03  0.19892991219E+03  0.00000000000E+00 0. -1.
         25    2    1    2    0    0  0.33503820107E+02  0.56999134033E+02 -0.45220564004E+02  0.14853870308E+03  0.12508972644E+03 0.  0.
          5    1    3    3  502    0  0.28477653677E+02 -0.30173583767E+02  0.12798079916E+02  0.43619779525E+02  0.41800000000E+01 0.  1.
         -5    1    3    3    0  502  0.50261664290E+01  0.87172717800E+02 -0.58018643920E+02  0.10491892355E+03  0.41800000000E+01 0.  1.
        -11    1    1    2    0    0 -0.41360424073E+02 -0.17559262407E+02 -0.79947236573E+02  0.91709176266E+02  0.00000000000E+00 0. -1.
         11    1    1    2    0    0  0.78566039664E+01 -0.39439871626E+02  0.87012186552E+01  0.41145363114E+02  0.00000000000E+00 0.  1.
</event>
<event>
 7    1  0.2480409E-009  0.1049112E+03  0.7561462E-02  0.1270295E+00
          2   -1    0    0  501    0  0.00000000000E+00  0.00000000000E+00  0.18827884021E+03  0.18827884021E+03  0.00000000000E+00 0. -1.
         -2   -1    0    0    0  501 -0.00000000000E+00 -0.00000000000E+00 -0.78118997261E+02  0.78118997261E+02  0.00000000000E+00 0.  1.
         25    2    1    2    0    0  0.48873855065E+02  0.27891294067E+01  0.43890205845E+02  0.14131509907E+03  0.12508866497E+03 0.  0.
          5    1    3    3  502    0  0.80066505270E+02 -0.10630443120E+02 -0.56888666610E+01  0.81077044784E+02  0.41800000000E+01 0.  1.
         -5    1    3    3    0  502 -0.31192650205E+02  0.13419572527E+02  0.49579072506E+02  0.60238054286E+02  0.41800000000E+01 0.  1.
        -11    1    1    2    0    0 -0.28258002202E+02 -0.41889481059E+02  0.68003308257E+01  0.50985172464E+02  0.00000000000E+00 0.  1.
         11    1    1    2    0    0 -0.20615852863E+02  0.39100351652E+02  0.59469306280E+02  0.74097565939E+02  0.00000000000E+00 0. -1.
</event>
<event>
 7    1  0.2480409E-009  0.1119881E+03  0.7561462E-02  0.1256932E+00
          2   -1    0    0  501    0  0.00000000000E+00  0.00000000000E+00  0.49410771167E+02  0.49410771167E+02  0.00000000000E+00 0. -1.
         -2   -1    0    0    0  501 -0.00000000000E+00 -0.00000000000E+00 -0.35154647542E+03  0.35154647542E+03  0.00000000000E+00 0.  1.
         25    2    1    2    0    0 -0.18688455227E+02  0.67761341335E+02 -0.12202211185E+03  0.18835447125E+03  0.12508858189E+03 0.  0.
          5    1    3    3  502    0  0.18239528240E+02  0.71444416145E+02 -0.15483526877E+02  0.75459903215E+02  0.41800000000E+01 0.  1.
         -5    1    3    3    0  502 -0.36927983467E+02 -0.36830748097E+01 -0.10653858497E+03  0.11289456803E+03  0.41800000000E+01 0.  1.
        -11    1    1    2    0    0 -0.52243712739E+01  0.20591731599E+02 -0.38801427619E+02  0.44236458388E+02  0.00000000000E+00 0.  1.
         11    1    1    2    0    0  0.23912826501E+02 -0.88353072934E+02 -0.14131216478E+03  0.16836631695E+03  0.00000000000E+00 0. -1.
</event>
<event>
 7    1  0.2480409E-009  0.2012197E+03  0.7561462E-02  0.1148714E+00
         -2   -1    0    0    0  501 -0.00000000000E+00  0.00000000000E+00  0.45872165774E+03  0.45872165774E+03  0.00000000000E+00 0.  1.
          2   -1    0    0  501    0  0.00000000000E+00 -0.00000000000E+00 -0.12146124898E+03  0.12146124898E+03  0.00000000000E+00 0. -1.
         25    2    1    2    0    0  0.12628176343E+03 -0.12841902786E+03  0.30813631722E+03  0.37819826147E+03  0.12508958589E+03 0.  0.
          5    1    3    3  502    0  0.59402870887E+02  0.70326471873E+01  0.45822485801E+02  0.75467422118E+02  0.41800000000E+01 0. -1.
         -5    1    3    3    0  502  0.66878892544E+02 -0.13545167505E+03  0.26231383142E+03  0.30273083935E+03  0.41800000000E+01 0. -1.
        -11    1    1    2    0    0 -0.24382265648E+02 -0.35334673327E+01 -0.15864598690E+02  0.29302999183E+02  0.00000000000E+00 0.  1.
         11    1    1    2    0    0 -0.10189949778E+03  0.13195249519E+03  0.44988690229E+02  0.17268164606E+03  0.00000000000E+00 0. -1.
</event>
<event>
 7    1  0.2480409E-009  0.9932347E+02  0.7561462E-02  0.1281725E+00
          2   -1    0    0  501    0  0.00000000000E+00  0.00000000000E+00  0.11341332379E+03  0.11341332379E+03  0.00000000000E+00 0. -1.
         -2   -1    0    0    0  501 -0.00000000000E+00 -0.00000000000E+00 -0.16539564831E+03  0.16539564831E+03  0.00000000000E+00 0.  1.
         25    2    1    2    0    0  0.32380565462E+02 -0.66081966244E+01  0.49524169581E+02  0.13853549449E+03  0.12508905059E+03 0.  0.
          5    1    3    3  502    0  0.24652894860E+02  0.58305082434E+02  0.30043977167E+02  0.70195162416E+02  0.41800000000E+01 0. -1.
         -5    1    3    3    0  502  0.77276706028E+01 -0.64913279058E+02  0.19480192414E+02  0.68340332071E+02  0.41800000000E+01 0. -1.
        -11    1    1    2    0    0 -0.50820250498E+02  0.67088215715E+01 -0.17345885004E+02  0.54116410396E+02  0.00000000000E+00 0. -1.
         11    1    1    2    0    0  0.18439685036E+02 -0.10062494712E+00 -0.84160609094E+02  0.86157067224E+02  0.00000000000E+00 0.  1.
</event>
<event>
 7    1  0.2480409E-009  0.1048239E+03  0.7561462E-02  0.1270467E+00
         -2   -1    0    0    0  501 -0.00000000000E+00  0.00000000000E+00  0.74282558504E+02  0.74282558504E+02  0.00000000000E+00 0.  1.
          2   -1    0    0  501    0  0.00000000000E+00 -0.00000000000E+00 -0.21335265600E+03  0.21335265600E+03  0.00000000000E+00 0. -1.
         25    2    1    2    0    0 -0.23384870695E+02 -0.28393654420E+02 -0.12474840187E+03  0.18045139407E+03  0.12508992791E+03 0.  0.
          5    1    3    3  502    0  0.34835948801E+02 -0.28360316115E+02 -0.27383395049E+01  0.45197585801E+02  0.41800000000E+01 0. -1.
         -5    1    3    3    0  502 -0.58220819496E+02 -0.33338305376E-01 -0.12201006237E+03  0.13525380827E+03  0.41800000000E+01 0. -1.
        -11    1    1    2    0    0  0.30700711686E+02 -0.32571674058E+02 -0.78196990180E+01  0.45437818408E+02  0.00000000000E+00 0. -1.
         11    1    1    2    0    0 -0.73158409907E+01  0.60965328478E+02 -0.65019966072E+01  0.61746002022E+02  0.00000000000E+00 0.  1.
</event>
<event>
 7    1  0.2480409E-009  0.1032351E+03  0.7561462E-02  0.1273636E+00
         -1   -1    0    0    0  501 -0.00000000000E+00  0.00000000000E+00  0.20033330578E+02  0.20033330578E+02  0.00000000000E+00 0.  1.
          1   -1    0    0  501    0  0.00000000000E+00 -0.00000000000E+00 -0.61696829237E+03  0.61696829237E+03  0.00000000000E+00 0. -1.
         25    2    1    2    0    0 -0.73083460739E+01 -0.18728488919E+02 -0.29824146034E+03  0.32403548532E+03  0.12508740489E+03 0.  0.
          5    1    3    3  502    0  0.44794731253E+02  0.28357306406E+02 -0.93781272421E+02  0.10781050149E+03  0.41800000000E+01 0. -1.
         -5    1    3    3    0  502 -0.52103077327E+02 -0.47085795325E+02 -0.20446018792E+03  0.21622498383E+03  0.41800000000E+01 0. -1.
        -11    1    1    2    0    0  0.78203932813E+01  0.50530668508E+02 -0.24726784804E+03  0.25249929839E+03  0.00000000000E+00 0. -1.
         11    1    1    2    0    0 -0.51204720748E+00 -0.31802179588E+02 -0.51425653404E+02  0.60466839234E+02  0.00000000000E+00 0.  1.
</event>
<event>
 7    1  0.2480409E-009  0.1025163E+03  0.7561462E-02  0.1275092E+00
         -2   -1    0    0    0  501 -0.00000000000E+00  0.00000000000E+00  0.22261221697E+02  0.22261221697E+02  0.00000000000E+00 0.  1.
          2   -1    0    0  501    0  0.00000000000E+00 -0.00000000000E+00 -0.86915459619E+03  0.86915459619E+03  0.00000000000E+00 0. -1.
         25    2    1    2    0    0 -0.45601539766E+02 -0.15569949337E+02 -0.69635096126E+03  0.70913603791E+03  0.12508930914E+03 0.  0.
          5    1    3    3  502    0  0.18760083487E+01  0.43130015815E+02 -0.43235718959E+03  0.43452724824E+03  0.41800000000E+01 0. -1.
         -5    1    3    3    0  502 -0.47477548115E+02 -0.58699965152E+02 -0.26399377167E+03  0.27460878967E+03  0.41800000000E+01 0. -1.
        -11    1    1    2    0    0 -0.13290549853E+02  0.23125288597E+02 -0.10246858529E+03  0.10588308958E+03  0.00000000000E+00 0. -1.
         11    1    1    2    0    0  0.58892089619E+02 -0.75553392600E+01 -0.48073827953E+02  0.76396690406E+02  0.00000000000E+00 0.  1.
</event>
<event>
 7    1  0.2480409E-009  0.8655577E+02  0.7561462E-02  0.1311413E+00
          2   -1    0    0  501    0  0.00000000000E+00  0.00000000000E+00  0.11887995850E+03  0.11887995850E+03  0.00000000000E+00 0. -1.
         -2   -1    0    0    0  501 -0.00000000000E+00 -0.00000000000E+00 -0.11860829769E+03  0.11860829769E+03  0.00000000000E+00 0.  1.
         25    2    1    2    0    0  0.10717746982E+02 -0.21832511566E+02 -0.28216932356E+02  0.13051679504E+03  0.12508760872E+03 0.  0.
          5    1    3    3  502    0 -0.82487258339E+01  0.23392630950E+02 -0.64590653057E+02  0.69315810050E+02  0.41800000000E+01 0. -1.
         -5    1    3    3    0  502  0.18966472816E+02 -0.45225142516E+02  0.36373720700E+02  0.61200984994E+02  0.41800000000E+01 0. -1.
        -11    1    1    2    0    0  0.42693629192E+02  0.12779371682E+02  0.28311990232E+02  0.52797983911E+02  0.00000000000E+00 0. -1.
         11    1    1    2    0    0 -0.53411376174E+02  0.90531398846E+01  0.17660293247E+00  0.54173477230E+02  0.00000000000E+00 0.  1.
</event>
<event>
 7    1  0.2480409E-009  0.8760797E+02  0.7561462E-02  0.1308750E+00
         -2   -1    0    0    0  501 -0.00000000000E+00  0.00000000000E+00  0.92290855363E+02  0.92290855363E+02  0.00000000000E+00 0.  1.
          2   -1    0    0  501    0  0.00000000000E+00 -0.00000000000E+00 -0.14338712602E+03  0.14338712602E+03  0.00000000000E+00 0. -1.
         25    2    1    2    0    0 -0.20572545204E+02 -0.32131921367E+02 -0.35431729327E+02  0.13548079498E+03  0.12507577055E+03 0.  0.
          5    1    3    3  502    0  0.20914334331E+02 -0.26783255033E+02 -0.72023723711E+02  0.79747359254E+02  0.41800000000E+01 0. -1.
         -5    1    3    3    0  502 -0.41486879535E+02 -0.53486663342E+01  0.36591994384E+02  0.55733435728E+02  0.41800000000E+01 0. -1.
        -11    1    1    2    0    0 -0.27826088570E+02  0.41182502240E+02 -0.90069468257E+01  0.50511531228E+02  0.00000000000E+00 0.  1.
         11    1    1    2    0    0  0.48398633773E+02 -0.90505808729E+01 -0.66575945017E+01  0.49685655171E+02  0.00000000000E+00 0. -1.
</event>
<event>
 7    1  0.2480409E-009  0.1201177E+03  0.7561462E-02  0.1242903E+00
          2   -1    0    0  501    0  0.00000000000E+00  0.00000000000E+00  0.74737080784E+02  0.74737080784E+02  0.00000000000E+00 0. -1.
         -2   -1    0    0    0  501 -0.00000000000E+00 -0.00000000000E+00 -0.24949508974E+03  0.24949508974E+03  0.00000000000E+00 0.  1.
         25    2    1    2    0    0  0.33919097380E+01 -0.57958444751E+02 -0.27553390302E+02  0.14064596300E+03  0.12510560028E+03 0.  0.
          5    1    3    3  502    0 -0.51595504226E+02  0.43965292883E+01 -0.24266742654E+02  0.57339102933E+02  0.41800000000E+01 0.  1.
         -5    1    3    3    0  502  0.54987413964E+02 -0.62354974039E+02 -0.32866476488E+01  0.83306860070E+02  0.41800000000E+01 0.  1.
        -11    1    1    2    0    0  0.36529496740E+02  0.23728723045E+01 -0.78486295236E+02  0.86603309376E+02  0.00000000000E+00 0.  1.
         11    1    1    2    0    0 -0.39921406478E+02  0.55585572447E+02 -0.68718323419E+02  0.96982898147E+02  0.00000000000E+00 0. -1.
</event>
<event>
 7    1  0.2480409E-009  0.1063184E+03  0.7561462E-02  0.1267544E+00
         -1   -1    0    0    0  501 -0.00000000000E+00  0.00000000000E+00  0.21422088937E+02  0.21422088937E+02  0.00000000000E+00 0.  1.
          1   -1    0    0  501    0  0.00000000000E+00 -0.00000000000E+00 -0.13079224079E+04  0.13079224079E+04  0.00000000000E+00 0. -1.
         25    2    1    2    0    0 -0.42304426536E+02 -0.29100683449E+02 -0.11473565396E+04  0.11552956452E+04  0.12507791422E+03 0.  0.
          5    1    3    3  502    0  0.24404826088E+02  0.30264618842E+02 -0.53765637324E+03  0.53907642387E+03  0.41800000000E+01 0.  1.
         -5    1    3    3    0  502 -0.66709252624E+02 -0.59365302291E+02 -0.60970016637E+03  0.61621922136E+03  0.41800000000E+01 0.  1.
        -11    1    1    2    0    0  0.50481541512E+02 -0.34266645600E+01 -0.27734027876E+02  0.57700124486E+02  0.00000000000E+00 0.  1.
         11    1    1    2    0    0 -0.81771149763E+01  0.32527348009E+02 -0.11140975149E+03  0.11634872714E+03  0.00000000000E+00 0. -1.
</event>
<event>
 7    1  0.2480409E-009  0.1804158E+03  0.7561462E-02  0.1167401E+00
          1   -1    0    0  501    0  0.00000000000E+00  0.00000000000E+00  0.12448035892E+04  0.12448035892E+04  0.00000000000E+00 0. -1.
         -1   -1    0    0    0  501 -0.00000000000E+00 -0.00000000000E+00 -0.33447099668E+02  0.33447099668E+02  0.00000000000E+00 0.  1.
         25    2    1    2    0    0 -0.16175746899E+03 -0.82615045286E+01  0.80935891984E+03  0.83483240985E+03  0.12509820220E+03 0.  0.
          5    1    3    3  502    0 -0.31094284443E+02 -0.48061923288E+02  0.13380514500E+03  0.14559564630E+03  0.41800000000E+01 0. -1.
         -5    1    3    3    0  502 -0.13066318455E+03  0.39800418760E+02  0.67555377484E+03  0.68923676355E+03  0.41800000000E+01 0. -1.
        -11    1    1    2    0    0  0.15654558595E+03 -0.54709770846E+00  0.40374775212E+03  0.43303471817E+03  0.00000000000E+00 0. -1.
         11    1    1    2    0    0  0.52118830422E+01  0.88086022370E+01 -0.17501823879E+01  0.10383560883E+02  0.00000000000E+00 0.  1.
</event>
<event>
 7    1  0.2480409E-009  0.9067457E+02  0.7561462E-02  0.1301226E+00
          3   -1    0    0  501    0  0.00000000000E+00  0.00000000000E+00  0.53082467130E+03  0.53082467130E+03  0.00000000000E+00 0. -1.
         -3   -1    0    0    0  501 -0.00000000000E+00 -0.00000000000E+00 -0.29758214430E+02  0.29758214430E+02  0.00000000000E+00 0.  1.
         25    2    1    2    0    0 -0.50028491083E+02 -0.36289293620E+02  0.26813365639E+03  0.30226354278E+03  0.12509128207E+03 0.  0.
          5    1    3    3  502    0 -0.46790267294E+02 -0.42967979735E+02  0.28028470965E+03  0.28742401998E+03  0.41800000000E+01 0.  1.
         -5    1    3    3    0  502 -0.32382237897E+01  0.66786861150E+01 -0.12151053260E+02  0.14839522798E+02  0.41800000000E+01 0.  1.
        -11    1    1    2    0    0  0.46475306539E+02  0.65183531050E+02  0.19262182694E+03  0.20859533804E+03  0.00000000000E+00 0.  1.
         11    1    1    2    0    0  0.35531845443E+01 -0.28894237430E+02  0.40310973537E+02  0.49724004913E+02  0.00000000000E+00 0. -1.
</event>
<event>
 7    1  0.2480409E-009  0.2488583E+03  0.7561462E-02  0.1114028E+00
          1   -1    0    0  501    0  0.00000000000E+00  0.00000000000E+00  0.55281852340E+03  0.55281852340E+03  0.00000000000E+00 0. -1.
         -1   -1    0    0    0  501 -0.00000000000E+00 -0.00000000000E+00 -0.17258652333E+03  0.17258652333E+03  0.00000000000E+00 0.  1.
         25    2    1    2    0    0 -0.14211103707E+03  0.19158054794E+03  0.38949864458E+03  0.47355553961E+03  0.12508797606E+03 0.  0.
          5    1    3    3  502    0  0.14688644207E+02  0.15311984316E+02  0.88463064599E+02  0.91068102706E+02  0.41800000000E+01 0.  1.
         -5    1    3    3    0  502 -0.15679968127E+03  0.17626856363E+03  0.30103557999E+03  0.38248743690E+03  0.41800000000E+01 0.  1.
        -11    1    1    2    0    0  0.29677209502E+02 -0.60894475356E+02  0.31488573215E+02  0.74702102619E+02  0.00000000000E+00 0. -1.
         11    1    1    2    0    0  0.11243382756E+03 -0.13068607259E+03 -0.40755217725E+02  0.17714740450E+03  0.00000000000E+00 0.  1.
</event>
<event>
 7    1  0.2480409E-009  0.1689987E+03  0.7561462E-02  0.1178896E+00
          1   -1    0    0  501    0  0.00000000000E+00  0.00000000000E+00  0.52321357990E+03  0.52321357990E+03  0.00000000000E+00 0. -1.
         -1   -1    0    0    0  501 -0.00000000000E+00 -0.00000000000E+00 -0.12808169710E+03  0.12808169710E+03  0.00000000000E+00 0.  1.
         25    2    1    2    0    0 -0.10983113307E+03 -0.74537700189E+02  0.44650580947E+03  0.48231861182E+03  0.12508020976E+03 0.  0.
          5    1    3    3  502    0  0.27754569811E+02 -0.15859297999E+02  0.66146854851E+02  0.73584728614E+02  0.41800000000E+01 0. -1.
         -5    1    3    3    0  502 -0.13758570288E+03 -0.58678402190E+02  0.38035895462E+03  0.40873388321E+03  0.41800000000E+01 0. -1.
        -11    1    1    2    0    0  0.11723778289E+03  0.44844706609E+02 -0.57005540854E+02  0.13785999107E+03  0.00000000000E+00 0.  1.
         11    1    1    2    0    0 -0.74066498271E+01  0.29692993580E+02  0.56316141809E+01  0.31116674110E+02  0.00000000000E+00 0. -1.
</event>
<event>
 7    1  0.2480409E-009  0.1108400E+03  0.7561462E-02  0.1259022E+00
          2   -1    0    0  501    0  0.00000000000E+00  0.00000000000E+00  0.45366619958E+03  0.45366619958E+03  0.00000000000E+00 0. -1.
         -2   -1    0    0    0  501 -0.00000000000E+00 -0.00000000000E+00 -0.28102001847E+02  0.28102001847E+02  0.00000000000E+00 0.  1.
         25    2    1    2    0    0 -0.10060757630E+02  0.21470735469E+02  0.28478252912E+03  0.31194661174E+03  0.12508952138E+03 0.  0.
          5    1    3    3  502    0  0.39008510903E+02 -0.34615622990E+02  0.12901094434E+03  0.13921638351E+03  0.41800000000E+01 0.  1.
         -5    1    3    3    0  502 -0.49069268533E+02  0.56086358459E+02  0.15577158477E+03  0.17273022822E+03  0.41800000000E+01 0.  1.
        -11    1    1    2    0    0  0.27126525631E+02 -0.52621630516E+02  0.93880812697E+02  0.11098869935E+03  0.00000000000E+00 0. -1.
         11    1    1    2    0    0 -0.17065768001E+02  0.31150895047E+02  0.46900855917E+02  0.58832890338E+02  0.00000000000E+00 0.  1.
</event>
<event>
 7    1  0.2480409E-009  0.1605238E+03  0.7561462E-02  0.1188107E+00
          1   -1    0    0  501    0  0.00000000000E+00  0.00000000000E+00  0.82474122700E+02  0.82474122700E+02  0.00000000000E+00 0.  1.
         -1   -1    0    0    0  501 -0.00000000000E+00 -0.00000000000E+00 -0.42947461458E+03  0.42947461458E+03  0.00000000000E+00 0. -1.
         25    2    1    2    0    0  0.96426850186E+02  0.11833021170E+03 -0.19761695534E+03  0.27928245397E+03  0.12508417814E+03 0.  0.
          5    1    3    3  502    0  0.24366199645E+02  0.66188541017E+02 -0.17303899377E+03  0.18690799986E+03  0.41800000000E+01 0. -1.
         -5    1    3    3    0  502  0.72060650541E+02  0.52141670679E+02 -0.24577961572E+02  0.92374454112E+02  0.41800000000E+01 0. -1.
        -11    1    1    2    0    0 -0.77011577889E+02 -0.11919989320E+03 -0.15714388170E+03  0.21173945599E+03  0.00000000000E+00 0. -1.
         11    1    1    2    0    0 -0.19415272297E+02  0.86968150121E+00  0.77603451665E+01  0.20926827313E+02  0.00000000000E+00 0.  1.
</event>
<event>
 7    1  0.2480409E-009  0.7824086E+02  0.7561462E-02  0.1334119E+00
         -1   -1    0    0    0  501 -0.00000000000E+00  0.00000000000E+00  0.44707391731E+03  0.44707391731E+03  0.00000000000E+00 0.  1.
          1   -1    0    0  501    0  0.00000000000E+00 -0.00000000000E+00 -0.33639150057E+02  0.33639150057E+02  0.00000000000E+00 0. -1.
         25    2    1    2    0    0  0.22925729359E+02  0.22675182382E+02  0.13955139652E+03  0.19016369479E+03  0.12509150883E+03 0.  0.
          5    1    3    3  502    0  0.32174767469E+02 -0.26892211990E+01 -0.13095372118E+02  0.35091434044E+02  0.41800000000E+01 0.  1.
         -5    1    3    3    0  502 -0.92490381101E+01  0.25364403581E+02  0.15264676864E+03  0.15507226074E+03  0.41800000000E+01 0.  1.
        -11    1    1    2    0    0 -0.16749714262E+02 -0.58192580518E+02  0.15891972393E+03  0.17006589314E+03  0.00000000000E+00 0. -1.
         11    1    1    2    0    0 -0.61760150971E+01  0.35517398136E+02  0.11496364680E+03  0.12048347944E+03  0.00000000000E+00 0.  1.
</event>
<event>
 7    1  0.2480409E-009  0.8864962E+02  0.7561462E-02  0.1306155E+00
         -2   -1    0    0    0  501 -0.00000000000E+00  0.00000000000E+00  0.30468006865E+02  0.30468006865E+02  0.00000000000E+00 0.  1.
          2   -1    0    0  501    0  0.00000000000E+00 -0.00000000000E+00 -0.40052952952E+03  0.40052952952E+03  0.00000000000E+00 0. -1.
         25    2    1    2    0    0  0.75583843305E+01  0.10898487396E+02 -0.17036452464E+03  0.21177043082E+03  0.12508692142E+03 0.  0.
          5    1    3    3  502    0 -0.35657963423E+02 -0.22038230851E+02 -0.14621402286E+03  0.15216171285E+03  0.41800000000E+01 0.  1.
         -5    1    3    3    0  502  0.43216347754E+02  0.32936718247E+02 -0.24150501781E+02  0.59608717973E+02  0.41800000000E+01 0.  1.
        -11    1    1    2    0    0 -0.25824331453E+02  0.27762628664E+02 -0.14457829524E+03  0.14946753193E+03  0.00000000000E+00 0. -1.
         11    1    1    2    0    0  0.18265947123E+02 -0.38661116060E+02 -0.55118702772E+02  0.69759573641E+02  0.00000000000E+00 0.  1.
</event>
<event>
 7    1  0.2480409E-009  0.1172061E+03  0.7561462E-02  0.1247779E+00
          2   -1    0    0  501    0  0.00000000000E+00  0.00000000000E+00  0.20650819652E+03  0.20650819652E+03  0.00000000000E+00 0. -1.
         -2   -1    0    0    0  501 -0.00000000000E+00 -0.00000000000E+00 -0.87118307391E+02  0.87118307391E+02  0.00000000000E+00 0.  1.
         25    2    1    2    0    0 -0.14452347514E+02 -0.77290260913E+02  0.55784313820E+02  0.15793122697E+03  0.12509087898E+03 0.  0.
          5    1    3    3  502    0 -0.32701223807E+02  0.20874662597E+02  0.41530253610E+02  0.56985576613E+02  0.41800000000E+01 0. -1.
         -5    1    3    3    0  502  0.18248876293E+02 -0.98164923510E+02  0.14254060210E+02  0.10094565036E+03  0.41800000000E+01 0. -1.
        -11    1    1    2    0    0 -0.81818615551E+01  0.71670655712E+02  0.79594455054E+02  0.10741928609E+03  0.00000000000E+00 0. -1.
         11    1    1    2    0    0  0.22634209069E+02  0.56196052013E+01 -0.15988879749E+02  0.28275990848E+02  0.00000000000E+00 0.  1.
</event>
<event>
 7    1  0.2480409E-009  0.1066522E+03  0.7561462E-02  0.1266898E+00
         -2   -1    0    0    0  501 -0.00000000000E+00  0.00000000000E+00  0.29401926621E+02  0.29401926621E+02  0.00000000000E+00 0.  1.
          2   -1    0    0  501    0  0.00000000000E+00 -0.00000000000E+00 -0.44331727042E+03  0.44331727042E+03  0.00000000000E+00 0. -1.
         25    2    1    2    0    0  0.33801967610E+02  0.19273672215E+01 -0.21678314882E+03  0.25256401357E+03  0.12508940634E+03 0.  0.
          5    1    3    3  502    0 -0.40922275558E+02  0.12902036521E+02 -0.34521843839E+02  0.55229750002E+02  0.41800000000E+01 0. -1.
         -5    1    3    3    0  502  0.74724243169E+02 -0.10974669300E+02 -0.18226130498E+03  0.19733426357E+03  0.41800000000E+01 0. -1.
        -11    1    1    2    0    0 -0.31964423197E+02 -0.42921665025E+02 -0.81901404127E+02  0.97835748460E+02  0.00000000000E+00 0.  1.
         11    1    1    2    0    0 -0.18375444137E+01  0.40994297803E+02 -0.11523079085E+03  0.12231943501E+03  0.00000000000E+00 0. -1.
</event>
<event>
 7    1  0.2480409E-009  0.1151500E+03  0.7561462E-02  0.1251319E+00
          2   -1    0    0  501    0  0.00000000000E+00  0.00000000000E+00  0.42001924757E+03  0.42001924757E+03  0.00000000000E+00 0. -1.
         -2   -1    0    0    0  501 -0.00000000000E+00 -0.00000000000E+00 -0.35053220373E+02  0.35053220373E+02  0.00000000000E+00 0.  1.
         25    2    1    2    0    0 -0.49908761964E+02 -0.29338560338E+01  0.19609031399E+03  0.23790758547E+03  0.12509642662E+03 0.  0.
          5    1    3    3  502    0 -0.91754656307E+02  0.47219211244E+01  0.13362322911E+03  0.16221545318E+03  0.41800000000E+01 0.  1.
         -5    1    3    3    0  502  0.41845894344E+02 -0.76557771582E+01  0.62467084874E+02  0.75692132286E+02  0.41800000000E+01 0.  1.
        -11    1    1    2    0    0 -0.20591542029E+02  0.13024350910E+02  0.10179218247E+03  0.10466753906E+03  0.00000000000E+00 0. -1.
         11    1    1    2    0    0  0.70500303992E+02 -0.10090494877E+02  0.87083530739E+02  0.11249734342E+03  0.00000000000E+00 0.  1.
</event>
<event>
 7    1  0.2480409E-009  0.9367147E+02  0.7561462E-02  0.1294197E+00
         -2   -1    0    0    0  501 -0.00000000000E+00  0.00000000000E+00  0.50161338039E+02  0.50161338039E+02  0.00000000000E+00 0.  1.
          2   -1    0    0  501    0  0.00000000000E+00 -0.00000000000E+00 -0.25339845758E+03  0.25339845758E+03  0.00000000000E+00 0. -1.
         25    2    1    2    0    0  0.79076653244E+01  0.32686090557E+02 -0.12050783664E+03  0.17691825788E+03  0.12508804735E+03 0.  0.
          5    1    3    3  502    0  0.46378701285E+02  0.14963738678E+02 -0.12489415959E+03  0.13413023861E+03  0.41800000000E+01 0.  1.
         -5    1    3    3    0  502 -0.38471035960E+02  0.17722351879E+02  0.43863229490E+01  0.42788019269E+02  0.41800000000E+01 0.  1.
        -11    1    1    2    0    0 -0.48910829318E+02 -0.14513641076E+02 -0.45200183735E+02  0.68161364508E+02  0.00000000000E+00 0.  1.
         11    1    1    2    0    0  0.41003163994E+02 -0.18172449481E+02 -0.37529099156E+02  0.58480173230E+02  0.00000000000E+00 0. -1.
</event>
<event>
 7    1  0.2480409E-009  0.2283160E+03  0.7561462E-02  0.1127831E+00
         -2   -1    0    0    0  501 -0.00000000000E+00  0.00000000000E+00  0.37342263608E+02  0.37342263608E+02  0.00000000000E+00 0.  1.
          2   -1    0    0  501    0  0.00000000000E+00 -0.00000000000E+00 -0.18570025225E+04  0.18570025225E+04  0.00000000000E+00 0. -1.
         25    2    1    2    0    0  0.21164782393E+03 -0.31888856312E+02 -0.13098041227E+04  0.13330588592E+04  0.12508949541E+03 0.  0.
          5    1    3    3  502    0  0.80344786151E+02 -0.40985930481E+02 -0.26436815811E+03  0.27936199917E+03  0.41800000000E+01 0.  1.
         -5    1    3    3    0  502  0.13130303778E+03  0.90970741697E+01 -0.10454359646E+04  0.10536968601E+04  0.41800000000E+01 0.  1.
        -11    1    1    2    0    0 -0.82033948434E+02 -0.34542246420E+02 -0.18760809026E+03  0.20765242838E+03  0.00000000000E+00 0.  1.
         11    1    1    2    0    0 -0.12961387550E+03  0.66431102732E+02 -0.32224804594E+03  0.35363349847E+03  0.00000000000E+00 0. -1.
</event>
<event>
 7    1  0.2480409E-009  0.1071029E+03  0.7561462E-02  0.1266031E+00
         -1   -1    0    0    0  501 -0.00000000000E+00  0.00000000000E+00  0.15551951106E+03  0.15551951106E+03  0.00000000000E+00 0.  1.
          1   -1    0    0  501    0  0.00000000000E+00 -0.00000000000E+00 -0.85658820486E+02  0.85658820486E+02  0.00000000000E+00 0. -1.
         25    2    1    2    0    0  0.81863289387E+01 -0.21807911273E+02  0.84134446539E+01  0.12751878064E+03  0.12509057674E+03 0.  0.
          5    1    3    3  502    0  0.41502847494E+02  0.39038394896E+02 -0.24245649474E+01  0.57182458336E+02  0.41800000000E+01 0.  1.
         -5    1    3    3    0  502 -0.33316518556E+02 -0.60846306169E+02  0.10838009601E+02  0.70336322303E+02  0.41800000000E+01 0.  1.
        -11    1    1    2    0    0 -0.44711481546E+02 -0.62246207828E+00  0.54073441028E+02  0.70167236412E+02  0.00000000000E+00 0.  1.
         11    1    1    2    0    0  0.36525152607E+02  0.22430373351E+02  0.73738048926E+01  0.43492314496E+02  0.00000000000E+00 0. -1.
</event>
<event>
 7    1  0.2480409E-009  0.9943435E+02  0.7561462E-02  0.1281490E+00
         -2   -1    0    0    0  501 -0.00000000000E+00  0.00000000000E+00  0.65153604771E+02  0.65153604771E+02  0.00000000000E+00 0. -1.
          2   -1    0    0  501    0  0.00000000000E+00 -0.00000000000E+00 -0.32293355609E+03  0.32293355609E+03  0.00000000000E+00 0.  1.
         25    2    1    2    0    0 -0.41310445286E+02  0.18392626175E+02 -0.25546048225E+03  0.28801467605E+03  0.12509018363E+03 0.  0.
          5    1    3    3  502    0  0.29104973697E+02  0.72259221594E+01 -0.18579507597E+03  0.18824610514E+03  0.41800000000E+01 0.  1.
         -5    1    3    3    0  502 -0.70415418983E+02  0.11166704015E+02 -0.69665406277E+02  0.99768570907E+02  0.41800000000E+01 0.  1.
        -11    1    1    2    0    0  0.68135750989E+02 -0.88875702330E+01 -0.12512057265E+02  0.69842831017E+02  0.00000000000E+00 0.  1.
         11    1    1    2    0    0 -0.26825305703E+02 -0.95050559419E+01  0.10192588195E+02  0.30229653796E+02  0.00000000000E+00 0. -1.
</event>
<event>
 7    1  0.2480409E-009  0.1069813E+03  0.7561462E-02  0.1266264E+00
         -4   -1    0    0    0  501 -0.00000000000E+00  0.00000000000E+00  0.27567557778E+03  0.27567557778E+03  0.00000000000E+00 0.  1.
          4   -1    0    0  501    0  0.00000000000E+00 -0.00000000000E+00 -0.50968117499E+02  0.50968117499E+02  0.00000000000E+00 0. -1.
         25    2    1    2    0    0 -0.25586994601E+02 -0.24453540263E+02  0.93255439447E+02  0.15998808235E+03  0.12508772755E+03 0.  0.
          5    1    3    3  502    0 -0.11886763491E+02  0.43633435606E+02  0.75620676459E+02  0.88210719061E+02  0.41800000000E+01 0. -1.
         -5    1    3    3    0  502 -0.13700231110E+02 -0.68086975870E+02  0.17634762987E+02  0.71777363292E+02  0.41800000000E+01 0. -1.
        -11    1    1    2    0    0 -0.56170100179E+01 -0.33061085182E+02  0.66398848752E+02  0.74386781558E+02  0.00000000000E+00 0.  1.
         11    1    1    2    0    0  0.31204004619E+02  0.57514625445E+02  0.65053172084E+02  0.92268831370E+02  0.00000000000E+00 0. -1.
</event>
<event>
 7    1  0.2480409E-009  0.9409621E+02  0.7561462E-02  0.1293225E+00
          3   -1    0    0  501    0  0.00000000000E+00  0.00000000000E+00  0.58946663764E+03  0.58946663764E+03  0.00000000000E+00 0. -1.
         -3   -1    0    0    0  501 -0.00000000000E+00 -0.00000000000E+00 -0.27018359001E+02  0.27018359001E+02  0.00000000000E+00 0.  1.
         25    2    1    2    0    0  0.41682437937E+02  0.49863740388E+02  0.33081456195E+03  0.35959855088E+03  0.12509606373E+03 0.  0.
          5    1    3    3  502    0  0.59788898205E+02  0.65145515428E+02  0.12957634809E+03  0.15692722171E+03  0.41800000000E+01 0. -1.
         -5    1    3    3    0  502 -0.18106460269E+02 -0.15281775040E+02  0.20123821386E+03  0.20267132917E+03  0.41800000000E+01 0. -1.
        -11    1    1    2    0    0 -0.36510564371E+02 -0.13569916747E+02  0.21150869793E+03  0.21506532322E+03  0.00000000000E+00 0. -1.
         11    1    1    2    0    0 -0.51718735658E+01 -0.36293823641E+02  0.20125018768E+02  0.41821122547E+02  0.00000000000E+00 0.  1.
</event>
<event>
 7    1  0.3303864E-009  0.1288349E+03  0.7561462E-02  0.1229195E+00
         -2   -1    0    0    0  501 -0.00000000000E+00  0.00000000000E+00  0.33407341488E+02  0.33407341488E+02  0.00000000000E+00 0.  1.
          2   -1    0    0  501    0  0.00000000000E+00 -0.00000000000E+00 -0.56908994416E+03  0.56908994416E+03  0.00000000000E+00 0. -1.
         25    2    1    2    0    0  0.74679809264E+02 -0.38932976544E+02 -0.26410725505E+03  0.30412607475E+03  0.12508867492E+03 0.  0.
          5    1    3    3  502    0  0.41927423763E+02  0.43653271879E+02 -0.88804332942E+02  0.10755091333E+03  0.41800000000E+01 0.  1.
         -5    1    3    3    0  502  0.32752385501E+02 -0.82586248423E+02 -0.17530292211E+03  0.19657516142E+03  0.41800000000E+01 0.  1.
        -11    1    1    2    0    0 -0.56917478708E+02 -0.83690891432E+01 -0.70240415213E+02  0.90792934554E+02  0.00000000000E+00 0.  1.
         11    1    1    2    0    0 -0.17762330556E+02  0.47302065687E+02 -0.20133493240E+03  0.20757827634E+03  0.00000000000E+00 0. -1.
</event>
<event>
 7    1  0.2480409E-009  0.1451245E+03  0.7561462E-02  0.1206595E+00
          4   -1    0    0  501    0  0.00000000000E+00  0.00000000000E+00  0.24420847725E+03  0.24420847725E+03  0.00000000000E+00 0. -1.
         -4   -1    0    0    0  501 -0.00000000000E+00 -0.00000000000E+00 -0.11692432645E+03  0.11692432645E+03  0.00000000000E+00 0.  1.
         25    2    1    2    0    0 -0.41800688987E+02 -0.90284092855E+02  0.15163932259E+03  0.22031989583E+03  0.12509139587E+03 0.  0.
          5    1    3    3  502    0 -0.82122144602E+02 -0.39522125704E+02  0.11104689932E+03  0.14371823580E+03  0.41800000000E+01 0. -1.
         -5    1    3    3    0  502  0.40321455615E+02 -0.50761967151E+02  0.40592423276E+02  0.76601660030E+02  0.41800000000E+01 0. -1.
        -11    1    1    2    0    0 -0.21572329871E+02  0.60109997753E+02 -0.29675557187E+02  0.70421700777E+02  0.00000000000E+00 0.  1.
         11    1    1    2    0    0  0.63373018859E+02  0.30174095102E+02  0.53203853956E+01  0.70391207087E+02  0.00000000000E+00 0. -1.
</event>
<event>
 7    1  0.2480409E-009  0.8623079E+02  0.7561462E-02  0.1312245E+00
         -2   -1    0    0    0  501 -0.00000000000E+00  0.00000000000E+00  0.51388541895E+02  0.51388541895E+02  0.00000000000E+00 0. -1.
          2   -1    0    0  501    0  0.00000000000E+00 -0.00000000000E+00 -0.24472751714E+03  0.24472751714E+03  0.00000000000E+00 0.  1.
         25    2    1    2    0    0 -0.26609373899E+02 -0.24765283344E+02 -0.11990020938E+03  0.17704735469E+03  0.12509327542E+03 0.  0.
          5    1    3    3  502    0  0.63960169907E+01  0.44073606074E+02 -0.14873887445E+02  0.47139120839E+02  0.41800000000E+01 0. -1.
         -5    1    3    3    0  502 -0.33005390889E+02 -0.68838889418E+02 -0.10502632193E+03  0.12990823385E+03  0.41800000000E+01 0. -1.
        -11    1    1    2    0    0  0.64792533914E+01  0.29822519895E+02 -0.88375948267E+02  0.93496907165E+02  0.00000000000E+00 0.  1.
         11    1    1    2    0    0  0.20130120507E+02 -0.50572365502E+01  0.14937182397E+02  0.25571797182E+02  0.00000000000E+00 0. -1.
</event>
<event>
 7    1  0.2480409E-009  0.1127638E+03  0.7561462E-02  0.1255536E+00
          2   -1    0    0  501    0  0.00000000000E+00  0.00000000000E+00  0.32379079516E+03  0.32379079516E+03  0.00000000000E+00 0. -1.
         -2   -1    0    0    0  501 -0.00000000000E+00 -0.00000000000E+00 -0.43416953764E+02  0.43416953764E+02  0.00000000000E+00 0.  1.
         25    2    1    2    0    0 -0.43683523472E+02 -0.19762046415E+02  0.16764670163E+03  0.21459781936E+03  0.12509204133E+03 0.  0.
          5    1    3    3  502    0  0.39630196783E+02 -0.36573542862E+01  0.21186803038E+02  0.45280037107E+02  0.41800000000E+01 0.  1.
         -5    1    3    3    0  502 -0.83313720255E+02 -0.16104692129E+02  0.14645989859E+03  0.16931778225E+03  0.41800000000E+01 0.  1.
        -11    1    1    2    0    0 -0.68969931224E+01  0.43947875097E+02  0.34152430770E+02  0.56083622986E+02  0.00000000000E+00 0.  1.
         11    1    1    2    0    0  0.50580516594E+02 -0.24185828682E+02  0.78574708995E+02  0.96526306578E+02  0.00000000000E+00 0. -1.
</event>
<event>
 7    1  0.2480409E-009  0.1136456E+03  0.7561462E-02  0.1253964E+00
         -2   -1    0    0    0  501 -0.00000000000E+00  0.00000000000E+00  0.77233794102E+02  0.77233794102E+02  0.00000000000E+00 0.  1.
          2   -1    0    0  501    0  0.00000000000E+00 -0.00000000000E+00 -0.25704267260E+03  0.25704267260E+03  0.00000000000E+00 0. -1.
         25    2    1    2    0    0 -0.83616102920E+02 -0.36287846221E+01 -0.47245821404E+02  0.15774833087E+03  0.12509015751E+03 0.  0.
          5    1    3    3  502    0 -0.45238353725E+02 -0.37939904947E+02 -0.77786790332E+02  0.97745599315E+02  0.41800000000E+01 0. -1.
         -5    1    3    3    0  502 -0.38377749195E+02  0.34311120325E+02  0.30540968928E+02  0.60002731557E+02  0.41800000000E+01 0. -1.
        -11    1    1    2    0    0  0.75668107477E+02  0.35517048077E+02 -0.91489225810E+02  0.12392498389E+03  0.00000000000E+00 0. -1.
         11    1    1    2    0    0  0.79479954435E+01 -0.31888263455E+02 -0.41073831284E+02  0.52603151941E+02  0.00000000000E+00 0.  1.
</event>
<event>
 7    1  0.2480409E-009  0.1646348E+03  0.7561462E-02  0.1183561E+00
         -2   -1    0    0    0  501 -0.00000000000E+00  0.00000000000E+00  0.49688478181E+02  0.49688478181E+02  0.00000000000E+00 0.  1.
          2   -1    0    0  501    0  0.00000000000E+00 -0.00000000000E+00 -0.56280965299E+03  0.56280965299E+03  0.00000000000E+00 0. -1.
         25    2    1    2    0    0 -0.12548356879E+03  0.46485472897E+01 -0.26415667545E+03  0.31810683089E+03  0.12508185977E+03 0.  0.
          5    1    3    3  502    0 -0.14427467482E+03  0.23367163676E+02 -0.24429623169E+03  0.28470919787E+03  0.41800000000E+01 0.  1.
         -5    1    3    3    0  502  0.18791106026E+02 -0.18718616386E+02 -0.19860443763E+02  0.33397633023E+02  0.41800000000E+01 0.  1.
        -11    1    1    2    0    0  0.12745630508E+02  0.34566002421E+02 -0.46058668903E+02  0.58980171257E+02  0.00000000000E+00 0.  1.
         11    1    1    2    0    0  0.11273793828E+03 -0.39214549711E+02 -0.20290583045E+03  0.23541112902E+03  0.00000000000E+00 0. -1.
</event>
<event>
 7    1  0.2480409E-009  0.1326311E+03  0.7561462E-02  0.1223603E+00
         -2   -1    0    0    0  501 -0.00000000000E+00  0.00000000000E+00  0.11894650199E+03  0.11894650199E+03  0.00000000000E+00 0.  1.
          2   -1    0    0  501    0  0.00000000000E+00 -0.00000000000E+00 -0.18381287189E+03  0.18381287189E+03  0.00000000000E+00 0. -1.
         25    2    1    2    0    0  0.73947534365E+02  0.51203357212E+02 -0.81318982257E+02  0.17421414737E+03  0.12509104940E+03 0.  0.
          5    1    3    3  502    0 -0.35319640677E+02  0.15425659713E+02 -0.16233756068E+02  0.42028980849E+02  0.41800000000E+01 0.  1.
         -5    1    3    3    0  502  0.10926717504E+03  0.35777697499E+02 -0.65085226189E+02  0.13218516652E+03  0.41800000000E+01 0.  1.
        -11    1    1    2    0    0 -0.34213522748E+02  0.12448567513E+02 -0.23699648109E+02  0.43441976157E+02  0.00000000000E+00 0. -1.
         11    1    1    2    0    0 -0.39734011616E+02 -0.63651924725E+02  0.40152260461E+02  0.85103250352E+02  0.00000000000E+00 0.  1.
</event>
<event>
 7    1  0.2480409E-009  0.1333631E+03  0.7561462E-02  0.1222549E+00
          1   -1    0    0  501    0  0.00000000000E+00  0.00000000000E+00  0.81758195304E+03  0.81758195304E+03  0.00000000000E+00 0. -1.
         -1   -1    0    0    0  501 -0.00000000000E+00 -0.00000000000E+00 -0.30149959585E+02  0.30149959585E+02  0.00000000000E+00 0.  1.
         25    2    1    2    0    0  0.96983578847E+02  0.52170291157E+02  0.49416976450E+03  0.52151287604E+03  0.12507745553E+03 0.  0.
          5    1    3    3  502    0  0.52519661683E+02 -0.30172298315E+02  0.10558048310E+03  0.12179241873E+03  0.41800000000E+01 0.  1.
         -5    1    3    3    0  502  0.44463917164E+02  0.82342589471E+02  0.38858928140E+03  0.39972045731E+03  0.41800000000E+01 0.  1.
        -11    1    1    2    0    0 -0.35949473243E+02 -0.75507531173E+01  0.18276732099E+02  0.41029470327E+02  0.00000000000E+00 0.  1.
         11    1    1    2    0    0 -0.61034105604E+02 -0.44619538039E+02  0.27498549686E+03  0.28518956626E+03  0.00000000000E+00 0. -1.
</event>
<event>
 7    1  0.2480409E-009  0.1031007E+03  0.7561462E-02  0.1273908E+00
         -2   -1    0    0    0  501 -0.00000000000E+00  0.00000000000E+00  0.17466778149E+03  0.17466778149E+03  0.00000000000E+00 0.  1.
          2   -1    0    0  501    0  0.00000000000E+00 -0.00000000000E+00 -0.89270616086E+02  0.89270616086E+02  0.00000000000E+00 0. -1.
         25    2    1    2    0    0  0.35665417320E+02  0.33263144083E+02  0.10536987527E+02  0.13467222840E+03  0.12508845769E+03 0.  0.
          5    1    3    3  502    0  0.49069397785E+02  0.59709277784E+02  0.44592943466E+02  0.89325285667E+02  0.41800000000E+01 0. -1.
         -5    1    3    3    0  502 -0.13403980465E+02 -0.26446133702E+02 -0.34055955939E+02  0.45346942730E+02  0.41800000000E+01 0. -1.
        -11    1    1    2    0    0  0.28701125725E+02 -0.91156021833E+01  0.45384750809E+02  0.54466727707E+02  0.00000000000E+00 0.  1.
         11    1    1    2    0    0 -0.64366543045E+02 -0.24147541899E+02  0.29475427063E+02  0.74799441467E+02  0.00000000000E+00 0. -1.
</event>
<event>
 7    1  0.2480409E-009  0.1879271E+03  0.7561462E-02  0.1160344E+00
          3   -1    0    0  501    0  0.00000000000E+00  0.00000000000E+00  0.38175561583E+02  0.38175561583E+02  0.00000000000E+00 0. -1.
         -3   -1    0    0    0  501 -0.00000000000E+00 -0.00000000000E+00 -0.10998364417E+04  0.10998364417E+04  0.00000000000E+00 0.  1.
         25    2    1    2    0    0 -0.89288756380E+02 -0.14547415351E+03 -0.48335112325E+03  0.52764664085E+03  0.12508979937E+03 0.  0.
          5    1    3    3  502    0 -0.42953246179E+02 -0.12844490903E+03 -0.44447986289E+03  0.46467504444E+03  0.41800000000E+01 0.  1.
         -5    1    3    3    0  502 -0.46335510201E+02 -0.17029244475E+02 -0.38871260362E+02  0.62971596415E+02  0.41800000000E+01 0.  1.
        -11    1    1    2    0    0  0.26627342123E+02 -0.56416176694E+01 -0.13773964838E+03  0.14040318349E+03  0.00000000000E+00 0. -1.
         11    1    1    2    0    0  0.62661414257E+02  0.15111577118E+03 -0.44057010847E+03  0.46996217891E+03  0.00000000000E+00 0.  1.
</event>
<event>
 7    1  0.2480409E-009  0.1730427E+03  0.7561462E-02  0.1174711E+00
         -1   -1    0    0    0  501 -0.00000000000E+00  0.00000000000E+00  0.40547372330E+02  0.40547372330E+02  0.00000000000E+00 0.  1.
          1   -1    0    0  501    0  0.00000000000E+00 -0.00000000000E+00 -0.77699266891E+03  0.77699266891E+03  0.00000000000E+00 0. -1.
         25    2    1    2    0    0 -0.79589977336E+02  0.11139430835E+03 -0.31305512770E+03  0.36386074530E+03  0.12509145683E+03 0.  0.
          5    1    3    3  502    0 -0.17970302975E+02  0.11963941820E+03 -0.23135989376E+03  0.26111567363E+03  0.41800000000E+01 0.  1.
         -5    1    3    3    0  502 -0.61619674361E+02 -0.82451098519E+01 -0.81695233939E+02  0.10274507167E+03  0.41800000000E+01 0.  1.
        -11    1    1    2    0    0  0.13608273407E+02  0.14931924702E+02 -0.44504628110E+02  0.48875447861E+02  0.00000000000E+00 0.  1.
         11    1    1    2    0    0  0.65981703929E+02 -0.12632623305E+03 -0.37888554077E+03  0.40480384807E+03  0.00000000000E+00 0. -1.
</event>
<event>
 7    1  0.2480409E-009  0.6421130E+02  0.7561462E-02  0.1380963E+00
          3   -1    0    0  501    0  0.00000000000E+00  0.00000000000E+00  0.70583081742E+02  0.70583081742E+02  0.00000000000E+00 0. -1.
         -3   -1    0    0    0  501 -0.00000000000E+00 -0.00000000000E+00 -0.28454043019E+03  0.28454043019E+03  0.00000000000E+00 0.  1.
         25    2    1    2    0    0  0.57957234012E+02  0.95967517229E+00 -0.12481863784E+03  0.18597587862E+03  0.12508946049E+03 0.  0.
          5    1    3    3  502    0  0.39337681300E+02  0.16826164942E+02  0.13802783711E+02  0.45150440030E+02  0.41800000000E+01 0.  1.
         -5    1    3    3    0  502  0.18619552712E+02 -0.15866489770E+02 -0.13862142155E+03  0.14082543859E+03  0.41800000000E+01 0.  1.
        -11    1    1    2    0    0 -0.23521214347E+02  0.83241581288E+01 -0.11964265287E+03  0.12221662538E+03  0.00000000000E+00 0.  1.
         11    1    1    2    0    0 -0.34436019665E+02 -0.92838333011E+01  0.30503942269E+02  0.46931007928E+02  0.00000000000E+00 0. -1.
</event>
<event>
 7    1  0.2480409E-009  0.9509267E+02  0.7561462E-02  0.1290968E+00
          1   -1    0    0  501    0  0.00000000000E+00  0.00000000000E+00  0.61133107942E+03  0.61133107942E+03  0.00000000000E+00 0. -1.
         -1   -1    0    0    0  501 -0.00000000000E+00 -0.00000000000E+00 -0.36745008701E+02  0.36745008701E+02  0.00000000000E+00 0.  1.
         25    2    1    2    0    0  0.28521479376E+02 -0.36216240371E+02  0.51716346385E+03  0.53406980626E+03  0.12508964293E+03 0.  0.
          5    1    3    3  502    0  0.76104779553E+02 -0.17636041506E+02  0.24719946910E+03  0.25928366195E+03  0.41800000000E+01 0.  1.
         -5    1    3    3    0  502 -0.47583300178E+02 -0.18580198865E+02  0.26996399475E+03  0.27478614431E+03  0.41800000000E+01 0.  1.
        -11    1    1    2    0    0 -0.13655339395E+02  0.42440012182E+02 -0.91488316526E+01  0.45511801202E+02  0.00000000000E+00 0.  1.
         11    1    1    2    0    0 -0.14866139980E+02 -0.62237718109E+01  0.66571438523E+02  0.68494480657E+02  0.00000000000E+00 0. -1.
</event>
<event>
 7    1  0.2480409E-009  0.1459171E+03  0.7561462E-02  0.1205582E+00
          2   -1    0    0  501    0  0.00000000000E+00  0.00000000000E+00  0.11331659279E+04  0.11331659279E+04  0.00000000000E+00 0. -1.
         -2   -1    0    0    0  501 -0.00000000000E+00 -0.00000000000E+00 -0.22044678210E+02  0.22044678210E+02  0.00000000000E+00 0.  1.
         25    2    1    2    0    0 -0.44164859955E+02 -0.10420519018E+03  0.63775430989E+03  0.65968679692E+03  0.12508738440E+03 0.  0.
          5    1    3    3  502    0  0.30174628553E+02 -0.64236461798E+02  0.16850035772E+03  0.18288431913E+03  0.41800000000E+01 0.  1.
         -5    1    3    3    0  502 -0.74339488508E+02 -0.39968728379E+02  0.46925395217E+03  0.47680247779E+03  0.41800000000E+01 0.  1.
        -11    1    1    2    0    0  0.45082482203E+02  0.11597475571E+03  0.46417147050E+03  0.48055980709E+03  0.00000000000E+00 0.  1.
         11    1    1    2    0    0 -0.91762224791E+00 -0.11769565533E+02  0.91954693250E+01  0.14964002123E+02  0.00000000000E+00 0. -1.
</event>
<event>
 7    1  0.2480409E-009  0.1954826E+03  0.7561462E-02  0.1153607E+00
         -2   -1    0    0    0  501 -0.00000000000E+00  0.00000000000E+00  0.27995239720E+02  0.27995239720E+02  0.00000000000E+00 0.  1.
          2   -1    0    0  501    0  0.00000000000E+00 -0.00000000000E+00 -0.17428146142E+04  0.17428146142E+04  0.00000000000E+00 0. -1.
         25    2    1    2    0    0  0.18728313457E+03 -0.25897594515E+02 -0.10447087364E+04  0.10690224266E+04  0.12508775654E+03 0.  0.
          5    1    3    3  502    0  0.17109428980E+03 -0.20664322071E+02 -0.10344594494E+04  0.10487249854E+04  0.41800000000E+01 0.  1.
         -5    1    3    3    0  502  0.16188844778E+02 -0.52332724442E+01 -0.10249287013E+02  0.20297441218E+02  0.41800000000E+01 0.  1.
        -11    1    1    2    0    0 -0.15117025184E+03  0.48132549121E+02 -0.43828662230E+03  0.46611624152E+03  0.00000000000E+00 0.  1.
         11    1    1    2    0    0 -0.36112882735E+02 -0.22234954606E+02 -0.23182401580E+03  0.23567118578E+03  0.00000000000E+00 0. -1.
</event>
<event>
 7    1  0.2480409E-009  0.5636308E+02  0.7561462E-02  0.1413761E+00
          1   -1    0    0  501    0  0.00000000000E+00  0.00000000000E+00  0.60547408809E+03  0.60547408809E+03  0.00000000000E+00 0. -1.
         -1   -1    0    0    0  501 -0.00000000000E+00 -0.00000000000E+00 -0.18215504670E+02  0.18215504670E+02  0.00000000000E+00 0.  1.
         25    2    1    2    0    0 -0.20359289600E+01  0.70139469111E+01  0.38894801330E+03  0.40863315062E+03  0.12508858573E+03 0.  0.
          5    1    3    3  502    0 -0.23721642737E+02 -0.15992791737E+01  0.38356587058E+03  0.38432476306E+03  0.41800000000E+01 0. -1.
         -5    1    3    3    0  502  0.21685713777E+02  0.86132260849E+01  0.53821427202E+01  0.24308387562E+02  0.41800000000E+01 0. -1.
        -11    1    1    2    0    0 -0.88951444544E+01 -0.34327498845E+02  0.37635024724E+02  0.51709726917E+02  0.00000000000E+00 0. -1.
         11    1    1    2    0    0  0.10931073414E+02  0.27313551934E+02  0.16067554540E+03  0.16334671522E+03  0.00000000000E+00 0.  1.
</event>
<event>
 7    1  0.2480409E-009  0.1050922E+03  0.7561462E-02  0.1269938E+00
         -2   -1    0    0    0  501 -0.00000000000E+00  0.00000000000E+00  0.23126344037E+03  0.23126344037E+03  0.00000000000E+00 0. -1.
          2   -1    0    0  501    0  0.00000000000E+00 -0.00000000000E+00 -0.66482403389E+02  0.66482403389E+02  0.00000000000E+00 0.  1.
         25    2    1    2    0    0  0.11045032342E+02 -0.31548626052E+02  0.16133517652E+03  0.20686432127E+03  0.12508596917E+03 0.  0.
          5    1    3    3  502    0  0.33840747727E+02  0.38577942435E+02  0.41646143813E+02  0.66221805651E+02  0.41800000000E+01 0. -1.
         -5    1    3    3    0  502 -0.22795715385E+02 -0.70126568487E+02  0.11968903271E+03  0.14064251562E+03  0.41800000000E+01 0. -1.
        -11    1    1    2    0    0 -0.44562055173E+02  0.12471626176E+02  0.18012371759E+02  0.49656457355E+02  0.00000000000E+00 0. -1.
         11    1    1    2    0    0  0.33517022831E+02  0.19076999877E+02 -0.14566511303E+02  0.41225065134E+02  0.00000000000E+00 0.  1.
</event>
<event>
 7    1  0.2480409E-009  0.9348833E+02  0.7561462E-02  0.1294617E+00
          2   -1    0    0  501    0  0.00000000000E+00  0.00000000000E+00  0.22237503321E+03  0.22237503321E+03  0.00000000000E+00 0. -1.
         -2   -1    0    0    0  501 -0.00000000000E+00 -0.00000000000E+00 -0.67915504216E+02  0.67915504216E+02  0.00000000000E+00 0.  1.
         25    2    1    2    0    0 -0.24017333769E+02 -0.24114458050E+02  0.44146853636E+02  0.13694549160E+03  0.12508710395E+03 0.  0.
          5    1    3    3  502    0 -0.36260912441E+02 -0.46212995155E+02 -0.24420863942E+02  0.63752221043E+02  0.41800000000E+01 0.  1.
         -5    1    3    3    0  502  0.12243578672E+02  0.22098537105E+02  0.68567717579E+02  0.73193270557E+02  0.41800000000E+01 0.  1.
        -11    1    1    2    0    0 -0.31155606109E+01  0.58553735903E+02  0.41821316883E+02  0.72022699560E+02  0.00000000000E+00 0. -1.
         11    1    1    2    0    0  0.27132894380E+02 -0.34439277853E+02  0.68491358473E+02  0.81322346264E+02  0.00000000000E+00 0.  1.
</event>
<event>
 7    1  0.2480409E-009  0.1989727E+03  0.7561462E-02  0.1150609E+00
          2   -1    0    0  501    0  0.00000000000E+00  0.00000000000E+00  0.35634024093E+03  0.35634024093E+03  0.00000000000E+00 0.  1.
         -2   -1    0    0    0  501 -0.00000000000E+00 -0.00000000000E+00 -0.16825321101E+03  0.16825321101E+03  0.00000000000E+00 0. -1.
         25    2    1    2    0    0  0.87649461486E+02 -0.16266898218E+03  0.22306611124E+03  0.31551450787E+03  0.12508912355E+03 0.  0.
          5    1    3    3  502    0 -0.67263822380E+01 -0.38353291872E+02  0.12534098011E+03  0.13131661323E+03  0.41800000000E+01 0. -1.
         -5    1    3    3    0  502  0.94375843724E+02 -0.12431569031E+03  0.97725131132E+02  0.18419789464E+03  0.41800000000E+01 0. -1.
        -11    1    1    2    0    0  0.73791675998E+01  0.68381753226E+02  0.61042063811E+01  0.69049095753E+02  0.00000000000E+00 0.  1.
         11    1    1    2    0    0 -0.95028629086E+02  0.94287228956E+02 -0.41083287707E+02  0.14002984831E+03  0.00000000000E+00 0. -1.
</event>
<event>
 7    1  0.2480409E-009  0.8844629E+02  0.7561462E-02  0.1306658E+00
          1   -1    0    0  501    0  0.00000000000E+00  0.00000000000E+00  0.43160746634E+02  0.43160746634E+02  0.00000000000E+00 0. -1.
         -1   -1    0    0    0  501 -0.00000000000E+00 -0.00000000000E+00 -0.35075791317E+03  0.35075791317E+03  0.00000000000E+00 0.  1.
         25    2    1    2    0    0 -0.13701797795E+02 -0.54080894339E+02 -0.15861939944E+03  0.20957206457E+03  0.12509138249E+03 0.  0.
          5    1    3    3  502    0  0.32440608648E+02  0.11974099758E+02 -0.38621861273E+01  0.35045128565E+02  0.41800000000E+01 0.  1.
         -5    1    3    3    0  502 -0.46142406444E+02 -0.66054994097E+02 -0.15475721331E+03  0.17452693600E+03  0.41800000000E+01 0.  1.
        -11    1    1    2    0    0 -0.34057460991E+01  0.37157945456E+02 -0.15509273832E+03  0.15951824189E+03  0.00000000000E+00 0.  1.
         11    1    1    2    0    0  0.17107543894E+02  0.16922948883E+02  0.61149712204E+01  0.24828353349E+02  0.00000000000E+00 0. -1.
</event>
<event>
 7    1  0.2480409E-009  0.1626505E+03  0.7561462E-02  0.1185736E+00
         -2   -1    0    0    0  501 -0.00000000000E+00  0.00000000000E+00  0.10802383724E+03  0.10802383724E+03  0.00000000000E+00 0.  1.
          2   -1    0    0  501    0  0.00000000000E+00 -0.00000000000E+00 -0.35139863150E+03  0.35139863150E+03  0.00000000000E+00 0. -1.
         25    2    1    2    0    0 -0.12521067057E+03 -0.33422305738E+02 -0.24148298975E+03  0.30125846200E+03  0.12509142274E+03 0.  0.
          5    1    3    3  502    0 -0.99682062793E+02  0.33835620619E+02 -0.16828658490E+03  0.19854271561E+03  0.41800000000E+01 0.  1.
         -5    1    3    3    0  502 -0.25528607774E+02 -0.67257926357E+02 -0.73196404845E+02  0.10271574638E+03  0.41800000000E+01 0.  1.
        -11    1    1    2    0    0  0.36336045527E+02  0.45465863771E+02  0.26694365658E+02  0.64031571361E+02  0.00000000000E+00 0.  1.
         11    1    1    2    0    0  0.88874625039E+02 -0.12043558033E+02 -0.28586170177E+02  0.94132435384E+02  0.00000000000E+00 0. -1.
</event>
<event>
 7    1  0.2480409E-009  0.1083878E+03  0.7561462E-02  0.1263585E+00
          1   -1    0    0  501    0  0.00000000000E+00  0.00000000000E+00  0.36414255443E+03  0.36414255443E+03  0.00000000000E+00 0. -1.
         -1   -1    0    0    0  501 -0.00000000000E+00 -0.00000000000E+00 -0.36670451301E+02  0.36670451301E+02  0.00000000000E+00 0.  1.
         25    2    1    2    0    0 -0.22297634107E+02  0.26763171047E+02  0.22530285818E+03  0.26004253531E+03  0.12508913005E+03 0.  0.
          5    1    3    3  502    0 -0.42087001663E+02  0.68067529050E+02  0.17124240203E+03  0.18906595905E+03  0.41800000000E+01 0. -1.
         -5    1    3    3    0  502  0.19789367556E+02 -0.41304358003E+02  0.54060456153E+02  0.70976576261E+02  0.41800000000E+01 0. -1.
        -11    1    1    2    0    0  0.54446175265E+02 -0.16093175333E+02  0.38332955980E+02  0.68503954685E+02  0.00000000000E+00 0.  1.
         11    1    1    2    0    0 -0.32148541158E+02 -0.10669995714E+02  0.63836288973E+02  0.72266515738E+02  0.00000000000E+00 0. -1.
</event>
<event>
 7    1  0.2480409E-009  0.1398029E+03  0.7561462E-02  0.1213594E+00
          2   -1    0    0  501    0  0.00000000000E+00  0.00000000000E+00  0.14911887492E+04  0.14911887492E+04  0.00000000000E+00 0.  1.
         -2   -1    0    0    0  501 -0.00000000000E+00 -0.00000000000E+00 -0.15122123708E+02  0.15122123708E+02  0.00000000000E+00 0. -1.
         25    2    1    2    0    0 -0.85135600950E+02 -0.23915316094E+02  0.99163771767E+03  0.10034005141E+04  0.12508883108E+03 0.  0.
          5    1    3    3  502    0  0.19427857587E+02  0.29544307545E+02  0.24392663971E+03  0.24651163404E+03  0.41800000000E+01 0.  1.
         -5    1    3    3    0  502 -0.10456345854E+03 -0.53459623639E+02  0.74771107796E+03  0.75688888004E+03  0.41800000000E+01 0.  1.
        -11    1    1    2    0    0  0.37989789174E+02 -0.34571710555E+02  0.28921097089E+03  0.29373697918E+03  0.00000000000E+00 0.  1.
         11    1    1    2    0    0  0.47145811776E+02  0.58487026649E+02  0.19521793693E+03  0.20917337965E+03  0.00000000000E+00 0. -1.
</event>
<event>
 7    1  0.2480409E-009  0.9409595E+02  0.7561462E-02  0.1293225E+00
         -1   -1    0    0    0  501 -0.00000000000E+00  0.00000000000E+00  0.42746426153E+03  0.42746426153E+03  0.00000000000E+00 0.  1.
          1   -1    0    0  501    0  0.00000000000E+00 -0.00000000000E+00 -0.39713313239E+02  0.39713313239E+02  0.00000000000E+00 0. -1.
         25    2    1    2    0    0  0.28010144648E+02 -0.41393686709E+02  0.31189644047E+03  0.33974313662E+03  0.12509198135E+03 0.  0.
          5    1    3    3  502    0  0.24543585640E+02  0.39581884054E+02  0.66653116444E+02  0.81420043435E+02  0.41800000000E+01 0.  1.
         -5    1    3    3    0  502  0.34665590082E+01 -0.80975570763E+02  0.24524332403E+03  0.25832309318E+03  0.41800000000E+01 0.  1.
        -11    1    1    2    0    0 -0.23742125805E+02  0.58204649612E+01  0.86636301906E+02  0.90018971101E+02  0.00000000000E+00 0.  1.
         11    1    1    2    0    0 -0.42680188431E+01  0.35573221747E+02 -0.10781794092E+02  0.37415467045E+02  0.00000000000E+00 0. -1.
</event>
<event>
 7    1  0.2480409E-009  0.1173957E+03  0.7561462E-02  0.1247456E+00
          4   -1    0    0  501    0  0.00000000000E+00  0.00000000000E+00  0.24518932684E+03  0.24518932684E+03  0.00000000000E+00 0. -1.
         -4   -1    0    0    0  501 -0.00000000000E+00 -0.00000000000E+00 -0.71105317196E+02  0.71105317196E+02  0.00000000000E+00 0.  1.
         25    2    1    2    0    0  0.72798157176E+02  0.17585109241E+02  0.85083770774E+02  0.16881024047E+03  0.12509532958E+03 0.  0.
          5    1    3    3  502    0  0.53266329244E+02  0.69444598547E+02  0.67225693029E+02  0.11043830994E+03  0.41800000000E+01 0. -1.
         -5    1    3    3    0  502  0.19531827931E+02 -0.51859489306E+02  0.17858077744E+02  0.58371930533E+02  0.41800000000E+01 0. -1.
        -11    1    1    2    0    0 -0.41320267948E+02 -0.36279867192E+02  0.42341324389E+01  0.55149988071E+02  0.00000000000E+00 0.  1.
         11    1    1    2    0    0 -0.31477889228E+02  0.18694757951E+02  0.84766106436E+02  0.92334415498E+02  0.00000000000E+00 0. -1.
</event>
<event>
 7    1  0.2480409E-009  0.9679255E+02  0.7561462E-02  0.1287189E+00
          2   -1    0    0  501    0  0.00000000000E+00  0.00000000000E+00  0.44568633023E+03  0.44568633023E+03  0.00000000000E+00 0. -1.
         -2   -1    0    0    0  501 -0.00000000000E+00 -0.00000000000E+00 -0.32777691575E+02  0.32777691575E+02  0.00000000000E+00 0.  1.
         25    2    1    2    0    0  0.36814426025E+02 -0.10869593614E+02  0.16265046395E+03  0.20874984514E+03  0.12509146411E+03 0.  0.
          5    1    3    3  502    0 -0.25969654673E+02 -0.20300639037E+02  0.13560156074E+03  0.13961301724E+03  0.41800000000E+01 0.  1.
         -5    1    3    3    0  502  0.62784080698E+02  0.94310454230E+01  0.27048903217E+02  0.69136827900E+02  0.41800000000E+01 0.  1.
        -11    1    1    2    0    0  0.61022559355E+01 -0.34058353977E+02  0.56652223840E+02  0.66382855235E+02  0.00000000000E+00 0.  1.
         11    1    1    2    0    0 -0.42916681961E+02  0.44927947591E+02  0.19360595086E+03  0.20333132143E+03  0.00000000000E+00 0. -1.
</event>
<event>
 7    1  0.2480409E-009  0.9682391E+02  0.7561462E-02  0.1287120E+00
          1   -1    0    0  501    0  0.00000000000E+00  0.00000000000E+00  0.12557065934E+03  0.12557065934E+03  0.00000000000E+00 0. -1.
         -1   -1    0    0    0  501 -0.00000000000E+00 -0.00000000000E+00 -0.13337633718E+03  0.13337633718E+03  0.00000000000E+00 0.  1.
         25    2    1    2    0    0 -0.10036268548E+02  0.32751556469E+02  0.58591166061E+02  0.14231494408E+03  0.12508887813E+03 0.  0.
          5    1    3    3  502    0 -0.55839428787E+02  0.12161023142E+01  0.65432892678E+02  0.86130462418E+02  0.41800000000E+01 0. -1.
         -5    1    3    3    0  502  0.45803160239E+02  0.31535454155E+02 -0.68417266171E+01  0.56184481663E+02  0.41800000000E+01 0. -1.
        -11    1    1    2    0    0 -0.15179671607E+02 -0.49384636151E+02 -0.69127658770E+02  0.86301204655E+02  0.00000000000E+00 0.  1.
         11    1    1    2    0    0  0.25215940155E+02  0.16633079682E+02  0.27308148654E+01  0.30330847786E+02  0.00000000000E+00 0. -1.
</event>
<event>
 7    1  0.2480409E-009  0.1135452E+03  0.7561462E-02  0.1254142E+00
          1   -1    0    0  501    0  0.00000000000E+00  0.00000000000E+00  0.53425597279E+02  0.53425597279E+02  0.00000000000E+00 0. -1.
         -1   -1    0    0    0  501 -0.00000000000E+00 -0.00000000000E+00 -0.33783452412E+03  0.33783452412E+03  0.00000000000E+00 0.  1.
         25    2    1    2    0    0  0.38848198875E+02  0.46374926537E+02 -0.23233299036E+03  0.27071492006E+03  0.12509249843E+03 0.  0.
          5    1    3    3  502    0 -0.39733799559E+02 -0.12559321651E+01 -0.35549963255E+02  0.53494153703E+02  0.41800000000E+01 0. -1.
         -5    1    3    3    0  502  0.78581998434E+02  0.47630858702E+02 -0.19678302711E+03  0.21722076635E+03  0.41800000000E+01 0. -1.
        -11    1    1    2    0    0  0.20817572423E+02 -0.22825166805E+01 -0.40313509619E+02  0.45428628218E+02  0.00000000000E+00 0.  1.
         11    1    1    2    0    0 -0.59665771298E+02 -0.44092409857E+02 -0.11762426858E+02  0.75116573119E+02  0.00000000000E+00 0. -1.
</event>
<event>
 7    1  0.2480409E-009  0.9984707E+02  0.7561462E-02  0.1280618E+00
          1   -1    0    0  501    0  0.00000000000E+00  0.00000000000E+00  0.34434917204E+03  0.34434917204E+03  0.00000000000E+00 0. -1.
         -1   -1    0    0    0  501 -0.00000000000E+00 -0.00000000000E+00 -0.53152885800E+02  0.53152885800E+02  0.00000000000E+00 0.  1.
         25    2    1    2    0    0 -0.73463801342E+02 -0.18998147275E+02  0.20145058478E+03  0.24897328869E+03  0.12508997029E+03 0.  0.
          5    1    3    3  502    0  0.30790759998E+00  0.11797755582E+02  0.15682529728E+03  0.15732427693E+03  0.41800000000E+01 0.  1.
         -5    1    3    3    0  502 -0.73771708942E+02 -0.30795902857E+02  0.44625287498E+02  0.91649011764E+02  0.41800000000E+01 0.  1.
        -11    1    1    2    0    0  0.39280487838E+02 -0.28552085245E+02  0.99836596267E+01  0.49576725953E+02  0.00000000000E+00 0.  1.
         11    1    1    2    0    0  0.34183313504E+02  0.47550232521E+02  0.79762041834E+02  0.98952043195E+02  0.00000000000E+00 0. -1.
</event>
<event>
 7    1  0.2584445E-009  0.9604028E+02  0.7561462E-02  0.1288850E+00
         -1   -1    0    0    0  501 -0.00000000000E+00  0.00000000000E+00  0.16107479447E+03  0.16107479447E+03  0.00000000000E+00 0.  1.
          1   -1    0    0  501    0  0.00000000000E+00 -0.00000000000E+00 -0.13099148964E+03  0.13099148964E+03  0.00000000000E+00 0. -1.
         25    2    1    2    0    0  0.71884912111E+02 -0.56203675023E+02 -0.14521186363E+02  0.15551399163E+03  0.12508974004E+03 0.  0.
          5    1    3    3  502    0  0.38208472049E+02 -0.32142397207E+02 -0.70053924224E+02  0.86128077500E+02  0.41800000000E+01 0.  1.
         -5    1    3    3    0  502  0.33676440061E+02 -0.24061277816E+02  0.55532737861E+02  0.69385914130E+02  0.41800000000E+01 0.  1.
        -11    1    1    2    0    0 -0.60406892757E+00  0.20761454958E+02  0.52593693703E+02  0.56546436922E+02  0.00000000000E+00 0.  1.
         11    1    1    2    0    0 -0.71280843183E+02  0.35442220065E+02 -0.79892025123E+01  0.80005855566E+02  0.00000000000E+00 0. -1.
</event>
<event>
 7    1  0.2480409E-009  0.1074240E+03  0.7561462E-02  0.1265416E+00
         -2   -1    0    0    0  501 -0.00000000000E+00  0.00000000000E+00  0.25712354355E+03  0.25712354355E+03  0.00000000000E+00 0.  1.
          2   -1    0    0  501    0  0.00000000000E+00 -0.00000000000E+00 -0.64397190435E+02  0.64397190435E+02  0.00000000000E+00 0. -1.
         25    2    1    2    0    0  0.59082376827E+02 -0.11345090019E+02  0.71571969677E+02  0.15616748524E+03  0.12508516412E+03 0.  0.
          5    1    3    3  502    0 -0.92789964429E+01  0.43555292266E+02  0.30873349530E+01  0.44834889277E+02  0.41800000000E+01 0. -1.
         -5    1    3    3    0  502  0.68361373270E+02 -0.54900382285E+02  0.68484634724E+02  0.11133259596E+03  0.41800000000E+01 0. -1.
        -11    1    1    2    0    0  0.59140344404E+01  0.16120375154E+02 -0.92984954576E+01  0.19527015037E+02  0.00000000000E+00 0. -1.
         11    1    1    2    0    0 -0.64996411267E+02 -0.47752851343E+01  0.13045287890E+03  0.14582623371E+03  0.00000000000E+00 0.  1.
</event>
<event>
 7    1  0.2480409E-009  0.8481206E+02  0.7561462E-02  0.1315925E+00
         -1   -1    0    0    0  501 -0.00000000000E+00  0.00000000000E+00  0.76409997521E+02  0.76409997521E+02  0.00000000000E+00 0.  1.
          1   -1    0    0  501    0  0.00000000000E+00 -0.00000000000E+00 -0.24296272259E+03  0.24296272259E+03  0.00000000000E+00 0. -1.
         25    2    1    2    0    0 -0.30403557677E+02  0.70776692874E+01  0.14994529722E+01  0.12893744674E+03  0.12509255410E+03 0.  0.
          5    1    3    3  502    0 -0.51680244415E+02  0.43349925572E+02  0.33973310151E+02  0.75642064439E+02  0.41800000000E+01 0. -1.
         -5    1    3    3    0  502  0.21276686738E+02 -0.36272256285E+02 -0.32473857179E+02  0.53295382301E+02  0.41800000000E+01 0. -1.
        -11    1    1    2    0    0  0.20571183102E+02  0.21382057670E+02 -0.15466106770E+03  0.15748146502E+03  0.00000000000E+00 0. -1.
         11    1    1    2    0    0  0.98323745752E+01 -0.28459726958E+02 -0.13391110341E+02  0.32953808345E+02  0.00000000000E+00 0.  1.
</event>
<event>
 7    1  0.2480409E-009  0.1050542E+03  0.7561462E-02  0.1270013E+00
         -1   -1    0    0    0  501 -0.00000000000E+00  0.00000000000E+00  0.34312373292E+02  0.34312373292E+02  0.00000000000E+00 0.  1.
          1   -1    0    0  501    0  0.00000000000E+00 -0.00000000000E+00 -0.37009563197E+03  0.37009563197E+03  0.00000000000E+00 0. -1.
         25    2    1    2    0    0  0.28886634896E+02 -0.23913369294E+02 -0.16296874025E+03  0.20883535235E+03  0.12508839748E+03 0.  0.
          5    1    3    3  502    0  0.78204480806E+02 -0.86776072452E+01 -0.99368305320E+02  0.12681787803E+03  0.41800000000E+01 0. -1.
         -5    1    3    3    0  502 -0.49317845909E+02 -0.15235762049E+02 -0.63600434934E+02  0.82017474322E+02  0.41800000000E+01 0. -1.
        -11    1    1    2    0    0 -0.45304914873E+02 -0.57041672558E+01 -0.14413831282E+03  0.15119830044E+03  0.00000000000E+00 0. -1.
         11    1    1    2    0    0  0.16418279976E+02  0.29617536550E+02 -0.28676205605E+02  0.44374352464E+02  0.00000000000E+00 0.  1.
</event>
<event>
 7    1  0.2480409E-009  0.1088181E+03  0.7561462E-02  0.1262774E+00
          1   -1    0    0  501    0  0.00000000000E+00  0.00000000000E+00  0.12667207032E+03  0.12667207032E+03  0.00000000000E+00 0. -1.
         -1   -1    0    0    0  501 -0.00000000000E+00 -0.00000000000E+00 -0.16458399048E+03  0.16458399048E+03  0.00000000000E+00 0.  1.
         25    2    1    2    0    0  0.27058077165E+02  0.83037439073E+02 -0.58426441021E+02  0.16336748267E+03  0.12509168460E+03 0.  0.
          5    1    3    3  502    0 -0.30051629463E+01  0.47963595692E+02  0.34636475146E+02  0.59385985944E+02  0.41800000000E+01 0. -1.
         -5    1    3    3    0  502  0.30063240112E+02  0.35073843381E+02 -0.93062916167E+02  0.10398149672E+03  0.41800000000E+01 0. -1.
        -11    1    1    2    0    0  0.13894754452E+02 -0.80814518981E+02 -0.68356402117E-01  0.82000337512E+02  0.00000000000E+00 0.  1.
         11    1    1    2    0    0 -0.40952831618E+02 -0.22229200925E+01  0.20582877255E+02  0.45888240622E+02  0.00000000000E+00 0. -1.
</event>
<event>
 7    1  0.2763523E-009  0.1466999E+03  0.7561462E-02  0.1204588E+00
         -1   -1    0    0    0  501 -0.00000000000E+00  0.00000000000E+00  0.48555318677E+02  0.48555318677E+02  0.00000000000E+00 0.  1.
          1   -1    0    0  501    0  0.00000000000E+00 -0.00000000000E+00 -0.52035058565E+03  0.52035058565E+03  0.00000000000E+00 0. -1.
         25    2    1    2    0    0 -0.92939405164E+02 -0.49326361163E+02 -0.16639167402E+03  0.23324694115E+03  0.12508846244E+03 0.  0.
          5    1    3    3  502    0 -0.15066918841E+02 -0.75628390891E+02 -0.55275537622E+02  0.94971169370E+02  0.41800000000E+01 0.  1.
         -5    1    3    3    0  502 -0.77872486323E+02  0.26302029728E+02 -0.11111613640E+03  0.13827577178E+03  0.41800000000E+01 0.  1.
        -11    1    1    2    0    0  0.67821885806E+02  0.72796878966E+02 -0.26223234420E+03  0.28047280817E+03  0.00000000000E+00 0. -1.
         11    1    1    2    0    0  0.25117519358E+02 -0.23470517803E+02 -0.43171248758E+02  0.55186155002E+02  0.00000000000E+00 0.  1.
</event>
<event>
 7    1  0.2480409E-009  0.1132128E+03  0.7561462E-02  0.1254733E+00
          2   -1    0    0  501    0  0.00000000000E+00  0.00000000000E+00  0.26343873080E+03  0.26343873080E+03  0.00000000000E+00 0. -1.
         -2   -1    0    0    0  501 -0.00000000000E+00 -0.00000000000E+00 -0.50404251830E+02  0.50404251830E+02  0.00000000000E+00 0.  1.
         25    2    1    2    0    0  0.94939363814E+01 -0.31118340340E+02  0.12612953026E+03  0.18059400491E+03  0.12508816999E+03 0.  0.
          5    1    3    3  502    0  0.64191571471E+02 -0.44207331288E+01  0.43089729567E+02  0.77551904706E+02  0.41800000000E+01 0. -1.
         -5    1    3    3    0  502 -0.54697635089E+02 -0.26697607211E+02  0.83039800691E+02  0.10304210020E+03  0.41800000000E+01 0. -1.
        -11    1    1    2    0    0 -0.50295675748E+02  0.32894153097E+02  0.49272177436E+02  0.77713755386E+02  0.00000000000E+00 0.  1.
         11    1    1    2    0    0  0.40801739366E+02 -0.17758127572E+01  0.37632771279E+02  0.55535222341E+02  0.00000000000E+00 0. -1.
</event>
<event>
 7    1  0.2480409E-009  0.1344721E+03  0.7561462E-02  0.1220967E+00
          2   -1    0    0  501    0  0.00000000000E+00  0.00000000000E+00  0.88661191739E+03  0.88661191739E+03  0.00000000000E+00 0. -1.
         -2   -1    0    0    0  501 -0.00000000000E+00 -0.00000000000E+00 -0.24941096307E+02  0.24941096307E+02  0.00000000000E+00 0.  1.
         25    2    1    2    0    0  0.99347106877E+02 -0.75541025051E+00  0.54445284850E+03  0.56740354730E+03  0.12508981955E+03 0.  0.
          5    1    3    3  502    0  0.12340036775E+03  0.79950309382E+01  0.34994951488E+03  0.37117880683E+03  0.41800000000E+01 0.  1.
         -5    1    3    3    0  502 -0.24053260868E+02 -0.87504411887E+01  0.19450333362E+03  0.19622474046E+03  0.41800000000E+01 0.  1.
        -11    1    1    2    0    0  0.86783182813E+01 -0.67497306511E+01  0.24332446889E+01  0.11260228762E+02  0.00000000000E+00 0.  1.
         11    1    1    2    0    0 -0.10802542516E+03  0.75051409016E+01  0.31478472789E+03  0.33288923763E+03  0.00000000000E+00 0. -1.
</event>
<event>
 7    1  0.2480409E-009  0.1861507E+03  0.7561462E-02  0.1161980E+00
          1   -1    0    0  501    0  0.00000000000E+00  0.00000000000E+00  0.88057066875E+03  0.88057066875E+03  0.00000000000E+00 0. -1.
         -1   -1    0    0    0  501 -0.00000000000E+00 -0.00000000000E+00 -0.44126955923E+02  0.44126955923E+02  0.00000000000E+00 0.  1.
         25    2    1    2    0    0  0.10524346225E+03  0.12515677461E+03  0.43094321546E+03  0.47759844720E+03  0.12509123566E+03 0.  0.
          5    1    3    3  502    0  0.11995199440E+03  0.10455059915E+03  0.26084979110E+03  0.30558042257E+03  0.41800000000E+01 0. -1.
         -5    1    3    3    0  502 -0.14708532151E+02  0.20606175463E+02  0.17009342436E+03  0.17201802463E+03  0.41800000000E+01 0. -1.
        -11    1    1    2    0    0 -0.37221664938E+02 -0.11221130482E+03  0.23462955139E+03  0.26273152771E+03  0.00000000000E+00 0.  1.
         11    1    1    2    0    0 -0.68021797316E+02 -0.12945469785E+02  0.17087094598E+03  0.18436764976E+03  0.00000000000E+00 0. -1.
</event>
<event>
 7    1  0.2480409E-009  0.1114563E+03  0.7561462E-02  0.1257897E+00
         -4   -1    0    0    0  501 -0.00000000000E+00  0.00000000000E+00  0.40702903428E+02  0.40702903428E+02  0.00000000000E+00 0.  1.
          4   -1    0    0  501    0  0.00000000000E+00 -0.00000000000E+00 -0.43213787828E+03  0.43213787828E+03  0.00000000000E+00 0. -1.
         25    2    1    2    0    0  0.41968084800E+02  0.62604587450E+02 -0.19711843241E+03  0.24532776085E+03  0.12509747933E+03 0.  0.
          5    1    3    3  502    0 -0.20613955588E+02  0.87440029724E+01 -0.14677504837E+03  0.14853208400E+03  0.41800000000E+01 0.  1.
         -5    1    3    3    0  502  0.62582040388E+02  0.53860584477E+02 -0.50343384032E+02  0.96795676842E+02  0.41800000000E+01 0.  1.
        -11    1    1    2    0    0  0.22032362799E+02 -0.46513813236E+02 -0.99026061119E+02  0.11160251168E+03  0.00000000000E+00 0. -1.
         11    1    1    2    0    0 -0.64000447600E+02 -0.16090774214E+02 -0.95290481323E+02  0.11591050918E+03  0.00000000000E+00 0.  1.
</event>
<event>
 7    1  0.2480409E-009  0.1087049E+03  0.7561462E-02  0.1262987E+00
         -1   -1    0    0    0  501 -0.00000000000E+00  0.00000000000E+00  0.13712658981E+03  0.13712658981E+03  0.00000000000E+00 0.  1.
          1   -1    0    0  501    0  0.00000000000E+00 -0.00000000000E+00 -0.91484706547E+02  0.91484706547E+02  0.00000000000E+00 0. -1.
         25    2    1    2    0    0  0.22975469386E+02 -0.13299293825E+02  0.43344741946E+02  0.13502199543E+03  0.12508968457E+03 0.  0.
          5    1    3    3  502    0 -0.51131670034E+02  0.27248521445E+01  0.23755748456E+02  0.56601064340E+02  0.41800000000E+01 0.  1.
         -5    1    3    3    0  502  0.74107139420E+02 -0.16024145970E+02  0.19588993489E+02  0.78420931090E+02  0.41800000000E+01 0.  1.
        -11    1    1    2    0    0 -0.68729123623E+01 -0.36820937332E+02  0.13411315424E+02  0.39785446231E+02  0.00000000000E+00 0.  1.
         11    1    1    2    0    0 -0.16102557024E+02  0.50120231158E+02 -0.11114174107E+02  0.53803854696E+02  0.00000000000E+00 0. -1.
</event>
<event>
 7    1  0.2480409E-009  0.7759392E+02  0.7561462E-02  0.1336022E+00
          2   -1    0    0  501    0  0.00000000000E+00  0.00000000000E+00  0.16794402658E+03  0.16794402658E+03  0.00000000000E+00 0. -1.
         -2   -1    0    0    0  501 -0.00000000000E+00 -0.00000000000E+00 -0.74448503921E+02  0.74448503921E+02  0.00000000000E+00 0.  1.
         25    2    1    2    0    0 -0.65461972797E+01  0.62152695182E+01  0.83534204009E+02  0.15068983969E+03  0.12509189531E+03 0.  0.
          5    1    3    3  502    0 -0.39268616915E+02 -0.40098150925E+02  0.90810680767E+01  0.57007229186E+02  0.41800000000E+01 0.  1.
         -5    1    3    3    0  502  0.32722419635E+02  0.46313420443E+02  0.74453135932E+02  0.93682610500E+02  0.41800000000E+01 0.  1.
        -11    1    1    2    0    0  0.14637441116E+02  0.14011407920E+02 -0.35734548499E+02  0.41079583625E+02  0.00000000000E+00 0.  1.
         11    1    1    2    0    0 -0.80912438365E+01 -0.20226677438E+02  0.45695867146E+02  0.50623107186E+02  0.00000000000E+00 0. -1.
</event>
<event>
 7    1  0.2480409E-009  0.2810887E+03  0.7561462E-02  0.1095096E+00
          2   -1    0    0  501    0  0.00000000000E+00  0.00000000000E+00  0.13800526009E+04  0.13800526009E+04  0.00000000000E+00 0. -1.
         -2   -1    0    0    0  501 -0.00000000000E+00 -0.00000000000E+00 -0.60017250420E+02  0.60017250420E+02  0.00000000000E+00 0.  1.
         25    2    1    2    0    0 -0.22050506577E+03 -0.14601411406E+03  0.67769019591E+03  0.73814219892E+03  0.12508916281E+03 0.  0.
          5    1    3    3  502    0 -0.21472140479E+01 -0.49269270168E+02  0.17014375599E+03  0.17719605417E+03  0.41800000000E+01 0.  1.
         -5    1    3    3    0  502 -0.21835785173E+03 -0.96744843892E+02  0.50754643992E+03  0.56094614475E+03  0.41800000000E+01 0.  1.
        -11    1    1    2    0    0  0.21936324343E+02  0.47141270733E+02  0.63730648903E+02  0.82250211802E+02  0.00000000000E+00 0.  1.
         11    1    1    2    0    0  0.19856874143E+03  0.98872843327E+02  0.57861450567E+03  0.61967744060E+03  0.00000000000E+00 0. -1.
</event>
<event>
 7    1  0.2480409E-009  0.1323434E+03  0.7561462E-02  0.1224019E+00
         -2   -1    0    0    0  501 -0.00000000000E+00  0.00000000000E+00  0.13229575188E+03  0.13229575188E+03  0.00000000000E+00 0.  1.
          2   -1    0    0  501    0  0.00000000000E+00 -0.00000000000E+00 -0.13902028664E+03  0.13902028664E+03  0.00000000000E+00 0. -1.
         25    2    1    2    0    0  0.25453389945E+02  0.74382467925E+02  0.15489907102E+02  0.14855395483E+03  0.12509082172E+03 0.  0.
          5    1    3    3  502    0  0.71058837252E+02  0.67375167262E+02  0.25240703125E+02  0.10120937214E+03  0.41800000000E+01 0. -1.
         -5    1    3    3    0  502 -0.45605447307E+02  0.70073006636E+01 -0.97507960226E+01  0.47344582686E+02  0.41800000000E+01 0. -1.
        -11    1    1    2    0    0 -0.51324006907E+02 -0.11851611800E+02 -0.14620950350E+02  0.54666137383E+02  0.00000000000E+00 0.  1.
         11    1    1    2    0    0  0.25870616962E+02 -0.62530856125E+02 -0.75934915084E+01  0.68095946304E+02  0.00000000000E+00 0. -1.
</event>
<event>
 7    1  0.2480409E-009  0.9700226E+02  0.7561462E-02  0.1286729E+00
         -2   -1    0    0    0  501 -0.00000000000E+00  0.00000000000E+00  0.14319553147E+02  0.14319553147E+02  0.00000000000E+00 0.  1.
          2   -1    0    0  501    0  0.00000000000E+00 -0.00000000000E+00 -0.10576827958E+04  0.10576827958E+04  0.00000000000E+00 0. -1.
         25    2    1    2    0    0  0.21248469343E+02  0.13094661240E+02 -0.77398680379E+03  0.78442680137E+03  0.12508743605E+03 0.  0.
          5    1    3    3  502    0 -0.44164697183E+02 -0.20546487692E+02 -0.42127832758E+03  0.42410562402E+03  0.41800000000E+01 0.  1.
         -5    1    3    3    0  502  0.65413166526E+02  0.33641148931E+02 -0.35270847621E+03  0.36032117735E+03  0.41800000000E+01 0.  1.
        -11    1    1    2    0    0 -0.44160441490E+02 -0.18532300754E+02 -0.25610604523E+03  0.26054538409E+03  0.00000000000E+00 0. -1.
         11    1    1    2    0    0  0.22911972148E+02  0.54376395145E+01 -0.13270393620E+02  0.27030163485E+02  0.00000000000E+00 0.  1.
</event>
<event>
 7    1  0.2480409E-009  0.1192131E+03  0.7561462E-02  0.1244401E+00
          1   -1    0    0  501    0  0.00000000000E+00  0.00000000000E+00  0.63385212476E+03  0.63385212476E+03  0.00000000000E+00 0. -1.
         -1   -1    0    0    0  501 -0.00000000000E+00 -0.00000000000E+00 -0.30988721734E+02  0.30988721734E+02  0.00000000000E+00 0.  1.
         25    2    1    2    0    0  0.76980829704E+02 -0.28939061800E+02  0.22736959397E+03  0.27222990931E+03  0.12509465943E+03 0.  0.
          5    1    3    3  502    0  0.26581324709E+02  0.34374997375E+02  0.17094850523E+02  0.46881911034E+02  0.41800000000E+01 0.  1.
         -5    1    3    3    0  502  0.50399504995E+02 -0.63314059175E+02  0.21027474345E+03  0.22534799827E+03  0.41800000000E+01 0.  1.
        -11    1    1    2    0    0 -0.55438005136E+01  0.40929539628E+02  0.16111841216E+03  0.16632830088E+03  0.00000000000E+00 0. -1.
         11    1    1    2    0    0 -0.71437029190E+02 -0.11990477828E+02  0.21437539690E+03  0.22628263630E+03  0.00000000000E+00 0.  1.
</event>
<event>
 7    1  0.2480409E-009  0.1154027E+03  0.7561462E-02  0.1250880E+00
         -1   -1    0    0    0  501 -0.00000000000E+00  0.00000000000E+00  0.21641841907E+03  0.21641841907E+03  0.00000000000E+00 0.  1.
          1   -1    0    0  501    0  0.00000000000E+00 -0.00000000000E+00 -0.24018482524E+03  0.24018482524E+03  0.00000000000E+00 0. -1.
         25    2    1    2    0    0  0.29917773377E+02 -0.92719267171E+02  0.16307432946E+03  0.22744928447E+03  0.12509198380E+03 0.  0.
          5    1    3    3  502    0  0.11751218284E+02 -0.24726165793E+02  0.15387758113E+03  0.15634978983E+03  0.41800000000E+01 0.  1.
         -5    1    3    3    0  502  0.18166555093E+02 -0.67993101377E+02  0.91967483266E+01  0.71099494644E+02  0.41800000000E+01 0.  1.
        -11    1    1    2    0    0  0.25367994635E+02  0.66985177035E+02 -0.97384753942E+02  0.12088978201E+03  0.00000000000E+00 0.  1.
         11    1    1    2    0    0 -0.55285768013E+02  0.25734090136E+02 -0.89455981686E+02  0.10826417782E+03  0.00000000000E+00 0. -1.
</event>
<event>
 7    1  0.2626313E-009  0.7252697E+02  0.7561462E-02  0.1351705E+00
          2   -1    0    0  501    0  0.00000000000E+00  0.00000000000E+00  0.20074737157E+03  0.20074737157E+03  0.00000000000E+00 0. -1.
         -2   -1    0    0    0  501 -0.00000000000E+00 -0.00000000000E+00 -0.84621864075E+02  0.84621864075E+02  0.00000000000E+00 0.  1.
         25    2    1    2    0    0 -0.24488406366E+02  0.67629360571E+02  0.63714339464E+02  0.15773580538E+03  0.12509058633E+03 0.  0.
          5    1    3    3  502    0 -0.52702173843E+01  0.24947045198E+02  0.96847236559E+02  0.10023467406E+03  0.41800000000E+01 0.  1.
         -5    1    3    3    0  502 -0.19218188981E+02  0.42682315373E+02 -0.33132897095E+02  0.57501131321E+02  0.41800000000E+01 0.  1.
        -11    1    1    2    0    0  0.18899755751E+01 -0.12450576254E+02  0.65405550414E+02  0.66606868127E+02  0.00000000000E+00 0. -1.
         11    1    1    2    0    0  0.22598430790E+02 -0.55178784317E+02 -0.12994382380E+02  0.61026562137E+02  0.00000000000E+00 0.  1.
</event>
<event>
 7    1  0.2480409E-009  0.1139315E+03  0.7561462E-02  0.1253458E+00
         -2   -1    0    0    0  501 -0.00000000000E+00  0.00000000000E+00  0.17875646589E+02  0.17875646589E+02  0.00000000000E+00 0.  1.
          2   -1    0    0  501    0  0.00000000000E+00 -0.00000000000E+00 -0.85159125791E+03  0.85159125791E+03  0.00000000000E+00 0. -1.
         25    2    1    2    0    0  0.10136112169E+02  0.54804635916E+02 -0.40064018087E+03  0.42339747280E+03  0.12508627649E+03 0.  0.
          5    1    3    3  502    0 -0.54098949370E+02  0.33467742476E+02 -0.25330973285E+03  0.26120888053E+03  0.41800000000E+01 0.  1.
         -5    1    3    3    0  502  0.64235061539E+02  0.21336893440E+02 -0.14733044801E+03  0.16218859227E+03  0.41800000000E+01 0.  1.
        -11    1    1    2    0    0 -0.36826523701E+02 -0.17047642125E+01 -0.80758846451E+02  0.88775505344E+02  0.00000000000E+00 0. -1.
         11    1    1    2    0    0  0.26690411533E+02 -0.53099871704E+02 -0.35231658400E+03  0.35729392635E+03  0.00000000000E+00 0.  1.
</event>
<event>
 7    1  0.2480409E-009  0.1126907E+03  0.7561462E-02  0.1255667E+00
          2   -1    0    0  501    0  0.00000000000E+00  0.00000000000E+00  0.18831609469E+02  0.18831609469E+02  0.00000000000E+00 0. -1.
         -2   -1    0    0    0  501 -0.00000000000E+00 -0.00000000000E+00 -0.14687213954E+04  0.14687213954E+04  0.00000000000E+00 0.  1.
         25    2    1    2    0    0 -0.43683497137E+01  0.79797117774E+02 -0.12043046515E+04  0.12134183409E+04  0.12509082257E+03 0.  0.
          5    1    3    3  502    0 -0.39802845190E+02  0.37394618928E+02 -0.10067308134E+04  0.10082197315E+04  0.41800000000E+01 0.  1.
         -5    1    3    3    0  502  0.35434495476E+02  0.42402498846E+02 -0.19757383811E+03  0.20519860936E+03  0.41800000000E+01 0.  1.
        -11    1    1    2    0    0 -0.74653836379E+01 -0.95353625374E+02 -0.23013738679E+03  0.24922131253E+03  0.00000000000E+00 0.  1.
         11    1    1    2    0    0  0.11833733352E+02  0.15556507600E+02 -0.15447747682E+02  0.24913351485E+02  0.00000000000E+00 0. -1.
</event>
<event>
 7    1  0.2480409E-009  0.1133203E+03  0.7561462E-02  0.1254542E+00
          1   -1    0    0  501    0  0.00000000000E+00  0.00000000000E+00  0.57124702909E+03  0.57124702909E+03  0.00000000000E+00 0. -1.
         -1   -1    0    0    0  501 -0.00000000000E+00 -0.00000000000E+00 -0.27653504614E+02  0.27653504614E+02  0.00000000000E+00 0.  1.
         25    2    1    2    0    0 -0.59730554410E+02 -0.93937844332E+01  0.26988045884E+03  0.30354607735E+03  0.12509507064E+03 0.  0.
          5    1    3    3  502    0  0.24605601705E+01  0.46319051275E+02  0.50104018276E+02  0.68406095597E+02  0.41800000000E+01 0. -1.
         -5    1    3    3    0  502 -0.62191114580E+02 -0.55712835708E+02  0.21977644056E+03  0.23513998176E+03  0.41800000000E+01 0. -1.
        -11    1    1    2    0    0  0.25045661422E+02  0.41975301715E+02  0.65244446947E+02  0.81523303218E+02  0.00000000000E+00 0. -1.
         11    1    1    2    0    0  0.34684892988E+02 -0.32581517282E+02  0.20846861869E+03  0.21383115313E+03  0.00000000000E+00 0.  1.
</event>
<event>
 7    1  0.2480409E-009  0.1313175E+03  0.7561462E-02  0.1225514E+00
          2   -1    0    0  501    0  0.00000000000E+00  0.00000000000E+00  0.22154407589E+03  0.22154407589E+03  0.00000000000E+00 0. -1.
         -2   -1    0    0    0  501 -0.00000000000E+00 -0.00000000000E+00 -0.10953690171E+03  0.10953690171E+03  0.00000000000E+00 0.  1.
         25    2    1    2    0    0 -0.52348742872E+02 -0.74363255939E+02  0.11783347181E+03  0.19443030131E+03  0.12509248689E+03 0.  0.
          5    1    3    3  502    0 -0.66196962319E+02  0.40454641515E+01  0.22518080506E+02  0.70163665456E+02  0.41800000000E+01 0.  1.
         -5    1    3    3    0  502  0.13848219447E+02 -0.78408720090E+02  0.95315391299E+02  0.12426663585E+03  0.41800000000E+01 0.  1.
        -11    1    1    2    0    0  0.68575984999E+02  0.42456364580E+02 -0.37414011051E+02  0.88910161595E+02  0.00000000000E+00 0.  1.
         11    1    1    2    0    0 -0.16227242127E+02  0.31906891359E+02  0.31587713429E+02  0.47740514690E+02  0.00000000000E+00 0. -1.
</event>
<event>
 7    1  0.2480409E-009  0.1651478E+03  0.7561462E-02  0.1183004E+00
          2   -1    0    0  501    0  0.00000000000E+00  0.00000000000E+00  0.65578569580E+02  0.65578569580E+02  0.00000000000E+00 0. -1.
         -2   -1    0    0    0  501 -0.00000000000E+00 -0.00000000000E+00 -0.48083326037E+03  0.48083326037E+03  0.00000000000E+00 0.  1.
         25    2    1    2    0    0 -0.13311664187E+03  0.27338555427E+02 -0.17126416914E+03  0.25188499120E+03  0.12508875333E+03 0.  0.
          5    1    3    3  502    0 -0.43449283746E+02  0.56215593022E+02 -0.20508822425E+02  0.74068328954E+02  0.41800000000E+01 0. -1.
         -5    1    3    3    0  502 -0.89667358119E+02 -0.28877037595E+02 -0.15075534671E+03  0.17781666225E+03  0.41800000000E+01 0. -1.
        -11    1    1    2    0    0 -0.13542512879E+02  0.53656574947E+01 -0.18276434023E+02  0.23371306682E+02  0.00000000000E+00 0. -1.
         11    1    1    2    0    0  0.14665915474E+03 -0.32704212921E+02 -0.22571408764E+03  0.27115553207E+03  0.00000000000E+00 0.  1.
</event>
<event>
 7    1  0.2480409E-009  0.1439513E+03  0.7561462E-02  0.1208109E+00
          2   -1    0    0  501    0  0.00000000000E+00  0.00000000000E+00  0.10176096095E+04  0.10176096095E+04  0.00000000000E+00 0. -1.
         -2   -1    0    0    0  501 -0.00000000000E+00 -0.00000000000E+00 -0.24805761071E+02  0.24805761071E+02  0.00000000000E+00 0.  1.
         25    2    1    2    0    0 -0.74070262202E+02  0.77804086721E+02  0.39527585816E+03  0.42828776480E+03  0.12509007068E+03 0.  0.
          5    1    3    3  502    0 -0.77409682088E+02  0.98498303934E+02  0.23269443724E+03  0.26430729896E+03  0.41800000000E+01 0.  1.
         -5    1    3    3    0  502  0.33394198857E+01 -0.20694217212E+02  0.16258142091E+03  0.16398046584E+03  0.41800000000E+01 0.  1.
        -11    1    1    2    0    0  0.94641902982E+02 -0.74280300423E+02  0.48655253559E+03  0.50120656692E+03  0.00000000000E+00 0.  1.
         11    1    1    2    0    0 -0.20571640780E+02 -0.35237862986E+01  0.11097545473E+03  0.11292103890E+03  0.00000000000E+00 0. -1.
</event>
<event>
 7    1  0.2480409E-009  0.1242616E+03  0.7561462E-02  0.1236228E+00
          2   -1    0    0  501    0  0.00000000000E+00  0.00000000000E+00  0.29141610930E+03  0.29141610930E+03  0.00000000000E+00 0. -1.
         -2   -1    0    0    0  501 -0.00000000000E+00 -0.00000000000E+00 -0.63876684332E+02  0.63876684332E+02  0.00000000000E+00 0.  1.
         25    2    1    2    0    0  0.42996506561E+02  0.51425361027E+02  0.19065259976E+03  0.23767151695E+03  0.12508424697E+03 0.  0.
          5    1    3    3  502    0  0.68194783030E+02 -0.15562174381E+02  0.88807743668E+02  0.11312381464E+03  0.41800000000E+01 0.  1.
         -5    1    3    3    0  502 -0.25198276469E+02  0.66987535408E+02  0.10184485609E+03  0.12454770230E+03  0.41800000000E+01 0.  1.
        -11    1    1    2    0    0 -0.11788894112E+01  0.22122286757E+02 -0.57392922456E+01  0.22885035003E+02  0.00000000000E+00 0.  1.
         11    1    1    2    0    0 -0.41817617150E+02 -0.73547647784E+02  0.42626117452E+02  0.94736241680E+02  0.00000000000E+00 0. -1.
</event>
<event>
 7    1  0.2480409E-009  0.1030109E+03  0.7561462E-02  0.1274089E+00
          1   -1    0    0  501    0  0.00000000000E+00  0.00000000000E+00  0.51256270746E+03  0.51256270746E+03  0.00000000000E+00 0. -1.
         -1   -1    0    0    0  501 -0.00000000000E+00 -0.00000000000E+00 -0.22541357588E+02  0.22541357588E+02  0.00000000000E+00 0.  1.
         25    2    1    2    0    0 -0.68788698818E+01  0.93915668858E+00  0.29888057147E+03  0.32407524283E+03  0.12508783374E+03 0.  0.
          5    1    3    3  502    0 -0.37160080973E+02 -0.47343185107E+02  0.96722003272E+02  0.11399503108E+03  0.41800000000E+01 0.  1.
         -5    1    3    3    0  502  0.30281211092E+02  0.48282341795E+02  0.20215856820E+03  0.21008021175E+03  0.41800000000E+01 0.  1.
        -11    1    1    2    0    0  0.12512348196E+02  0.42725295484E+02  0.11091978385E+03  0.11952074372E+03  0.00000000000E+00 0.  1.
         11    1    1    2    0    0 -0.56334783145E+01 -0.43664452173E+02  0.80220994552E+02  0.91508078487E+02  0.00000000000E+00 0. -1.
</event>
<event>
 7    1  0.2480409E-009  0.9156801E+02  0.7561462E-02  0.1299098E+00
          2   -1    0    0  501    0  0.00000000000E+00  0.00000000000E+00  0.37686647056E+02  0.37686647056E+02  0.00000000000E+00 0. -1.
         -2   -1    0    0    0  501 -0.00000000000E+00 -0.00000000000E+00 -0.38245009684E+03  0.38245009684E+03  0.00000000000E+00 0.  1.
         25    2    1    2    0    0 -0.25976712867E+02 -0.44526172375E+02 -0.16592471964E+03  0.21409732725E+03  0.12509709553E+03 0.  0.
          5    1    3    3  502    0  0.55761055461E+01  0.20440340996E+02 -0.13277478125E+03  0.13451957266E+03  0.41800000000E+01 0. -1.
         -5    1    3    3    0  502 -0.31552818413E+02 -0.64966513371E+02 -0.33149938385E+02  0.79577754582E+02  0.41800000000E+01 0. -1.
        -11    1    1    2    0    0 -0.15671906226E+02 -0.11461753760E+02 -0.94984799547E+02  0.96948917420E+02  0.00000000000E+00 0.  1.
         11    1    1    2    0    0  0.41648619093E+02  0.55987926134E+02 -0.83853930598E+02  0.10909049923E+03  0.00000000000E+00 0. -1.
</event>
<event>
 7    1  0.2480409E-009  0.1161718E+03  0.7561462E-02  0.1249549E+00
          4   -1    0    0  501    0  0.00000000000E+00  0.00000000000E+00  0.32522543102E+02  0.32522543102E+02  0.00000000000E+00 0.  1.
         -4   -1    0    0    0  501 -0.00000000000E+00 -0.00000000000E+00 -0.84085651638E+03  0.84085651638E+03  0.00000000000E+00 0. -1.
         25    2    1    2    0    0  0.35524109178E+02 -0.81916533310E+02 -0.66081491058E+03  0.67845120912E+03  0.12508963328E+03 0.  0.
          5    1    3    3  502    0  0.19119448102E+02  0.60831102786E+01 -0.43532232104E+03  0.43580448956E+03  0.41800000000E+01 0.  1.
         -5    1    3    3    0  502  0.16404661077E+02 -0.87999643588E+02 -0.22549258953E+03  0.24264671956E+03  0.41800000000E+01 0.  1.
        -11    1    1    2    0    0 -0.52661315781E+02  0.17368472793E+02 -0.40065452402E+02  0.68411391618E+02  0.00000000000E+00 0. -1.
         11    1    1    2    0    0  0.17137206603E+02  0.64548060517E+02 -0.10745361030E+03  0.12651645874E+03  0.00000000000E+00 0.  1.
</event>
<event>
 7    1  0.2480409E-009  0.1037546E+03  0.7561462E-02  0.1272593E+00
         -2   -1    0    0    0  501 -0.00000000000E+00  0.00000000000E+00  0.18717266851E+02  0.18717266851E+02  0.00000000000E+00 0.  1.
          2   -1    0    0  501    0  0.00000000000E+00 -0.00000000000E+00 -0.67510870829E+03  0.67510870829E+03  0.00000000000E+00 0. -1.
         25    2    1    2    0    0  0.12478995689E+02 -0.24530856772E+02 -0.32161935966E+03  0.34618505999E+03  0.12509034728E+03 0.  0.
          5    1    3    3  502    0  0.60884695468E+01  0.47516000774E+02 -0.18948632828E+03  0.19549266174E+03  0.41800000000E+01 0.  1.
         -5    1    3    3    0  502  0.63905261421E+01 -0.72046857545E+02 -0.13213303138E+03  0.15069239824E+03  0.41800000000E+01 0.  1.
        -11    1    1    2    0    0 -0.46704330953E+02  0.35749977298E+01 -0.24306816686E+03  0.24754031768E+03  0.00000000000E+00 0.  1.
         11    1    1    2    0    0  0.34225335264E+02  0.20955859042E+02 -0.91703914922E+02  0.10010059747E+03  0.00000000000E+00 0. -1.
</event>
<event>
 7    1  0.2480409E-009  0.1645897E+03  0.7561462E-02  0.1183610E+00
         -2   -1    0    0    0  501 -0.00000000000E+00  0.00000000000E+00  0.70710584983E+03  0.70710584983E+03  0.00000000000E+00 0. -1.
          2   -1    0    0  501    0  0.00000000000E+00 -0.00000000000E+00 -0.51257016860E+02  0.51257016860E+02  0.00000000000E+00 0.  1.
         25    2    1    2    0    0  0.97848141036E+02 -0.12026628211E+03  0.29951309300E+03  0.35971315782E+03  0.12508887125E+03 0.  0.
          5    1    3    3  502    0 -0.29278537914E+01  0.69554494449E+01  0.10927426443E+03  0.10961426856E+03  0.41800000000E+01 0. -1.
         -5    1    3    3    0  502  0.10077599483E+03 -0.12722173155E+03  0.19023882858E+03  0.25009888926E+03  0.41800000000E+01 0. -1.
        -11    1    1    2    0    0 -0.36816052237E+02  0.70162772496E+02  0.85641971726E+02  0.11667383455E+03  0.00000000000E+00 0.  1.
         11    1    1    2    0    0 -0.61032088799E+02  0.50103509609E+02  0.27069376824E+03  0.28197587433E+03  0.00000000000E+00 0. -1.
</event>
<event>
 7    1  0.2480409E-009  0.1920313E+03  0.7561462E-02  0.1156642E+00
         -2   -1    0    0    0  501 -0.00000000000E+00  0.00000000000E+00  0.23994171219E+03  0.23994171219E+03  0.00000000000E+00 0. -1.
          2   -1    0    0  501    0  0.00000000000E+00 -0.00000000000E+00 -0.15980249493E+03  0.15980249493E+03  0.00000000000E+00 0.  1.
         25    2    1    2    0    0 -0.13448943412E+03 -0.90177961215E+02  0.30989699937E+02  0.20694943144E+03  0.12509289785E+03 0.  0.
          5    1    3    3  502    0 -0.92093701976E+02  0.12516609991E+02  0.76705744357E+01  0.93350016505E+02  0.41800000000E+01 0.  1.
         -5    1    3    3    0  502 -0.42395732141E+02 -0.10269457121E+03  0.23319125502E+02  0.11359941493E+03  0.41800000000E+01 0.  1.
        -11    1    1    2    0    0  0.12355774566E+03  0.10450519900E+03  0.59012681199E+02  0.17225083359E+03  0.00000000000E+00 0. -1.
         11    1    1    2    0    0  0.10931688456E+02 -0.14327237784E+02 -0.98631638711E+01  0.20543942089E+02  0.00000000000E+00 0.  1.
</event>
<event>
 7    1  0.2480409E-009  0.1322785E+03  0.7561462E-02  0.1224113E+00
          1   -1    0    0  501    0  0.00000000000E+00  0.00000000000E+00  0.38636397385E+03  0.38636397385E+03  0.00000000000E+00 0. -1.
         -1   -1    0    0    0  501 -0.00000000000E+00 -0.00000000000E+00 -0.54608075980E+02  0.54608075980E+02  0.00000000000E+00 0.  1.
         25    2    1    2    0    0 -0.21074206747E+01  0.93520888070E+02  0.14780775774E+03  0.21504661732E+03  0.12508923472E+03 0.  0.
          5    1    3    3  502    0 -0.58302626203E+02  0.27799726339E+02  0.37433265663E+02  0.74771269783E+02  0.41800000000E+01 0.  1.
         -5    1    3    3    0  502  0.56195205529E+02  0.65721161730E+02  0.11037449208E+03  0.14027534753E+03  0.41800000000E+01 0.  1.
        -11    1    1    2    0    0  0.30069481951E+02 -0.71830984620E+02  0.63785295420E+02  0.10065996229E+03  0.00000000000E+00 0.  1.
         11    1    1    2    0    0 -0.27962061277E+02 -0.21689903450E+02  0.12016284470E+03  0.12526547022E+03  0.00000000000E+00 0. -1.
</event>
<event>
 7    1  0.2480409E-009  0.9566091E+02  0.7561462E-02  0.1289694E+00
          2   -1    0    0  501    0  0.00000000000E+00  0.00000000000E+00  0.12012103638E+03  0.12012103638E+03  0.00000000000E+00 0. -1.
         -2   -1    0    0    0  501 -0.00000000000E+00 -0.00000000000E+00 -0.20524386713E+03  0.20524386713E+03  0.00000000000E+00 0.  1.
         25    2    1    2    0    0  0.42841806555E+02 -0.41013863883E+02  0.52109782841E+02  0.14790498514E+03  0.12507157048E+03 0.  0.
          5    1    3    3  502    0  0.34603489649E+02 -0.55770169738E+02  0.86912524107E+02  0.10899069949E+03  0.41800000000E+01 0. -1.
         -5    1    3    3    0  502  0.82383169062E+01  0.14756305856E+02 -0.34802741266E+02  0.38914285649E+02  0.41800000000E+01 0. -1.
        -11    1    1    2    0    0 -0.11391163182E+02  0.66621839738E+02 -0.60697771151E+02  0.90842982951E+02  0.00000000000E+00 0.  1.
         11    1    1    2    0    0 -0.31450643373E+02 -0.25607975855E+02 -0.76534842435E+02  0.86616935426E+02  0.00000000000E+00 0. -1.
</event>
<event>
 7    1  0.2480409E-009  0.1134457E+03  0.7561462E-02  0.1254319E+00
          2   -1    0    0  501    0  0.00000000000E+00  0.00000000000E+00  0.63875480246E+03  0.63875480246E+03  0.00000000000E+00 0. -1.
         -2   -1    0    0    0  501 -0.00000000000E+00 -0.00000000000E+00 -0.31569351035E+02  0.31569351035E+02  0.00000000000E+00 0.  1.
         25    2    1    2    0    0 -0.47896361149E+02 -0.78518793950E+02  0.32816938670E+03  0.36304567060E+03  0.12509096752E+03 0.  0.
          5    1    3    3  502    0 -0.45485573368E+02 -0.12142495161E+01  0.24567539471E+03  0.24988854266E+03  0.41800000000E+01 0. -1.
         -5    1    3    3    0  502 -0.24107877813E+01 -0.77304544434E+02  0.82493991992E+02  0.11315712794E+03  0.41800000000E+01 0. -1.
        -11    1    1    2    0    0  0.44881350086E+02  0.27502270937E+02  0.49896183464E+02  0.72528198768E+02  0.00000000000E+00 0.  1.
         11    1    1    2    0    0  0.30150110628E+01  0.51016523013E+02  0.22911988126E+03  0.23475028413E+03  0.00000000000E+00 0. -1.
</event>
<event>
 7    1  0.2480409E-009  0.1202384E+03  0.7561462E-02  0.1242704E+00
          2   -1    0    0  501    0  0.00000000000E+00  0.00000000000E+00  0.12338860929E+04  0.12338860929E+04  0.00000000000E+00 0. -1.
         -2   -1    0    0    0  501 -0.00000000000E+00 -0.00000000000E+00 -0.18894776445E+02  0.18894776445E+02  0.00000000000E+00 0.  1.
         25    2    1    2    0    0  0.56397382834E+01  0.64411448554E+02  0.10075591432E+04  0.10173511274E+04  0.12508896045E+03 0.  0.
          5    1    3    3  502    0 -0.11916348159E+02 -0.36290756872E+02  0.29062994085E+03  0.29315909214E+03  0.41800000000E+01 0.  1.
         -5    1    3    3    0  502  0.17556086443E+02  0.10070220543E+03  0.71692920238E+03  0.72419203529E+03  0.41800000000E+01 0.  1.
        -11    1    1    2    0    0  0.34887854805E+02 -0.22908967652E+02  0.14190446477E+03  0.14791504431E+03  0.00000000000E+00 0. -1.
         11    1    1    2    0    0 -0.40527593088E+02 -0.41502480903E+02  0.65527708486E+02  0.87514697634E+02  0.00000000000E+00 0.  1.
</event>
<event>
 7    1  0.2480409E-009  0.1296351E+03  0.7561462E-02  0.1227998E+00
          2   -1    0    0  501    0  0.00000000000E+00  0.00000000000E+00  0.43793178996E+03  0.43793178996E+03  0.00000000000E+00 0. -1.
         -2   -1    0    0    0  501 -0.00000000000E+00 -0.00000000000E+00 -0.80350592549E+02  0.80350592549E+02  0.00000000000E+00 0.  1.
         25    2    1    2    0    0 -0.87283378725E+02  0.41145778721E+02  0.23690611975E+02  0.15975162362E+03  0.12509185763E+03 0.  0.
          5    1    3    3  502    0 -0.65138445827E+02  0.85730795493E+02  0.20574378613E+02  0.10969760196E+03  0.41800000000E+01 0.  1.
         -5    1    3    3    0  502 -0.22144932898E+02 -0.44585016772E+02  0.31162333621E+01  0.50054021656E+02  0.41800000000E+01 0.  1.
        -11    1    1    2    0    0  0.59999079497E+02 -0.43600173754E+02  0.31867974438E+03  0.32719664450E+03  0.00000000000E+00 0.  1.
         11    1    1    2    0    0  0.27284299228E+02  0.24543950336E+01  0.15210841054E+02  0.31334114395E+02  0.00000000000E+00 0. -1.
</event>
<event>
 7    1  0.2480409E-009  0.9028913E+02  0.7561462E-02  0.1302153E+00
          2   -1    0    0  501    0  0.00000000000E+00  0.00000000000E+00  0.93828650886E+03  0.93828650886E+03  0.00000000000E+00 0. -1.
         -2   -1    0    0    0  501 -0.00000000000E+00 -0.00000000000E+00 -0.16360909855E+02  0.16360909855E+02  0.00000000000E+00 0.  1.
         25    2    1    2    0    0  0.32789623208E+01 -0.58337711069E+02  0.59547740675E+03  0.61127337488E+03  0.12509099393E+03 0.  0.
          5    1    3    3  502    0  0.21440056745E+02 -0.49397505912E+02  0.58608759641E+03  0.58857109400E+03  0.41800000000E+01 0. -1.
         -5    1    3    3    0  502 -0.18161094424E+02 -0.89402051566E+01  0.93898103319E+01  0.22702280877E+02  0.41800000000E+01 0. -1.
        -11    1    1    2    0    0 -0.38589677683E+02  0.59094315278E+02  0.20010010002E+03  0.21218235400E+03  0.00000000000E+00 0.  1.
         11    1    1    2    0    0  0.35310715362E+02 -0.75660420904E+00  0.12634809224E+03  0.13119168984E+03  0.00000000000E+00 0. -1.
</event>
<event>
 7    1  0.2480409E-009  0.1222689E+03  0.7561462E-02  0.1239400E+00
          1   -1    0    0  501    0  0.00000000000E+00  0.00000000000E+00  0.87569440103E+03  0.87569440103E+03  0.00000000000E+00 0. -1.
         -1   -1    0    0    0  501 -0.00000000000E+00 -0.00000000000E+00 -0.21607110905E+02  0.21607110905E+02  0.00000000000E+00 0.  1.
         25    2    1    2    0    0  0.70434930058E+02 -0.21017221966E+02  0.45551075206E+03  0.47805778339E+03  0.12508555480E+03 0.  0.
          5    1    3    3  502    0  0.31571379896E+02 -0.73050962953E+02  0.23503762476E+03  0.24818008113E+03  0.41800000000E+01 0. -1.
         -5    1    3    3    0  502  0.38863550162E+02  0.52033740987E+02  0.22047312730E+03  0.22987770225E+03  0.41800000000E+01 0. -1.
        -11    1    1    2    0    0 -0.83967942522E+02  0.18911922976E+02  0.39607766232E+03  0.40532183607E+03  0.00000000000E+00 0. -1.
         11    1    1    2    0    0  0.13533012464E+02  0.21052989897E+01  0.24988757353E+01  0.13921892477E+02  0.00000000000E+00 0.  1.
</event>
<event>
 7    1  0.2480409E-009  0.9125434E+02  0.7561462E-02  0.1299842E+00
         -2   -1    0    0    0  501 -0.00000000000E+00  0.00000000000E+00  0.13309801264E+03  0.13309801264E+03  0.00000000000E+00 0.  1.
          2   -1    0    0  501    0  0.00000000000E+00 -0.00000000000E+00 -0.12415442937E+03  0.12415442937E+03  0.00000000000E+00 0. -1.
         25    2    1    2    0    0 -0.13500820973E+02 -0.12738133420E+02 -0.60737965531E+02  0.14028765646E+03  0.12508794461E+03 0.  0.
          5    1    3    3  502    0 -0.64530002878E+02  0.14442688776E+02 -0.19233974813E+02  0.68993700565E+02  0.41800000000E+01 0.  1.
         -5    1    3    3    0  502  0.51029181905E+02 -0.27180822196E+02 -0.41503990718E+02  0.71293955892E+02  0.41800000000E+01 0.  1.
        -11    1    1    2    0    0  0.31816741987E+02 -0.56662167331E+01  0.82064025115E+02  0.88198159282E+02  0.00000000000E+00 0.  1.
         11    1    1    2    0    0 -0.18315921014E+02  0.18404350153E+02 -0.12382476321E+02  0.28766626271E+02  0.00000000000E+00 0. -1.
</event>
<event>
 7    1  0.2480409E-009  0.9908373E+02  0.7561462E-02  0.1282235E+00
          2   -1    0    0  501    0  0.00000000000E+00  0.00000000000E+00  0.90566921752E+03  0.90566921752E+03  0.00000000000E+00 0. -1.
         -2   -1    0    0    0  501 -0.00000000000E+00 -0.00000000000E+00 -0.15454536609E+02  0.15454536609E+02  0.00000000000E+00 0.  1.
         25    2    1    2    0    0  0.19211126159E+01  0.35867917202E+02  0.63316778339E+03  0.64640170168E+03  0.12507405749E+03 0.  0.
          5    1    3    3  502    0 -0.53416689861E+02 -0.12406064959E+02  0.32166427069E+03  0.32633208338E+03  0.41800000000E+01 0. -1.
         -5    1    3    3    0  502  0.55337802477E+02  0.48273982161E+02  0.31150351270E+03  0.32006961830E+03  0.41800000000E+01 0. -1.
        -11    1    1    2    0    0 -0.25875603719E+02 -0.37550963795E+02  0.24227347008E+03  0.24652800257E+03  0.00000000000E+00 0. -1.
         11    1    1    2    0    0  0.23954491103E+02  0.16830465928E+01  0.14773427447E+02  0.28194049875E+02  0.00000000000E+00 0.  1.
</event>
<event>
 7    1  0.2480409E-009  0.1095194E+03  0.7561462E-02  0.1261462E+00
          1   -1    0    0  501    0  0.00000000000E+00  0.00000000000E+00  0.14223008142E+04  0.14223008142E+04  0.00000000000E+00 0. -1.
         -1   -1    0    0    0  501 -0.00000000000E+00 -0.00000000000E+00 -0.10566853135E+02  0.10566853135E+02  0.00000000000E+00 0.  1.
         25    2    1    2    0    0 -0.40072099325E+02 -0.37425529065E+02  0.92742465646E+03  0.93742738940E+03  0.12508866302E+03 0.  0.
          5    1    3    3  502    0  0.33684014797E+02 -0.48235272194E+01  0.56845171187E+03  0.56948459189E+03  0.41800000000E+01 0.  1.
         -5    1    3    3    0  502 -0.73756114122E+02 -0.32602001846E+02  0.35897294459E+03  0.36794279752E+03  0.41800000000E+01 0.  1.
        -11    1    1    2    0    0 -0.27491911656E+02  0.20671956522E+02  0.13986675258E+03  0.14403417466E+03  0.00000000000E+00 0.  1.
         11    1    1    2    0    0  0.67564010982E+02  0.16753572544E+02  0.34444255206E+03  0.35140610331E+03  0.00000000000E+00 0. -1.
</event>
<event>
 7    1  0.2480409E-009  0.9592183E+02  0.7561462E-02  0.1289113E+00
         -2   -1    0    0    0  501 -0.00000000000E+00  0.00000000000E+00  0.24977389452E+02  0.24977389452E+02  0.00000000000E+00 0.  1.
          2   -1    0    0  501    0  0.00000000000E+00 -0.00000000000E+00 -0.68553394312E+03  0.68553394312E+03  0.00000000000E+00 0. -1.
         25    2    1    2    0    0 -0.29957207370E+02 -0.61941253142E+02 -0.43434766244E+03  0.45720758241E+03  0.12508688355E+03 0.  0.
          5    1    3    3  502    0 -0.42782636575E+02 -0.23992466723E+02 -0.40345951364E+03  0.40645177328E+03  0.41800000000E+01 0.  1.
         -5    1    3    3    0  502  0.12825429204E+02 -0.37948786419E+02 -0.30888148794E+02  0.50755809134E+02  0.41800000000E+01 0.  1.
        -11    1    1    2    0    0  0.54337688469E+02  0.29720090469E+02 -0.77522526188E+02  0.99225048412E+02  0.00000000000E+00 0.  1.
         11    1    1    2    0    0 -0.24380481099E+02  0.32221162673E+02 -0.14868636504E+03  0.15407870175E+03  0.00000000000E+00 0. -1.
</event>
<event>
 7    1  0.2480409E-009  0.4866537E+03  0.7561462E-02  0.1017322E+00
         -2   -1    0    0    0  501 -0.00000000000E+00  0.00000000000E+00  0.11999736892E+03  0.11999736892E+03  0.00000000000E+00 0.  1.
          2   -1    0    0  501    0  0.00000000000E+00 -0.00000000000E+00 -0.20620926510E+04  0.20620926510E+04  0.00000000000E+00 0. -1.
         25    2    1    2    0    0 -0.45338804377E+03  0.14853287941E+03 -0.78375167918E+03  0.92603277936E+03  0.12508908560E+03 0.  0.
          5    1    3    3  502    0 -0.37997444463E+03  0.16273285145E+03 -0.70573081571E+03  0.81788508738E+03  0.41800000000E+01 0. -1.
         -5    1    3    3    0  502 -0.73413599141E+02 -0.14199972043E+02 -0.78020863474E+02  0.10814769199E+03  0.41800000000E+01 0. -1.
        -11    1    1    2    0    0  0.34676832722E+03 -0.72979852334E+02 -0.87492881599E+03  0.94396756547E+03  0.00000000000E+00 0. -1.
         11    1    1    2    0    0  0.10661971656E+03 -0.75553027074E+02 -0.28341478695E+03  0.31208967513E+03  0.00000000000E+00 0.  1.
</event>
<event>
 7    1  0.2480409E-009  0.1082610E+03  0.7561462E-02  0.1263824E+00
          2   -1    0    0  501    0  0.00000000000E+00  0.00000000000E+00  0.25900999228E+02  0.25900999228E+02  0.00000000000E+00 0. -1.
         -2   -1    0    0    0  501 -0.00000000000E+00 -0.00000000000E+00 -0.57112208684E+03  0.57112208684E+03  0.00000000000E+00 0.  1.
         25    2    1    2    0    0 -0.12088444940E+02  0.30799204483E+01 -0.43626666812E+03  0.45401658808E+03  0.12508733002E+03 0.  0.
          5    1    3    3  502    0  0.55252207715E+02 -0.66722159497E+01 -0.23428601826E+03  0.24084172328E+03  0.41800000000E+01 0.  1.
         -5    1    3    3    0  502 -0.67340652655E+02  0.97521363980E+01 -0.20198064986E+03  0.21317486480E+03  0.41800000000E+01 0.  1.
        -11    1    1    2    0    0 -0.36370299845E+02 -0.19634690050E+02 -0.45595862135E+02  0.61541062779E+02  0.00000000000E+00 0. -1.
         11    1    1    2    0    0  0.48458744786E+02  0.16554769602E+02 -0.63358557362E+02  0.81465435209E+02  0.00000000000E+00 0.  1.
</event>
<event>
 7    1  0.2480409E-009  0.1540429E+03  0.7561462E-02  0.1195591E+00
          1   -1    0    0  501    0  0.00000000000E+00  0.00000000000E+00  0.28273347576E+03  0.28273347576E+03  0.00000000000E+00 0. -1.
         -1   -1    0    0    0  501 -0.00000000000E+00 -0.00000000000E+00 -0.10683056567E+03  0.10683056567E+03  0.00000000000E+00 0.  1.
         25    2    1    2    0    0 -0.11956058687E+03  0.43252384652E+02  0.14672287608E+03  0.23095342797E+03  0.12508549403E+03 0.  0.
          5    1    3    3  502    0 -0.82787966741E+02  0.85673893534E+02  0.11806873536E+03  0.16778427262E+03  0.41800000000E+01 0. -1.
         -5    1    3    3    0  502 -0.36772620129E+02 -0.42421508882E+02  0.28654140724E+02  0.63169155350E+02  0.41800000000E+01 0. -1.
        -11    1    1    2    0    0  0.62230698350E+02 -0.25762244265E+01 -0.27719465671E+02  0.68173789146E+02  0.00000000000E+00 0.  1.
         11    1    1    2    0    0  0.57329888520E+02 -0.40676160225E+02  0.56899499679E+02  0.90436824314E+02  0.00000000000E+00 0. -1.
</event>
<event>
 7    1  0.2480409E-009  0.8932134E+02  0.7561462E-02  0.1304504E+00
         -2   -1    0    0    0  501 -0.00000000000E+00  0.00000000000E+00  0.14352575422E+03  0.14352575422E+03  0.00000000000E+00 0.  1.
          2   -1    0    0  501    0  0.00000000000E+00 -0.00000000000E+00 -0.84203113218E+02  0.84203113218E+02  0.00000000000E+00 0. -1.
         25    2    1    2    0    0  0.15280388998E+02 -0.87390719622E+01  0.42684591256E+02  0.13333952402E+03  0.12509033804E+03 0.  0.
          5    1    3    3  502    0  0.55067587954E+02 -0.43415590252E+02  0.38807319633E+02  0.80254801583E+02  0.41800000000E+01 0. -1.
         -5    1    3    3    0  502 -0.39787198956E+02  0.34676518290E+02  0.38772716224E+01  0.53084722442E+02  0.41800000000E+01 0. -1.
        -11    1    1    2    0    0 -0.32572118632E+02  0.16482563685E+02 -0.27928128914E+02  0.45963009067E+02  0.00000000000E+00 0. -1.
         11    1    1    2    0    0  0.17291729634E+02 -0.77434917227E+01  0.44566178664E+02  0.48426334350E+02  0.00000000000E+00 0.  1.
</event>
<event>
 7    1  0.2480409E-009  0.1161618E+03  0.7561462E-02  0.1249567E+00
          1   -1    0    0  501    0  0.00000000000E+00  0.00000000000E+00  0.59421823590E+02  0.59421823590E+02  0.00000000000E+00 0. -1.
         -1   -1    0    0    0  501 -0.00000000000E+00 -0.00000000000E+00 -0.38713703531E+03  0.38713703531E+03  0.00000000000E+00 0.  1.
         25    2    1    2    0    0  0.18852161558E+02 -0.10173557897E+03 -0.14710384247E+03  0.21906867075E+03  0.12508401182E+03 0.  0.
          5    1    3    3  502    0  0.18559653711E+02  0.26762140333E+01 -0.10445087474E+03  0.10620301550E+03  0.41800000000E+01 0.  1.
         -5    1    3    3    0  502  0.29250784670E+00 -0.10441179301E+03 -0.42652967730E+02  0.11286565525E+03  0.41800000000E+01 0.  1.
        -11    1    1    2    0    0 -0.22700252440E+02  0.34672971174E+02 -0.14630988562E+03  0.15206610083E+03  0.00000000000E+00 0.  1.
         11    1    1    2    0    0  0.38480908822E+01  0.67062607800E+02 -0.34301483630E+02  0.75424087317E+02  0.00000000000E+00 0. -1.
</event>
<event>
 7    1  0.3208621E-009  0.1005675E+03  0.7561462E-02  0.1279107E+00
         -2   -1    0    0    0  501 -0.00000000000E+00  0.00000000000E+00  0.13036335082E+02  0.13036335082E+02  0.00000000000E+00 0.  1.
          2   -1    0    0  501    0  0.00000000000E+00 -0.00000000000E+00 -0.13366580426E+04  0.13366580426E+04  0.00000000000E+00 0. -1.
         25    2    1    2    0    0  0.24209987587E+02  0.61529634375E+02 -0.92027251889E+03  0.93108531650E+03  0.12508532356E+03 0.  0.
          5    1    3    3  502    0 -0.99952877111E+01  0.57936740005E+02 -0.16843594445E+03  0.17845086551E+03  0.41800000000E+01 0. -1.
         -5    1    3    3    0  502  0.34205275298E+02  0.35928943702E+01 -0.75183657444E+03  0.75263445099E+03  0.41800000000E+01 0. -1.
        -11    1    1    2    0    0  0.10331827330E+02 -0.70986597929E+02 -0.31910582798E+03  0.32706937061E+03  0.00000000000E+00 0. -1.
         11    1    1    2    0    0 -0.34541814917E+02  0.94569635540E+01 -0.84243360699E+02  0.91539690622E+02  0.00000000000E+00 0.  1.
</event>
<event>
 7    1  0.2480409E-009  0.1729848E+03  0.7561462E-02  0.1174770E+00
          1   -1    0    0  501    0  0.00000000000E+00  0.00000000000E+00  0.52957474939E+03  0.52957474939E+03  0.00000000000E+00 0. -1.
         -1   -1    0    0    0  501 -0.00000000000E+00 -0.00000000000E+00 -0.71121203030E+02  0.71121203030E+02  0.00000000000E+00 0.  1.
         25    2    1    2    0    0 -0.14615530311E+03 -0.19418274118E+02  0.34555835408E+03  0.39597514137E+03  0.12508914626E+03 0.  0.
          5    1    3    3  502    0 -0.87768278337E+02 -0.72815926472E+02  0.20508058450E+03  0.23469330704E+03  0.41800000000E+01 0. -1.
         -5    1    3    3    0  502 -0.58387024773E+02  0.53397652354E+02  0.14047776958E+03  0.16128183433E+03  0.41800000000E+01 0. -1.
        -11    1    1    2    0    0  0.61964994844E+02 -0.11324248163E+02  0.93949998308E+02  0.11311278161E+03  0.00000000000E+00 0. -1.
         11    1    1    2    0    0  0.84190308266E+02  0.30742522280E+02  0.18945193969E+02  0.91608029433E+02  0.00000000000E+00 0.  1.
</event>
<event>
 7    1  0.2480409E-009  0.7964339E+02  0.7561462E-02  0.1330066E+00
          3   -1    0    0  501    0  0.00000000000E+00  0.00000000000E+00  0.13138518479E+03  0.13138518479E+03  0.00000000000E+00 0. -1.
         -3   -1    0    0    0  501 -0.00000000000E+00 -0.00000000000E+00 -0.63995495651E+02  0.63995495651E+02  0.00000000000E+00 0.  1.
         25    2    1    2    0    0 -0.23732446961E+02 -0.57681202548E+01  0.65956566036E+02  0.14350708485E+03  0.12509002578E+03 0.  0.
          5    1    3    3  502    0 -0.57853888199E+01  0.49533100056E+02  0.68883023800E+02  0.85143068378E+02  0.41800000000E+01 0. -1.
         -5    1    3    3    0  502 -0.17947058141E+02 -0.55301220311E+02 -0.29264577638E+01  0.58364016473E+02  0.41800000000E+01 0. -1.
        -11    1    1    2    0    0  0.34353182146E+02 -0.62455141070E+01 -0.35138398431E+01  0.35092657928E+02  0.00000000000E+00 0.  1.
         11    1    1    2    0    0 -0.10620735185E+02  0.12013634362E+02  0.49469629467E+01  0.16780937663E+02  0.00000000000E+00 0. -1.
</event>
<event>
 7    1  0.2480409E-009  0.1908890E+03  0.7561462E-02  0.1157662E+00
         -1   -1    0    0    0  501 -0.00000000000E+00  0.00000000000E+00  0.64698050759E+02  0.64698050759E+02  0.00000000000E+00 0.  1.
          1   -1    0    0  501    0  0.00000000000E+00 -0.00000000000E+00 -0.73347108748E+03  0.73347108748E+03  0.00000000000E+00 0. -1.
         25    2    1    2    0    0 -0.77757509662E+01 -0.16719270048E+03 -0.18722224965E+03  0.28056023816E+03  0.12509202642E+03 0.  0.
          5    1    3    3  502    0  0.19320183137E+02 -0.17666870434E+03 -0.17374022589E+03  0.24857240205E+03  0.41800000000E+01 0. -1.
         -5    1    3    3    0  502 -0.27095934104E+02  0.94760038614E+01 -0.13482023763E+02  0.31987836108E+02  0.41800000000E+01 0. -1.
        -11    1    1    2    0    0  0.25826988502E+02  0.13998602975E+03 -0.28727836971E+03  0.32061188930E+03  0.00000000000E+00 0.  1.
         11    1    1    2    0    0 -0.18051237535E+02  0.27206670730E+02 -0.19427241737E+03  0.19699701078E+03  0.00000000000E+00 0. -1.
</event>
<event>
 7    1  0.2480409E-009  0.8223652E+02  0.7561462E-02  0.1322822E+00
         -2   -1    0    0    0  501 -0.00000000000E+00  0.00000000000E+00  0.40126752573E+02  0.40126752573E+02  0.00000000000E+00 0.  1.
          2   -1    0    0  501    0  0.00000000000E+00 -0.00000000000E+00 -0.36385061515E+03  0.36385061515E+03  0.00000000000E+00 0. -1.
         25    2    1    2    0    0  0.26558958544E+02  0.39968356506E+02 -0.22538659920E+03  0.26219599717E+03  0.12507907112E+03 0.  0.
          5    1    3    3  502    0  0.32279447037E+02 -0.18786587073E+02 -0.18905255589E+03  0.19275175705E+03  0.41800000000E+01 0. -1.
         -5    1    3    3    0  502 -0.57204884931E+01  0.58754943579E+02 -0.36334043307E+02  0.69444240126E+02  0.41800000000E+01 0. -1.
        -11    1    1    2    0    0 -0.24903658511E+02 -0.50894161688E+02 -0.11121239288E+03  0.12481427896E+03  0.00000000000E+00 0. -1.
         11    1    1    2    0    0 -0.16553000333E+01  0.10925805182E+02  0.12875129510E+02  0.16967091588E+02  0.00000000000E+00 0.  1.
</event>
<event>
 7    1  0.2480409E-009  0.1082616E+03  0.7561462E-02  0.1263823E+00
          2   -1    0    0  501    0  0.00000000000E+00  0.00000000000E+00  0.43459337482E+03  0.43459337482E+03  0.00000000000E+00 0.  1.
         -2   -1    0    0    0  501 -0.00000000000E+00 -0.00000000000E+00 -0.45261462171E+02  0.45261462171E+02  0.00000000000E+00 0. -1.
         25    2    1    2    0    0  0.36908469100E+02  0.80016567373E+02  0.21537501001E+03  0.26419314251E+03  0.12508691164E+03 0.  0.
          5    1    3    3  502    0 -0.28848477671E+02  0.44399169988E+02  0.16647734654E+03  0.17474467165E+03  0.41800000000E+01 0.  1.
         -5    1    3    3    0  502  0.65756946771E+02  0.35617397386E+02  0.48897663467E+02  0.89448470851E+02  0.41800000000E+01 0.  1.
        -11    1    1    2    0    0 -0.20963317048E+02 -0.35546472677E+02  0.16166146189E+03  0.16684555925E+03  0.00000000000E+00 0.  1.
         11    1    1    2    0    0 -0.15945152052E+02 -0.44470094696E+02  0.12295440754E+02  0.48816135238E+02  0.00000000000E+00 0. -1.
</event>
<event>
 7    1  0.2480409E-009  0.1233779E+03  0.7561462E-02  0.1237626E+00
         -2   -1    0    0    0  501 -0.00000000000E+00  0.00000000000E+00  0.94874507658E+02  0.94874507658E+02  0.00000000000E+00 0. -1.
          2   -1    0    0  501    0  0.00000000000E+00 -0.00000000000E+00 -0.21451970921E+03  0.21451970921E+03  0.00000000000E+00 0.  1.
         25    2    1    2    0    0 -0.72853640457E+01  0.65291488215E+02 -0.13790784692E+03  0.19743792051E+03  0.12508838175E+03 0.  0.
          5    1    3    3  502    0  0.22421935447E+02  0.93986462110E+02 -0.76490665696E+02  0.12330649856E+03  0.41800000000E+01 0.  1.
         -5    1    3    3    0  502 -0.29707299493E+02 -0.28694973895E+02 -0.61417181223E+02  0.74131421943E+02  0.41800000000E+01 0.  1.
        -11    1    1    2    0    0  0.46572094668E+02 -0.27890541587E+02  0.19551041140E+02  0.57698228061E+02  0.00000000000E+00 0. -1.
         11    1    1    2    0    0 -0.39286730622E+02 -0.37400946628E+02 -0.12883957697E+01  0.54258068297E+02  0.00000000000E+00 0.  1.
</event>
<event>
 7    1  0.2480409E-009  0.1299891E+03  0.7561462E-02  0.1227472E+00
          1   -1    0    0  501    0  0.00000000000E+00  0.00000000000E+00  0.89633359422E+02  0.89633359422E+02  0.00000000000E+00 0.  1.
         -1   -1    0    0    0  501 -0.00000000000E+00 -0.00000000000E+00 -0.31102702335E+03  0.31102702335E+03  0.00000000000E+00 0. -1.
         25    2    1    2    0    0  0.83410615787E+02  0.36550271461E+02 -0.22277281291E+03  0.27123567508E+03  0.12509121509E+03 0.  0.
          5    1    3    3  502    0 -0.19191100461E+02  0.45136617479E+02 -0.95836052605E+02  0.10773873005E+03  0.41800000000E+01 0. -1.
         -5    1    3    3    0  502  0.10260171625E+03 -0.85863460181E+01 -0.12693676031E+03  0.16349694502E+03  0.41800000000E+01 0. -1.
        -11    1    1    2    0    0 -0.51676695121E+02  0.87360158615E+01  0.36544017209E+02  0.63892597267E+02  0.00000000000E+00 0.  1.
         11    1    1    2    0    0 -0.31733920666E+02 -0.45286287322E+02 -0.35164868227E+02  0.65532110432E+02  0.00000000000E+00 0. -1.
</event>
<event>
 7    1  0.2480409E-009  0.1149306E+03  0.7561462E-02  0.1251702E+00
         -1   -1    0    0    0  501 -0.00000000000E+00  0.00000000000E+00  0.25966330923E+02  0.25966330923E+02  0.00000000000E+00 0. -1.
          1   -1    0    0  501    0  0.00000000000E+00 -0.00000000000E+00 -0.57765800947E+03  0.57765800947E+03  0.00000000000E+00 0.  1.
         25    2    1    2    0    0  0.13544273734E+02  0.41282830800E+02 -0.21013921257E+03  0.24838296838E+03  0.12509152988E+03 0.  0.
          5    1    3    3  502    0 -0.39439598743E+02  0.63336315266E+02 -0.12456271474E+03  0.14525946814E+03  0.41800000000E+01 0.  1.
         -5    1    3    3    0  502  0.52983872477E+02 -0.22053484466E+02 -0.85576497834E+02  0.10312350024E+03  0.41800000000E+01 0.  1.
        -11    1    1    2    0    0  0.19410141599E+02 -0.57624724285E+02 -0.21948023461E+03  0.22774752651E+03  0.00000000000E+00 0.  1.
         11    1    1    2    0    0 -0.32954415333E+02  0.16341893485E+02 -0.12207223136E+03  0.12749384550E+03  0.00000000000E+00 0. -1.
</event>
<event>
 7    1  0.2480409E-009  0.1128088E+03  0.7561462E-02  0.1255455E+00
         -2   -1    0    0    0  501 -0.00000000000E+00  0.00000000000E+00  0.30673684164E+02  0.30673684164E+02  0.00000000000E+00 0.  1.
          2   -1    0    0  501    0  0.00000000000E+00 -0.00000000000E+00 -0.44708335726E+03  0.44708335726E+03  0.00000000000E+00 0. -1.
         25    2    1    2    0    0  0.13766712295E+02 -0.27881958487E+02 -0.26489362838E+03  0.29458972992E+03  0.12509016204E+03 0.  0.
          5    1    3    3  502    0  0.30070698824E+02  0.43048819136E+02 -0.79402079401E+02  0.95286989511E+02  0.41800000000E+01 0.  1.
         -5    1    3    3    0  502 -0.16303986529E+02 -0.70930777623E+02 -0.18549154898E+03  0.19930274041E+03  0.41800000000E+01 0.  1.
        -11    1    1    2    0    0 -0.54874124376E+02  0.13745212792E+02 -0.63778970817E+02  0.85251730301E+02  0.00000000000E+00 0.  1.
         11    1    1    2    0    0  0.41107412081E+02  0.14136745695E+02 -0.87737073903E+02  0.97915581211E+02  0.00000000000E+00 0. -1.
</event>
<event>
 7    1  0.2480409E-009  0.8618695E+02  0.7561462E-02  0.1312357E+00
         -2   -1    0    0    0  501 -0.00000000000E+00  0.00000000000E+00  0.14952536423E+03  0.14952536423E+03  0.00000000000E+00 0.  1.
          2   -1    0    0  501    0  0.00000000000E+00 -0.00000000000E+00 -0.14040157854E+03  0.14040157854E+03  0.00000000000E+00 0. -1.
         25    2    1    2    0    0 -0.27861848263E+02 -0.75469378059E+01  0.96333843484E+02  0.16050225545E+03  0.12509007053E+03 0.  0.
          5    1    3    3  502    0 -0.45770185384E+02  0.48751677354E+02  0.65636164108E+02  0.93793466477E+02  0.41800000000E+01 0. -1.
         -5    1    3    3    0  502  0.17908337121E+02 -0.56298615160E+02  0.30697679376E+02  0.66708788975E+02  0.41800000000E+01 0. -1.
        -11    1    1    2    0    0  0.79585020595E+01  0.20776147688E+02 -0.99912629596E+02  0.10235975586E+03  0.00000000000E+00 0. -1.
         11    1    1    2    0    0  0.19903346204E+02 -0.13229209882E+02  0.12702571807E+02  0.27064931456E+02  0.00000000000E+00 0.  1.
</event>
<event>
 7    1  0.2480409E-009  0.9791367E+02  0.7561462E-02  0.1284745E+00
          2   -1    0    0  501    0  0.00000000000E+00  0.00000000000E+00  0.17386034135E+03  0.17386034135E+03  0.00000000000E+00 0. -1.
         -2   -1    0    0    0  501 -0.00000000000E+00 -0.00000000000E+00 -0.86253768532E+02  0.86253768532E+02  0.00000000000E+00 0.  1.
         25    2    1    2    0    0  0.50925056338E+02  0.17593066627E+02  0.66811477277E+02  0.15170781057E+03  0.12509440009E+03 0.  0.
          5    1    3    3  502    0  0.53755806157E+02 -0.46702914117E+02  0.29441830774E+02  0.77169570959E+02  0.41800000000E+01 0.  1.
         -5    1    3    3    0  502 -0.28307498192E+01  0.64295980744E+02  0.37369646503E+02  0.74538239609E+02  0.41800000000E+01 0.  1.
        -11    1    1    2    0    0 -0.46202024338E+02 -0.49041152164E+01  0.54776341082E+02  0.71827048814E+02  0.00000000000E+00 0. -1.
         11    1    1    2    0    0 -0.47230320006E+01 -0.12688951410E+02 -0.33981245537E+02  0.36579250504E+02  0.00000000000E+00 0.  1.
</event>
<event>
 7    1  0.2480409E-009  0.2828846E+03  0.7561462E-02  0.1094124E+00
         -1   -1    0    0    0  501 -0.00000000000E+00  0.00000000000E+00  0.22385631695E+03  0.22385631695E+03  0.00000000000E+00 0.  1.
          1   -1    0    0  501    0  0.00000000000E+00 -0.00000000000E+00 -0.71873924812E+03  0.71873924812E+03  0.00000000000E+00 0. -1.
         25    2    1    2    0    0 -0.86000662658E+02  0.25998651782E+03 -0.57299526637E+03  0.64727112985E+03  0.12508891569E+03 0.  0.
          5    1    3    3  502    0 -0.36809159170E+02  0.22735067397E+03 -0.37017834274E+03  0.43599623964E+03  0.41800000000E+01 0. -1.
         -5    1    3    3    0  502 -0.49191503488E+02  0.32635843851E+02 -0.20281692363E+03  0.21127489020E+03  0.41800000000E+01 0. -1.
        -11    1    1    2    0    0  0.85070411332E+02 -0.21464951281E+03  0.36463930302E+02  0.23375415814E+03  0.00000000000E+00 0. -1.
         11    1    1    2    0    0  0.93025132674E+00 -0.45337005008E+02  0.41648404896E+02  0.61570277091E+02  0.00000000000E+00 0.  1.
</event>
<event>
 7    1  0.2480409E-009  0.3479439E+03  0.7561462E-02  0.1063462E+00
          2   -1    0    0  501    0  0.00000000000E+00  0.00000000000E+00  0.20801866557E+04  0.20801866557E+04  0.00000000000E+00 0. -1.
         -2   -1    0    0    0  501 -0.00000000000E+00 -0.00000000000E+00 -0.60228731407E+02  0.60228731407E+02  0.00000000000E+00 0.  1.
         25    2    1    2    0    0 -0.17277273406E+03  0.28417087448E+03  0.87093979902E+03  0.94062964604E+03  0.12507795156E+03 0.  0.
          5    1    3    3  502    0  0.16360663937E+02  0.48659826774E+02  0.16266293330E+03  0.17062283650E+03  0.41800000000E+01 0. -1.
         -5    1    3    3    0  502 -0.18913339800E+03  0.23551104771E+03  0.70827686572E+03  0.77000680954E+03  0.41800000000E+01 0. -1.
        -11    1    1    2    0    0 -0.72736231587E+00 -0.54274920946E+02  0.13077824867E+03  0.14159536159E+03  0.00000000000E+00 0.  1.
         11    1    1    2    0    0  0.17350009637E+03 -0.22989595353E+03  0.10182398766E+04  0.10581903794E+04  0.00000000000E+00 0. -1.
</event>
<event>
 7    1  0.2480409E-009  0.9479810E+02  0.7561462E-02  0.1291631E+00
         -2   -1    0    0    0  501 -0.00000000000E+00  0.00000000000E+00  0.38410104785E+02  0.38410104785E+02  0.00000000000E+00 0.  1.
          2   -1    0    0  501    0  0.00000000000E+00 -0.00000000000E+00 -0.33745780436E+03  0.33745780436E+03  0.00000000000E+00 0. -1.
         25    2    1    2    0    0  0.18456888877E+02  0.87529713706E+01 -0.11771915541E+03  0.17298318354E+03  0.12509240977E+03 0.  0.
          5    1    3    3  502    0 -0.44020719591E+02  0.29710267168E+01 -0.97216101808E+02  0.10684144142E+03  0.41800000000E+01 0. -1.
         -5    1    3    3    0  502  0.62477608468E+02  0.57819446538E+01 -0.20503053603E+02  0.66141742122E+02  0.41800000000E+01 0. -1.
        -11    1    1    2    0    0  0.15326289114E+02  0.28342277700E+02 -0.11670110051E+03  0.12106744692E+03  0.00000000000E+00 0.  1.
         11    1    1    2    0    0 -0.33783177990E+02 -0.37095249070E+02 -0.64627443657E+02  0.81817278691E+02  0.00000000000E+00 0. -1.
</event>
<event>
 7    1  0.2480409E-009  0.1231480E+03  0.7561462E-02  0.1237992E+00
         -1   -1    0    0    0  501 -0.00000000000E+00  0.00000000000E+00  0.13500594147E+03  0.13500594147E+03  0.00000000000E+00 0.  1.
          1   -1    0    0  501    0  0.00000000000E+00 -0.00000000000E+00 -0.13013220876E+03  0.13013220876E+03  0.00000000000E+00 0. -1.
         25    2    1    2    0    0 -0.18180072481E+02  0.67147808766E+02 -0.28356580050E+02  0.14590995626E+03  0.12508507683E+03 0.  0.
          5    1    3    3  502    0 -0.38040146703E+01 -0.31863365517E+02 -0.32264570829E+02  0.45697040610E+02  0.41800000000E+01 0. -1.
         -5    1    3    3    0  502 -0.14376057811E+02  0.99011174283E+02  0.39079907796E+01  0.10021291565E+03  0.41800000000E+01 0. -1.
        -11    1    1    2    0    0  0.45600676890E+02 -0.72703397982E+02  0.30658098704E+02  0.91132457594E+02  0.00000000000E+00 0. -1.
         11    1    1    2    0    0 -0.27420604409E+02  0.55555892164E+01  0.25722140529E+01  0.28095736382E+02  0.00000000000E+00 0.  1.
</event>
<event>
 7    1  0.2480409E-009  0.8337984E+02  0.7561462E-02  0.1319725E+00
         -1   -1    0    0    0  501 -0.00000000000E+00  0.00000000000E+00  0.16062198594E+03  0.16062198594E+03  0.00000000000E+00 0.  1.
          1   -1    0    0  501    0  0.00000000000E+00 -0.00000000000E+00 -0.10202338705E+03  0.10202338705E+03  0.00000000000E+00 0. -1.
         25    2    1    2    0    0  0.66723082558E+02  0.16670713013E+02  0.31417111994E+02  0.14616653794E+03  0.12509092480E+03 0.  0.
          5    1    3    3  502    0  0.42264994436E+02 -0.57841789368E+01  0.77886140588E+02  0.88901686016E+02  0.41800000000E+01 0. -1.
         -5    1    3    3    0  502  0.24458088121E+02  0.22454891950E+02 -0.46469028594E+02  0.57264851921E+02  0.41800000000E+01 0. -1.
        -11    1    1    2    0    0 -0.44980058118E+02 -0.38804102265E+02  0.50256870167E+02  0.77812061918E+02  0.00000000000E+00 0.  1.
         11    1    1    2    0    0 -0.21743024440E+02  0.22133389252E+02 -0.23075383268E+02  0.38666773133E+02  0.00000000000E+00 0. -1.
</event>
<event>
 7    1  0.2480409E-009  0.1139190E+03  0.7561462E-02  0.1253480E+00
         -4   -1    0    0    0  501 -0.00000000000E+00  0.00000000000E+00  0.38268367985E+02  0.38268367985E+02  0.00000000000E+00 0.  1.
          4   -1    0    0  501    0  0.00000000000E+00 -0.00000000000E+00 -0.51736568359E+03  0.51736568359E+03  0.00000000000E+00 0. -1.
         25    2    1    2    0    0  0.81464835744E+02  0.57735198544E+01 -0.33630207612E+03  0.36798679009E+03  0.12508132669E+03 0.  0.
          5    1    3    3  502    0  0.10113990248E+03  0.28616036458E+02 -0.17778971317E+03  0.20657882739E+03  0.41800000000E+01 0.  1.
         -5    1    3    3    0  502 -0.19675066737E+02 -0.22842516603E+02 -0.15851236295E+03  0.16140796270E+03  0.41800000000E+01 0.  1.
        -11    1    1    2    0    0 -0.29145826899E+02  0.18511901490E+02 -0.97023393374E+00  0.34541439986E+02  0.00000000000E+00 0.  1.
         11    1    1    2    0    0 -0.52319008846E+02 -0.24285421344E+02 -0.14182500556E+03  0.15310582150E+03  0.00000000000E+00 0. -1.
</event>
<event>
 7    1  0.2480409E-009  0.1557645E+03  0.7561462E-02  0.1193563E+00
          2   -1    0    0  501    0  0.00000000000E+00  0.00000000000E+00  0.70300401132E+03  0.70300401132E+03  0.00000000000E+00 0. -1.
         -2   -1    0    0    0  501 -0.00000000000E+00 -0.00000000000E+00 -0.40217991948E+02  0.40217991948E+02  0.00000000000E+00 0.  1.
         25    2    1    2    0    0 -0.14813800940E+02 -0.12087674327E+03  0.25315522629E+03  0.30751565758E+03  0.12509066830E+03 0.  0.
          5    1    3    3  502    0 -0.69449081286E+02 -0.71932748229E+02  0.12923355197E+03  0.16345115024E+03  0.41800000000E+01 0.  1.
         -5    1    3    3    0  502  0.54635280347E+02 -0.48943995037E+02  0.12392167431E+03  0.14406450734E+03  0.41800000000E+01 0.  1.
        -11    1    1    2    0    0 -0.22821740335E+02  0.76317790363E+02  0.15258427692E+03  0.17212553129E+03  0.00000000000E+00 0.  1.
         11    1    1    2    0    0  0.37635541275E+02  0.44558952903E+02  0.25704651616E+03  0.26358081440E+03  0.00000000000E+00 0. -1.
</event>
<event>
 7    1  0.2480409E-009  0.1028225E+03  0.7561462E-02  0.1274470E+00
          2   -1    0    0  501    0  0.00000000000E+00  0.00000000000E+00  0.25244961162E+03  0.25244961162E+03  0.00000000000E+00 0. -1.
         -2   -1    0    0    0  501 -0.00000000000E+00 -0.00000000000E+00 -0.89275614077E+02  0.89275614077E+02  0.00000000000E+00 0.  1.
         25    2    1    2    0    0  0.63357591390E+02 -0.95051955978E+00  0.18322206424E+03  0.23073189487E+03  0.12510713254E+03 0.  0.
          5    1    3    3  502    0  0.83285339116E+01  0.40937521371E+02  0.85852869801E+01  0.42853525942E+02  0.41800000000E+01 0. -1.
         -5    1    3    3    0  502  0.55029057478E+02 -0.41888040931E+02  0.17463677726E+03  0.18787836893E+03  0.41800000000E+01 0. -1.
        -11    1    1    2    0    0 -0.19474996581E+02 -0.33389727293E+02 -0.36220029099E+02  0.52972067058E+02  0.00000000000E+00 0.  1.
         11    1    1    2    0    0 -0.43882594809E+02  0.34340246852E+02  0.16171962399E+02  0.58021263765E+02  0.00000000000E+00 0. -1.
</event>
<event>
 7    1  0.2480409E-009  0.9672286E+02  0.7561462E-02  0.1287342E+00
          2   -1    0    0  501    0  0.00000000000E+00  0.00000000000E+00  0.43557717015E+02  0.43557717015E+02  0.00000000000E+00 0. -1.
         -2   -1    0    0    0  501 -0.00000000000E+00 -0.00000000000E+00 -0.47069774329E+03  0.47069774329E+03  0.00000000000E+00 0.  1.
         25    2    1    2    0    0  0.82738237849E+02 -0.14000742509E+02 -0.16258874680E+03  0.22163582685E+03  0.12508278204E+03 0.  0.
          5    1    3    3  502    0  0.72805205789E+00 -0.42503305637E+01  0.20166883400E+02  0.21042123366E+02  0.41800000000E+01 0. -1.
         -5    1    3    3    0  502  0.82010185791E+02 -0.97504119449E+01 -0.18275563020E+03  0.20059370348E+03  0.41800000000E+01 0. -1.
        -11    1    1    2    0    0 -0.77906821951E+02 -0.11536475029E+02 -0.25148753615E+03  0.26353091659E+03  0.00000000000E+00 0.  1.
         11    1    1    2    0    0 -0.48314158977E+01  0.25537217538E+02 -0.13063743326E+02  0.29088716865E+02  0.00000000000E+00 0. -1.
</event>
<event>
 7    1  0.2480409E-009  0.3032147E+03  0.7561462E-02  0.1083645E+00
          2   -1    0    0  501    0  0.00000000000E+00  0.00000000000E+00  0.76740058676E+03  0.76740058676E+03  0.00000000000E+00 0. -1.
         -2   -1    0    0    0  501 -0.00000000000E+00 -0.00000000000E+00 -0.21508412667E+03  0.21508412667E+03  0.00000000000E+00 0.  1.
         25    2    1    2    0    0  0.53733157156E+02 -0.28146598610E+03 -0.40612757561E+02  0.31528823078E+03  0.12508764479E+03 0.  0.
          5    1    3    3  502    0 -0.34036811797E+02 -0.11287672374E+03  0.10459248628E+02  0.11843364218E+03  0.41800000000E+01 0. -1.
         -5    1    3    3    0  502  0.87769968952E+02 -0.16858926237E+03 -0.51072006189E+02  0.19685458860E+03  0.41800000000E+01 0. -1.
        -11    1    1    2    0    0  0.20764023307E+02  0.10089521407E+03  0.27954096865E+03  0.29791633396E+03  0.00000000000E+00 0.  1.
         11    1    1    2    0    0 -0.74497180463E+02  0.18057077203E+03  0.31338824900E+03  0.36928014869E+03  0.00000000000E+00 0. -1.
</event>
<event>
 7    1  0.2892074E-009  0.1520202E+03  0.7561462E-02  0.1198012E+00
          2   -1    0    0  501    0  0.00000000000E+00  0.00000000000E+00  0.10773014256E+04  0.10773014256E+04  0.00000000000E+00 0. -1.
         -2   -1    0    0    0  501 -0.00000000000E+00 -0.00000000000E+00 -0.27358077903E+02  0.27358077903E+02  0.00000000000E+00 0.  1.
         25    2    1    2    0    0 -0.73632958098E+02 -0.79042465048E+02  0.31072469198E+03  0.35194647277E+03  0.12508781593E+03 0.  0.
          5    1    3    3  502    0 -0.12231769717E+02 -0.97348988640E+02  0.15483706043E+03  0.18335329138E+03  0.41800000000E+01 0.  1.
         -5    1    3    3    0  502 -0.61401188381E+02  0.18306523592E+02  0.15588763155E+03  0.16859318139E+03  0.41800000000E+01 0.  1.
        -11    1    1    2    0    0  0.27819351732E+02  0.90269979112E+02  0.47105872051E+03  0.48043615978E+03  0.00000000000E+00 0.  1.
         11    1    1    2    0    0  0.45813606366E+02 -0.11227514064E+02  0.26815993522E+03  0.27227687095E+03  0.00000000000E+00 0. -1.
</event>
<event>
 7    1  0.2480409E-009  0.1130375E+03  0.7561462E-02  0.1255046E+00
          3   -1    0    0  501    0  0.00000000000E+00  0.00000000000E+00  0.12916594151E+02  0.12916594151E+02  0.00000000000E+00 0. -1.
         -3   -1    0    0    0  501 -0.00000000000E+00 -0.00000000000E+00 -0.18666915019E+04  0.18666915019E+04  0.00000000000E+00 0.  1.
         25    2    1    2    0    0  0.91703632257E+02 -0.26251989949E+02 -0.13387709577E+04  0.13479821906E+04  0.12509830488E+03 0.  0.
          5    1    3    3  502    0  0.32558497486E+02 -0.75611524164E+01 -0.11211342482E+04  0.11216401837E+04  0.41800000000E+01 0. -1.
         -5    1    3    3    0  502  0.59145134772E+02 -0.18690837533E+02 -0.21763670946E+03  0.22634200688E+03  0.41800000000E+01 0. -1.
        -11    1    1    2    0    0 -0.10709021636E+03  0.95554830216E+01 -0.38861066528E+03  0.40320946277E+03  0.00000000000E+00 0. -1.
         11    1    1    2    0    0  0.15386584100E+02  0.16696506928E+02 -0.12639328480E+03  0.12841644270E+03  0.00000000000E+00 0.  1.
</event>
<event>
 7    1  0.2480409E-009  0.1744281E+03  0.7561462E-02  0.1173307E+00
          2   -1    0    0  501    0  0.00000000000E+00  0.00000000000E+00  0.30324835647E+03  0.30324835647E+03  0.00000000000E+00 0. -1.
         -2   -1    0    0    0  501 -0.00000000000E+00 -0.00000000000E+00 -0.12795474554E+03  0.12795474554E+03  0.00000000000E+00 0.  1.
         25    2    1    2    0    0  0.11502943123E+03  0.93116499251E+02  0.17048416905E+03  0.25810103623E+03  0.12509532575E+03 0.  0.
          5    1    3    3  502    0  0.90397831380E+02  0.11249281037E+03  0.86360224692E+02  0.16823186711E+03  0.41800000000E+01 0.  1.
         -5    1    3    3    0  502  0.24631599848E+02 -0.19376311121E+02  0.84123944355E+02  0.89869169116E+02  0.41800000000E+01 0.  1.
        -11    1    1    2    0    0 -0.11324369479E+03 -0.40574915749E+02  0.68756765113E+01  0.12048955608E+03  0.00000000000E+00 0. -1.
         11    1    1    2    0    0 -0.17857364397E+01 -0.52541583502E+02 -0.20662346336E+01  0.52612509701E+02  0.00000000000E+00 0.  1.
</event>
<event>
 7    1  0.2480409E-009  0.2799683E+03  0.7561462E-02  0.1095706E+00
          1   -1    0    0  501    0  0.00000000000E+00  0.00000000000E+00  0.16408044853E+04  0.16408044853E+04  0.00000000000E+00 0. -1.
         -1   -1    0    0    0  501 -0.00000000000E+00 -0.00000000000E+00 -0.49895797179E+02  0.49895797179E+02  0.00000000000E+00 0.  1.
         25    2    1    2    0    0  0.13146164153E+03 -0.22763492197E+03  0.88416034610E+03  0.93085271921E+03  0.12508975322E+03 0.  0.
          5    1    3    3  502    0  0.83656719687E+02 -0.22398792320E+03  0.67136796333E+03  0.71268608172E+03  0.41800000000E+01 0.  1.
         -5    1    3    3    0  502  0.47804921845E+02 -0.36469987719E+01  0.21279238276E+03  0.21816663749E+03  0.41800000000E+01 0.  1.
        -11    1    1    2    0    0 -0.54376196245E+02  0.33679458891E+02  0.10517517848E+03  0.12309709516E+03  0.00000000000E+00 0.  1.
         11    1    1    2    0    0 -0.77085445287E+02  0.19395546308E+03  0.60157316351E+03  0.63675046807E+03  0.00000000000E+00 0. -1.
</event>
<event>
 7    1  0.2480409E-009  0.8630420E+02  0.7561462E-02  0.1312057E+00
         -3   -1    0    0    0  501 -0.00000000000E+00  0.00000000000E+00  0.88338077974E+02  0.88338077974E+02  0.00000000000E+00 0.  1.
          3   -1    0    0  501    0  0.00000000000E+00 -0.00000000000E+00 -0.17008179149E+03  0.17008179149E+03  0.00000000000E+00 0. -1.
         25    2    1    2    0    0 -0.26886845197E+01  0.21786538657E+02 -0.10342958256E+03  0.16378434490E+03  0.12508297564E+03 0.  0.
          5    1    3    3  502    0  0.17490476736E+02  0.54129928993E+02 -0.11090398666E+03  0.12471219927E+03  0.41800000000E+01 0.  1.
         -5    1    3    3    0  502 -0.20179161256E+02 -0.32343390336E+02  0.74744041057E+01  0.39072145630E+02  0.41800000000E+01 0.  1.
        -11    1    1    2    0    0  0.31223847425E+02 -0.34015801813E+02  0.37785835484E+02  0.59663831458E+02  0.00000000000E+00 0.  1.
         11    1    1    2    0    0 -0.28535162905E+02  0.12229263156E+02 -0.16099966449E+02  0.34971693111E+02  0.00000000000E+00 0. -1.
</event>
<event>
 7    1  0.2480409E-009  0.3577405E+03  0.7561462E-02  0.1059482E+00
          2   -1    0    0  501    0  0.00000000000E+00  0.00000000000E+00  0.38694608708E+03  0.38694608708E+03  0.00000000000E+00 0. -1.
         -2   -1    0    0    0  501 -0.00000000000E+00 -0.00000000000E+00 -0.33668910187E+03  0.33668910187E+03  0.00000000000E+00 0.  1.
         25    2    1    2    0    0 -0.19200590064E+03 -0.28209645096E+03  0.57707559698E+02  0.36800030658E+03  0.12509752064E+03 0.  0.
          5    1    3    3  502    0 -0.13391256656E+03 -0.27170972154E+03  0.36432000364E+02  0.30512867992E+03  0.41800000000E+01 0. -1.
         -5    1    3    3    0  502 -0.58093334085E+02 -0.10386729418E+02  0.21275559333E+02  0.62871626654E+02  0.41800000000E+01 0. -1.
        -11    1    1    2    0    0  0.58129685463E+02  0.24534552214E+02  0.13778846803E+02  0.64582205007E+02  0.00000000000E+00 0. -1.
         11    1    1    2    0    0  0.13387621518E+03  0.25756189874E+03 -0.21229421291E+02  0.29105267737E+03  0.00000000000E+00 0.  1.
</event>
<event>
 7    1  0.2480409E-009  0.4035415E+03  0.7561462E-02  0.1042560E+00
         -2   -1    0    0    0  501 -0.00000000000E+00  0.00000000000E+00  0.51588312815E+02  0.51588312815E+02  0.00000000000E+00 0.  1.
          2   -1    0    0  501    0  0.00000000000E+00 -0.00000000000E+00 -0.33879541435E+04  0.33879541435E+04  0.00000000000E+00 0. -1.
         25    2    1    2    0    0  0.27664851418E+03  0.29240532637E+03 -0.15519871771E+04  0.16082124114E+04  0.12509071589E+03 0.  0.
          5    1    3    3  502    0  0.50005621594E+02  0.36975376149E+02 -0.11094041283E+03  0.12725167280E+03  0.41800000000E+01 0.  1.
         -5    1    3    3    0  502  0.22664289259E+03  0.25542995022E+03 -0.14410467642E+04  0.14809607386E+04  0.41800000000E+01 0.  1.
        -11    1    1    2    0    0 -0.14339665234E+03 -0.13422040921E+03 -0.10580827989E+04  0.10761584119E+04  0.00000000000E+00 0.  1.
         11    1    1    2    0    0 -0.13325186184E+03 -0.15818491716E+03 -0.72629585470E+03  0.75517163298E+03  0.00000000000E+00 0. -1.
</event>
<event>
 7    1  0.2480409E-009  0.1036332E+03  0.7561462E-02  0.1272836E+00
          2   -1    0    0  501    0  0.00000000000E+00  0.00000000000E+00  0.59039716880E+03  0.59039716880E+03  0.00000000000E+00 0. -1.
         -2   -1    0    0    0  501 -0.00000000000E+00 -0.00000000000E+00 -0.33836462861E+02  0.33836462861E+02  0.00000000000E+00 0.  1.
         25    2    1    2    0    0 -0.24149582550E+02  0.82139228106E+02  0.35464807897E+03  0.38568523844E+03  0.12509111921E+03 0.  0.
          5    1    3    3  502    0  0.26171103187E+01 -0.15449748242E+02  0.20104228912E+03  0.20169536038E+03  0.41800000000E+01 0. -1.
         -5    1    3    3    0  502 -0.26766692869E+02  0.97588976348E+02  0.15360578985E+03  0.18398987806E+03  0.41800000000E+01 0. -1.
        -11    1    1    2    0    0  0.29720856379E+02 -0.60247367762E+02  0.20502014584E+03  0.21574599608E+03  0.00000000000E+00 0. -1.
         11    1    1    2    0    0 -0.55712738293E+01 -0.21891860345E+02 -0.31075188719E+01  0.22802397132E+02  0.00000000000E+00 0.  1.
</event>
<event>
 7    1  0.2480409E-009  0.1631971E+03  0.7561462E-02  0.1185134E+00
         -2   -1    0    0    0  501 -0.00000000000E+00  0.00000000000E+00  0.40187406411E+03  0.40187406411E+03  0.00000000000E+00 0.  1.
          2   -1    0    0  501    0  0.00000000000E+00 -0.00000000000E+00 -0.91117713007E+02  0.91117713007E+02  0.00000000000E+00 0. -1.
         25    2    1    2    0    0  0.56285419191E+02 -0.14299464838E+03  0.12041812965E+03  0.23187028255E+03  0.12509110320E+03 0.  0.
          5    1    3    3  502    0  0.43696254713E+02 -0.97365665436E+02  0.14362882819E+03  0.17898644689E+03  0.41800000000E+01 0. -1.
         -5    1    3    3    0  502  0.12589164479E+02 -0.45628982948E+02 -0.23210698542E+02  0.52883835658E+02  0.41800000000E+01 0. -1.
        -11    1    1    2    0    0 -0.57970741907E+02  0.43281586551E+02  0.11610016021E+03  0.13679601549E+03  0.00000000000E+00 0. -1.
         11    1    1    2    0    0  0.16853227154E+01  0.99713061833E+02  0.74238061238E+02  0.12432547908E+03  0.00000000000E+00 0.  1.
</event>
<event>
 7    1  0.2623658E-009  0.1400535E+03  0.7561462E-02  0.1213257E+00
         -1   -1    0    0    0  501 -0.00000000000E+00  0.00000000000E+00  0.77358790801E+02  0.77358790801E+02  0.00000000000E+00 0.  1.
          1   -1    0    0  501    0  0.00000000000E+00 -0.00000000000E+00 -0.29463880584E+03  0.29463880584E+03  0.00000000000E+00 0. -1.
         25    2    1    2    0    0  0.35105118676E+02 -0.98237735350E+02 -0.12674019942E+03  0.20638287882E+03  0.12509113685E+03 0.  0.
          5    1    3    3  502    0  0.79653615044E+02 -0.64715264154E+02 -0.58647556716E+02  0.11827836705E+03  0.41800000000E+01 0. -1.
         -5    1    3    3    0  502 -0.44548496367E+02 -0.33522471196E+02 -0.68092642707E+02  0.88104511771E+02  0.41800000000E+01 0. -1.
        -11    1    1    2    0    0  0.54503124460E+01  0.74076537397E+02 -0.92177076006E+02  0.11837927453E+03  0.00000000000E+00 0. -1.
         11    1    1    2    0    0 -0.40555431122E+02  0.24161197953E+02  0.16372603944E+01  0.47235443278E+02  0.00000000000E+00 0.  1.
</event>
<event>
 7    1  0.2480409E-009  0.1352716E+03  0.7561462E-02  0.1219837E+00
         -1   -1    0    0    0  501 -0.00000000000E+00  0.00000000000E+00  0.46840654600E+03  0.46840654600E+03  0.00000000000E+00 0.  1.
          1   -1    0    0  501    0  0.00000000000E+00 -0.00000000000E+00 -0.42197573273E+02  0.42197573273E+02  0.00000000000E+00 0. -1.
         25    2    1    2    0    0 -0.16023537563E+02  0.79951700415E+02  0.29573071187E+03  0.33128976584E+03  0.12508887583E+03 0.  0.
          5    1    3    3  502    0 -0.10415788020E+02 -0.32898409008E+02  0.90988132157E+02  0.97401778981E+02  0.41800000000E+01 0. -1.
         -5    1    3    3    0  502 -0.56077495427E+01  0.11285010942E+03  0.20474257971E+03  0.23388798686E+03  0.41800000000E+01 0. -1.
        -11    1    1    2    0    0  0.47106539164E+02 -0.12947308530E+02  0.57964688312E+02  0.75806094223E+02  0.00000000000E+00 0.  1.
         11    1    1    2    0    0 -0.31083001601E+02 -0.67004391885E+02  0.72513572547E+02  0.10350825921E+03  0.00000000000E+00 0. -1.
</event>
<event>
 7    1  0.2480409E-009  0.1007671E+03  0.7561462E-02  0.1278691E+00
          1   -1    0    0  501    0  0.00000000000E+00  0.00000000000E+00  0.80907108307E+02  0.80907108307E+02  0.00000000000E+00 0. -1.
         -1   -1    0    0    0  501 -0.00000000000E+00 -0.00000000000E+00 -0.17622602911E+03  0.17622602911E+03  0.00000000000E+00 0.  1.
         25    2    1    2    0    0 -0.78069188156E+01  0.85983736714E+01 -0.95687191809E+01  0.12599245838E+03  0.12509060385E+03 0.  0.
          5    1    3    3  502    0 -0.21362643250E+02  0.56362721885E+02 -0.35235575420E+02  0.69943814023E+02  0.41800000000E+01 0.  1.
         -5    1    3    3    0  502  0.13555724434E+02 -0.47764348213E+02  0.25666856239E+02  0.56048644358E+02  0.41800000000E+01 0.  1.
        -11    1    1    2    0    0 -0.39479795392E+02  0.95830738966E+01 -0.13326046774E+02  0.42755971186E+02  0.00000000000E+00 0. -1.
         11    1    1    2    0    0  0.47286714207E+02 -0.18181447568E+02 -0.72424154852E+02  0.88384707853E+02  0.00000000000E+00 0.  1.
</event>
<event>
 7    1  0.2480409E-009  0.1524517E+03  0.7561462E-02  0.1197492E+00
         -2   -1    0    0    0  501 -0.00000000000E+00  0.00000000000E+00  0.10469903921E+03  0.10469903921E+03  0.00000000000E+00 0.  1.
          2   -1    0    0  501    0  0.00000000000E+00 -0.00000000000E+00 -0.32727061004E+03  0.32727061004E+03  0.00000000000E+00 0. -1.
         25    2    1    2    0    0  0.11361615328E+03  0.89823196630E+02 -0.74421043427E+02  0.20533474722E+03  0.12508808804E+03 0.  0.
          5    1    3    3  502    0  0.12068818147E+03  0.72510500678E+02 -0.13537515332E+02  0.14150670152E+03  0.41800000000E+01 0. -1.
         -5    1    3    3    0  502 -0.70720281817E+01  0.17312695952E+02 -0.60883528095E+02  0.63828045694E+02  0.41800000000E+01 0. -1.
        -11    1    1    2    0    0 -0.54236616591E+02 -0.45280196251E+02 -0.12142652319E+02  0.71689265285E+02  0.00000000000E+00 0.  1.
         11    1    1    2    0    0 -0.59379536694E+02 -0.44543000379E+02 -0.13600787509E+03  0.15494563675E+03  0.00000000000E+00 0. -1.
</event>
<event>
 7    1  0.2480409E-009  0.1676861E+03  0.7561462E-02  0.1180283E+00
          3   -1    0    0  501    0  0.00000000000E+00  0.00000000000E+00  0.43478777473E+03  0.43478777473E+03  0.00000000000E+00 0. -1.
         -3   -1    0    0    0  501 -0.00000000000E+00 -0.00000000000E+00 -0.72740287029E+02  0.72740287029E+02  0.00000000000E+00 0.  1.
         25    2    1    2    0    0 -0.13892663536E+03 -0.19165975315E+02  0.19257821790E+03  0.26907737083E+03  0.12509323268E+03 0.  0.
          5    1    3    3  502    0  0.14667944179E+02  0.11497241658E+02 -0.20607115691E+01  0.19210780420E+02  0.41800000000E+01 0.  1.
         -5    1    3    3    0  502 -0.15359457954E+03 -0.30663216973E+02  0.19463892947E+03  0.24986659041E+03  0.41800000000E+01 0.  1.
        -11    1    1    2    0    0  0.13360211852E+03  0.38900968380E+02  0.11583729561E+03  0.18105549003E+03  0.00000000000E+00 0. -1.
         11    1    1    2    0    0  0.53245168332E+01 -0.19734993064E+02  0.53631974195E+02  0.57395200904E+02  0.00000000000E+00 0.  1.
</event>
<event>
 7    1  0.2480409E-009  0.1700511E+03  0.7561462E-02  0.1177795E+00
          1   -1    0    0  501    0  0.00000000000E+00  0.00000000000E+00  0.54526193993E+03  0.54526193993E+03  0.00000000000E+00 0. -1.
         -1   -1    0    0    0  501 -0.00000000000E+00 -0.00000000000E+00 -0.76455327517E+02  0.76455327517E+02  0.00000000000E+00 0.  1.
         25    2    1    2    0    0 -0.15003841135E+03  0.72485193665E+02  0.31362758302E+03  0.37653571819E+03  0.12510498818E+03 0.  0.
          5    1    3    3  502    0 -0.10437756520E+03  0.51227938305E+02  0.30343873649E+03  0.32497925623E+03  0.41800000000E+01 0. -1.
         -5    1    3    3    0  502 -0.45660846151E+02  0.21257255361E+02  0.10188846532E+02  0.51556461965E+02  0.41800000000E+01 0. -1.
        -11    1    1    2    0    0  0.10292565360E+03 -0.72856163550E+02  0.61450502952E+02  0.14027784946E+03  0.00000000000E+00 0.  1.
         11    1    1    2    0    0  0.47112757746E+02  0.37096988455E+00  0.93728526446E+02  0.10490369980E+03  0.00000000000E+00 0. -1.
</event>
<event>
 7    1  0.2480409E-009  0.1096477E+03  0.7561462E-02  0.1261224E+00
          1   -1    0    0  501    0  0.00000000000E+00  0.00000000000E+00  0.73937037120E+03  0.73937037120E+03  0.00000000000E+00 0. -1.
         -1   -1    0    0    0  501 -0.00000000000E+00 -0.00000000000E+00 -0.20618620856E+02  0.20618620856E+02  0.00000000000E+00 0.  1.
         25    2    1    2    0    0  0.47839718319E+01 -0.43767829274E+02  0.28504817242E+03  0.31438825285E+03  0.12509597781E+03 0.  0.
          5    1    3    3  502    0  0.55917816199E+02 -0.37201205647E+02  0.22640853234E+03  0.23619701053E+03  0.41800000000E+01 0. -1.
         -5    1    3    3    0  502 -0.51133844368E+02 -0.65666236271E+01  0.58639640081E+02  0.78191242313E+02  0.41800000000E+01 0. -1.
        -11    1    1    2    0    0  0.28598273020E+02  0.57472513936E+02  0.23312994504E+03  0.24180678723E+03  0.00000000000E+00 0. -1.
         11    1    1    2    0    0 -0.33382244852E+02 -0.13704684662E+02  0.20057363288E+03  0.20379395197E+03  0.00000000000E+00 0.  1.
</event>
<event>
 7    1  0.2480409E-009  0.1350026E+03  0.7561462E-02  0.1220216E+00
         -1   -1    0    0    0  501 -0.00000000000E+00  0.00000000000E+00  0.47988257926E+02  0.47988257926E+02  0.00000000000E+00 0. -1.
          1   -1    0    0  501    0  0.00000000000E+00 -0.00000000000E+00 -0.51143504329E+03  0.51143504329E+03  0.00000000000E+00 0.  1.
         25    2    1    2    0    0 -0.84744742493E+02  0.58124446331E+02 -0.16774420992E+03  0.23312156279E+03  0.12508964959E+03 0.  0.
          5    1    3    3  502    0 -0.11671938911E+03  0.34096286298E+02 -0.12540313930E+03  0.17472662156E+03  0.41800000000E+01 0.  1.
         -5    1    3    3    0  502  0.31974646616E+02  0.24028160033E+02 -0.42341070620E+02  0.58394941237E+02  0.41800000000E+01 0.  1.
        -11    1    1    2    0    0  0.65590226700E+02 -0.59976204532E+02 -0.29381762201E+03  0.30696582538E+03  0.00000000000E+00 0.  1.
         11    1    1    2    0    0  0.19154515794E+02  0.18517582007E+01 -0.18849534315E+01  0.19335913042E+02  0.00000000000E+00 0. -1.
</event>
<event>
 7    1  0.2480409E-009  0.1174512E+03  0.7561462E-02  0.1247362E+00
         -2   -1    0    0    0  501 -0.00000000000E+00  0.00000000000E+00  0.27137584673E+03  0.27137584673E+03  0.00000000000E+00 0.  1.
          2   -1    0    0  501    0  0.00000000000E+00 -0.00000000000E+00 -0.50962777145E+02  0.50962777145E+02  0.00000000000E+00 0. -1.
         25    2    1    2    0    0 -0.46769859344E+02 -0.38247200807E+00  0.12440538603E+03  0.18251557028E+03  0.12509063631E+03 0.  0.
          5    1    3    3  502    0  0.35909671094E+02  0.28046672782E+02  0.48213403361E+02  0.66468977695E+02  0.41800000000E+01 0.  1.
         -5    1    3    3    0  502 -0.82679530438E+02 -0.28429144790E+02  0.76191982667E+02  0.11604659258E+03  0.41800000000E+01 0.  1.
        -11    1    1    2    0    0  0.58567674629E+02  0.32794171043E+02  0.65153413783E+02  0.93544628352E+02  0.00000000000E+00 0.  1.
         11    1    1    2    0    0 -0.11797815285E+02 -0.32411699035E+02  0.30854269769E+02  0.46278425242E+02  0.00000000000E+00 0. -1.
</event>
<event>
 7    1  0.2480409E-009  0.1749995E+03  0.7561462E-02  0.1172732E+00
         -1   -1    0    0    0  501 -0.00000000000E+00  0.00000000000E+00  0.36109041690E+02  0.36109041690E+02  0.00000000000E+00 0.  1.
          1   -1    0    0  501    0  0.00000000000E+00 -0.00000000000E+00 -0.11189802002E+04  0.11189802002E+04  0.00000000000E+00 0. -1.
         25    2    1    2    0    0 -0.42935299658E+01 -0.15010501002E+03 -0.79102760152E+03  0.81481410833E+03  0.12508963318E+03 0.  0.
          5    1    3    3  502    0 -0.63131785926E+02 -0.64676305781E+02 -0.41270335325E+03  0.42250464744E+03  0.41800000000E+01 0. -1.
         -5    1    3    3    0  502  0.58838255960E+02 -0.85428704240E+02 -0.37832424827E+03  0.39230946089E+03  0.41800000000E+01 0. -1.
        -11    1    1    2    0    0 -0.15665450352E+02  0.28926600716E+02 -0.12614507434E+02  0.35231808945E+02  0.00000000000E+00 0.  1.
         11    1    1    2    0    0  0.19958980318E+02  0.12117840931E+03 -0.27922904952E+03  0.30504332458E+03  0.00000000000E+00 0. -1.
</event>
<event>
 7    1  0.2480409E-009  0.1285475E+03  0.7561462E-02  0.1229627E+00
         -1   -1    0    0    0  501 -0.00000000000E+00  0.00000000000E+00  0.23066139189E+02  0.23066139189E+02  0.00000000000E+00 0.  1.
          1   -1    0    0  501    0  0.00000000000E+00 -0.00000000000E+00 -0.90182999385E+03  0.90182999385E+03  0.00000000000E+00 0. -1.
         25    2    1    2    0    0 -0.58707392315E+01  0.72474436163E+02 -0.67348334105E+03  0.68885012744E+03  0.12509067885E+03 0.  0.
          5    1    3    3  502    0  0.56808095012E+02  0.23476301337E+02 -0.22194221059E+03  0.23033478596E+03  0.41800000000E+01 0. -1.
         -5    1    3    3    0  502 -0.62678834244E+02  0.48998134826E+02 -0.45154113046E+03  0.45851534148E+03  0.41800000000E+01 0. -1.
        -11    1    1    2    0    0  0.46052347686E+02 -0.21263059381E+02 -0.10292768206E+03  0.11474774140E+03  0.00000000000E+00 0.  1.
         11    1    1    2    0    0 -0.40181608455E+02 -0.51211376783E+02 -0.10235283155E+03  0.12129826419E+03  0.00000000000E+00 0. -1.
</event>
<event>
 7    1  0.2480409E-009  0.1049116E+03  0.7561462E-02  0.1270294E+00
         -1   -1    0    0    0  501 -0.00000000000E+00  0.00000000000E+00  0.23083125052E+02  0.23083125052E+02  0.00000000000E+00 0.  1.
          1   -1    0    0  501    0  0.00000000000E+00 -0.00000000000E+00 -0.68850661543E+03  0.68850661543E+03  0.00000000000E+00 0. -1.
         25    2    1    2    0    0  0.83835553602E+01  0.53164632183E+02 -0.48988406826E+03  0.50845883756E+03  0.12508887654E+03 0.  0.
          5    1    3    3  502    0  0.31110798555E+02  0.86580554177E+02 -0.38783875639E+03  0.39862318988E+03  0.41800000000E+01 0.  1.
         -5    1    3    3    0  502 -0.22727243195E+02 -0.33415921994E+02 -0.10204531188E+03  0.10983564768E+03  0.41800000000E+01 0.  1.
        -11    1    1    2    0    0  0.79548891043E+01  0.94710560743E+01  0.34129587724E+01  0.12830800887E+02  0.00000000000E+00 0.  1.
         11    1    1    2    0    0 -0.16338444465E+02 -0.62635688257E+02 -0.17895238088E+03  0.19030010204E+03  0.00000000000E+00 0. -1.
</event>
<event>
 7    1  0.2480409E-009  0.9360445E+02  0.7561462E-02  0.1294351E+00
         -1   -1    0    0    0  501 -0.00000000000E+00  0.00000000000E+00  0.30182022094E+02  0.30182022094E+02  0.00000000000E+00 0.  1.
          1   -1    0    0  501    0  0.00000000000E+00 -0.00000000000E+00 -0.42423315773E+03  0.42423315773E+03  0.00000000000E+00 0. -1.
         25    2    1    2    0    0 -0.19485353068E+02  0.15468148482E+02 -0.23108202570E+03  0.26394020135E+03  0.12508630895E+03 0.  0.
          5    1    3    3  502    0  0.32650037136E+02 -0.13393492254E+02 -0.13025434220E+02  0.37848974839E+02  0.41800000000E+01 0.  1.
         -5    1    3    3    0  502 -0.52135390204E+02  0.28861640736E+02 -0.21805659148E+03  0.22609122651E+03  0.41800000000E+01 0.  1.
        -11    1    1    2    0    0  0.51670122005E+02  0.77509860785E+01 -0.57024792588E+02  0.77341491212E+02  0.00000000000E+00 0.  1.
         11    1    1    2    0    0 -0.32184768937E+02 -0.23219134560E+02 -0.10594431734E+03  0.11313348726E+03  0.00000000000E+00 0. -1.
</event>
<event>
 7    1  0.2480409E-009  0.1084871E+03  0.7561462E-02  0.1263398E+00
         -2   -1    0    0    0  501 -0.00000000000E+00  0.00000000000E+00  0.50385701779E+02  0.50385701779E+02  0.00000000000E+00 0. -1.
          2   -1    0    0  501    0  0.00000000000E+00 -0.00000000000E+00 -0.42517003785E+03  0.42517003785E+03  0.00000000000E+00 0.  1.
         25    2    1    2    0    0  0.72961406863E+02 -0.26371967363E+01 -0.98379315998E+02  0.17509042862E+03  0.12509135333E+03 0.  0.
          5    1    3    3  502    0  0.88301164158E+02  0.35025520805E+02 -0.38495433919E+02  0.10258291053E+03  0.41800000000E+01 0. -1.
         -5    1    3    3    0  502 -0.15339757295E+02 -0.37662717542E+02 -0.59883882080E+02  0.72507518089E+02  0.41800000000E+01 0. -1.
        -11    1    1    2    0    0 -0.37746192770E+02 -0.16193603737E+02 -0.24819942753E+03  0.25157496635E+03  0.00000000000E+00 0.  1.
         11    1    1    2    0    0 -0.35215214094E+02  0.18830800473E+02 -0.28205592544E+02  0.48890344659E+02  0.00000000000E+00 0. -1.
</event>
<event>
 7    1  0.2480409E-009  0.1579142E+03  0.7561462E-02  0.1191072E+00
          1   -1    0    0  501    0  0.00000000000E+00  0.00000000000E+00  0.81929100077E+03  0.81929100077E+03  0.00000000000E+00 0.  1.
         -1   -1    0    0    0  501 -0.00000000000E+00 -0.00000000000E+00 -0.57105975665E+02  0.57105975665E+02  0.00000000000E+00 0. -1.
         25    2    1    2    0    0 -0.12016560753E+03  0.57395277200E+02  0.13167854791E+03  0.22521035118E+03  0.12508585541E+03 0.  0.
          5    1    3    3  502    0 -0.10766074680E+03 -0.14918407584E+02  0.86071594952E+02  0.13870539695E+03  0.41800000000E+01 0. -1.
         -5    1    3    3    0  502 -0.12504860737E+02  0.72313684784E+02  0.45606952957E+02  0.86504954235E+02  0.41800000000E+01 0. -1.
        -11    1    1    2    0    0  0.10789408317E+03 -0.54786025085E+02  0.62640734096E+03  0.63798808652E+03  0.00000000000E+00 0.  1.
         11    1    1    2    0    0  0.12271524362E+02 -0.26092521151E+01  0.40991362334E+01  0.13198538731E+02  0.00000000000E+00 0. -1.
</event>
<event>
 7    1  0.2480409E-009  0.1137474E+03  0.7561462E-02  0.1253784E+00
          1   -1    0    0  501    0  0.00000000000E+00  0.00000000000E+00  0.38550169666E+03  0.38550169666E+03  0.00000000000E+00 0. -1.
         -1   -1    0    0    0  501 -0.00000000000E+00 -0.00000000000E+00 -0.38129226341E+02  0.38129226341E+02  0.00000000000E+00 0.  1.
         25    2    1    2    0    0  0.35505923348E+02 -0.26912430912E+02  0.24809951211E+03  0.28139902113E+03  0.12508833539E+03 0.  0.
          5    1    3    3  502    0  0.80811251318E+02 -0.31742404414E+02  0.15703845584E+03  0.17948979801E+03  0.41800000000E+01 0.  1.
         -5    1    3    3    0  502 -0.45305327970E+02  0.48299735021E+01  0.91061056276E+02  0.10190922312E+03  0.41800000000E+01 0.  1.
        -11    1    1    2    0    0 -0.35044794974E+02  0.55819238447E+02  0.42218763237E+02  0.78270997214E+02  0.00000000000E+00 0.  1.
         11    1    1    2    0    0 -0.46112837373E+00 -0.28906807535E+02  0.57054194970E+02  0.63960904660E+02  0.00000000000E+00 0. -1.
</event>
<event>
 7    1  0.2480409E-009  0.2631184E+03  0.7561462E-02  0.1105284E+00
         -2   -1    0    0    0  501 -0.00000000000E+00  0.00000000000E+00  0.17572270397E+03  0.17572270397E+03  0.00000000000E+00 0.  1.
          2   -1    0    0  501    0  0.00000000000E+00 -0.00000000000E+00 -0.14527687650E+04  0.14527687650E+04  0.00000000000E+00 0. -1.
         25    2    1    2    0    0 -0.14138076691E+02 -0.25972621654E+03 -0.13183230394E+04  0.13495471106E+04  0.12507667523E+03 0.  0.
          5    1    3    3  502    0 -0.26074022403E+02 -0.78612756834E+02 -0.70662372922E+03  0.71147339183E+03  0.41800000000E+01 0.  1.
         -5    1    3    3    0  502  0.11935945712E+02 -0.18111345970E+03 -0.61169931019E+03  0.63807371876E+03  0.41800000000E+01 0.  1.
        -11    1    1    2    0    0 -0.39254519518E+01  0.17846858220E+03  0.68740689534E+02  0.19128964008E+03  0.00000000000E+00 0.  1.
         11    1    1    2    0    0  0.18063528643E+02  0.81257634341E+02 -0.27463711129E+02  0.87654718269E+02  0.00000000000E+00 0. -1.
</event>
<event>
 7    1  0.2480409E-009  0.9837274E+02  0.7561462E-02  0.1283756E+00
         -3   -1    0    0    0  501 -0.00000000000E+00  0.00000000000E+00  0.11096821190E+03  0.11096821190E+03  0.00000000000E+00 0.  1.
          3   -1    0    0  501    0  0.00000000000E+00 -0.00000000000E+00 -0.13805467862E+03  0.13805467862E+03  0.00000000000E+00 0. -1.
         25    2    1    2    0    0  0.33965859689E+01 -0.40544069120E+02  0.25767500088E+02  0.13405361841E+03  0.12510415745E+03 0.  0.
          5    1    3    3  502    0  0.57160081068E+02  0.35634765503E+01  0.28961995437E+02  0.64313628513E+02  0.41800000000E+01 0.  1.
         -5    1    3    3    0  502 -0.53763495099E+02 -0.44107545671E+02 -0.31944953487E+01  0.69739989897E+02  0.41800000000E+01 0.  1.
        -11    1    1    2    0    0  0.17515196559E+02  0.44987298699E+02 -0.71721346162E+02  0.86455714964E+02  0.00000000000E+00 0. -1.
         11    1    1    2    0    0 -0.20911782528E+02 -0.44432295789E+01  0.18867379354E+02  0.28513557149E+02  0.00000000000E+00 0.  1.
</event>
<event>
 7    1  0.2480409E-009  0.1854391E+03  0.7561462E-02  0.1162641E+00
          2   -1    0    0  501    0  0.00000000000E+00  0.00000000000E+00  0.81749762388E+03  0.81749762388E+03  0.00000000000E+00 0. -1.
         -2   -1    0    0    0  501 -0.00000000000E+00 -0.00000000000E+00 -0.43406986951E+02  0.43406986951E+02  0.00000000000E+00 0.  1.
         25    2    1    2    0    0  0.15314208972E+03  0.60589652501E+01  0.41579980232E+03  0.46046274781E+03  0.12508899158E+03 0.  0.
          5    1    3    3  502    0  0.14075883398E+03  0.47663567845E+02  0.26931753538E+03  0.30762683938E+03  0.41800000000E+01 0. -1.
         -5    1    3    3    0  502  0.12383255738E+02 -0.41604602595E+02  0.14648226694E+03  0.15283590844E+03  0.41800000000E+01 0. -1.
        -11    1    1    2    0    0 -0.63112961443E+02  0.42714274806E+02  0.16305686159E+03  0.17998693088E+03  0.00000000000E+00 0.  1.
         11    1    1    2    0    0 -0.90029128275E+02 -0.48773240056E+02  0.19523397301E+03  0.22045493213E+03  0.00000000000E+00 0. -1.
</event>
<event>
 7    1  0.2480409E-009  0.1821836E+03  0.7561462E-02  0.1165706E+00
         -2   -1    0    0    0  501 -0.00000000000E+00  0.00000000000E+00  0.26763907246E+02  0.26763907246E+02  0.00000000000E+00 0.  1.
          2   -1    0    0  501    0  0.00000000000E+00 -0.00000000000E+00 -0.20566138545E+04  0.20566138545E+04  0.00000000000E+00 0. -1.
         25    2    1    2    0    0 -0.13514211106E+03 -0.56922765001E+02 -0.17026602821E+04  0.17135350843E+04  0.12508739851E+03 0.  0.
          5    1    3    3  502    0 -0.34194076594E+02 -0.81725349598E+02 -0.77090497734E+03  0.77598983507E+03  0.41800000000E+01 0.  1.
         -5    1    3    3    0  502 -0.10094803447E+03  0.24802584597E+02 -0.93175530480E+03  0.93754524919E+03  0.41800000000E+01 0.  1.
        -11    1    1    2    0    0  0.79223732085E+02 -0.14907266400E+02 -0.13620203357E+03  0.15827071828E+03  0.00000000000E+00 0.  1.
         11    1    1    2    0    0  0.55918378974E+02  0.71830031401E+02 -0.19098763158E+03  0.21157195924E+03  0.00000000000E+00 0. -1.
</event>
<event>
 7    1  0.2480409E-009  0.9347789E+02  0.7561462E-02  0.1294642E+00
         -2   -1    0    0    0  501 -0.00000000000E+00  0.00000000000E+00  0.16175059350E+02  0.16175059350E+02  0.00000000000E+00 0.  1.
          2   -1    0    0  501    0  0.00000000000E+00 -0.00000000000E+00 -0.80949576395E+03  0.80949576395E+03  0.00000000000E+00 0. -1.
         25    2    1    2    0    0  0.13855882908E+01  0.31113589936E+02 -0.48930236382E+03  0.50599710797E+03  0.12508514982E+03 0.  0.
          5    1    3    3  502    0 -0.25367938911E+02  0.50571002056E+02 -0.97691657439E+02  0.11296942465E+03  0.41800000000E+01 0. -1.
         -5    1    3    3    0  502  0.26753527202E+02 -0.19457412120E+02 -0.39161070638E+03  0.39302768332E+03  0.41800000000E+01 0. -1.
        -11    1    1    2    0    0 -0.45563360396E+02 -0.25863157712E+02 -0.19528853024E+03  0.20219429463E+03  0.00000000000E+00 0. -1.
         11    1    1    2    0    0  0.44177772106E+02 -0.52504322245E+01 -0.10872981054E+03  0.11747942069E+03  0.00000000000E+00 0.  1.
</event>
<event>
 7    1  0.2480409E-009  0.4644030E+02  0.7561462E-02  0.1465545E+00
         -2   -1    0    0    0  501 -0.00000000000E+00  0.00000000000E+00  0.18265882081E+03  0.18265882081E+03  0.00000000000E+00 0.  1.
          2   -1    0    0  501    0  0.00000000000E+00 -0.00000000000E+00 -0.68896913873E+02  0.68896913873E+02  0.00000000000E+00 0. -1.
         25    2    1    2    0    0  0.11830709745E+02 -0.15427802950E+02  0.86565896986E+02  0.15335851724E+03  0.12508875845E+03 0.  0.
          5    1    3    3  502    0 -0.18874093872E+02 -0.52332098732E+01  0.11087887190E+03  0.11267304265E+03  0.41800000000E+01 0. -1.
         -5    1    3    3    0  502  0.30704803617E+02 -0.10194593077E+02 -0.24312974918E+02  0.40685474589E+02  0.41800000000E+01 0. -1.
        -11    1    1    2    0    0 -0.21764169559E+02  0.19758343188E+02  0.58282725094E+02  0.65275931602E+02  0.00000000000E+00 0.  1.
         11    1    1    2    0    0  0.99334598136E+01 -0.43305402379E+01 -0.31086715148E+02  0.32921285839E+02  0.00000000000E+00 0. -1.
</event>
<event>
 7    1  0.2480409E-009  0.1208311E+03  0.7561462E-02  0.1241732E+00
         -2   -1    0    0    0  501 -0.00000000000E+00  0.00000000000E+00  0.35135787822E+02  0.35135787822E+02  0.00000000000E+00 0.  1.
          2   -1    0    0  501    0  0.00000000000E+00 -0.00000000000E+00 -0.45181219221E+03  0.45181219221E+03  0.00000000000E+00 0. -1.
         25    2    1    2    0    0  0.44023703509E+02 -0.42654728415E+02 -0.20154235567E+03  0.24499923759E+03  0.12509113863E+03 0.  0.
          5    1    3    3  502    0  0.11985338520E+02 -0.81909547840E+02 -0.89639551101E+02  0.12208826270E+03  0.41800000000E+01 0. -1.
         -5    1    3    3    0  502  0.32038364990E+02  0.39254819425E+02 -0.11190280457E+03  0.12291097490E+03  0.41800000000E+01 0. -1.
        -11    1    1    2    0    0 -0.70128491360E+02  0.18881592887E+02 -0.11757274436E+03  0.13819504357E+03  0.00000000000E+00 0.  1.
         11    1    1    2    0    0  0.26104787851E+02  0.23773135528E+02 -0.97561304353E+02  0.10375369887E+03  0.00000000000E+00 0. -1.
</event>
<event>
 7    1  0.2480409E-009  0.9689671E+02  0.7561462E-02  0.1286960E+00
          2   -1    0    0  501    0  0.00000000000E+00  0.00000000000E+00  0.62687614968E+03  0.62687614968E+03  0.00000000000E+00 0. -1.
         -2   -1    0    0    0  501 -0.00000000000E+00 -0.00000000000E+00 -0.22480784349E+02  0.22480784349E+02  0.00000000000E+00 0.  1.
         25    2    1    2    0    0 -0.10931726396E+02  0.31690202036E+02  0.24431987917E+03  0.27651821179E+03  0.12508535705E+03 0.  0.
          5    1    3    3  502    0  0.46214591102E+02  0.31608612895E+01  0.17947287669E+03  0.18540163252E+03  0.41800000000E+01 0. -1.
         -5    1    3    3    0  502 -0.57146317497E+02  0.28529340746E+02  0.64847002477E+02  0.91116579266E+02  0.41800000000E+01 0. -1.
        -11    1    1    2    0    0 -0.31837968808E+02 -0.34548720398E+01  0.56304236622E+02  0.64774682247E+02  0.00000000000E+00 0.  1.
         11    1    1    2    0    0  0.42769695204E+02 -0.28235329996E+02  0.30377124954E+03  0.30806403999E+03  0.00000000000E+00 0. -1.
</event>
<event>
 7    1  0.2480409E-009  0.9055422E+02  0.7561462E-02  0.1301515E+00
          1   -1    0    0  501    0  0.00000000000E+00  0.00000000000E+00  0.19378147330E+03  0.19378147330E+03  0.00000000000E+00 0. -1.
         -1   -1    0    0    0  501 -0.00000000000E+00 -0.00000000000E+00 -0.89048850105E+02  0.89048850105E+02  0.00000000000E+00 0.  1.
         25    2    1    2    0    0 -0.17786923289E+02 -0.74779684266E+02  0.48816588114E+02  0.15472637833E+03  0.12509523195E+03 0.  0.
          5    1    3    3  502    0 -0.58931159105E+00 -0.18227809926E+02 -0.42176088539E+02  0.46139952181E+02  0.41800000000E+01 0.  1.
         -5    1    3    3    0  502 -0.17197611698E+02 -0.56551874341E+02  0.90992676653E+02  0.10858642615E+03  0.41800000000E+01 0.  1.
        -11    1    1    2    0    0  0.13575201652E+02  0.88116242225E+02  0.65944908095E+02  0.11089404469E+03  0.00000000000E+00 0. -1.
         11    1    1    2    0    0  0.42117216369E+01 -0.13336557959E+02 -0.10028873014E+02  0.17209900386E+02  0.00000000000E+00 0.  1.
</event>
<event>
 7    1  0.2480409E-009  0.8832756E+02  0.7561462E-02  0.1306953E+00
         -1   -1    0    0    0  501 -0.00000000000E+00  0.00000000000E+00  0.10457231959E+03  0.10457231959E+03  0.00000000000E+00 0.  1.
          1   -1    0    0  501    0  0.00000000000E+00 -0.00000000000E+00 -0.12652798310E+03  0.12652798310E+03  0.00000000000E+00 0. -1.
         25    2    1    2    0    0  0.70909174103E+01  0.29213077463E+02 -0.34174410373E+02  0.13311447311E+03  0.12509151698E+03 0.  0.
          5    1    3    3  502    0  0.52481642884E+01  0.60852403622E+02 -0.64586872463E+02  0.88991543135E+02  0.41800000000E+01 0. -1.
         -5    1    3    3    0  502  0.18427531219E+01 -0.31639326159E+02  0.30412462090E+02  0.44122929971E+02  0.41800000000E+01 0. -1.
        -11    1    1    2    0    0 -0.42526256613E+02 -0.12771425243E+02  0.31481770308E+02  0.54430631688E+02  0.00000000000E+00 0.  1.
         11    1    1    2    0    0  0.35435339203E+02 -0.16441652220E+02 -0.19263023442E+02  0.43555197902E+02  0.00000000000E+00 0. -1.
</event>
<event>
 7    1  0.2480409E-009  0.1095236E+03  0.7561462E-02  0.1261455E+00
          1   -1    0    0  501    0  0.00000000000E+00  0.00000000000E+00  0.66683069824E+03  0.66683069824E+03  0.00000000000E+00 0. -1.
         -1   -1    0    0    0  501 -0.00000000000E+00 -0.00000000000E+00 -0.21503361984E+02  0.21503361984E+02  0.00000000000E+00 0.  1.
         25    2    1    2    0    0 -0.99985384573E+01  0.48174889965E+02  0.41893154465E+03  0.43996864464E+03  0.12509187973E+03 0.  0.
          5    1    3    3  502    0  0.52731889681E+02  0.72399990881E+01  0.24144998360E+03  0.24728250394E+03  0.41800000000E+01 0. -1.
         -5    1    3    3    0  502 -0.62730428139E+02  0.40934890877E+02  0.17748156105E+03  0.19268614070E+03  0.41800000000E+01 0. -1.
        -11    1    1    2    0    0 -0.25394977172E+02 -0.49046359107E+02  0.76554593971E+02  0.94398390162E+02  0.00000000000E+00 0.  1.
         11    1    1    2    0    0  0.35393515629E+02  0.87146914145E+00  0.14984119764E+03  0.15396702542E+03  0.00000000000E+00 0. -1.
</event>
<event>
 7    1  0.2480409E-009  0.1302455E+03  0.7561462E-02  0.1227092E+00
         -2   -1    0    0    0  501 -0.00000000000E+00  0.00000000000E+00  0.32327609812E+02  0.32327609812E+02  0.00000000000E+00 0.  1.
          2   -1    0    0  501    0  0.00000000000E+00 -0.00000000000E+00 -0.17646450971E+04  0.17646450971E+04  0.00000000000E+00 0. -1.
         25    2    1    2    0    0 -0.80338244308E+01  0.73690204575E+02 -0.16457754054E+04  0.16521858311E+04  0.12508615672E+03 0.  0.
          5    1    3    3  502    0  0.57633171757E+02  0.26950620935E+02 -0.63494891051E+03  0.63814223321E+03  0.41800000000E+01 0.  1.
         -5    1    3    3    0  502 -0.65666996188E+02  0.46739583640E+02 -0.10108264949E+04  0.10140435979E+04  0.41800000000E+01 0.  1.
        -11    1    1    2    0    0 -0.22166396451E+02 -0.81799740291E+02 -0.65198807281E+02  0.10692722345E+03  0.00000000000E+00 0. -1.
         11    1    1    2    0    0  0.30200220882E+02  0.81095357155E+01 -0.21343274553E+02  0.37859652395E+02  0.00000000000E+00 0.  1.
</event>
<event>
 7    1  0.2480409E-009  0.8985606E+02  0.7561462E-02  0.1303201E+00
         -3   -1    0    0    0  501 -0.00000000000E+00  0.00000000000E+00  0.16531798767E+03  0.16531798767E+03  0.00000000000E+00 0.  1.
          3   -1    0    0  501    0  0.00000000000E+00 -0.00000000000E+00 -0.13845366974E+03  0.13845366974E+03  0.00000000000E+00 0. -1.
         25    2    1    2    0    0  0.20149308433E+02 -0.38202049710E+02 -0.81738038035E+02  0.15554430335E+03  0.12509009637E+03 0.  0.
          5    1    3    3  502    0 -0.50947503695E+02 -0.31716039244E+02 -0.45130365133E+02  0.75204903664E+02  0.41800000000E+01 0. -1.
         -5    1    3    3    0  502  0.71096812128E+02 -0.64860104655E+01 -0.36607672902E+02  0.80339399685E+02  0.41800000000E+01 0. -1.
        -11    1    1    2    0    0  0.64460400557E+00  0.21117143664E+02  0.11788178491E+03  0.11976002875E+03  0.00000000000E+00 0.  1.
         11    1    1    2    0    0 -0.20793912438E+02  0.17084906046E+02 -0.92794289536E+01  0.28467325319E+02  0.00000000000E+00 0. -1.
</event>
<event>
 7    1  0.2480409E-009  0.1027704E+03  0.7561462E-02  0.1274576E+00
         -1   -1    0    0    0  501 -0.00000000000E+00  0.00000000000E+00  0.47607778587E+02  0.47607778587E+02  0.00000000000E+00 0.  1.
          1   -1    0    0  501    0  0.00000000000E+00 -0.00000000000E+00 -0.29568942404E+03  0.29568942404E+03  0.00000000000E+00 0. -1.
         25    2    1    2    0    0  0.20242339779E+02 -0.36514213421E+02 -0.13505353181E+03  0.18875812072E+03  0.12508849500E+03 0.  0.
          5    1    3    3  502    0 -0.47855316044E+02  0.61458028407E+01 -0.70837809275E+02  0.85810079765E+02  0.41800000000E+01 0. -1.
         -5    1    3    3    0  502  0.68097655823E+02 -0.42660016262E+02 -0.64215722538E+02  0.10294804096E+03  0.41800000000E+01 0. -1.
        -11    1    1    2    0    0 -0.84859839544E+01  0.54501434359E+02 -0.19390031460E+02  0.58467012844E+02  0.00000000000E+00 0.  1.
         11    1    1    2    0    0 -0.11756355825E+02 -0.17987220938E+02 -0.93638082178E+02  0.96072069059E+02  0.00000000000E+00 0. -1.
</event>
<event>
 7    1  0.2480409E-009  0.1138458E+03  0.7561462E-02  0.1253609E+00
         -1   -1    0    0    0  501 -0.00000000000E+00  0.00000000000E+00  0.15223911865E+03  0.15223911865E+03  0.00000000000E+00 0.  1.
          1   -1    0    0  501    0  0.00000000000E+00 -0.00000000000E+00 -0.10298194586E+03  0.10298194586E+03  0.00000000000E+00 0. -1.
         25    2    1    2    0    0 -0.98558562768E+01 -0.58375070775E+02  0.47485025315E+02  0.14630866162E+03  0.12508641031E+03 0.  0.
          5    1    3    3  502    0  0.98246211123E+01  0.32127628907E+02 -0.12267739182E+02  0.36009409102E+02  0.41800000000E+01 0. -1.
         -5    1    3    3    0  502 -0.19680477389E+02 -0.90502699683E+02  0.59752764497E+02  0.11029925251E+03  0.41800000000E+01 0. -1.
        -11    1    1    2    0    0 -0.34540153974E+02  0.11120814785E+02 -0.18828463388E+02  0.40880383946E+02  0.00000000000E+00 0.  1.
         11    1    1    2    0    0  0.44396010251E+02  0.47254255990E+02  0.20600610862E+02  0.68032018956E+02  0.00000000000E+00 0. -1.
</event>
<event>
 7    1  0.2480409E-009  0.1066214E+03  0.7561462E-02  0.1266958E+00
          1   -1    0    0  501    0  0.00000000000E+00  0.00000000000E+00  0.76754435255E+02  0.76754435255E+02  0.00000000000E+00 0. -1.
         -1   -1    0    0    0  501 -0.00000000000E+00 -0.00000000000E+00 -0.23446635583E+03  0.23446635583E+03  0.00000000000E+00 0.  1.
         25    2    1    2    0    0 -0.46948943108E+02  0.10759439960E+02 -0.16129683271E+03  0.20972275629E+03  0.12508795888E+03 0.  0.
          5    1    3    3  502    0  0.22040645843E+02  0.41887646708E+02 -0.24822037920E+02  0.53609429976E+02  0.41800000000E+01 0.  1.
         -5    1    3    3    0  502 -0.68989588950E+02 -0.31128206748E+02 -0.13647479479E+03  0.15611332631E+03  0.41800000000E+01 0.  1.
        -11    1    1    2    0    0  0.45569461158E+02  0.26449441097E+02  0.25241762406E+02  0.58423413918E+02  0.00000000000E+00 0. -1.
         11    1    1    2    0    0  0.13794819496E+01 -0.37208881056E+02 -0.21656850261E+02  0.43074620871E+02  0.00000000000E+00 0.  1.
</event>
<event>
 7    1  0.2480409E-009  0.1695068E+03  0.7561462E-02  0.1178363E+00
         -2   -1    0    0    0  501 -0.00000000000E+00  0.00000000000E+00  0.74470022816E+02  0.74470022816E+02  0.00000000000E+00 0.  1.
          2   -1    0    0  501    0  0.00000000000E+00 -0.00000000000E+00 -0.66409757171E+03  0.66409757171E+03  0.00000000000E+00 0. -1.
         25    2    1    2    0    0  0.15450957212E+03  0.26766106800E+02 -0.49572638416E+03  0.53477298469E+03  0.12509142599E+03 0.  0.
          5    1    3    3  502    0  0.70825542935E+02  0.21797022179E+02 -0.40267600873E+03  0.40945916538E+03  0.41800000000E+01 0.  1.
         -5    1    3    3    0  502  0.83684029187E+02  0.49690846209E+01 -0.93050375425E+02  0.12531381931E+03  0.41800000000E+01 0.  1.
        -11    1    1    2    0    0 -0.15744875923E+02 -0.38501373674E+02 -0.22741411742E+02  0.47407053280E+02  0.00000000000E+00 0.  1.
         11    1    1    2    0    0 -0.13876469620E+03  0.11735266874E+02 -0.71159752999E+02  0.15638755656E+03  0.00000000000E+00 0. -1.
</event>
<event>
 7    1  0.2480409E-009  0.6688971E+02  0.7561462E-02  0.1371001E+00
          2   -1    0    0  501    0  0.00000000000E+00  0.00000000000E+00  0.12019173003E+03  0.12019173003E+03  0.00000000000E+00 0.  1.
         -2   -1    0    0    0  501 -0.00000000000E+00 -0.00000000000E+00 -0.11267935543E+03  0.11267935543E+03  0.00000000000E+00 0. -1.
         25    2    1    2    0    0  0.27768163703E+02  0.21851240422E+02  0.29058994542E+02  0.13319715391E+03  0.12509400074E+03 0.  0.
          5    1    3    3  502    0  0.35329462186E+02 -0.19196590811E+02 -0.37094883052E+02  0.54865132332E+02  0.41800000000E+01 0. -1.
         -5    1    3    3    0  502 -0.75612984830E+01  0.41047831234E+02  0.66153877593E+02  0.78332021577E+02  0.41800000000E+01 0. -1.
        -11    1    1    2    0    0  0.53991172791E+01 -0.17062475447E+02 -0.51628003408E+02  0.54641827126E+02  0.00000000000E+00 0. -1.
         11    1    1    2    0    0 -0.33167280982E+02 -0.47887649750E+01  0.30081383472E+02  0.45032104429E+02  0.00000000000E+00 0.  1.
</event>
<event>
 7    1  0.2480409E-009  0.1412795E+03  0.7561462E-02  0.1211618E+00
         -4   -1    0    0    0  501 -0.00000000000E+00  0.00000000000E+00  0.82661251899E+03  0.82661251899E+03  0.00000000000E+00 0.  1.
          4   -1    0    0  501    0  0.00000000000E+00 -0.00000000000E+00 -0.27943285906E+02  0.27943285906E+02  0.00000000000E+00 0. -1.
         25    2    1    2    0    0 -0.74260115421E+02  0.73991970182E+02  0.38882577255E+03  0.42169390785E+03  0.12510353362E+03 0.  0.
          5    1    3    3  502    0 -0.40486926778E+02 -0.28821291816E+02  0.78395618826E+02  0.92915034052E+02  0.41800000000E+01 0. -1.
         -5    1    3    3    0  502 -0.33773188643E+02  0.10281326200E+03  0.31043015372E+03  0.32877887379E+03  0.41800000000E+01 0. -1.
        -11    1    1    2    0    0  0.70101461619E+02 -0.23812575280E+02  0.14009753482E+03  0.15845684878E+03  0.00000000000E+00 0. -1.
         11    1    1    2    0    0  0.41586538017E+01 -0.50179394903E+02  0.26974592572E+03  0.27440504828E+03  0.00000000000E+00 0.  1.
</event>
<event>
 7    1  0.2480409E-009  0.9029249E+02  0.7561462E-02  0.1302145E+00
          3   -1    0    0  501    0  0.00000000000E+00  0.00000000000E+00  0.16339461022E+03  0.16339461022E+03  0.00000000000E+00 0. -1.
         -3   -1    0    0    0  501 -0.00000000000E+00 -0.00000000000E+00 -0.90352179546E+02  0.90352179546E+02  0.00000000000E+00 0.  1.
         25    2    1    2    0    0 -0.18752489815E+02  0.19149127556E+02  0.88362912454E+02  0.15548072124E+03  0.12509158812E+03 0.  0.
          5    1    3    3  502    0  0.80427968710E+01 -0.40663487402E+02 -0.43242678888E+01  0.41885289566E+02  0.41800000000E+01 0.  1.
         -5    1    3    3    0  502 -0.26795286686E+02  0.59812614958E+02  0.92687180343E+02  0.11359543167E+03  0.41800000000E+01 0.  1.
        -11    1    1    2    0    0  0.16404137754E+02  0.24529010834E+02  0.25076304772E+02  0.38724529293E+02  0.00000000000E+00 0. -1.
         11    1    1    2    0    0  0.23483520606E+01 -0.43678138390E+02 -0.40396786553E+02  0.59541539234E+02  0.00000000000E+00 0.  1.
</event>
<event>
 7    1  0.2480409E-009  0.1315999E+03  0.7561462E-02  0.1225101E+00
         -4   -1    0    0    0  501 -0.00000000000E+00  0.00000000000E+00  0.32834772013E+03  0.32834772013E+03  0.00000000000E+00 0.  1.
          4   -1    0    0  501    0  0.00000000000E+00 -0.00000000000E+00 -0.56469277761E+02  0.56469277761E+02  0.00000000000E+00 0. -1.
         25    2    1    2    0    0  0.79585014747E+02  0.11936307642E+02  0.12929134643E+03  0.19707856500E+03  0.12508980178E+03 0.  0.
          5    1    3    3  502    0  0.15476433737E+02 -0.50390338113E+02  0.21793903599E+02  0.57193992783E+02  0.41800000000E+01 0. -1.
         -5    1    3    3    0  502  0.64108581011E+02  0.62326645756E+02  0.10749744283E+03  0.13988457222E+03  0.41800000000E+01 0. -1.
        -11    1    1    2    0    0 -0.57767207512E+02  0.36053359613E+02  0.93799461925E+02  0.11591045708E+03  0.00000000000E+00 0.  1.
         11    1    1    2    0    0 -0.21817807236E+02 -0.47989667255E+02  0.48787634016E+02  0.71827975808E+02  0.00000000000E+00 0. -1.
</event>
<event>
 7    1  0.2480409E-009  0.8692860E+02  0.7561462E-02  0.1310465E+00
         -1   -1    0    0    0  501 -0.00000000000E+00  0.00000000000E+00  0.51446140289E+02  0.51446140289E+02  0.00000000000E+00 0.  1.
          1   -1    0    0  501    0  0.00000000000E+00 -0.00000000000E+00 -0.20949280094E+03  0.20949280094E+03  0.00000000000E+00 0. -1.
         25    2    1    2    0    0  0.33286555365E+01  0.19318982615E+02 -0.88599902391E+02  0.15455025830E+03  0.12510610137E+03 0.  0.
          5    1    3    3  502    0  0.19889469606E+02 -0.47971019523E+02 -0.16957629091E+02  0.54789080113E+02  0.41800000000E+01 0.  1.
         -5    1    3    3    0  502 -0.16560814069E+02  0.67290002138E+02 -0.71642273301E+02  0.99761178191E+02  0.41800000000E+01 0.  1.
        -11    1    1    2    0    0 -0.18378634541E+02  0.88490513712E+01 -0.71532649508E+02  0.74384137175E+02  0.00000000000E+00 0. -1.
         11    1    1    2    0    0  0.15049979004E+02 -0.28168033986E+02  0.20858912435E+01  0.32004545755E+02  0.00000000000E+00 0.  1.
</event>
<event>
 7    1  0.2480409E-009  0.5824515E+02  0.7561462E-02  0.1405347E+00
         -2   -1    0    0    0  501 -0.00000000000E+00  0.00000000000E+00  0.32168363643E+02  0.32168363643E+02  0.00000000000E+00 0.  1.
          2   -1    0    0  501    0  0.00000000000E+00 -0.00000000000E+00 -0.38755299162E+03  0.38755299162E+03  0.00000000000E+00 0. -1.
         25    2    1    2    0    0 -0.29373986815E+02 -0.86362437203E+01 -0.19293433311E+03  0.23196695024E+03  0.12509034057E+03 0.  0.
          5    1    3    3  502    0 -0.14759938254E+02  0.16523287210E+02 -0.20037960274E+03  0.20164407354E+03  0.41800000000E+01 0.  1.
         -5    1    3    3    0  502 -0.14614048561E+02 -0.25159530930E+02  0.74452696269E+01  0.30322876707E+02  0.41800000000E+01 0.  1.
        -11    1    1    2    0    0 -0.16055818916E+02  0.10322899538E+02 -0.26036758524E-01  0.19088013355E+02  0.00000000000E+00 0.  1.
         11    1    1    2    0    0  0.45429805731E+02 -0.16866558176E+01 -0.16242425811E+03  0.16866639167E+03  0.00000000000E+00 0. -1.
</event>
<event>
 7    1  0.2480409E-009  0.1914168E+03  0.7561462E-02  0.1157190E+00
         -2   -1    0    0    0  501 -0.00000000000E+00  0.00000000000E+00  0.14343921983E+03  0.14343921983E+03  0.00000000000E+00 0.  1.
          2   -1    0    0  501    0  0.00000000000E+00 -0.00000000000E+00 -0.32952133944E+03  0.32952133944E+03  0.00000000000E+00 0. -1.
         25    2    1    2    0    0 -0.17282013398E+03  0.72559716944E+02 -0.12246180913E+03  0.25647194961E+03  0.12509698243E+03 0.  0.
          5    1    3    3  502    0 -0.17065612361E+03  0.65166794848E+02 -0.58422294078E+02  0.19183550381E+03  0.41800000000E+01 0.  1.
         -5    1    3    3    0  502 -0.21640103643E+01  0.73929220956E+01 -0.64039515049E+02  0.64636445800E+02  0.41800000000E+01 0.  1.
        -11    1    1    2    0    0  0.10285953210E+03 -0.63297661536E+02 -0.78925195919E+02  0.14427703854E+03  0.00000000000E+00 0.  1.
         11    1    1    2    0    0  0.69960601873E+02 -0.92620554076E+01  0.15304885428E+02  0.72211571114E+02  0.00000000000E+00 0. -1.
</event>
<event>
 7    1  0.2480409E-009  0.1194293E+03  0.7561462E-02  0.1244042E+00
         -1   -1    0    0    0  501 -0.00000000000E+00  0.00000000000E+00  0.77715750420E+03  0.77715750420E+03  0.00000000000E+00 0.  1.
          1   -1    0    0  501    0  0.00000000000E+00 -0.00000000000E+00 -0.26965301736E+02  0.26965301736E+02  0.00000000000E+00 0. -1.
         25    2    1    2    0    0  0.87145449316E+02 -0.37016833169E+02  0.38134695977E+03  0.41235452702E+03  0.12508467912E+03 0.  0.
          5    1    3    3  502    0  0.24211163646E+01  0.20034651077E+02  0.22251885754E+03  0.22347116907E+03  0.41800000000E+01 0. -1.
         -5    1    3    3    0  502  0.84724332951E+02 -0.57051484246E+02  0.15882810224E+03  0.18888335795E+03  0.41800000000E+01 0. -1.
        -11    1    1    2    0    0 -0.71429821565E+02  0.56440186377E+02  0.34646382162E+03  0.35822464145E+03  0.00000000000E+00 0.  1.
         11    1    1    2    0    0 -0.15715627751E+02 -0.19423353208E+02  0.22381421063E+02  0.33543637463E+02  0.00000000000E+00 0. -1.
</event>
<event>
 7    1  0.2480409E-009  0.9175745E+02  0.7561462E-02  0.1298651E+00
         -1   -1    0    0    0  501 -0.00000000000E+00  0.00000000000E+00  0.42828183884E+02  0.42828183884E+02  0.00000000000E+00 0.  1.
          1   -1    0    0  501    0  0.00000000000E+00 -0.00000000000E+00 -0.31828335360E+03  0.31828335360E+03  0.00000000000E+00 0. -1.
         25    2    1    2    0    0  0.30590271771E+02  0.14447826318E+01 -0.11831767502E+03  0.17488258478E+03  0.12508794552E+03 0.  0.
          5    1    3    3  502    0  0.13416478793E+02 -0.44417144991E+02  0.18931627355E+00  0.46587475924E+02  0.41800000000E+01 0.  1.
         -5    1    3    3    0  502  0.17173792978E+02  0.45861927623E+02 -0.11850699130E+03  0.12829510886E+03  0.41800000000E+01 0.  1.
        -11    1    1    2    0    0 -0.13977504817E+02  0.40403328249E+02 -0.32485575025E+02  0.53694619462E+02  0.00000000000E+00 0.  1.
         11    1    1    2    0    0 -0.16612766954E+02 -0.41848110881E+02 -0.12465191967E+03  0.13253433324E+03  0.00000000000E+00 0. -1.
</event>
<event>
 7    1  0.2480409E-009  0.1054332E+03  0.7561462E-02  0.1269268E+00
          1   -1    0    0  501    0  0.00000000000E+00  0.00000000000E+00  0.11029959525E+04  0.11029959525E+04  0.00000000000E+00 0. -1.
         -1   -1    0    0    0  501 -0.00000000000E+00 -0.00000000000E+00 -0.19243228795E+02  0.19243228795E+02  0.00000000000E+00 0.  1.
         25    2    1    2    0    0  0.80816403309E+00 -0.18776714466E+02  0.95607259442E+03  0.96440380236E+03  0.12508665024E+03 0.  0.
          5    1    3    3  502    0  0.32504296700E+02  0.40622918182E+02  0.57874667993E+03  0.58109546781E+03  0.41800000000E+01 0.  1.
         -5    1    3    3    0  502 -0.31696132667E+02 -0.59399632647E+02  0.37732591450E+03  0.38330833455E+03  0.41800000000E+01 0.  1.
        -11    1    1    2    0    0  0.29867736653E+02 -0.24181053220E+02  0.39831897985E+02  0.55347855647E+02  0.00000000000E+00 0.  1.
         11    1    1    2    0    0 -0.30675900687E+02  0.42957767686E+02  0.87848231303E+02  0.10248752329E+03  0.00000000000E+00 0. -1.
</event>
<event>
 7    1  0.2480409E-009  0.1397404E+03  0.7561462E-02  0.1213679E+00
          1   -1    0    0  501    0  0.00000000000E+00  0.00000000000E+00  0.51266418356E+02  0.51266418356E+02  0.00000000000E+00 0. -1.
         -1   -1    0    0    0  501 -0.00000000000E+00 -0.00000000000E+00 -0.56719321582E+03  0.56719321582E+03  0.00000000000E+00 0.  1.
         25    2    1    2    0    0 -0.94059634795E+02 -0.19805541722E+02 -0.44254938238E+03  0.46982652086E+03  0.12509008545E+03 0.  0.
          5    1    3    3  502    0 -0.11115827295E+03  0.19846181528E+02 -0.34587767869E+03  0.36386656013E+03  0.41800000000E+01 0.  1.
         -5    1    3    3    0  502  0.17098638151E+02 -0.39651723250E+02 -0.96671703694E+02  0.10595996073E+03  0.41800000000E+01 0.  1.
        -11    1    1    2    0    0  0.29935896762E+01  0.31186501308E+02 -0.32183910687E+00  0.31331502093E+02  0.00000000000E+00 0. -1.
         11    1    1    2    0    0  0.91066045118E+02 -0.11380959586E+02 -0.73055575980E+02  0.11730161123E+03  0.00000000000E+00 0.  1.
</event>
<event>
 7    1  0.2480409E-009  0.1148649E+03  0.7561462E-02  0.1251817E+00
          1   -1    0    0  501    0  0.00000000000E+00  0.00000000000E+00  0.17705458968E+02  0.17705458968E+02  0.00000000000E+00 0. -1.
         -1   -1    0    0    0  501 -0.00000000000E+00 -0.00000000000E+00 -0.83007614158E+03  0.83007614158E+03  0.00000000000E+00 0.  1.
         25    2    1    2    0    0  0.47050651632E+01  0.42945065111E+02 -0.58672378283E+03  0.60146323862E+03  0.12508722486E+03 0.  0.
          5    1    3    3  502    0  0.34004351476E+02  0.78693440076E+02 -0.36952386862E+03  0.37936040293E+03  0.41800000000E+01 0.  1.
         -5    1    3    3    0  502 -0.29299286313E+02 -0.35748374965E+02 -0.21719991420E+03  0.22210283569E+03  0.41800000000E+01 0.  1.
        -11    1    1    2    0    0  0.31943948937E+02 -0.50801894905E+02 -0.15747551686E+03  0.16852236294E+03  0.00000000000E+00 0.  1.
         11    1    1    2    0    0 -0.36649014100E+02  0.78568297938E+01 -0.68171382929E+02  0.77795998994E+02  0.00000000000E+00 0. -1.
</event>
<event>
 7    1  0.2907381E-009  0.1599780E+03  0.7561462E-02  0.1188722E+00
         -1   -1    0    0    0  501 -0.00000000000E+00  0.00000000000E+00  0.36190056113E+02  0.36190056113E+02  0.00000000000E+00 0.  1.
          1   -1    0    0  501    0  0.00000000000E+00 -0.00000000000E+00 -0.91683003172E+03  0.91683003172E+03  0.00000000000E+00 0. -1.
         25    2    1    2    0    0 -0.14536811764E+03  0.96604128864E+01 -0.48238907989E+03  0.51920275886E+03  0.12508823770E+03 0.  0.
          5    1    3    3  502    0 -0.11896970824E+02 -0.12240151632E+02  0.63139298756E+00  0.17584944808E+02  0.41800000000E+01 0.  1.
         -5    1    3    3    0  502 -0.13347114681E+03  0.21900564519E+02 -0.48302047288E+03  0.50161781405E+03  0.41800000000E+01 0.  1.
        -11    1    1    2    0    0  0.56298417439E+02  0.36146597126E+02 -0.11097691345E+03  0.12958380921E+03  0.00000000000E+00 0.  1.
         11    1    1    2    0    0  0.89069700200E+02 -0.45807010012E+02 -0.28727398227E+03  0.30423351976E+03  0.00000000000E+00 0. -1.
</event>
<event>
 7    1  0.2480409E-009  0.1252675E+03  0.7561462E-02  0.1234652E+00
         -1   -1    0    0    0  501 -0.00000000000E+00  0.00000000000E+00  0.21941653294E+02  0.21941653294E+02  0.00000000000E+00 0.  1.
          1   -1    0    0  501    0  0.00000000000E+00 -0.00000000000E+00 -0.86550396199E+03  0.86550396199E+03  0.00000000000E+00 0. -1.
         25    2    1    2    0    0  0.63768301813E+02 -0.15182684028E+02 -0.28983363463E+03  0.32240880391E+03  0.12508793255E+03 0.  0.
          5    1    3    3  502    0  0.33882402460E+02  0.54885016162E+02 -0.12257304636E+03  0.13857130399E+03  0.41800000000E+01 0.  1.
         -5    1    3    3    0  502  0.29885899353E+02 -0.70067700191E+02 -0.16726058826E+03  0.18383749992E+03  0.41800000000E+01 0.  1.
        -11    1    1    2    0    0 -0.48444623755E+02  0.51188464154E+02 -0.41294238748E+03  0.41891354216E+03  0.00000000000E+00 0.  1.
         11    1    1    2    0    0 -0.15323678058E+02 -0.36005780126E+02 -0.14078628659E+03  0.14612326921E+03  0.00000000000E+00 0. -1.
</event>
<event>
 7    1  0.2480409E-009  0.1277697E+03  0.7561462E-02  0.1230803E+00
          1   -1    0    0  501    0  0.00000000000E+00  0.00000000000E+00  0.18783200679E+04  0.18783200679E+04  0.00000000000E+00 0. -1.
         -1   -1    0    0    0  501 -0.00000000000E+00 -0.00000000000E+00 -0.13033178208E+02  0.13033178208E+02  0.00000000000E+00 0.  1.
         25    2    1    2    0    0 -0.79388507572E+02 -0.57259799462E+01  0.14953589187E+04  0.15026912443E+04  0.12508939987E+03 0.  0.
          5    1    3    3  502    0 -0.23308700045E+02 -0.56067738831E+02  0.97370795361E+03  0.97560829135E+03  0.41800000000E+01 0.  1.
         -5    1    3    3    0  502 -0.56079807527E+02  0.50341758885E+02  0.52165096505E+03  0.52708295290E+03  0.41800000000E+01 0.  1.
        -11    1    1    2    0    0  0.62913645002E+01 -0.34973956008E+02  0.11286000887E+03  0.11832218925E+03  0.00000000000E+00 0. -1.
         11    1    1    2    0    0  0.73097143072E+02  0.40699935954E+02  0.25706796221E+03  0.27033981265E+03  0.00000000000E+00 0.  1.
</event>
<event>
 7    1  0.2480409E-009  0.1146087E+03  0.7561462E-02  0.1252266E+00
         -1   -1    0    0    0  501 -0.00000000000E+00  0.00000000000E+00  0.59956616538E+02  0.59956616538E+02  0.00000000000E+00 0.  1.
          1   -1    0    0  501    0  0.00000000000E+00 -0.00000000000E+00 -0.50468338568E+03  0.50468338568E+03  0.00000000000E+00 0. -1.
         25    2    1    2    0    0  0.34364070103E+02 -0.40386149068E+02 -0.43842028688E+03  0.45899371967E+03  0.12510378250E+03 0.  0.
          5    1    3    3  502    0 -0.39371713154E+02  0.66135714018E+01 -0.73786330314E+02  0.83998607516E+02  0.41800000000E+01 0.  1.
         -5    1    3    3    0  502  0.73735783257E+02 -0.46999720469E+02 -0.36463395657E+03  0.37499511215E+03  0.41800000000E+01 0.  1.
        -11    1    1    2    0    0  0.26126338548E+02  0.30636504445E+02 -0.16535819856E+02  0.43527167480E+02  0.00000000000E+00 0.  1.
         11    1    1    2    0    0 -0.60490408651E+02  0.97496446229E+01  0.10229337598E+02  0.62119115067E+02  0.00000000000E+00 0. -1.
</event>
<event>
 7    1  0.2480409E-009  0.2131058E+03  0.7561462E-02  0.1139130E+00
          1   -1    0    0  501    0  0.00000000000E+00  0.00000000000E+00  0.10400239696E+04  0.10400239696E+04  0.00000000000E+00 0. -1.
         -1   -1    0    0    0  501 -0.00000000000E+00 -0.00000000000E+00 -0.46005704539E+02  0.46005704539E+02  0.00000000000E+00 0.  1.
         25    2    1    2    0    0  0.18737748871E+03 -0.32484538895E+02  0.54961624945E+03  0.59488715407E+03  0.12508851219E+03 0.  0.
          5    1    3    3  502    0 -0.12512229753E+02  0.52077407611E+01  0.10472943869E+03  0.10568540195E+03  0.41800000000E+01 0.  1.
         -5    1    3    3    0  502  0.19988971846E+03 -0.37692279656E+02  0.44488681076E+03  0.48920175213E+03  0.41800000000E+01 0.  1.
        -11    1    1    2    0    0 -0.56493231610E+02 -0.29524792151E+02  0.12002798226E+03  0.13590406578E+03  0.00000000000E+00 0.  1.
         11    1    1    2    0    0 -0.13088425710E+03  0.62009331046E+02  0.32437403333E+03  0.35523845427E+03  0.00000000000E+00 0. -1.
</event>
<event>
 7    1  0.2480409E-009  0.9128975E+02  0.7561462E-02  0.1299758E+00
         -3   -1    0    0    0  501 -0.00000000000E+00  0.00000000000E+00  0.10032806631E+03  0.10032806631E+03  0.00000000000E+00 0. -1.
          3   -1    0    0  501    0  0.00000000000E+00 -0.00000000000E+00 -0.13486084113E+03  0.13486084113E+03  0.00000000000E+00 0.  1.
         25    2    1    2    0    0 -0.18480540878E+02  0.37037126571E+01 -0.53507342459E+02  0.13735378532E+03  0.12509108188E+03 0.  0.
          5    1    3    3  502    0  0.42845623040E+02  0.36660422537E+02 -0.20003022744E+02  0.59977723474E+02  0.41800000000E+01 0.  1.
         -5    1    3    3    0  502 -0.61326163918E+02 -0.32956709880E+02 -0.33504319716E+02  0.77376061845E+02  0.41800000000E+01 0.  1.
        -11    1    1    2    0    0  0.37231187060E+02 -0.46189328310E+01  0.49432211290E+02  0.62056742933E+02  0.00000000000E+00 0. -1.
         11    1    1    2    0    0 -0.18750646182E+02  0.91522017382E+00 -0.30457643655E+02  0.35778379187E+02  0.00000000000E+00 0.  1.
</event>
<event>
 7    1  0.2480409E-009  0.1393018E+03  0.7561462E-02  0.1214272E+00
         -2   -1    0    0    0  501 -0.00000000000E+00  0.00000000000E+00  0.32497619159E+02  0.32497619159E+02  0.00000000000E+00 0.  1.
          2   -1    0    0  501    0  0.00000000000E+00 -0.00000000000E+00 -0.13113852590E+04  0.13113852590E+04  0.00000000000E+00 0. -1.
         25    2    1    2    0    0  0.83786112764E+02  0.63605524880E+02 -0.11269322520E+04  0.11387225391E+04  0.12508774872E+03 0.  0.
          5    1    3    3  502    0  0.35722759917E+02  0.86602869409E+02 -0.92834281296E+03  0.93306699831E+03  0.41800000000E+01 0.  1.
         -5    1    3    3    0  502  0.48063352847E+02 -0.22997344529E+02 -0.19858943904E+03  0.20565554075E+03  0.41800000000E+01 0.  1.
        -11    1    1    2    0    0 -0.26026294922E+02  0.17827089310E+02 -0.13144812501E+02  0.34175418598E+02  0.00000000000E+00 0.  1.
         11    1    1    2    0    0 -0.57759817842E+02 -0.81432614190E+02 -0.13881057532E+03  0.17098492048E+03  0.00000000000E+00 0. -1.
</event>
<event>
 7    1  0.2480409E-009  0.1550259E+03  0.7561462E-02  0.1194430E+00
          1   -1    0    0  501    0  0.00000000000E+00  0.00000000000E+00  0.60827166503E+03  0.60827166503E+03  0.00000000000E+00 0. -1.
         -1   -1    0    0    0  501 -0.00000000000E+00 -0.00000000000E+00 -0.50085626355E+02  0.50085626355E+02  0.00000000000E+00 0.  1.
         25    2    1    2    0    0  0.12849588868E+03  0.43426349966E+02  0.32157473248E+03  0.37074905733E+03  0.12509002224E+03 0.  0.
          5    1    3    3  502    0  0.95643396943E+02  0.60394457752E+02  0.11690803520E+03  0.16272710592E+03  0.41800000000E+01 0.  1.
         -5    1    3    3    0  502  0.32852491734E+02 -0.16968107786E+02  0.20466669728E+03  0.20802195142E+03  0.41800000000E+01 0.  1.
        -11    1    1    2    0    0 -0.76788755364E+02 -0.67843063740E+02  0.12046489581E+03  0.15814861799E+03  0.00000000000E+00 0.  1.
         11    1    1    2    0    0 -0.51707133313E+02  0.24416713774E+02  0.11614641038E+03  0.12945961607E+03  0.00000000000E+00 0. -1.
</event>
<event>
 7    1  0.2480409E-009  0.1151449E+03  0.7561462E-02  0.1251328E+00
         -4   -1    0    0    0  501 -0.00000000000E+00  0.00000000000E+00  0.86952253721E+02  0.86952253721E+02  0.00000000000E+00 0.  1.
          4   -1    0    0  501    0  0.00000000000E+00 -0.00000000000E+00 -0.22206514249E+03  0.22206514249E+03  0.00000000000E+00 0. -1.
         25    2    1    2    0    0  0.64310395094E+02  0.63674933247E+02 -0.93644094102E+02  0.18057241105E+03  0.12508739038E+03 0.  0.
          5    1    3    3  502    0  0.81224850363E+02  0.80029420699E+02 -0.38417483752E+02  0.12039750808E+03  0.41800000000E+01 0. -1.
         -5    1    3    3    0  502 -0.16914455269E+02 -0.16354487452E+02 -0.55226610349E+02  0.60174902971E+02  0.41800000000E+01 0. -1.
        -11    1    1    2    0    0 -0.15441723836E+02 -0.27317562115E+02  0.23639201564E+02  0.39287502918E+02  0.00000000000E+00 0.  1.
         11    1    1    2    0    0 -0.48868671258E+02 -0.36357371132E+02 -0.65107996227E+02  0.89157482237E+02  0.00000000000E+00 0. -1.
</event>
<event>
 7    1  0.2480409E-009  0.1385333E+03  0.7561462E-02  0.1215316E+00
         -2   -1    0    0    0  501 -0.00000000000E+00  0.00000000000E+00  0.60846825060E+02  0.60846825060E+02  0.00000000000E+00 0.  1.
          2   -1    0    0  501    0  0.00000000000E+00 -0.00000000000E+00 -0.33657390517E+03  0.33657390517E+03  0.00000000000E+00 0. -1.
         25    2    1    2    0    0 -0.14150238183E+02  0.88087262628E+02 -0.18748732355E+03  0.24240270251E+03  0.12509188070E+03 0.  0.
          5    1    3    3  502    0 -0.20501582182E+02  0.11783950668E+03 -0.16711407167E+03  0.20555060096E+03  0.41800000000E+01 0.  1.
         -5    1    3    3    0  502  0.63513439989E+01 -0.29752244052E+02 -0.20373251879E+02  0.36852101553E+02  0.41800000000E+01 0.  1.
        -11    1    1    2    0    0 -0.38130498645E+02 -0.29933585493E+02 -0.42207071375E+02  0.64275900161E+02  0.00000000000E+00 0.  1.
         11    1    1    2    0    0  0.52280736828E+02 -0.58153677135E+02 -0.46032685191E+02  0.90742127556E+02  0.00000000000E+00 0. -1.
</event>
<event>
 7    1  0.2480409E-009  0.1130732E+03  0.7561462E-02  0.1254982E+00
         -1   -1    0    0    0  501 -0.00000000000E+00  0.00000000000E+00  0.75843060530E+03  0.75843060530E+03  0.00000000000E+00 0.  1.
          1   -1    0    0  501    0  0.00000000000E+00 -0.00000000000E+00 -0.19340252963E+02  0.19340252963E+02  0.00000000000E+00 0. -1.
         25    2    1    2    0    0 -0.22332787178E+02 -0.33505553719E+02  0.53946925287E+03  0.55524375003E+03  0.12508865513E+03 0.  0.
          5    1    3    3  502    0 -0.50454953312E+02  0.32071419802E+02  0.24811021668E+03  0.25524582328E+03  0.41800000000E+01 0.  1.
         -5    1    3    3    0  502  0.28122166134E+02 -0.65576973521E+02  0.29135903619E+03  0.29999792675E+03  0.41800000000E+01 0.  1.
        -11    1    1    2    0    0  0.30912328724E+02  0.59671808053E+02  0.16587551627E+03  0.17897201916E+03  0.00000000000E+00 0.  1.
         11    1    1    2    0    0 -0.85795415469E+01 -0.26166254334E+02  0.33745583200E+02  0.43555089077E+02  0.00000000000E+00 0. -1.
</event>
<event>
 7    1  0.2480409E-009  0.1034135E+03  0.7561462E-02  0.1273277E+00
         -2   -1    0    0    0  501 -0.00000000000E+00  0.00000000000E+00  0.90598912080E+03  0.90598912080E+03  0.00000000000E+00 0.  1.
          2   -1    0    0  501    0  0.00000000000E+00 -0.00000000000E+00 -0.17479689290E+02  0.17479689290E+02  0.00000000000E+00 0. -1.
         25    2    1    2    0    0 -0.28111447427E+02  0.41044966947E+02  0.64682248610E+03  0.66068343106E+03  0.12509326430E+03 0.  0.
          5    1    3    3  502    0 -0.35690272394E+02  0.68482888765E+02  0.22576419824E+03  0.23864334729E+03  0.41800000000E+01 0.  1.
         -5    1    3    3    0  502  0.75788249671E+01 -0.27437921819E+02  0.42105828785E+03  0.42204008377E+03  0.41800000000E+01 0.  1.
        -11    1    1    2    0    0  0.45780095045E+02  0.98637744641E+01  0.14116786946E+03  0.14873291000E+03  0.00000000000E+00 0.  1.
         11    1    1    2    0    0 -0.17668647618E+02 -0.50908741411E+02  0.10051907595E+03  0.11405246903E+03  0.00000000000E+00 0. -1.
</event>
<event>
 7    1  0.2480409E-009  0.1010847E+03  0.7561462E-02  0.1278031E+00
         -2   -1    0    0    0  501 -0.00000000000E+00  0.00000000000E+00  0.10177185123E+02  0.10177185123E+02  0.00000000000E+00 0.  1.
          2   -1    0    0  501    0  0.00000000000E+00 -0.00000000000E+00 -0.16201195330E+04  0.16201195330E+04  0.00000000000E+00 0. -1.
         25    2    1    2    0    0 -0.16730567972E+02  0.17429578672E+02 -0.13247882299E+04  0.13308997461E+04  0.12508628224E+03 0.  0.
          5    1    3    3  502    0 -0.26031430321E+02 -0.44526186553E+02 -0.32048961846E+03  0.32464023872E+03  0.41800000000E+01 0.  1.
         -5    1    3    3    0  502  0.93008623488E+01  0.61955765226E+02 -0.10042986114E+04  0.10062595074E+04  0.41800000000E+01 0.  1.
        -11    1    1    2    0    0 -0.19675617087E+02  0.24942986823E+02 -0.14663541865E+03  0.15003742367E+03  0.00000000000E+00 0.  1.
         11    1    1    2    0    0  0.36406185060E+02 -0.42372565495E+02 -0.13851869936E+03  0.14935954837E+03  0.00000000000E+00 0. -1.
</event>
<event>
 7    1  0.2480409E-009  0.1158859E+03  0.7561462E-02  0.1250043E+00
         -1   -1    0    0    0  501 -0.00000000000E+00  0.00000000000E+00  0.14681753738E+03  0.14681753738E+03  0.00000000000E+00 0.  1.
          1   -1    0    0  501    0  0.00000000000E+00 -0.00000000000E+00 -0.10581396807E+03  0.10581396807E+03  0.00000000000E+00 0. -1.
         25    2    1    2    0    0 -0.16191662188E+02  0.56205606773E+02  0.38075864036E+02  0.14323707256E+03  0.12508336171E+03 0.  0.
          5    1    3    3  502    0  0.38677089577E+02  0.65400212668E+02  0.42695928079E+02  0.87255485499E+02  0.41800000000E+01 0.  1.
         -5    1    3    3    0  502 -0.54868751765E+02 -0.91946058951E+01 -0.46200640434E+01  0.55981587058E+02  0.41800000000E+01 0.  1.
        -11    1    1    2    0    0  0.27729720978E+02  0.12357221593E+02 -0.19802763174E+02  0.36246210565E+02  0.00000000000E+00 0. -1.
         11    1    1    2    0    0 -0.11538058791E+02 -0.68562828366E+02  0.22730468451E+02  0.73148222331E+02  0.00000000000E+00 0.  1.
</event>
<event>
 7    1  0.2480409E-009  0.8804070E+02  0.7561462E-02  0.1307667E+00
         -3   -1    0    0    0  501 -0.00000000000E+00  0.00000000000E+00  0.10162421575E+03  0.10162421575E+03  0.00000000000E+00 0.  1.
          3   -1    0    0  501    0  0.00000000000E+00 -0.00000000000E+00 -0.12152001147E+03  0.12152001147E+03  0.00000000000E+00 0. -1.
         25    2    1    2    0    0  0.10958029761E+02  0.51741990582E+01 -0.37115155691E+01  0.12573029615E+03  0.12508989276E+03 0.  0.
          5    1    3    3  502    0 -0.33605140553E+02 -0.13488950623E+02  0.44381710406E+02  0.57432272104E+02  0.41800000000E+01 0. -1.
         -5    1    3    3    0  502  0.44563170313E+02  0.18663149682E+02 -0.48093225975E+02  0.68298024050E+02  0.41800000000E+01 0. -1.
        -11    1    1    2    0    0 -0.34094709009E+02 -0.37950142555E+02  0.63323096821E+01  0.51407787817E+02  0.00000000000E+00 0.  1.
         11    1    1    2    0    0  0.23136679248E+02  0.32775943496E+02 -0.22516589832E+02  0.46006143246E+02  0.00000000000E+00 0. -1.
</event>
<event>
 7    1  0.2480409E-009  0.1117740E+03  0.7561462E-02  0.1257320E+00
         -1   -1    0    0    0  501 -0.00000000000E+00  0.00000000000E+00  0.14185655654E+03  0.14185655654E+03  0.00000000000E+00 0.  1.
          1   -1    0    0  501    0  0.00000000000E+00 -0.00000000000E+00 -0.11219040599E+03  0.11219040599E+03  0.00000000000E+00 0. -1.
         25    2    1    2    0    0  0.39062756419E+01 -0.59211092930E+02  0.34461353753E+02  0.14267539065E+03  0.12508984642E+03 0.  0.
          5    1    3    3  502    0 -0.47439846275E+02 -0.69655709381E+02  0.31363761992E+02  0.90020080150E+02  0.41800000000E+01 0.  1.
         -5    1    3    3    0  502  0.51346121917E+02  0.10444616451E+02  0.30975917605E+01  0.52655310496E+02  0.41800000000E+01 0.  1.
        -11    1    1    2    0    0 -0.30223739214E+02  0.50553292955E+02  0.30639351506E+02  0.66391864723E+02  0.00000000000E+00 0.  1.
         11    1    1    2    0    0  0.26317463572E+02  0.86577999746E+01 -0.35434554703E+02  0.44979707161E+02  0.00000000000E+00 0. -1.
</event>
<event>
 7    1  0.2480409E-009  0.1199506E+03  0.7561462E-02  0.1243179E+00
          2   -1    0    0  501    0  0.00000000000E+00  0.00000000000E+00  0.13641188030E+04  0.13641188030E+04  0.00000000000E+00 0. -1.
         -2   -1    0    0    0  501 -0.00000000000E+00 -0.00000000000E+00 -0.20761440006E+02  0.20761440006E+02  0.00000000000E+00 0.  1.
         25    2    1    2    0    0  0.10766145515E+03  0.26060669666E+02  0.95519935186E+03  0.96970322642E+03  0.12509355746E+03 0.  0.
          5    1    3    3  502    0  0.14607926877E+02  0.42576160066E+01  0.64258851966E+03  0.64278223126E+03  0.41800000000E+01 0. -1.
         -5    1    3    3    0  502  0.93053528270E+02  0.21803053659E+02  0.31261083219E+03  0.32692099516E+03  0.41800000000E+01 0. -1.
        -11    1    1    2    0    0 -0.75440393155E+02  0.14329040570E+02  0.32309292216E+03  0.33209277420E+03  0.00000000000E+00 0. -1.
         11    1    1    2    0    0 -0.32221061992E+02 -0.40389710236E+02  0.65065088956E+02  0.83084242367E+02  0.00000000000E+00 0.  1.
</event>
<event>
 7    1  0.2480409E-009  0.1089525E+03  0.7561462E-02  0.1262522E+00
          1   -1    0    0  501    0  0.00000000000E+00  0.00000000000E+00  0.83646242337E+02  0.83646242337E+02  0.00000000000E+00 0. -1.
         -1   -1    0    0    0  501 -0.00000000000E+00 -0.00000000000E+00 -0.24446209841E+03  0.24446209841E+03  0.00000000000E+00 0.  1.
         25    2    1    2    0    0 -0.26570717796E+02  0.82184592067E+02 -0.51585226171E+02  0.16052334830E+03  0.12508556900E+03 0.  0.
          5    1    3    3  502    0 -0.78478978223E+01  0.89630525858E+02  0.14570178485E+02  0.91241345709E+02  0.41800000000E+01 0. -1.
         -5    1    3    3    0  502 -0.18722819973E+02 -0.74459337912E+01 -0.66155404656E+02  0.69282002591E+02  0.41800000000E+01 0. -1.
        -11    1    1    2    0    0 -0.17813967929E+02 -0.48104537404E+02 -0.97848979017E+02  0.11047989259E+03  0.00000000000E+00 0.  1.
         11    1    1    2    0    0  0.44384685724E+02 -0.34080054662E+02 -0.11381650885E+02  0.57105099855E+02  0.00000000000E+00 0. -1.
</event>
<event>
 7    1  0.2480409E-009  0.1401720E+03  0.7561462E-02  0.1213098E+00
         -2   -1    0    0    0  501 -0.00000000000E+00  0.00000000000E+00  0.99902970340E+03  0.99902970340E+03  0.00000000000E+00 0.  1.
          2   -1    0    0  501    0  0.00000000000E+00 -0.00000000000E+00 -0.25933497010E+02  0.25933497010E+02  0.00000000000E+00 0. -1.
         25    2    1    2    0    0  0.11145272869E+03  0.47973361578E+02  0.53361937590E+03  0.56135909001E+03  0.12510489776E+03 0.  0.
          5    1    3    3  502    0  0.15284027122E+02  0.40617261339E+02  0.36062059968E+03  0.36324654536E+03  0.41800000000E+01 0.  1.
         -5    1    3    3    0  502  0.96168701566E+02  0.73561002387E+01  0.17299877623E+03  0.19811254465E+03  0.41800000000E+01 0.  1.
        -11    1    1    2    0    0 -0.52481962535E+02 -0.60320502947E+02  0.31945178813E+03  0.32930588274E+03  0.00000000000E+00 0.  1.
         11    1    1    2    0    0 -0.58970766154E+02  0.12347141369E+02  0.12002504235E+03  0.13429822766E+03  0.00000000000E+00 0. -1.
</event>
<event>
 7    1  0.2480409E-009  0.9150063E+02  0.7561462E-02  0.1299258E+00
         -2   -1    0    0    0  501 -0.00000000000E+00  0.00000000000E+00  0.13873425864E+02  0.13873425864E+02  0.00000000000E+00 0.  1.
          2   -1    0    0  501    0  0.00000000000E+00 -0.00000000000E+00 -0.94510664721E+03  0.94510664721E+03  0.00000000000E+00 0. -1.
         25    2    1    2    0    0  0.20236879518E+01  0.39348001661E+02 -0.56832686374E+03  0.58326224974E+03  0.12508823836E+03 0.  0.
          5    1    3    3  502    0 -0.33798042944E+02  0.11133610307E+00 -0.41221758315E+02  0.53469859371E+02  0.41800000000E+01 0.  1.
         -5    1    3    3    0  502  0.35821730896E+02  0.39236665558E+02 -0.52710510542E+03  0.52979239037E+03  0.41800000000E+01 0.  1.
        -11    1    1    2    0    0 -0.36308768348E+02  0.80144601737E+01 -0.17577583453E+03  0.17966552879E+03  0.00000000000E+00 0. -1.
         11    1    1    2    0    0  0.34285080396E+02 -0.47362461835E+02 -0.18713052309E+03  0.19605229455E+03  0.00000000000E+00 0.  1.
</event>
<event>
 7    1  0.2480409E-009  0.1143808E+03  0.7561462E-02  0.1252666E+00
          1   -1    0    0  501    0  0.00000000000E+00  0.00000000000E+00  0.91452257837E+02  0.91452257837E+02  0.00000000000E+00 0. -1.
         -1   -1    0    0    0  501 -0.00000000000E+00 -0.00000000000E+00 -0.15281712668E+03  0.15281712668E+03  0.00000000000E+00 0.  1.
         25    2    1    2    0    0  0.40747423591E+02  0.13746658760E+02 -0.50406250376E+02  0.14155388056E+03  0.12508951942E+03 0.  0.
          5    1    3    3  502    0  0.61746345220E+02 -0.39736074621E+02 -0.37336548854E+02  0.82480646546E+02  0.41800000000E+01 0. -1.
         -5    1    3    3    0  502 -0.20998921629E+02  0.53482733381E+02 -0.13069701522E+02  0.59073234018E+02  0.41800000000E+01 0. -1.
        -11    1    1    2    0    0 -0.58893330409E+02  0.17529762662E+02 -0.21420156175E+02  0.65073343515E+02  0.00000000000E+00 0.  1.
         11    1    1    2    0    0  0.18145906818E+02 -0.31276421422E+02  0.10461537709E+02  0.37642160438E+02  0.00000000000E+00 0. -1.
</event>
<event>
 7    1  0.2480409E-009  0.1988171E+03  0.7561462E-02  0.1150741E+00
          1   -1    0    0  501    0  0.00000000000E+00  0.00000000000E+00  0.27910152821E+03  0.27910152821E+03  0.00000000000E+00 0. -1.
         -1   -1    0    0    0  501 -0.00000000000E+00 -0.00000000000E+00 -0.15589123936E+03  0.15589123936E+03  0.00000000000E+00 0.  1.
         25    2    1    2    0    0  0.98433669481E+02 -0.14495032989E+03  0.92538677396E+02  0.23432966646E+03  0.12508876985E+03 0.  0.
          5    1    3    3  502    0 -0.12497475930E+02  0.15230435589E+02  0.12093299260E+02  0.23491985013E+02  0.41800000000E+01 0.  1.
         -5    1    3    3    0  502  0.11093114541E+03 -0.16018076548E+03  0.80445378136E+02  0.21083768144E+03  0.41800000000E+01 0.  1.
        -11    1    1    2    0    0 -0.31417134611E+02  0.91937852872E+02 -0.22886258657E+02  0.99816761985E+02  0.00000000000E+00 0.  1.
         11    1    1    2    0    0 -0.67016534869E+02  0.53012477022E+02  0.53557870108E+02  0.10084633913E+03  0.00000000000E+00 0. -1.
</event>
<event>
 7    1  0.2480409E-009  0.1581288E+03  0.7561462E-02  0.1190826E+00
          1   -1    0    0  501    0  0.00000000000E+00  0.00000000000E+00  0.21457244330E+03  0.21457244330E+03  0.00000000000E+00 0. -1.
         -1   -1    0    0    0  501 -0.00000000000E+00 -0.00000000000E+00 -0.13015169719E+03  0.13015169719E+03  0.00000000000E+00 0.  1.
         25    2    1    2    0    0 -0.11580340972E+03  0.41118851716E+02  0.12728469536E+02  0.17581484336E+03  0.12509058933E+03 0.  0.
          5    1    3    3  502    0 -0.59477934651E+02 -0.42880933455E+02  0.13041217337E+02  0.74591855547E+02  0.41800000000E+01 0. -1.
         -5    1    3    3    0  502 -0.56325475065E+02  0.83999785172E+02 -0.31274780088E+00  0.10122298781E+03  0.41800000000E+01 0. -1.
        -11    1    1    2    0    0  0.78841963442E+02  0.89608550455E+01  0.78340865626E+01  0.79735343699E+02  0.00000000000E+00 0.  1.
         11    1    1    2    0    0  0.36961446273E+02 -0.50079706762E+02  0.63858190004E+02  0.89173953431E+02  0.00000000000E+00 0. -1.
</event>
<event>
 7    1  0.2480409E-009  0.1468090E+03  0.7561462E-02  0.1204450E+00
          1   -1    0    0  501    0  0.00000000000E+00  0.00000000000E+00  0.67327491148E+03  0.67327491148E+03  0.00000000000E+00 0. -1.
         -1   -1    0    0    0  501 -0.00000000000E+00 -0.00000000000E+00 -0.44692195943E+02  0.44692195943E+02  0.00000000000E+00 0.  1.
         25    2    1    2    0    0  0.48376066359E+02 -0.12062836634E+03  0.26122713872E+03  0.31745758526E+03  0.12509298091E+03 0.  0.
          5    1    3    3  502    0  0.54678514906E+01 -0.76074965030E+02  0.37109055464E+02  0.84922624204E+02  0.41800000000E+01 0. -1.
         -5    1    3    3    0  502  0.42908214869E+02 -0.44553401306E+02  0.22411808326E+03  0.23253496106E+03  0.41800000000E+01 0. -1.
        -11    1    1    2    0    0  0.21363853844E+02  0.80982113199E+01  0.94638103927E+02  0.97356900077E+02  0.00000000000E+00 0. -1.
         11    1    1    2    0    0 -0.69739920204E+02  0.11253015502E+03  0.27271747289E+03  0.30315262208E+03  0.00000000000E+00 0.  1.
</event>
<event>
 7    1  0.2480409E-009  0.1194399E+03  0.7561462E-02  0.1244024E+00
          2   -1    0    0  501    0  0.00000000000E+00  0.00000000000E+00  0.42712222318E+03  0.42712222318E+03  0.00000000000E+00 0. -1.
         -2   -1    0    0    0  501 -0.00000000000E+00 -0.00000000000E+00 -0.34417517422E+02  0.34417517422E+02  0.00000000000E+00 0.  1.
         25    2    1    2    0    0 -0.51273958111E+02 -0.11283471074E+02  0.19388428568E+03  0.23663259059E+03  0.12509009232E+03 0.  0.
          5    1    3    3  502    0  0.84105028567E+01  0.48489434322E+02  0.54094865760E+02  0.73250861434E+02  0.41800000000E+01 0. -1.
         -5    1    3    3    0  502 -0.59684460967E+02 -0.59772905396E+02  0.13978941992E+03  0.16338172916E+03  0.41800000000E+01 0. -1.
        -11    1    1    2    0    0  0.11138615471E+02  0.48753129487E+02  0.10204632752E+03  0.11364149484E+03  0.00000000000E+00 0.  1.
         11    1    1    2    0    0  0.40135342640E+02 -0.37469658413E+02  0.96774092553E+02  0.11126565517E+03  0.00000000000E+00 0. -1.
</event>
<event>
 7    1  0.2480409E-009  0.8061088E+02  0.7561462E-02  0.1327327E+00
         -3   -1    0    0    0  501 -0.00000000000E+00  0.00000000000E+00  0.19275874530E+02  0.19275874530E+02  0.00000000000E+00 0.  1.
          3   -1    0    0  501    0  0.00000000000E+00 -0.00000000000E+00 -0.52424199596E+03  0.52424199596E+03  0.00000000000E+00 0. -1.
         25    2    1    2    0    0  0.51292724836E+02 -0.27246993279E+02 -0.32514956153E+03  0.35318959069E+03  0.12508919756E+03 0.  0.
          5    1    3    3  502    0  0.74725043242E+02 -0.16829543528E+02 -0.97487875328E+02  0.12405008609E+03  0.41800000000E+01 0.  1.
         -5    1    3    3    0  502 -0.23432318406E+02 -0.10417449751E+02 -0.22766168620E+03  0.22913950460E+03  0.41800000000E+01 0.  1.
        -11    1    1    2    0    0 -0.23032458294E+02  0.16326559572E+02 -0.12000423114E+03  0.12328043711E+03  0.00000000000E+00 0.  1.
         11    1    1    2    0    0 -0.28260266542E+02  0.10920433707E+02 -0.59812328756E+02  0.67047842684E+02  0.00000000000E+00 0. -1.
</event>
<event>
 7    1  0.2480409E-009  0.1087153E+03  0.7561462E-02  0.1262968E+00
         -2   -1    0    0    0  501 -0.00000000000E+00  0.00000000000E+00  0.24240197888E+03  0.24240197888E+03  0.00000000000E+00 0.  1.
          2   -1    0    0  501    0  0.00000000000E+00 -0.00000000000E+00 -0.91244293687E+02  0.91244293687E+02  0.00000000000E+00 0. -1.
         25    2    1    2    0    0  0.40478550779E+02  0.39112575849E+02 -0.10244735448E+02  0.13755229388E+03  0.12508945712E+03 0.  0.
          5    1    3    3  502    0 -0.27747932627E+02 -0.31993697043E+01  0.35259849808E+02  0.45176466662E+02  0.41800000000E+01 0.  1.
         -5    1    3    3    0  502  0.68226483405E+02  0.42311945553E+02 -0.45504585256E+02  0.92375827215E+02  0.41800000000E+01 0.  1.
        -11    1    1    2    0    0  0.28443754267E+02  0.20522582463E+01  0.25523092974E+02  0.38271231959E+02  0.00000000000E+00 0. -1.
         11    1    1    2    0    0 -0.68922305045E+02 -0.41164834095E+02  0.13587932767E+03  0.15782274674E+03  0.00000000000E+00 0.  1.
</event>
<event>
 7    1  0.2480409E-009  0.1035238E+03  0.7561462E-02  0.1273056E+00
          3   -1    0    0  501    0  0.00000000000E+00  0.00000000000E+00  0.16197882483E+02  0.16197882483E+02  0.00000000000E+00 0. -1.
         -3   -1    0    0    0  501 -0.00000000000E+00 -0.00000000000E+00 -0.95425281181E+03  0.95425281181E+03  0.00000000000E+00 0.  1.
         25    2    1    2    0    0  0.92934064755E+01  0.56993169387E+02 -0.44809743779E+03  0.46880136380E+03  0.12509522847E+03 0.  0.
          5    1    3    3  502    0  0.25885271029E+02  0.72054603711E+02 -0.43657935276E+03  0.44326167985E+03  0.41800000000E+01 0.  1.
         -5    1    3    3    0  502 -0.16591864553E+02 -0.15061434324E+02 -0.11518085028E+02  0.25539683944E+02  0.41800000000E+01 0.  1.
        -11    1    1    2    0    0  0.39894185810E+02 -0.37224863382E+02 -0.25924158188E+03  0.26492156252E+03  0.00000000000E+00 0. -1.
         11    1    1    2    0    0 -0.49187592285E+02 -0.19768306005E+02 -0.23071590967E+03  0.23672776798E+03  0.00000000000E+00 0.  1.
</event>
<event>
 7    1  0.2480409E-009  0.9416021E+02  0.7561462E-02  0.1293079E+00
         -2   -1    0    0    0  501 -0.00000000000E+00  0.00000000000E+00  0.10548487335E+02  0.10548487335E+02  0.00000000000E+00 0.  1.
          2   -1    0    0  501    0  0.00000000000E+00 -0.00000000000E+00 -0.15167220646E+04  0.15167220646E+04  0.00000000000E+00 0. -1.
         25    2    1    2    0    0 -0.26321429129E+02  0.37675613408E+02 -0.11437045602E+04  0.11514425845E+04  0.12509050653E+03 0.  0.
          5    1    3    3  502    0 -0.52344577866E+02  0.42149167147E+02 -0.30640883821E+03  0.31372018688E+03  0.41800000000E+01 0.  1.
         -5    1    3    3    0  502  0.26023148738E+02 -0.44735537393E+01 -0.83729572203E+03  0.83772239763E+03  0.41800000000E+01 0.  1.
        -11    1    1    2    0    0  0.46471207001E+02  0.53142814956E+01 -0.12079988053E+03  0.12953928286E+03  0.00000000000E+00 0.  1.
         11    1    1    2    0    0 -0.20149777872E+02 -0.42989894903E+02 -0.24166913648E+03  0.24628868456E+03  0.00000000000E+00 0. -1.
</event>
<event>
 7    1  0.2480409E-009  0.1076563E+03  0.7561462E-02  0.1264973E+00
          1   -1    0    0  501    0  0.00000000000E+00  0.00000000000E+00  0.26867127845E+03  0.26867127845E+03  0.00000000000E+00 0. -1.
         -1   -1    0    0    0  501 -0.00000000000E+00 -0.00000000000E+00 -0.77060963898E+02  0.77060963898E+02  0.00000000000E+00 0.  1.
         25    2    1    2    0    0  0.52799458258E+02  0.71726117698E+02  0.68364918608E+02  0.16808727516E+03  0.12508857351E+03 0.  0.
          5    1    3    3  502    0  0.80240489441E+01 -0.50283394889E+01  0.77931754788E+02  0.78616158414E+02  0.41800000000E+01 0.  1.
         -5    1    3    3    0  502  0.44775409314E+02  0.76754457187E+02 -0.95668361799E+01  0.89471116746E+02  0.41800000000E+01 0.  1.
        -11    1    1    2    0    0 -0.60641472380E+02 -0.82678254057E+02  0.73625331881E+02  0.12622904325E+03  0.00000000000E+00 0.  1.
         11    1    1    2    0    0  0.78420141222E+01  0.10952136358E+02  0.49620064064E+02  0.51415923934E+02  0.00000000000E+00 0. -1.
</event>
<event>
 7    1  0.2480409E-009  0.7502192E+02  0.7561462E-02  0.1343803E+00
          1   -1    0    0  501    0  0.00000000000E+00  0.00000000000E+00  0.22627287265E+03  0.22627287265E+03  0.00000000000E+00 0. -1.
         -1   -1    0    0    0  501 -0.00000000000E+00 -0.00000000000E+00 -0.72699462981E+02  0.72699462981E+02  0.00000000000E+00 0.  1.
         25    2    1    2    0    0  0.19795018738E+02  0.18131104729E+02  0.21039598707E+02  0.12965430112E+03  0.12508794251E+03 0.  0.
          5    1    3    3  502    0  0.15886588582E+02 -0.13177175912E+02  0.68973230742E+02  0.72116576602E+02  0.41800000000E+01 0.  1.
         -5    1    3    3    0  502  0.39084301566E+01  0.31308280640E+02 -0.47933632035E+02  0.57537724521E+02  0.41800000000E+01 0.  1.
        -11    1    1    2    0    0  0.32224762348E+02  0.14935651452E+02  0.19371451101E+02  0.40456916719E+02  0.00000000000E+00 0.  1.
         11    1    1    2    0    0 -0.52019781086E+02 -0.33066756180E+02  0.11316235986E+03  0.12886111779E+03  0.00000000000E+00 0. -1.
</event>
<event>
 7    1  0.2480409E-009  0.2884418E+03  0.7561462E-02  0.1091166E+00
         -1   -1    0    0    0  501 -0.00000000000E+00  0.00000000000E+00  0.10587186960E+04  0.10587186960E+04  0.00000000000E+00 0.  1.
          1   -1    0    0  501    0  0.00000000000E+00 -0.00000000000E+00 -0.11760038080E+03  0.11760038080E+03  0.00000000000E+00 0. -1.
         25    2    1    2    0    0  0.18379855339E+03  0.19755292224E+03  0.81052700900E+03  0.86337187099E+03  0.12509152641E+03 0.  0.
          5    1    3    3  502    0  0.10605730474E+03  0.31597479900E+02  0.37029429912E+03  0.38649953814E+03  0.41800000000E+01 0.  1.
         -5    1    3    3    0  502  0.77741248652E+02  0.16595544234E+03  0.44023270988E+03  0.47687233285E+03  0.41800000000E+01 0.  1.
        -11    1    1    2    0    0 -0.13590549653E+03 -0.84451830564E+02  0.90044945324E+02  0.18360421523E+03  0.00000000000E+00 0.  1.
         11    1    1    2    0    0 -0.47893056863E+02 -0.11310109168E+03  0.40546360872E+02  0.12934299059E+03  0.00000000000E+00 0. -1.
</event>
<event>
 7    1  0.2480409E-009  0.8946413E+02  0.7561462E-02  0.1304155E+00
          1   -1    0    0  501    0  0.00000000000E+00  0.00000000000E+00  0.61999639790E+03  0.61999639790E+03  0.00000000000E+00 0. -1.
         -1   -1    0    0    0  501 -0.00000000000E+00 -0.00000000000E+00 -0.34962992904E+02  0.34962992904E+02  0.00000000000E+00 0.  1.
         25    2    1    2    0    0  0.12568413550E+02 -0.25589322927E+02  0.53275422689E+03  0.54798453934E+03  0.12508881092E+03 0.  0.
          5    1    3    3  502    0 -0.35427906505E+02  0.19030466128E+02  0.37408857445E+03  0.37626723101E+03  0.41800000000E+01 0.  1.
         -5    1    3    3    0  502  0.47996320055E+02 -0.44619789056E+02  0.15866565244E+03  0.17171730832E+03  0.41800000000E+01 0.  1.
        -11    1    1    2    0    0 -0.11716922569E+02 -0.22163172973E+02 -0.11264178024E+02  0.27484072065E+02  0.00000000000E+00 0.  1.
         11    1    1    2    0    0 -0.85149098143E+00  0.47752495900E+02  0.63543356129E+02  0.79490779401E+02  0.00000000000E+00 0. -1.
</event>
<event>
 7    1  0.2480409E-009  0.1190701E+03  0.7561462E-02  0.1244639E+00
          1   -1    0    0  501    0  0.00000000000E+00  0.00000000000E+00  0.76992227614E+03  0.76992227614E+03  0.00000000000E+00 0. -1.
         -1   -1    0    0    0  501 -0.00000000000E+00 -0.00000000000E+00 -0.21816972421E+02  0.21816972421E+02  0.00000000000E+00 0.  1.
         25    2    1    2    0    0  0.45237622454E+02  0.48763267743E+02  0.46203901478E+03  0.48327138906E+03  0.12508751150E+03 0.  0.
          5    1    3    3  502    0  0.70085871810E+02  0.75553623181E+02  0.30439614154E+03  0.32139518165E+03  0.41800000000E+01 0.  1.
         -5    1    3    3    0  502 -0.24848249356E+02 -0.26790355438E+02  0.15764287324E+03  0.16187620740E+03  0.41800000000E+01 0.  1.
        -11    1    1    2    0    0  0.15331142003E+02  0.60996710654E+01  0.74322425398E+01  0.18096633150E+02  0.00000000000E+00 0.  1.
         11    1    1    2    0    0 -0.60568764456E+02 -0.54862938808E+02  0.27863404640E+03  0.29037122636E+03  0.00000000000E+00 0. -1.
</event>
<event>
 7    1  0.2480409E-009  0.1635394E+03  0.7561462E-02  0.1184758E+00
          2   -1    0    0  501    0  0.00000000000E+00  0.00000000000E+00  0.66906338130E+03  0.66906338130E+03  0.00000000000E+00 0. -1.
         -2   -1    0    0    0  501 -0.00000000000E+00 -0.00000000000E+00 -0.75601206219E+02  0.75601206219E+02  0.00000000000E+00 0.  1.
         25    2    1    2    0    0  0.78192788857E+02 -0.11328183887E+03  0.74945971415E+02  0.20052898997E+03  0.12509232566E+03 0.  0.
          5    1    3    3  502    0  0.15044209999E+02 -0.11577004035E+03  0.71791121790E+02  0.13711479885E+03  0.41800000000E+01 0.  1.
         -5    1    3    3    0  502  0.63148578858E+02  0.24882014844E+01  0.31548496255E+01  0.63414191114E+02  0.41800000000E+01 0.  1.
        -11    1    1    2    0    0 -0.21219125239E+02  0.12711423936E+01  0.17305390871E+02  0.27410648151E+02  0.00000000000E+00 0.  1.
         11    1    1    2    0    0 -0.56973663618E+02  0.11201069647E+03  0.50121081280E+03  0.51672494941E+03  0.00000000000E+00 0. -1.
</event>
<event>
 7    1  0.2480409E-009  0.8905942E+02  0.7561462E-02  0.1305146E+00
          2   -1    0    0  501    0  0.00000000000E+00  0.00000000000E+00  0.16107521075E+03  0.16107521075E+03  0.00000000000E+00 0. -1.
         -2   -1    0    0    0  501 -0.00000000000E+00 -0.00000000000E+00 -0.79197902425E+02  0.79197902425E+02  0.00000000000E+00 0.  1.
         25    2    1    2    0    0  0.33263304358E+02 -0.12375314124E+01  0.49624229597E+02  0.13863126223E+03  0.12509230113E+03 0.  0.
          5    1    3    3  502    0  0.98721416776E+01  0.59747073404E+02  0.83986495070E+01  0.61279537165E+02  0.41800000000E+01 0.  1.
         -5    1    3    3    0  502  0.23391162680E+02 -0.60984604816E+02  0.41225580090E+02  0.77351725060E+02  0.41800000000E+01 0.  1.
        -11    1    1    2    0    0 -0.41061497611E+02 -0.57925185672E+01  0.59452793322E+02  0.72486098606E+02  0.00000000000E+00 0. -1.
         11    1    1    2    0    0  0.77981932525E+01  0.70300499796E+01 -0.27199714594E+02  0.29155752344E+02  0.00000000000E+00 0.  1.
</event>
<event>
 7    1  0.2480409E-009  0.2355485E+03  0.7561462E-02  0.1122794E+00
         -2   -1    0    0    0  501 -0.00000000000E+00  0.00000000000E+00  0.38713179719E+02  0.38713179719E+02  0.00000000000E+00 0.  1.
          2   -1    0    0  501    0  0.00000000000E+00 -0.00000000000E+00 -0.14623157105E+04  0.14623157105E+04  0.00000000000E+00 0. -1.
         25    2    1    2    0    0 -0.20517684624E+03 -0.39506393184E+02 -0.73313984420E+03  0.77252833918E+03  0.12509080840E+03 0.  0.
          5    1    3    3  502    0 -0.31292337360E+02  0.37146809086E+02 -0.96431266860E+02  0.10805349338E+03  0.41800000000E+01 0.  1.
         -5    1    3    3    0  502 -0.17388450888E+03 -0.76653202270E+02 -0.63670857734E+03  0.66447484580E+03  0.41800000000E+01 0.  1.
        -11    1    1    2    0    0  0.13144416629E+03  0.74027909640E+02 -0.44096146863E+03  0.46605226861E+03  0.00000000000E+00 0.  1.
         11    1    1    2    0    0  0.73732679950E+02 -0.34521516456E+02 -0.24950121792E+03  0.26244828240E+03  0.00000000000E+00 0. -1.
</event>
<event>
 7    1  0.2480409E-009  0.1240888E+03  0.7561462E-02  0.1236500E+00
         -2   -1    0    0    0  501 -0.00000000000E+00  0.00000000000E+00  0.52780527830E+02  0.52780527830E+02  0.00000000000E+00 0. -1.
          2   -1    0    0  501    0  0.00000000000E+00 -0.00000000000E+00 -0.48113140345E+03  0.48113140345E+03  0.00000000000E+00 0.  1.
         25    2    1    2    0    0 -0.71243833854E+02  0.34373990874E+02 -0.37611990339E+03  0.40419138965E+03  0.12508893887E+03 0.  0.
          5    1    3    3  502    0  0.29231538981E+02  0.35032950668E+02 -0.14695724373E+03  0.15393405857E+03  0.41800000000E+01 0. -1.
         -5    1    3    3    0  502 -0.10047537283E+03 -0.65895979317E+00 -0.22916265966E+03  0.25025733108E+03  0.41800000000E+01 0. -1.
        -11    1    1    2    0    0  0.30102575997E+02  0.18093119758E+02  0.12025265818E+02  0.37123214869E+02  0.00000000000E+00 0. -1.
         11    1    1    2    0    0  0.41141257857E+02 -0.52467110633E+02 -0.64256238052E+02  0.92597326769E+02  0.00000000000E+00 0.  1.
</event>
<event>
 7    1  0.2480409E-009  0.1355535E+03  0.7561462E-02  0.1219440E+00
          3   -1    0    0  501    0  0.00000000000E+00  0.00000000000E+00  0.14611174605E+03  0.14611174605E+03  0.00000000000E+00 0. -1.
         -3   -1    0    0    0  501 -0.00000000000E+00 -0.00000000000E+00 -0.16007889993E+03  0.16007889993E+03  0.00000000000E+00 0.  1.
         25    2    1    2    0    0  0.69680018376E+02  0.14087267731E+02  0.13001983016E+02  0.14446970584E+03  0.12509471720E+03 0.  0.
          5    1    3    3  502    0 -0.10997020389E+02  0.30026032105E+02  0.45649301531E+02  0.55891217483E+02  0.41800000000E+01 0. -1.
         -5    1    3    3    0  502  0.80677038765E+02 -0.15938764374E+02 -0.32647318516E+02  0.88578488359E+02  0.41800000000E+01 0. -1.
        -11    1    1    2    0    0  0.33277458754E+02  0.29728766847E+02  0.61134189794E+01  0.45039568503E+02  0.00000000000E+00 0. -1.
         11    1    1    2    0    0 -0.10295747713E+03 -0.43816034578E+02 -0.33082555871E+02  0.11668137163E+03  0.00000000000E+00 0.  1.
</event>
<event>
 7    1  0.2480409E-009  0.1396553E+03  0.7561462E-02  0.1213794E+00
          2   -1    0    0  501    0  0.00000000000E+00  0.00000000000E+00  0.15908434938E+03  0.15908434938E+03  0.00000000000E+00 0. -1.
         -2   -1    0    0    0  501 -0.00000000000E+00 -0.00000000000E+00 -0.16499315567E+03  0.16499315567E+03  0.00000000000E+00 0.  1.
         25    2    1    2    0    0  0.44651133128E+02 -0.11062058596E+03  0.29071557949E+01  0.17287254468E+03  0.12508328194E+03 0.  0.
          5    1    3    3  502    0  0.44087855475E+02 -0.43153112682E+02  0.58672638899E+02  0.85240137786E+02  0.41800000000E+01 0.  1.
         -5    1    3    3    0  502  0.56327765356E+00 -0.67467473275E+02 -0.55765483104E+02  0.87632406892E+02  0.41800000000E+01 0.  1.
        -11    1    1    2    0    0 -0.72739596400E+02  0.84816381974E+02  0.13034936464E+01  0.11174330687E+03  0.00000000000E+00 0.  1.
         11    1    1    2    0    0  0.28088463272E+02  0.25804203983E+02 -0.10119455738E+02  0.39461653495E+02  0.00000000000E+00 0. -1.
</event>
<event>
 7    1  0.2480409E-009  0.1681074E+03  0.7561462E-02  0.1179836E+00
          3   -1    0    0  501    0  0.00000000000E+00  0.00000000000E+00  0.36569670337E+03  0.36569670337E+03  0.00000000000E+00 0. -1.
         -3   -1    0    0    0  501 -0.00000000000E+00 -0.00000000000E+00 -0.11781309484E+03  0.11781309484E+03  0.00000000000E+00 0.  1.
         25    2    1    2    0    0  0.10954280888E+03 -0.10808355194E+03  0.28475779494E+02  0.20034991520E+03  0.12509011683E+03 0.  0.
          5    1    3    3  502    0  0.12815016140E+02  0.18527111676E+02  0.33847590008E+02  0.40873099406E+02  0.41800000000E+01 0.  1.
         -5    1    3    3    0  502  0.96727792741E+02 -0.12661066361E+03 -0.53718105140E+01  0.15947681580E+03  0.41800000000E+01 0.  1.
        -11    1    1    2    0    0 -0.45621970924E+02  0.47058612780E+02  0.25987772649E+02  0.70507032238E+02  0.00000000000E+00 0.  1.
         11    1    1    2    0    0 -0.63920837956E+02  0.61024939156E+02  0.19342005640E+03  0.21265285077E+03  0.00000000000E+00 0. -1.
</event>
<event>
 7    1  0.2480409E-009  0.2769134E+03  0.7561462E-02  0.1097387E+00
          1   -1    0    0  501    0  0.00000000000E+00  0.00000000000E+00  0.20033323700E+04  0.20033323700E+04  0.00000000000E+00 0. -1.
         -1   -1    0    0    0  501 -0.00000000000E+00 -0.00000000000E+00 -0.41850880048E+02  0.41850880048E+02  0.00000000000E+00 0.  1.
         25    2    1    2    0    0 -0.10418858311E+03 -0.23890582050E+03  0.12148432126E+04  0.12487694070E+04  0.12509895552E+03 0.  0.
          5    1    3    3  502    0 -0.38640061475E+02 -0.19295169438E+03  0.67862152075E+03  0.70658902591E+03  0.41800000000E+01 0.  1.
         -5    1    3    3    0  502 -0.65548521635E+02 -0.45954126120E+02  0.53622169190E+03  0.54218038111E+03  0.41800000000E+01 0.  1.
        -11    1    1    2    0    0  0.72815955279E+01  0.13333537196E+03  0.34162197629E+03  0.36679274493E+03  0.00000000000E+00 0. -1.
         11    1    1    2    0    0  0.96906987582E+02  0.10557044854E+03  0.40501630102E+03  0.42962109811E+03  0.00000000000E+00 0.  1.
</event>
<event>
 7    1  0.2480409E-009  0.1067796E+03  0.7561462E-02  0.1266652E+00
          1   -1    0    0  501    0  0.00000000000E+00  0.00000000000E+00  0.17756705488E+03  0.17756705488E+03  0.00000000000E+00 0. -1.
         -1   -1    0    0    0  501 -0.00000000000E+00 -0.00000000000E+00 -0.22896018151E+03  0.22896018151E+03  0.00000000000E+00 0.  1.
         25    2    1    2    0    0  0.43446111900E+02 -0.25725620065E+00 -0.19241810528E+03  0.23358122887E+03  0.12509129634E+03 0.  0.
          5    1    3    3  502    0  0.24287811414E+02  0.56781051707E+02 -0.52309091765E+02  0.81041341904E+02  0.41800000000E+01 0. -1.
         -5    1    3    3    0  502  0.19158300486E+02 -0.57038307908E+02 -0.14010901352E+03  0.15253988696E+03  0.41800000000E+01 0. -1.
        -11    1    1    2    0    0  0.14599311483E+02 -0.24276642625E+02  0.81412233209E+02  0.86200040539E+02  0.00000000000E+00 0. -1.
         11    1    1    2    0    0 -0.58045423383E+02  0.24533898826E+02  0.59612745447E+02  0.86745966978E+02  0.00000000000E+00 0.  1.
</event>
<event>
 7    1  0.2480409E-009  0.1630093E+03  0.7561462E-02  0.1185341E+00
          1   -1    0    0  501    0  0.00000000000E+00  0.00000000000E+00  0.15719282582E+03  0.15719282582E+03  0.00000000000E+00 0. -1.
         -1   -1    0    0    0  501 -0.00000000000E+00 -0.00000000000E+00 -0.19687055611E+03  0.19687055611E+03  0.00000000000E+00 0.  1.
         25    2    1    2    0    0 -0.37090443899E+02 -0.13042699753E+03 -0.43790892881E+02  0.18960972112E+03  0.12508917352E+03 0.  0.
          5    1    3    3  502    0  0.17150623407E+02 -0.10324910363E+03  0.14046558547E+02  0.10568490663E+03  0.41800000000E+01 0. -1.
         -5    1    3    3    0  502 -0.54241067306E+02 -0.27177893905E+02 -0.57837451428E+02  0.83924814491E+02  0.41800000000E+01 0. -1.
        -11    1    1    2    0    0 -0.90224609774E+01 -0.95163127866E+01  0.10753966560E+02  0.16959151156E+02  0.00000000000E+00 0.  1.
         11    1    1    2    0    0  0.46112904877E+02  0.13994331032E+03 -0.66408039612E+01  0.14749450965E+03  0.00000000000E+00 0. -1.
</event>
<event>
 7    1  0.2480409E-009  0.1210097E+03  0.7561462E-02  0.1241441E+00
          1   -1    0    0  501    0  0.00000000000E+00  0.00000000000E+00  0.49826288483E+03  0.49826288483E+03  0.00000000000E+00 0. -1.
         -1   -1    0    0    0  501 -0.00000000000E+00 -0.00000000000E+00 -0.34784933046E+02  0.34784933046E+02  0.00000000000E+00 0.  1.
         25    2    1    2    0    0 -0.40405464258E+02 -0.65640666461E+02  0.21360452995E+03  0.25926051207E+03  0.12509124377E+03 0.  0.
          5    1    3    3  502    0 -0.73930384358E+02 -0.81008016259E+01  0.14798530446E+03  0.16567572983E+03  0.41800000000E+01 0.  1.
         -5    1    3    3    0  502  0.33524920101E+02 -0.57539864835E+02  0.65619225489E+02  0.93584782239E+02  0.41800000000E+01 0.  1.
        -11    1    1    2    0    0  0.14273447912E+02  0.72415018933E+02  0.11802313297E+03  0.13920174639E+03  0.00000000000E+00 0.  1.
         11    1    1    2    0    0  0.26132016346E+02 -0.67743524719E+01  0.13185028886E+03  0.13458555941E+03  0.00000000000E+00 0. -1.
</event>
<event>
 7    1  0.2480409E-009  0.1258624E+03  0.7561462E-02  0.1233728E+00
          2   -1    0    0  501    0  0.00000000000E+00  0.00000000000E+00  0.93103292209E+03  0.93103292209E+03  0.00000000000E+00 0.  1.
         -2   -1    0    0    0  501 -0.00000000000E+00 -0.00000000000E+00 -0.21901099655E+02  0.21901099655E+02  0.00000000000E+00 0. -1.
         25    2    1    2    0    0  0.40305428979E+02  0.48667726745E+02  0.71481327108E+03  0.72842268628E+03  0.12509405323E+03 0.  0.
          5    1    3    3  502    0 -0.20373420149E+02 -0.32582616466E+02  0.19704229737E+03  0.20079801417E+03  0.41800000000E+01 0. -1.
         -5    1    3    3    0  502  0.60678849129E+02  0.81250343210E+02  0.51777097371E+03  0.52762467211E+03  0.41800000000E+01 0. -1.
        -11    1    1    2    0    0 -0.47873168000E+02  0.12871655951E+02  0.10040648842E+03  0.11197759891E+03  0.00000000000E+00 0.  1.
         11    1    1    2    0    0  0.75677390207E+01 -0.61539382696E+02  0.93912062940E+02  0.11253373655E+03  0.00000000000E+00 0. -1.
</event>
<event>
 7    1  0.2480409E-009  0.2435675E+03  0.7561462E-02  0.1117439E+00
          2   -1    0    0  501    0  0.00000000000E+00  0.00000000000E+00  0.19730559988E+04  0.19730559988E+04  0.00000000000E+00 0.  1.
         -2   -1    0    0    0  501 -0.00000000000E+00 -0.00000000000E+00 -0.31778560618E+02  0.31778560618E+02  0.00000000000E+00 0. -1.
         25    2    1    2    0    0 -0.13831931553E+02 -0.22096400981E+03  0.80762370744E+03  0.84671140412E+03  0.12509089930E+03 0.  0.
          5    1    3    3  502    0 -0.91762586413E+01 -0.23486764958E+03  0.71006344304E+03  0.74796696590E+03  0.41800000000E+01 0.  1.
         -5    1    3    3    0  502 -0.46556729112E+01  0.13903639767E+02  0.97560264397E+02  0.98744438214E+02  0.41800000000E+01 0.  1.
        -11    1    1    2    0    0 -0.30845803169E+02  0.40595897644E+02  0.24113759713E+03  0.24646872261E+03  0.00000000000E+00 0. -1.
         11    1    1    2    0    0  0.44677734722E+02  0.18036811217E+03  0.89251613361E+03  0.91165443267E+03  0.00000000000E+00 0.  1.
</event>
<event>
 7    1  0.2480409E-009  0.2027388E+03  0.7561462E-02  0.1147449E+00
         -2   -1    0    0    0  501 -0.00000000000E+00  0.00000000000E+00  0.22819671494E+03  0.22819671494E+03  0.00000000000E+00 0.  1.
          2   -1    0    0  501    0  0.00000000000E+00 -0.00000000000E+00 -0.29588759794E+03  0.29588759794E+03  0.00000000000E+00 0. -1.
         25    2    1    2    0    0 -0.10877239377E+03 -0.14845742793E+03 -0.18317840874E+03  0.28822314060E+03  0.12508879962E+03 0.  0.
          5    1    3    3  502    0  0.19854923730E+02 -0.64117412773E+02 -0.71065754640E+02  0.97842089612E+02  0.41800000000E+01 0. -1.
         -5    1    3    3    0  502 -0.12862731750E+03 -0.84340015162E+02 -0.11211265410E+03  0.19038105099E+03  0.41800000000E+01 0. -1.
        -11    1    1    2    0    0  0.17891633745E+02  0.31682599314E+02 -0.14241990312E+02  0.39073417375E+02  0.00000000000E+00 0.  1.
         11    1    1    2    0    0  0.90880760026E+02  0.11677482862E+03  0.12972951605E+03  0.19678775490E+03  0.00000000000E+00 0. -1.
</event>
