<event>
 7    1  0.1312490E-005  0.8783233E+02  0.7561462E-02  0.1308188E+00
         -1   -1    0    0    0  501 -0.00000000000E+00  0.00000000000E+00  0.21533861036E+03  0.21533861036E+03  0.00000000000E+00 0.  1.
          1   -1    0    0  501    0  0.00000000000E+00 -0.00000000000E+00 -0.51461223697E+02  0.51461223697E+02  0.00000000000E+00 0. -1.
         23    2    1    2    0    0 -0.13926001365E+02 -0.75114611789E+01  0.17092875809E+03  0.21240368062E+03  0.12509327574E+03 0.  0.
          5    1    3    3  502    0 -0.40724617137E+02  0.48713672098E+02  0.83847628037E+02  0.10525879259E+03  0.41800000000E+01 0.  1.
         -5    1    3    3    0  502  0.26798615772E+02 -0.56225133277E+02  0.87081130053E+02  0.10714488803E+03  0.41800000000E+01 0.  1.
        -11    1    1    2    0    0 -0.11195769104E+02 -0.13014022936E+02 -0.12846884253E+02  0.21441839329E+02  0.00000000000E+00 0.  1.
         11    1    1    2    0    0  0.25121770469E+02  0.20525484115E+02  0.57955128283E+01  0.32954314112E+02  0.00000000000E+00 0. -1.
</event>
<event>
 7    1  0.1312490E-005  0.1126482E+03  0.7561462E-02  0.1255743E+00
         -1   -1    0    0    0  501 -0.00000000000E+00  0.00000000000E+00  0.75718132063E+02  0.75718132063E+02  0.00000000000E+00 0.  1.
          1   -1    0    0  501    0  0.00000000000E+00 -0.00000000000E+00 -0.17805278201E+03  0.17805278201E+03  0.00000000000E+00 0. -1.
         23    2    1    2    0    0  0.25654860367E+02 -0.31715081448E+02 -0.57690816941E+02  0.14366617127E+03  0.12509084762E+03 0.  0.
          5    1    3    3  502    0  0.54216394711E+02 -0.62286761697E+02 -0.15541827921E+02  0.84131319693E+02  0.41800000000E+01 0.  1.
         -5    1    3    3    0  502 -0.28561534344E+02  0.30571680249E+02 -0.42148989020E+02  0.59534851581E+02  0.41800000000E+01 0.  1.
        -11    1    1    2    0    0 -0.63774448272E+01 -0.32706883862E+02 -0.16878319794E+02  0.37353577252E+02  0.00000000000E+00 0.  1.
         11    1    1    2    0    0 -0.19277415540E+02  0.64421965310E+02 -0.27765513211E+02  0.72751165545E+02  0.00000000000E+00 0. -1.
</event>
<event>
 7    1  0.1312490E-005  0.1757164E+03  0.7561462E-02  0.1172014E+00
         -2   -1    0    0    0  501 -0.00000000000E+00  0.00000000000E+00  0.19259382667E+02  0.19259382667E+02  0.00000000000E+00 0.  1.
          2   -1    0    0  501    0  0.00000000000E+00 -0.00000000000E+00 -0.16707209053E+04  0.16707209053E+04  0.00000000000E+00 0. -1.
         23    2    1    2    0    0  0.13651582610E+03 -0.42434143245E+02 -0.88893328604E+03  0.90900350117E+03  0.12509097014E+03 0.  0.
          5    1    3    3  502    0  0.57048954496E+02  0.40735984522E+02 -0.24511305270E+03  0.25497428233E+03  0.41800000000E+01 0. -1.
         -5    1    3    3    0  502  0.79466871599E+02 -0.83170127767E+02 -0.64382023334E+03  0.65402921884E+03  0.41800000000E+01 0. -1.
        -11    1    1    2    0    0 -0.44825751459E+01  0.33464494992E+02 -0.10613624899E+03  0.11137714871E+03  0.00000000000E+00 0.  1.
         11    1    1    2    0    0 -0.13203325095E+03  0.89696482528E+01 -0.65639198764E+03  0.66959963813E+03  0.00000000000E+00 0. -1.
</event>
<event>
 7    1  0.1312490E-005  0.9627910E+02  0.7561462E-02  0.1288321E+00
          2   -1    0    0  501    0  0.00000000000E+00  0.00000000000E+00  0.23693511074E+03  0.23693511074E+03  0.00000000000E+00 0.  1.
         -2   -1    0    0    0  501 -0.00000000000E+00 -0.00000000000E+00 -0.55577710397E+02  0.55577710397E+02  0.00000000000E+00 0. -1.
         23    2    1    2    0    0  0.20543298587E+02  0.20320520255E+02  0.70901383929E+02  0.14666064540E+03  0.12508951996E+03 0.  0.
          5    1    3    3  502    0 -0.34163003439E+02 -0.83353065889E+01  0.76710773921E+02  0.84490256098E+02  0.41800000000E+01 0. -1.
         -5    1    3    3    0  502  0.54706302026E+02  0.28655826844E+02 -0.58093899926E+01  0.62170389299E+02  0.41800000000E+01 0. -1.
        -11    1    1    2    0    0  0.35262775004E+02 -0.17508650187E+02  0.45235238893E+02  0.59968683245E+02  0.00000000000E+00 0.  1.
         11    1    1    2    0    0 -0.55806073591E+02 -0.28118700677E+01  0.65220777525E+02  0.85883492500E+02  0.00000000000E+00 0. -1.
</event>
<event>
 7    1  0.1312490E-005  0.2205996E+03  0.7561462E-02  0.1133437E+00
         -2   -1    0    0    0  501 -0.00000000000E+00  0.00000000000E+00  0.16151533416E+04  0.16151533416E+04  0.00000000000E+00 0.  1.
          2   -1    0    0  501    0  0.00000000000E+00 -0.00000000000E+00 -0.35744943820E+02  0.35744943820E+02  0.00000000000E+00 0. -1.
         23    2    1    2    0    0  0.97924098534E+02 -0.19300993000E+03  0.69294299216E+03  0.73665662287E+03  0.12510406659E+03 0.  0.
          5    1    3    3  502    0  0.40976656436E+02 -0.11031260978E+03  0.18816300142E+03  0.22197014609E+03  0.41800000000E+01 0. -1.
         -5    1    3    3    0  502  0.56947442098E+02 -0.82697320224E+02  0.50477999074E+03  0.51468647678E+03  0.41800000000E+01 0. -1.
        -11    1    1    2    0    0 -0.11213972060E+02 -0.15836512863E+00  0.31140726780E+02  0.33098687486E+02  0.00000000000E+00 0.  1.
         11    1    1    2    0    0 -0.86710126474E+02  0.19316829513E+03  0.85532467886E+03  0.88114297509E+03  0.00000000000E+00 0. -1.
</event>
<event>
 7    1  0.1312490E-005  0.1531846E+03  0.7561462E-02  0.1196613E+00
          1   -1    0    0  501    0  0.00000000000E+00  0.00000000000E+00  0.59304395183E+03  0.59304395183E+03  0.00000000000E+00 0. -1.
         -1   -1    0    0    0  501 -0.00000000000E+00 -0.00000000000E+00 -0.56059533071E+02  0.56059533071E+02  0.00000000000E+00 0.  1.
         23    2    1    2    0    0 -0.11440225870E+03  0.42234672628E+02  0.14050161906E+03  0.22418670872E+03  0.12508929226E+03 0.  0.
          5    1    3    3  502    0 -0.25056687318E+02  0.61383500101E+02  0.10861067351E+03  0.12731662289E+03  0.41800000000E+01 0. -1.
         -5    1    3    3    0  502 -0.89345571386E+02 -0.19148827474E+02  0.31890945548E+02  0.96870085825E+02  0.41800000000E+01 0. -1.
        -11    1    1    2    0    0  0.52566456561E+02 -0.64083087784E+02  0.27010091350E+03  0.28253208308E+03  0.00000000000E+00 0. -1.
         11    1    1    2    0    0  0.61835802143E+02  0.21848415157E+02  0.12638188621E+03  0.14238469311E+03  0.00000000000E+00 0.  1.
</event>
<event>
 7    1  0.1721170E-005  0.3233478E+03  0.7561462E-02  0.1074119E+00
         -2   -1    0    0    0  501 -0.00000000000E+00  0.00000000000E+00  0.88804713694E+02  0.88804713694E+02  0.00000000000E+00 0.  1.
          2   -1    0    0  501    0  0.00000000000E+00 -0.00000000000E+00 -0.13832754881E+04  0.13832754881E+04  0.00000000000E+00 0. -1.
         23    2    1    2    0    0  0.10203728355E+03 -0.29547884497E+03 -0.41586173066E+03  0.53507639660E+03  0.12508563510E+03 0.  0.
          5    1    3    3  502    0  0.30137553340E+02 -0.24225306289E+03 -0.27096937393E+03  0.36474195345E+03  0.41800000000E+01 0.  1.
         -5    1    3    3    0  502  0.71899730211E+02 -0.53225782084E+02 -0.14489235673E+03  0.17033444315E+03  0.41800000000E+01 0.  1.
        -11    1    1    2    0    0 -0.20721541694E+02  0.81000154413E+02 -0.36579425653E+03  0.37522772474E+03  0.00000000000E+00 0.  1.
         11    1    1    2    0    0 -0.81315741857E+02  0.21447869056E+03 -0.51281478718E+03  0.56177608042E+03  0.00000000000E+00 0. -1.
</event>
<event>
 7    1  0.1312490E-005  0.1367994E+03  0.7561462E-02  0.1217702E+00
         -1   -1    0    0    0  501 -0.00000000000E+00  0.00000000000E+00  0.25464714856E+03  0.25464714856E+03  0.00000000000E+00 0.  1.
          1   -1    0    0  501    0  0.00000000000E+00 -0.00000000000E+00 -0.13393452120E+03  0.13393452120E+03  0.00000000000E+00 0. -1.
         23    2    1    2    0    0 -0.69018908718E+02  0.61131902970E+02  0.18718818784E+03  0.24328125944E+03  0.12508250959E+03 0.  0.
          5    1    3    3  502    0 -0.16376487568E+02  0.91876199442E+02  0.12550149438E+03  0.15645294136E+03  0.41800000000E+01 0. -1.
         -5    1    3    3    0  502 -0.52642421150E+02 -0.30744296472E+02  0.61686693464E+02  0.86828318081E+02  0.41800000000E+01 0. -1.
        -11    1    1    2    0    0  0.85433579117E+02 -0.47580640373E+02 -0.74097069725E+02  0.12269144029E+03  0.00000000000E+00 0. -1.
         11    1    1    2    0    0 -0.16414670399E+02 -0.13551262597E+02  0.76215092423E+01  0.22608970021E+02  0.00000000000E+00 0.  1.
</event>
<event>
 7    1  0.1312490E-005  0.1343497E+03  0.7561462E-02  0.1221141E+00
         -2   -1    0    0    0  501 -0.00000000000E+00  0.00000000000E+00  0.18421144697E+02  0.18421144697E+02  0.00000000000E+00 0.  1.
          2   -1    0    0  501    0  0.00000000000E+00 -0.00000000000E+00 -0.12691648509E+04  0.12691648509E+04  0.00000000000E+00 0. -1.
         23    2    1    2    0    0 -0.33035889508E+02 -0.10051967729E+03 -0.75095358360E+03  0.76861816724E+03  0.12508807608E+03 0.  0.
          5    1    3    3  502    0  0.10822460976E+02  0.14667055890E+02 -0.31506241765E+03  0.31561693174E+03  0.41800000000E+01 0. -1.
         -5    1    3    3    0  502 -0.43858350484E+02 -0.11518673318E+03 -0.43589116595E+03  0.45300123549E+03  0.41800000000E+01 0. -1.
        -11    1    1    2    0    0  0.44945275820E+02  0.27503478059E+02 -0.10699341455E+03  0.11926487279E+03  0.00000000000E+00 0.  1.
         11    1    1    2    0    0 -0.11909386312E+02  0.73016199228E+02 -0.39279670803E+03  0.39970295555E+03  0.00000000000E+00 0. -1.
</event>
<event>
 7    1  0.1312490E-005  0.1436447E+03  0.7561462E-02  0.1208507E+00
         -2   -1    0    0    0  501 -0.00000000000E+00  0.00000000000E+00  0.50041406115E+02  0.50041406115E+02  0.00000000000E+00 0. -1.
          2   -1    0    0  501    0  0.00000000000E+00 -0.00000000000E+00 -0.45750798767E+03  0.45750798767E+03  0.00000000000E+00 0.  1.
         23    2    1    2    0    0 -0.80542561275E+02  0.67275904350E+02 -0.22011607790E+03  0.27406128212E+03  0.12508136202E+03 0.  0.
          5    1    3    3  502    0 -0.73286925352E+02 -0.80322889634E+01 -0.16372719641E+03  0.17960946060E+03  0.41800000000E+01 0.  1.
         -5    1    3    3    0  502 -0.72556359229E+01  0.75308193313E+02 -0.56388881492E+02  0.94451821521E+02  0.41800000000E+01 0.  1.
        -11    1    1    2    0    0  0.44256581043E+01 -0.61150069742E+02 -0.65761990191E+02  0.89908602664E+02  0.00000000000E+00 0.  1.
         11    1    1    2    0    0  0.76116903170E+02 -0.61258346080E+01 -0.12158851346E+03  0.14357950899E+03  0.00000000000E+00 0. -1.
</event>
<event>
 6    1  0.1312490E-005  0.1498280E+03  0.7561462E-02  0.1200685E+00
         -2   -1    0    0    0  501 -0.00000000000E+00  0.00000000000E+00  0.45155875323E+02  0.45155875323E+02  0.00000000000E+00 0.  1.
          2   -1    0    0  501    0  0.00000000000E+00 -0.00000000000E+00 -0.87230993552E+03  0.87230993552E+03  0.00000000000E+00 0. -1.
          5    1    1    2  502    0 -0.67702077758E+02  0.61488018215E+02 -0.51579666392E+03  0.52385877737E+03  0.41800000000E+01 0. -1.
         -5    1    1    2    0  502  0.20603662065E+02 -0.10156841012E+03 -0.58311245886E+02  0.11898876679E+03  0.41800000000E+01 0.  1.
        -11    1    1    2    0    0  0.71381052334E+02  0.24216442809E+02 -0.20590772989E+03  0.21927080053E+03  0.00000000000E+00 0.  1.
         11    1    1    2    0    0 -0.24282636641E+02  0.15863949095E+02 -0.47138420504E+02  0.55347466163E+02  0.00000000000E+00 0. -1.
</event>
<event>
 7    1  0.1312490E-005  0.1228163E+03  0.7561462E-02  0.1238522E+00
         -1   -1    0    0    0  501 -0.00000000000E+00  0.00000000000E+00  0.90731600533E+02  0.90731600533E+02  0.00000000000E+00 0.  1.
          1   -1    0    0  501    0  0.00000000000E+00 -0.00000000000E+00 -0.25782769799E+03  0.25782769799E+03  0.00000000000E+00 0. -1.
         23    2    1    2    0    0 -0.75811655176E+02  0.17522071946E+02 -0.49769195969E+01  0.14740093229E+03  0.12509130683E+03 0.  0.
          5    1    3    3  502    0 -0.84033335033E+02 -0.24143888015E+02 -0.35994666029E+02  0.94644688746E+02  0.41800000000E+01 0.  1.
         -5    1    3    3    0  502  0.82216798568E+01  0.41665959961E+02  0.31017746432E+02  0.52756243543E+02  0.41800000000E+01 0.  1.
        -11    1    1    2    0    0  0.38379742202E+02  0.34316832818E+02 -0.97460584545E+02  0.11022347829E+03  0.00000000000E+00 0. -1.
         11    1    1    2    0    0  0.37431912974E+02 -0.51838904764E+02 -0.64658593318E+02  0.90934887947E+02  0.00000000000E+00 0.  1.
</event>
<event>
 7    1  0.1312490E-005  0.1056148E+03  0.7561462E-02  0.1268913E+00
          2   -1    0    0  501    0  0.00000000000E+00  0.00000000000E+00  0.47051466204E+03  0.47051466204E+03  0.00000000000E+00 0. -1.
         -2   -1    0    0    0  501 -0.00000000000E+00 -0.00000000000E+00 -0.33832996598E+02  0.33832996598E+02  0.00000000000E+00 0.  1.
         23    2    1    2    0    0 -0.17335234080E+02  0.42979778257E+02  0.15354919155E+03  0.20340125008E+03  0.12508773972E+03 0.  0.
          5    1    3    3  502    0 -0.38641981680E+02 -0.20230060958E+02  0.12173472996E+03  0.12938035010E+03  0.41800000000E+01 0.  1.
         -5    1    3    3    0  502  0.21306747600E+02  0.63209839216E+02  0.31814461592E+02  0.74020899977E+02  0.41800000000E+01 0.  1.
        -11    1    1    2    0    0  0.48703101359E+02 -0.48493645876E+02  0.21541279501E+03  0.22611125143E+03  0.00000000000E+00 0.  1.
         11    1    1    2    0    0 -0.31367867279E+02  0.55138676188E+01  0.67719678881E+02  0.74835157122E+02  0.00000000000E+00 0. -1.
</event>
<event>
 7    1  0.1312490E-005  0.1386189E+03  0.7561462E-02  0.1215200E+00
          2   -1    0    0  501    0  0.00000000000E+00  0.00000000000E+00  0.10409167262E+03  0.10409167262E+03  0.00000000000E+00 0. -1.
         -2   -1    0    0    0  501 -0.00000000000E+00 -0.00000000000E+00 -0.32491076513E+03  0.32491076513E+03  0.00000000000E+00 0.  1.
         23    2    1    2    0    0  0.61075405341E+02  0.79523343827E+02 -0.24343964507E+03  0.29148727075E+03  0.12509117022E+03 0.  0.
          5    1    3    3  502    0  0.94955597854E+02  0.35116980469E+02 -0.18231394544E+03  0.20857999661E+03  0.41800000000E+01 0.  1.
         -5    1    3    3    0  502 -0.33880192513E+02  0.44406363358E+02 -0.61125699623E+02  0.82907274143E+02  0.41800000000E+01 0.  1.
        -11    1    1    2    0    0  0.50156456523E+01 -0.45104942315E+02 -0.22237972586E+02  0.50538499654E+02  0.00000000000E+00 0.  1.
         11    1    1    2    0    0 -0.66091050994E+02 -0.34418401512E+02  0.44858525151E+02  0.86976667347E+02  0.00000000000E+00 0. -1.
</event>
<event>
 7    1  0.1312490E-005  0.1215690E+03  0.7561462E-02  0.1240531E+00
          3   -1    0    0  501    0  0.00000000000E+00  0.00000000000E+00  0.20126908125E+02  0.20126908125E+02  0.00000000000E+00 0. -1.
         -3   -1    0    0    0  501 -0.00000000000E+00 -0.00000000000E+00 -0.85213905591E+03  0.85213905591E+03  0.00000000000E+00 0.  1.
         23    2    1    2    0    0 -0.19744790651E+02  0.65175945688E+02 -0.54907940062E+03  0.56725151130E+03  0.12509327811E+03 0.  0.
          5    1    3    3  502    0  0.18309259742E+02 -0.30087802033E+02 -0.20984689489E+03  0.21282315785E+03  0.41800000000E+01 0. -1.
         -5    1    3    3    0  502 -0.38054050394E+02  0.95263747721E+02 -0.33923250573E+03  0.35442835344E+03  0.41800000000E+01 0. -1.
        -11    1    1    2    0    0  0.48021306544E+02 -0.20687868377E+02 -0.81761402623E+02  0.97051330434E+02  0.00000000000E+00 0. -1.
         11    1    1    2    0    0 -0.28276515892E+02 -0.44488077311E+02 -0.20117134454E+03  0.20796312230E+03  0.00000000000E+00 0.  1.
</event>
<event>
 7    1  0.1312490E-005  0.1362992E+03  0.7561462E-02  0.1218397E+00
         -2   -1    0    0    0  501 -0.00000000000E+00  0.00000000000E+00  0.59039983463E+02  0.59039983463E+02  0.00000000000E+00 0.  1.
          2   -1    0    0  501    0  0.00000000000E+00 -0.00000000000E+00 -0.68262701559E+03  0.68262701559E+03  0.00000000000E+00 0. -1.
         23    2    1    2    0    0  0.29051536666E+02  0.10574603682E+03 -0.89189633672E+02  0.18875351866E+03  0.12508750523E+03 0.  0.
          5    1    3    3  502    0  0.73491192117E+02  0.83490557810E+02 -0.82245668280E+02  0.13839599312E+03  0.41800000000E+01 0.  1.
         -5    1    3    3    0  502 -0.44439655451E+02  0.22255479008E+02 -0.69439653920E+01  0.50357525533E+02  0.41800000000E+01 0.  1.
        -11    1    1    2    0    0  0.29661750777E+01 -0.11643495629E+02 -0.31152494276E+01  0.12412653385E+02  0.00000000000E+00 0.  1.
         11    1    1    2    0    0 -0.32017711744E+02 -0.94102541188E+02 -0.53128214903E+03  0.54050082701E+03  0.00000000000E+00 0. -1.
</event>
<event>
 7    1  0.1312490E-005  0.6723633E+02  0.7561462E-02  0.1369751E+00
          2   -1    0    0  501    0  0.00000000000E+00  0.00000000000E+00  0.28512071160E+03  0.28512071160E+03  0.00000000000E+00 0. -1.
         -2   -1    0    0    0  501 -0.00000000000E+00 -0.00000000000E+00 -0.44393053278E+02  0.44393053278E+02  0.00000000000E+00 0.  1.
         23    2    1    2    0    0 -0.27886588924E+02 -0.85493820785E+01  0.14777542655E+03  0.19579555449E+03  0.12509024218E+03 0.  0.
          5    1    3    3  502    0  0.87259728333E+01 -0.11984492588E+02 -0.19287053160E+02  0.24682655532E+02  0.41800000000E+01 0.  1.
         -5    1    3    3    0  502 -0.36612561757E+02  0.34351105099E+01  0.16706247971E+03  0.17111289896E+03  0.41800000000E+01 0.  1.
        -11    1    1    2    0    0  0.44842958392E+02 -0.19805305297E+02  0.18735478583E+02  0.52480083775E+02  0.00000000000E+00 0.  1.
         11    1    1    2    0    0 -0.16956369469E+02  0.28354687376E+02  0.74216753193E+02  0.81238126617E+02  0.00000000000E+00 0. -1.
</event>
<event>
 7    1  0.1312490E-005  0.1563622E+03  0.7561462E-02  0.1192866E+00
          2   -1    0    0  501    0  0.00000000000E+00  0.00000000000E+00  0.42504469851E+03  0.42504469851E+03  0.00000000000E+00 0.  1.
         -2   -1    0    0    0  501 -0.00000000000E+00 -0.00000000000E+00 -0.65541469671E+02  0.65541469671E+02  0.00000000000E+00 0. -1.
         23    2    1    2    0    0 -0.66089870252E+02 -0.10676882785E+03  0.21648843308E+03  0.27978926212E+03  0.12508931206E+03 0.  0.
          5    1    3    3  502    0 -0.27695704111E+02  0.24902108596E+02  0.67735295500E+02  0.77412593906E+02  0.41800000000E+01 0. -1.
         -5    1    3    3    0  502 -0.38394166140E+02 -0.13167093645E+03  0.14875313758E+03  0.20237666822E+03  0.41800000000E+01 0. -1.
        -11    1    1    2    0    0  0.62473334324E+02  0.47073760537E+02  0.12653825723E+03  0.14876419924E+03  0.00000000000E+00 0.  1.
         11    1    1    2    0    0  0.36165359277E+01  0.59695067314E+02  0.16476538536E+02  0.62032706824E+02  0.00000000000E+00 0. -1.
</event>
<event>
 6    1  0.1312490E-005  0.2349445E+03  0.7561462E-02  0.1123207E+00
          2   -1    0    0  501    0  0.00000000000E+00  0.00000000000E+00  0.31992984644E+03  0.31992984644E+03  0.00000000000E+00 0. -1.
         -2   -1    0    0    0  501 -0.00000000000E+00 -0.00000000000E+00 -0.48420466083E+03  0.48420466083E+03  0.00000000000E+00 0.  1.
          5    1    1    2  502    0  0.65262994831E+02 -0.41543959467E+02 -0.11351682205E+03  0.13743616827E+03  0.41800000000E+01 0. -1.
         -5    1    1    2    0  502 -0.16364427409E+03 -0.12020237928E+03 -0.28587992352E+03  0.35067486865E+03  0.41800000000E+01 0.  1.
        -11    1    1    2    0    0  0.81571463806E+02  0.13517192844E+03  0.23672053372E+03  0.28453816094E+03  0.00000000000E+00 0. -1.
         11    1    1    2    0    0  0.16809815453E+02  0.26574410304E+02 -0.15986025462E+01  0.31485309411E+02  0.00000000000E+00 0.  1.
</event>
<event>
 7    1  0.1312490E-005  0.1124265E+03  0.7561462E-02  0.1256141E+00
         -1   -1    0    0    0  501 -0.00000000000E+00  0.00000000000E+00  0.66987308575E+02  0.66987308575E+02  0.00000000000E+00 0.  1.
          1   -1    0    0  501    0  0.00000000000E+00 -0.00000000000E+00 -0.30231067272E+03  0.30231067272E+03  0.00000000000E+00 0. -1.
         23    2    1    2    0    0  0.32875699510E+02 -0.19638266256E+02 -0.20056995709E+02  0.13234875465E+03  0.12508971445E+03 0.  0.
          5    1    3    3  502    0 -0.30285225871E+02  0.35435870218E+02 -0.45329048550E+01  0.47020372506E+02  0.41800000000E+01 0.  1.
         -5    1    3    3    0  502  0.63160925381E+02 -0.55074136474E+02 -0.15524090854E+02  0.85328382149E+02  0.41800000000E+01 0.  1.
        -11    1    1    2    0    0 -0.37697543303E+02 -0.27563747591E+02 -0.70147724523E+02  0.84270802821E+02  0.00000000000E+00 0.  1.
         11    1    1    2    0    0  0.48218437935E+01  0.47202013847E+02 -0.14511864391E+03  0.15267842382E+03  0.00000000000E+00 0. -1.
</event>
<event>
 7    1  0.1312490E-005  0.9466433E+02  0.7561462E-02  0.1291934E+00
          1   -1    0    0  501    0  0.00000000000E+00  0.00000000000E+00  0.30573032213E+03  0.30573032213E+03  0.00000000000E+00 0. -1.
         -1   -1    0    0    0  501 -0.00000000000E+00 -0.00000000000E+00 -0.45614219275E+02  0.45614219275E+02  0.00000000000E+00 0.  1.
         23    2    1    2    0    0  0.32862212930E+02  0.32679187294E+02  0.14054290666E+03  0.19377269460E+03  0.12509074401E+03 0.  0.
          5    1    3    3  502    0  0.23914768957E+02 -0.36103954087E+02  0.81676391550E+01  0.44267306269E+02  0.41800000000E+01 0. -1.
         -5    1    3    3    0  502  0.89474439731E+01  0.68783141381E+02  0.13237526750E+03  0.14950538833E+03  0.41800000000E+01 0. -1.
        -11    1    1    2    0    0 -0.18910929668E+02  0.16571490978E+02 -0.24336556268E+01  0.25261833937E+02  0.00000000000E+00 0.  1.
         11    1    1    2    0    0 -0.13951283262E+02 -0.49250678272E+02  0.12200685182E+03  0.13231001287E+03  0.00000000000E+00 0. -1.
</event>
<event>
 7    1  0.1312490E-005  0.9883727E+02  0.7561462E-02  0.1282760E+00
          3   -1    0    0  501    0  0.00000000000E+00  0.00000000000E+00  0.48372126853E+03  0.48372126853E+03  0.00000000000E+00 0. -1.
         -3   -1    0    0    0  501 -0.00000000000E+00 -0.00000000000E+00 -0.37374273169E+02  0.37374273169E+02  0.00000000000E+00 0.  1.
         23    2    1    2    0    0  0.61245638610E+02  0.49397253558E+02  0.25751877260E+03  0.29690797571E+03  0.12508921173E+03 0.  0.
          5    1    3    3  502    0  0.26713455129E+02  0.14623280915E+02  0.24395894410E+03  0.24588795789E+03  0.41800000000E+01 0.  1.
         -5    1    3    3    0  502  0.34532183481E+02  0.34773972643E+02  0.13559828501E+02  0.51020017819E+02  0.41800000000E+01 0.  1.
        -11    1    1    2    0    0 -0.42884167299E+01  0.24261981647E+02  0.63064822219E+02  0.67706765341E+02  0.00000000000E+00 0. -1.
         11    1    1    2    0    0 -0.56957221880E+02 -0.73659235204E+02  0.12576340054E+03  0.15648080065E+03  0.00000000000E+00 0.  1.
</event>
<event>
 7    1  0.1312490E-005  0.3309582E+03  0.7561462E-02  0.1070714E+00
          1   -1    0    0  501    0  0.00000000000E+00  0.00000000000E+00  0.16815191943E+03  0.16815191943E+03  0.00000000000E+00 0. -1.
         -1   -1    0    0    0  501 -0.00000000000E+00 -0.00000000000E+00 -0.89364611133E+03  0.89364611133E+03  0.00000000000E+00 0.  1.
         23    2    1    2    0    0  0.32393521469E+03 -0.22983811500E+02 -0.61869453429E+03  0.70985393737E+03  0.12508959486E+03 0.  0.
          5    1    3    3  502    0  0.76694134396E+02 -0.39723955792E+02 -0.25889215464E+03  0.27295164966E+03  0.41800000000E+01 0. -1.
         -5    1    3    3    0  502  0.24724108029E+03  0.16740144293E+02 -0.35980237964E+03  0.43690228772E+03  0.41800000000E+01 0. -1.
        -11    1    1    2    0    0 -0.19447048188E+03  0.34946575809E+02 -0.10074423599E+03  0.22178690802E+03  0.00000000000E+00 0.  1.
         11    1    1    2    0    0 -0.12946473281E+03 -0.11962764310E+02 -0.60554216253E+01  0.13015718537E+03  0.00000000000E+00 0. -1.
</event>
<event>
 6    1  0.1312490E-005  0.1384926E+03  0.7561462E-02  0.1215372E+00
         -2   -1    0    0    0  501 -0.00000000000E+00  0.00000000000E+00  0.30466482039E+02  0.30466482039E+02  0.00000000000E+00 0.  1.
          2   -1    0    0  501    0  0.00000000000E+00 -0.00000000000E+00 -0.85052711922E+03  0.85052711922E+03  0.00000000000E+00 0. -1.
          5    1    1    2  502    0 -0.51259782495E+02 -0.78226871174E+02 -0.40510702505E+03  0.41578381741E+03  0.41800000000E+01 0. -1.
         -5    1    1    2    0  502  0.50487595794E+02  0.72830352530E+02 -0.88680075895E+02  0.12543877327E+03  0.41800000000E+01 0.  1.
        -11    1    1    2    0    0 -0.34408113074E+02 -0.29333072326E+02 -0.16592467865E+03  0.17197484223E+03  0.00000000000E+00 0.  1.
         11    1    1    2    0    0  0.35180299775E+02  0.34729590971E+02 -0.16034885759E+03  0.16779616835E+03  0.00000000000E+00 0. -1.
</event>
<event>
 7    1  0.1312490E-005  0.1099816E+03  0.7561462E-02  0.1260604E+00
          1   -1    0    0  501    0  0.00000000000E+00  0.00000000000E+00  0.36235258042E+02  0.36235258042E+02  0.00000000000E+00 0. -1.
         -1   -1    0    0    0  501 -0.00000000000E+00 -0.00000000000E+00 -0.38441540640E+03  0.38441540640E+03  0.00000000000E+00 0.  1.
         23    2    1    2    0    0  0.33528985170E+02 -0.36988386759E+02 -0.23468222838E+03  0.27057009575E+03  0.12506036459E+03 0.  0.
          5    1    3    3  502    0 -0.40685445574E+02  0.36467531151E+01 -0.36103619500E+02  0.54676759513E+02  0.41800000000E+01 0.  1.
         -5    1    3    3    0  502  0.74214430744E+02 -0.40635139875E+02 -0.19857860888E+03  0.21589333623E+03  0.41800000000E+01 0.  1.
        -11    1    1    2    0    0 -0.52019937347E+02  0.49542876226E+02 -0.65851444201E+02  0.97452466206E+02  0.00000000000E+00 0. -1.
         11    1    1    2    0    0  0.18490952177E+02 -0.12554489466E+02 -0.47646475776E+02  0.52628102494E+02  0.00000000000E+00 0.  1.
</event>
<event>
 7    1  0.1312490E-005  0.1265796E+03  0.7561462E-02  0.1232621E+00
         -1   -1    0    0    0  501 -0.00000000000E+00  0.00000000000E+00  0.29359764257E+03  0.29359764257E+03  0.00000000000E+00 0.  1.
          1   -1    0    0  501    0  0.00000000000E+00 -0.00000000000E+00 -0.10638068240E+03  0.10638068240E+03  0.00000000000E+00 0. -1.
         23    2    1    2    0    0 -0.28791826554E+02 -0.11761516277E+03  0.17543591028E+03  0.24715988651E+03  0.12509178668E+03 0.  0.
          5    1    3    3  502    0 -0.22598334967E+02 -0.10742243796E+03  0.49327614109E+02  0.12041989384E+03  0.41800000000E+01 0.  1.
         -5    1    3    3    0  502 -0.61934915870E+01 -0.10192724814E+02  0.12610829618E+03  0.12673999267E+03  0.41800000000E+01 0.  1.
        -11    1    1    2    0    0 -0.18372761876E+01  0.88142446790E+02  0.44896445576E+02  0.98935116795E+02  0.00000000000E+00 0.  1.
         11    1    1    2    0    0  0.30629102741E+02  0.29472715980E+02 -0.33115395685E+02  0.53883321662E+02  0.00000000000E+00 0. -1.
</event>
<event>
 7    1  0.1312490E-005  0.2059533E+03  0.7561462E-02  0.1144811E+00
         -1   -1    0    0    0  501 -0.00000000000E+00  0.00000000000E+00  0.88077644099E+03  0.88077644099E+03  0.00000000000E+00 0.  1.
          1   -1    0    0  501    0  0.00000000000E+00 -0.00000000000E+00 -0.69532443776E+02  0.69532443776E+02  0.00000000000E+00 0. -1.
         23    2    1    2    0    0 -0.12359375250E+03  0.13272316388E+03  0.66305330436E+03  0.69869733813E+03  0.12508969586E+03 0.  0.
          5    1    3    3  502    0 -0.13694276430E+03  0.90218732527E+02  0.40790929265E+03  0.43965919054E+03  0.41800000000E+01 0.  1.
         -5    1    3    3    0  502  0.13349011802E+02  0.42504431357E+02  0.25514401171E+03  0.25903814760E+03  0.41800000000E+01 0.  1.
        -11    1    1    2    0    0  0.93207384208E+02 -0.33016630137E+02  0.78068419838E+02  0.12598568376E+03  0.00000000000E+00 0. -1.
         11    1    1    2    0    0  0.30386368291E+02 -0.99706533746E+02  0.70122273023E+02  0.12562586288E+03  0.00000000000E+00 0.  1.
</event>
<event>
 7    1  0.1312490E-005  0.1429045E+03  0.7561462E-02  0.1209473E+00
         -1   -1    0    0    0  501 -0.00000000000E+00  0.00000000000E+00  0.37452254343E+02  0.37452254343E+02  0.00000000000E+00 0.  1.
          1   -1    0    0  501    0  0.00000000000E+00 -0.00000000000E+00 -0.63638536959E+03  0.63638536959E+03  0.00000000000E+00 0. -1.
         23    2    1    2    0    0 -0.69750447818E+02 -0.70713121985E+02 -0.22120147286E+03  0.27284509397E+03  0.12509549597E+03 0.  0.
          5    1    3    3  502    0 -0.22465004972E+02 -0.97526143849E+02 -0.10861034937E+03  0.14774879212E+03  0.41800000000E+01 0. -1.
         -5    1    3    3    0  502 -0.47285442845E+02  0.26813021863E+02 -0.11259112349E+03  0.12509630185E+03  0.41800000000E+01 0. -1.
        -11    1    1    2    0    0 -0.67704541633E+01 -0.14857932056E+02 -0.85059524351E+02  0.86612469526E+02  0.00000000000E+00 0.  1.
         11    1    1    2    0    0  0.76520901981E+02  0.85571054041E+02 -0.29267211803E+03  0.31438006044E+03  0.00000000000E+00 0. -1.
</event>
<event>
 6    1  0.1312490E-005  0.1129659E+03  0.7561462E-02  0.1255174E+00
          3   -1    0    0  501    0  0.00000000000E+00  0.00000000000E+00  0.36539241733E+02  0.36539241733E+02  0.00000000000E+00 0. -1.
         -3   -1    0    0    0  501 -0.00000000000E+00 -0.00000000000E+00 -0.49123113204E+03  0.49123113204E+03  0.00000000000E+00 0.  1.
          5    1    1    2  502    0 -0.19384547125E+02 -0.10057958143E+03 -0.20503746127E+03  0.22923753138E+03  0.41800000000E+01 0. -1.
         -5    1    1    2    0  502 -0.22381595819E+02  0.38306948634E+02 -0.55638135701E+02  0.71284168574E+02  0.41800000000E+01 0.  1.
        -11    1    1    2    0    0  0.42385705577E+02  0.45929950123E+02 -0.20022711575E+03  0.20975463341E+03  0.00000000000E+00 0.  1.
         11    1    1    2    0    0 -0.61956263259E+00  0.16342682671E+02  0.62108224168E+01  0.17494040409E+02  0.00000000000E+00 0. -1.
</event>
<event>
 7    1  0.1312490E-005  0.1826256E+03  0.7561462E-02  0.1165286E+00
          1   -1    0    0  501    0  0.00000000000E+00  0.00000000000E+00  0.86970360152E+03  0.86970360152E+03  0.00000000000E+00 0. -1.
         -1   -1    0    0    0  501 -0.00000000000E+00 -0.00000000000E+00 -0.46110828654E+02  0.46110828654E+02  0.00000000000E+00 0.  1.
         23    2    1    2    0    0  0.13864778343E+03 -0.94653561475E+02  0.46583671634E+03  0.51071974896E+03  0.12509320978E+03 0.  0.
          5    1    3    3  502    0  0.14161570798E+03 -0.79026383481E+02  0.27580898838E+03  0.31998163776E+03  0.41800000000E+01 0.  1.
         -5    1    3    3    0  502 -0.29679245496E+01 -0.15627177994E+02  0.19002772796E+03  0.19073811120E+03  0.41800000000E+01 0.  1.
        -11    1    1    2    0    0 -0.68170640141E+01  0.45302022116E+02  0.12442629727E+03  0.13259203982E+03  0.00000000000E+00 0. -1.
         11    1    1    2    0    0 -0.13183071942E+03  0.49351539358E+02  0.23332975925E+03  0.27250264140E+03  0.00000000000E+00 0.  1.
</event>
<event>
 7    1  0.1312490E-005  0.1087750E+03  0.7561462E-02  0.1262855E+00
         -2   -1    0    0    0  501 -0.00000000000E+00  0.00000000000E+00  0.16356571304E+03  0.16356571304E+03  0.00000000000E+00 0.  1.
          2   -1    0    0  501    0  0.00000000000E+00 -0.00000000000E+00 -0.11534970182E+03  0.11534970182E+03  0.00000000000E+00 0. -1.
         23    2    1    2    0    0  0.95882725920E+00  0.69446022833E+02  0.74009236902E+02  0.16108345034E+03  0.12508733505E+03 0.  0.
          5    1    3    3  502    0 -0.36750511828E+01 -0.30361671022E+02 -0.78490793115E+01  0.31849921734E+02  0.41800000000E+01 0.  1.
         -5    1    3    3    0  502  0.46338784420E+01  0.99807693855E+02  0.81858316213E+02  0.12923352860E+03  0.41800000000E+01 0.  1.
        -11    1    1    2    0    0 -0.23655945577E+02 -0.54745335362E+02 -0.52771783623E+02  0.79633640202E+02  0.00000000000E+00 0. -1.
         11    1    1    2    0    0  0.22697118318E+02 -0.14700687471E+02  0.26978557948E+02  0.38198324322E+02  0.00000000000E+00 0.  1.
</event>
<event>
 7    1  0.1312490E-005  0.1185627E+03  0.7561462E-02  0.1245487E+00
         -2   -1    0    0    0  501 -0.00000000000E+00  0.00000000000E+00  0.37835093184E+02  0.37835093184E+02  0.00000000000E+00 0.  1.
          2   -1    0    0  501    0  0.00000000000E+00 -0.00000000000E+00 -0.50653827626E+03  0.50653827626E+03  0.00000000000E+00 0. -1.
         23    2    1    2    0    0  0.36658306949E+01 -0.62214292009E+02 -0.14223663232E+03  0.19940751313E+03  0.12509212715E+03 0.  0.
          5    1    3    3  502    0  0.53833981241E+02 -0.50726546735E+02 -0.12437688174E+03  0.14477002864E+03  0.41800000000E+01 0. -1.
         -5    1    3    3    0  502 -0.50168150547E+02 -0.11487745274E+02 -0.17859750576E+02  0.54637484490E+02  0.41800000000E+01 0. -1.
        -11    1    1    2    0    0 -0.42061636575E+02  0.59561291416E+02 -0.21837257993E+03  0.23022448257E+03  0.00000000000E+00 0. -1.
         11    1    1    2    0    0  0.38395805880E+02  0.26530005934E+01 -0.10809397083E+03  0.11474137375E+03  0.00000000000E+00 0.  1.
</event>
<event>
 7    1  0.1312490E-005  0.1131458E+03  0.7561462E-02  0.1254853E+00
         -2   -1    0    0    0  501 -0.00000000000E+00  0.00000000000E+00  0.24460434195E+02  0.24460434195E+02  0.00000000000E+00 0.  1.
          2   -1    0    0  501    0  0.00000000000E+00 -0.00000000000E+00 -0.68581954608E+03  0.68581954608E+03  0.00000000000E+00 0. -1.
         23    2    1    2    0    0 -0.67477850594E+02 -0.64679772312E+01 -0.33181783202E+03  0.36103718192E+03  0.12509867318E+03 0.  0.
          5    1    3    3  502    0 -0.24418557340E+01  0.33780470476E+02 -0.23557568546E+03  0.23803457486E+03  0.41800000000E+01 0. -1.
         -5    1    3    3    0  502 -0.65035994860E+02 -0.40248447707E+02 -0.96242146552E+02  0.12300260706E+03  0.41800000000E+01 0. -1.
        -11    1    1    2    0    0  0.59228713126E+02 -0.37981415531E+02 -0.19453291972E+03  0.20686634632E+03  0.00000000000E+00 0. -1.
         11    1    1    2    0    0  0.82491374680E+01  0.44449392762E+02 -0.13500836014E+03  0.14237645203E+03  0.00000000000E+00 0.  1.
</event>
<event>
 7    1  0.1312490E-005  0.1286174E+03  0.7561462E-02  0.1229522E+00
          2   -1    0    0  501    0  0.00000000000E+00  0.00000000000E+00  0.62508220481E+02  0.62508220481E+02  0.00000000000E+00 0.  1.
         -2   -1    0    0    0  501 -0.00000000000E+00 -0.00000000000E+00 -0.41098823181E+03  0.41098823181E+03  0.00000000000E+00 0. -1.
         23    2    1    2    0    0  0.11357209237E+03  0.32882240698E+02 -0.19350907454E+03  0.25898444311E+03  0.12508923983E+03 0.  0.
          5    1    3    3  502    0  0.29842907104E+02 -0.74760816375E+01 -0.15534844158E+03  0.15842064765E+03  0.41800000000E+01 0.  1.
         -5    1    3    3    0  502  0.83729185270E+02  0.40358322335E+02 -0.38160632960E+02  0.10056379545E+03  0.41800000000E+01 0.  1.
        -11    1    1    2    0    0 -0.41604013569E+02 -0.43735684038E+02 -0.11875879396E+03  0.13321919962E+03  0.00000000000E+00 0.  1.
         11    1    1    2    0    0 -0.71968078805E+02  0.10853443340E+02 -0.36212142820E+02  0.81292809564E+02  0.00000000000E+00 0. -1.
</event>
<event>
 7    1  0.1312490E-005  0.1893060E+03  0.7561462E-02  0.1159089E+00
          2   -1    0    0  501    0  0.00000000000E+00  0.00000000000E+00  0.21371296319E+03  0.21371296319E+03  0.00000000000E+00 0. -1.
         -2   -1    0    0    0  501 -0.00000000000E+00 -0.00000000000E+00 -0.21294126982E+03  0.21294126982E+03  0.00000000000E+00 0.  1.
         23    2    1    2    0    0  0.17368039533E+03  0.18762915050E+02 -0.55071516220E+02  0.22180517358E+03  0.12509091264E+03 0.  0.
          5    1    3    3  502    0  0.17976449066E+03  0.19667213685E+02 -0.78529614467E+02  0.19719646078E+03  0.41800000000E+01 0.  1.
         -5    1    3    3    0  502 -0.60840953347E+01 -0.90429863493E+00  0.23458098246E+02  0.24608712795E+02  0.41800000000E+01 0.  1.
        -11    1    1    2    0    0 -0.59074018889E+02 -0.43102825732E+02  0.47898019878E+02  0.87417467374E+02  0.00000000000E+00 0.  1.
         11    1    1    2    0    0 -0.11460637644E+03  0.24339910682E+02  0.79451897150E+01  0.11743159205E+03  0.00000000000E+00 0. -1.
</event>
<event>
 7    1  0.1312490E-005  0.1128254E+03  0.7561462E-02  0.1255425E+00
         -2   -1    0    0    0  501 -0.00000000000E+00  0.00000000000E+00  0.20927765557E+03  0.20927765557E+03  0.00000000000E+00 0.  1.
          2   -1    0    0  501    0  0.00000000000E+00 -0.00000000000E+00 -0.86991109602E+02  0.86991109602E+02  0.00000000000E+00 0. -1.
         23    2    1    2    0    0 -0.58514705960E+02 -0.18680338213E+02  0.12217836671E+03  0.18533519983E+03  0.12509459282E+03 0.  0.
          5    1    3    3  502    0 -0.23301452728E+02 -0.71714456334E+02  0.63920325415E+02  0.98940392903E+02  0.41800000000E+01 0.  1.
         -5    1    3    3    0  502 -0.35213253232E+02  0.53034118121E+02  0.58258041296E+02  0.86394806926E+02  0.41800000000E+01 0.  1.
        -11    1    1    2    0    0 -0.12758569858E+02  0.52943434909E+01 -0.29522483788E+02  0.32594297459E+02  0.00000000000E+00 0. -1.
         11    1    1    2    0    0  0.71273275818E+02  0.13385994722E+02  0.29630663049E+02  0.78339267888E+02  0.00000000000E+00 0.  1.
</event>
<event>
 7    1  0.1312490E-005  0.1882014E+03  0.7561462E-02  0.1160094E+00
         -2   -1    0    0    0  501 -0.00000000000E+00  0.00000000000E+00  0.39631806741E+02  0.39631806741E+02  0.00000000000E+00 0.  1.
          2   -1    0    0  501    0  0.00000000000E+00 -0.00000000000E+00 -0.14466757757E+04  0.14466757757E+04  0.00000000000E+00 0. -1.
         23    2    1    2    0    0  0.17192689356E+03 -0.42695792320E+02 -0.35818918605E+03  0.41872305657E+03  0.12509083776E+03 0.  0.
          5    1    3    3  502    0  0.20690684653E+02 -0.45588897041E+00  0.61280611236E+01  0.21984944832E+02  0.41800000000E+01 0.  1.
         -5    1    3    3    0  502  0.15123620891E+03 -0.42239903349E+02 -0.36431724717E+03  0.39673811174E+03  0.41800000000E+01 0.  1.
        -11    1    1    2    0    0 -0.80125200973E+02 -0.25237358068E+02 -0.39542384744E+03  0.40424867495E+03  0.00000000000E+00 0.  1.
         11    1    1    2    0    0 -0.91801692591E+02  0.67933150388E+02 -0.65343093543E+03  0.66333585088E+03  0.00000000000E+00 0. -1.
</event>
<event>
 7    1  0.1312490E-005  0.9709949E+02  0.7561462E-02  0.1286516E+00
          1   -1    0    0  501    0  0.00000000000E+00  0.00000000000E+00  0.17061908929E+02  0.17061908929E+02  0.00000000000E+00 0. -1.
         -1   -1    0    0    0  501 -0.00000000000E+00 -0.00000000000E+00 -0.11643114988E+04  0.11643114988E+04  0.00000000000E+00 0.  1.
         23    2    1    2    0    0  0.81074491825E+02  0.21307821225E+02 -0.78767449501E+03  0.80193886661E+03  0.12509092381E+03 0.  0.
          5    1    3    3  502    0  0.52500123690E+02  0.19316880183E+02 -0.75941744610E+03  0.76148652955E+03  0.41800000000E+01 0. -1.
         -5    1    3    3    0  502  0.28574368135E+02  0.19909410419E+01 -0.28257048919E+02  0.40452337067E+02  0.41800000000E+01 0. -1.
        -11    1    1    2    0    0 -0.15127053169E+02 -0.38193473662E+02 -0.63465142388E+02  0.75600221338E+02  0.00000000000E+00 0. -1.
         11    1    1    2    0    0 -0.65947438656E+02  0.16885652438E+02 -0.29610995246E+03  0.30383431977E+03  0.00000000000E+00 0.  1.
</event>
<event>
 7    1  0.1312490E-005  0.8435107E+02  0.7561462E-02  0.1317138E+00
          2   -1    0    0  501    0  0.00000000000E+00  0.00000000000E+00  0.25837046055E+02  0.25837046055E+02  0.00000000000E+00 0. -1.
         -2   -1    0    0    0  501 -0.00000000000E+00 -0.00000000000E+00 -0.46061980066E+03  0.46061980066E+03  0.00000000000E+00 0.  1.
         23    2    1    2    0    0 -0.43857435129E+01 -0.26158197064E+02 -0.23172007538E+03  0.26467842305E+03  0.12512788766E+03 0.  0.
          5    1    3    3  502    0  0.43011610994E+02 -0.42026373289E+01 -0.22316484712E+02  0.48817606769E+02  0.41800000000E+01 0. -1.
         -5    1    3    3    0  502 -0.47397354506E+02 -0.21955559735E+02 -0.20940359067E+03  0.21586081628E+03  0.41800000000E+01 0. -1.
        -11    1    1    2    0    0  0.28793221080E+02 -0.89236537999E+01 -0.26562071914E+02  0.40177417061E+02  0.00000000000E+00 0. -1.
         11    1    1    2    0    0 -0.24407477567E+02  0.35081850864E+02 -0.17650060731E+03  0.18160100661E+03  0.00000000000E+00 0.  1.
</event>
<event>
 7    1  0.1312490E-005  0.8945716E+02  0.7561462E-02  0.1304172E+00
          1   -1    0    0  501    0  0.00000000000E+00  0.00000000000E+00  0.37045919265E+03  0.37045919265E+03  0.00000000000E+00 0. -1.
         -1   -1    0    0    0  501 -0.00000000000E+00 -0.00000000000E+00 -0.40699412595E+02  0.40699412595E+02  0.00000000000E+00 0.  1.
         23    2    1    2    0    0 -0.24988160989E+02 -0.42521052981E+02  0.14759647805E+03  0.19965988035E+03  0.12508756674E+03 0.  0.
          5    1    3    3  502    0 -0.50397536416E+02  0.93093898148E+01  0.12900002300E+03  0.13887064034E+03  0.41800000000E+01 0.  1.
         -5    1    3    3    0  502  0.25409375427E+02 -0.51830442796E+02  0.18596455049E+02  0.60789240005E+02  0.41800000000E+01 0.  1.
        -11    1    1    2    0    0  0.22308253299E+02 -0.43021317146E+01 -0.68680337771E+00  0.22729676668E+02  0.00000000000E+00 0.  1.
         11    1    1    2    0    0  0.26799076903E+01  0.46823184695E+02  0.18285010539E+03  0.18876904823E+03  0.00000000000E+00 0. -1.
</event>
<event>
 7    1  0.1312490E-005  0.8191818E+02  0.7561462E-02  0.1323694E+00
         -3   -1    0    0    0  501 -0.00000000000E+00  0.00000000000E+00  0.15086425113E+03  0.15086425113E+03  0.00000000000E+00 0.  1.
          3   -1    0    0  501    0  0.00000000000E+00 -0.00000000000E+00 -0.76491990827E+02  0.76491990827E+02  0.00000000000E+00 0. -1.
         23    2    1    2    0    0  0.57341477690E+01  0.12272676943E+01  0.67311265308E+02  0.14217017123E+03  0.12508862664E+03 0.  0.
          5    1    3    3  502    0 -0.13720549338E+02  0.36678601985E+02  0.88105171964E+02  0.96506823823E+02  0.41800000000E+01 0. -1.
         -5    1    3    3    0  502  0.19454697107E+02 -0.35451334291E+02 -0.20793906656E+02  0.45663347408E+02  0.41800000000E+01 0. -1.
        -11    1    1    2    0    0 -0.41181122521E+01  0.41167721393E+02  0.10302553892E+02  0.42636636240E+02  0.00000000000E+00 0.  1.
         11    1    1    2    0    0 -0.16160355169E+01 -0.42394989087E+02 -0.32415589001E+01  0.42549434480E+02  0.00000000000E+00 0. -1.
</event>
<event>
 7    1  0.1312490E-005  0.1346796E+03  0.7561462E-02  0.1220673E+00
          2   -1    0    0  501    0  0.00000000000E+00  0.00000000000E+00  0.74402160540E+02  0.74402160540E+02  0.00000000000E+00 0. -1.
         -2   -1    0    0    0  501 -0.00000000000E+00 -0.00000000000E+00 -0.33422828471E+03  0.33422828471E+03  0.00000000000E+00 0.  1.
         23    2    1    2    0    0 -0.10990640025E+03  0.19454314360E+02 -0.14609553318E+03  0.22237516279E+03  0.12509564758E+03 0.  0.
          5    1    3    3  502    0 -0.81686885842E+02 -0.38603431532E+02 -0.41777333051E+02  0.99628260054E+02  0.41800000000E+01 0.  1.
         -5    1    3    3    0  502 -0.28219514413E+02  0.58057745892E+02 -0.10431820013E+03  0.12274690273E+03  0.41800000000E+01 0.  1.
        -11    1    1    2    0    0  0.49375431336E+02  0.34743143836E+01  0.62874780873E+01  0.49895254892E+02  0.00000000000E+00 0. -1.
         11    1    1    2    0    0  0.60530968919E+02 -0.22928628744E+02 -0.12001806907E+03  0.13636002757E+03  0.00000000000E+00 0.  1.
</event>
<event>
 7    1  0.1312490E-005  0.1110458E+03  0.7561462E-02  0.1258645E+00
          2   -1    0    0  501    0  0.00000000000E+00  0.00000000000E+00  0.78380963664E+03  0.78380963664E+03  0.00000000000E+00 0. -1.
         -2   -1    0    0    0  501 -0.00000000000E+00 -0.00000000000E+00 -0.23567563281E+02  0.23567563281E+02  0.00000000000E+00 0.  1.
         23    2    1    2    0    0  0.70928791018E+02  0.33679784302E+02  0.34959416216E+03  0.37951046367E+03  0.12508753958E+03 0.  0.
          5    1    3    3  502    0  0.77662204767E+02  0.49167293152E+02  0.35021623165E+03  0.36210181176E+03  0.41800000000E+01 0.  1.
         -5    1    3    3    0  502 -0.67334137494E+01 -0.15487508850E+02 -0.62206949701E+00  0.17408651917E+02  0.41800000000E+01 0.  1.
        -11    1    1    2    0    0 -0.87632113873E+02 -0.17371823153E+02  0.37315650695E+03  0.38370163708E+03  0.00000000000E+00 0.  1.
         11    1    1    2    0    0  0.16703322855E+02 -0.16307961149E+02  0.37491404258E+02  0.44165099167E+02  0.00000000000E+00 0. -1.
</event>
<event>
 7    1  0.1312490E-005  0.1871652E+03  0.7561462E-02  0.1161043E+00
         -2   -1    0    0    0  501 -0.00000000000E+00  0.00000000000E+00  0.29947350130E+03  0.29947350130E+03  0.00000000000E+00 0.  1.
          2   -1    0    0  501    0  0.00000000000E+00 -0.00000000000E+00 -0.12533366895E+03  0.12533366895E+03  0.00000000000E+00 0. -1.
         23    2    1    2    0    0 -0.10552997288E+03  0.11736213580E+03  0.12497879041E+03  0.23701534857E+03  0.12508449668E+03 0.  0.
          5    1    3    3  502    0 -0.12524252220E+03  0.12741999063E+03  0.11380846128E+03  0.21187586375E+03  0.41800000000E+01 0. -1.
         -5    1    3    3    0  502  0.19712549315E+02 -0.10057854836E+02  0.11170329130E+02  0.25139484825E+02  0.41800000000E+01 0. -1.
        -11    1    1    2    0    0  0.57795568229E+02 -0.14336254511E+02  0.44160106822E+02  0.74134815943E+02  0.00000000000E+00 0.  1.
         11    1    1    2    0    0  0.47734404653E+02 -0.10302588129E+03  0.50009351157E+01  0.11365700574E+03  0.00000000000E+00 0. -1.
</event>
<event>
 7    1  0.1312490E-005  0.6735054E+02  0.7561462E-02  0.1369342E+00
         -3   -1    0    0    0  501 -0.00000000000E+00  0.00000000000E+00  0.39173892378E+03  0.39173892378E+03  0.00000000000E+00 0.  1.
          3   -1    0    0  501    0  0.00000000000E+00 -0.00000000000E+00 -0.14753848521E+03  0.14753848521E+03  0.00000000000E+00 0. -1.
         23    2    1    2    0    0 -0.61464900797E+01 -0.33201185165E+02  0.36297967385E+03  0.38539732657E+03  0.12504702181E+03 0.  0.
          5    1    3    3  502    0  0.51100492351E+01 -0.39750533408E+02  0.36846430088E+03  0.37066107286E+03  0.41800000000E+01 0. -1.
         -5    1    3    3    0  502 -0.11256539315E+02  0.65493482433E+01 -0.54846270325E+01  0.14736253711E+02  0.41800000000E+01 0. -1.
        -11    1    1    2    0    0  0.34017821078E+02 -0.39918594556E+01 -0.10146471197E+02  0.35722513497E+02  0.00000000000E+00 0.  1.
         11    1    1    2    0    0 -0.27871330998E+02  0.37193044620E+02 -0.10863276409E+03  0.11815756892E+03  0.00000000000E+00 0. -1.
</event>
<event>
 7    1  0.1312490E-005  0.7936267E+02  0.7561462E-02  0.1330870E+00
         -2   -1    0    0    0  501 -0.00000000000E+00  0.00000000000E+00  0.37061697880E+02  0.37061697880E+02  0.00000000000E+00 0.  1.
          2   -1    0    0  501    0  0.00000000000E+00 -0.00000000000E+00 -0.39938785552E+03  0.39938785552E+03  0.00000000000E+00 0. -1.
         23    2    1    2    0    0 -0.26398858492E+02 -0.10902820966E+02 -0.11837005603E+03  0.17467750403E+03  0.12523972619E+03 0.  0.
          5    1    3    3  502    0 -0.30885660601E+02  0.22244639269E+02  0.11914867079E+02  0.40102175308E+02  0.41800000000E+01 0. -1.
         -5    1    3    3    0  502  0.44868021084E+01 -0.33147460235E+02 -0.13028492311E+03  0.13457532873E+03  0.41800000000E+01 0. -1.
        -11    1    1    2    0    0 -0.14731097225E+02  0.35753764111E+02 -0.16390576847E+03  0.16840557535E+03  0.00000000000E+00 0.  1.
         11    1    1    2    0    0  0.41129955718E+02 -0.24850943145E+02 -0.80050333147E+02  0.93366474012E+02  0.00000000000E+00 0. -1.
</event>
<event>
 7    1  0.1312490E-005  0.1216064E+03  0.7561462E-02  0.1240470E+00
          2   -1    0    0  501    0  0.00000000000E+00  0.00000000000E+00  0.50884671652E+03  0.50884671652E+03  0.00000000000E+00 0. -1.
         -2   -1    0    0    0  501 -0.00000000000E+00 -0.00000000000E+00 -0.33930527493E+02  0.33930527493E+02  0.00000000000E+00 0.  1.
         23    2    1    2    0    0 -0.78826399753E+02  0.19835221699E+02  0.22623970198E+03  0.27099561988E+03  0.12508871221E+03 0.  0.
          5    1    3    3  502    0  0.18223504418E+02  0.38919415454E+02  0.34729333409E+02  0.55411334685E+02  0.41800000000E+01 0.  1.
         -5    1    3    3    0  502 -0.97049904171E+02 -0.19084193755E+02  0.19151036857E+03  0.21558428519E+03  0.41800000000E+01 0.  1.
        -11    1    1    2    0    0  0.54181295157E+02 -0.41481295101E+02  0.11137716765E+03  0.13061846754E+03  0.00000000000E+00 0.  1.
         11    1    1    2    0    0  0.24645104596E+02  0.21646073403E+02  0.13729931940E+03  0.14116315660E+03  0.00000000000E+00 0. -1.
</event>
<event>
 7    1  0.1312490E-005  0.1444301E+03  0.7561462E-02  0.1207489E+00
          2   -1    0    0  501    0  0.00000000000E+00  0.00000000000E+00  0.40771694947E+03  0.40771694947E+03  0.00000000000E+00 0. -1.
         -2   -1    0    0    0  501 -0.00000000000E+00 -0.00000000000E+00 -0.64534031334E+02  0.64534031334E+02  0.00000000000E+00 0.  1.
         23    2    1    2    0    0  0.10165721251E+03 -0.58010281625E+02  0.18030931892E+03  0.24871422873E+03  0.12509170816E+03 0.  0.
          5    1    3    3  502    0 -0.18945340241E+02 -0.37826457587E+02  0.19817737721E+02  0.46903965065E+02  0.41800000000E+01 0.  1.
         -5    1    3    3    0  502  0.12060255275E+03 -0.20183824038E+02  0.16049158120E+03  0.20181026366E+03  0.41800000000E+01 0.  1.
        -11    1    1    2    0    0 -0.41751852291E+02  0.17081432922E+01  0.78791272198E+00  0.41794206892E+02  0.00000000000E+00 0.  1.
         11    1    1    2    0    0 -0.59905360221E+02  0.56302138332E+02  0.16208568649E+03  0.18174254518E+03  0.00000000000E+00 0. -1.
</event>
<event>
 7    1  0.1312490E-005  0.9622712E+02  0.7561462E-02  0.1288436E+00
          2   -1    0    0  501    0  0.00000000000E+00  0.00000000000E+00  0.54628248706E+03  0.54628248706E+03  0.00000000000E+00 0. -1.
         -2   -1    0    0    0  501 -0.00000000000E+00 -0.00000000000E+00 -0.28246798123E+02  0.28246798123E+02  0.00000000000E+00 0.  1.
         23    2    1    2    0    0  0.26756738698E+02  0.33018701772E+02  0.18827497756E+03  0.23000259927E+03  0.12509025048E+03 0.  0.
          5    1    3    3  502    0  0.32625973917E+02 -0.27707484037E+02  0.15401583862E+03  0.15990781654E+03  0.41800000000E+01 0.  1.
         -5    1    3    3    0  502 -0.58692352193E+01  0.60726185809E+02  0.34259138941E+02  0.70094782730E+02  0.41800000000E+01 0.  1.
        -11    1    1    2    0    0 -0.53106658508E+02 -0.11650633097E+02  0.27331689161E+03  0.27867216881E+03  0.00000000000E+00 0. -1.
         11    1    1    2    0    0  0.26349919809E+02 -0.21368068675E+02  0.56443819760E+02  0.65854517096E+02  0.00000000000E+00 0.  1.
</event>
<event>
 7    1  0.1312490E-005  0.1766780E+03  0.7561462E-02  0.1171057E+00
          4   -1    0    0  501    0  0.00000000000E+00  0.00000000000E+00  0.27523411532E+03  0.27523411532E+03  0.00000000000E+00 0. -1.
         -4   -1    0    0    0  501 -0.00000000000E+00 -0.00000000000E+00 -0.13646093574E+03  0.13646093574E+03  0.00000000000E+00 0.  1.
         23    2    1    2    0    0 -0.73534634808E+02 -0.13854133087E+03  0.39357070586E+02  0.20444412530E+03  0.12508948193E+03 0.  0.
          5    1    3    3  502    0  0.11285847603E+02 -0.10578129641E+01  0.41098422421E+02  0.42837390792E+02  0.41800000000E+01 0. -1.
         -5    1    3    3    0  502 -0.84820482411E+02 -0.13748351791E+03 -0.17413518348E+01  0.16160673451E+03  0.41800000000E+01 0. -1.
        -11    1    1    2    0    0  0.69496850341E+02  0.38294506189E+02  0.28178071080E+02  0.84203830681E+02  0.00000000000E+00 0.  1.
         11    1    1    2    0    0  0.40377844674E+01  0.10024682468E+03  0.71238037907E+02  0.12304709508E+03  0.00000000000E+00 0. -1.
</event>
<event>
 7    1  0.1312490E-005  0.1099372E+03  0.7561462E-02  0.1260686E+00
         -2   -1    0    0    0  501 -0.00000000000E+00  0.00000000000E+00  0.27250651103E+02  0.27250651103E+02  0.00000000000E+00 0. -1.
          2   -1    0    0  501    0  0.00000000000E+00 -0.00000000000E+00 -0.52109048381E+03  0.52109048381E+03  0.00000000000E+00 0.  1.
         23    2    1    2    0    0  0.27797595938E+02  0.28204523671E+01 -0.18679914815E+03  0.22654351055E+03  0.12508948451E+03 0.  0.
          5    1    3    3  502    0  0.72402604169E+02 -0.22798390288E+02 -0.10090407405E+03  0.12633688397E+03  0.41800000000E+01 0. -1.
         -5    1    3    3    0  502 -0.44605008231E+02  0.25618842655E+02 -0.85895074097E+02  0.10020662659E+03  0.41800000000E+01 0. -1.
        -11    1    1    2    0    0  0.25805671001E+02 -0.23390977068E+02 -0.16413260569E+03  0.16778731392E+03  0.00000000000E+00 0. -1.
         11    1    1    2    0    0 -0.53603266939E+02  0.20570524701E+02 -0.14290807887E+03  0.15401031044E+03  0.00000000000E+00 0.  1.
</event>
<event>
 7    1  0.1312490E-005  0.1057313E+03  0.7561462E-02  0.1268685E+00
          3   -1    0    0  501    0  0.00000000000E+00  0.00000000000E+00  0.97477207876E+02  0.97477207876E+02  0.00000000000E+00 0. -1.
         -3   -1    0    0    0  501 -0.00000000000E+00 -0.00000000000E+00 -0.18780448437E+03  0.18780448437E+03  0.00000000000E+00 0.  1.
         23    2    1    2    0    0  0.27833459131E+02 -0.48348547980E+02 -0.11126026196E+03  0.17646290991E+03  0.12509208265E+03 0.  0.
          5    1    3    3  502    0  0.47441688789E+02 -0.74172269518E+02 -0.37517522613E+02  0.95798101774E+02  0.41800000000E+01 0. -1.
         -5    1    3    3    0  502 -0.19608229659E+02  0.25823721537E+02 -0.73742739349E+02  0.80664808133E+02  0.41800000000E+01 0. -1.
        -11    1    1    2    0    0 -0.48842783429E+02  0.49555365103E+02 -0.11132323544E+02  0.70464745306E+02  0.00000000000E+00 0.  1.
         11    1    1    2    0    0  0.21009324298E+02 -0.12068171233E+01  0.32065309009E+02  0.38354037035E+02  0.00000000000E+00 0. -1.
</event>
<event>
 7    1  0.1312490E-005  0.8822472E+02  0.7561462E-02  0.1307209E+00
         -1   -1    0    0    0  501 -0.00000000000E+00  0.00000000000E+00  0.65053985537E+03  0.65053985537E+03  0.00000000000E+00 0.  1.
          1   -1    0    0  501    0  0.00000000000E+00 -0.00000000000E+00 -0.21361067942E+02  0.21361067942E+02  0.00000000000E+00 0. -1.
         23    2    1    2    0    0 -0.33857086464E+02  0.32025515947E+02  0.35315555996E+03  0.37754264430E+03  0.12509061817E+03 0.  0.
          5    1    3    3  502    0 -0.49498068187E+02 -0.12567198729E+02  0.53215280439E+02  0.73873755221E+02  0.41800000000E+01 0.  1.
         -5    1    3    3    0  502  0.15640981723E+02  0.44592714676E+02  0.29994027952E+03  0.30366888907E+03  0.41800000000E+01 0.  1.
        -11    1    1    2    0    0  0.24026633298E+02  0.15922726609E+02  0.23655576975E+02  0.37288049725E+02  0.00000000000E+00 0. -1.
         11    1    1    2    0    0  0.98304531665E+01 -0.47948242557E+02  0.25236765049E+03  0.25707022929E+03  0.00000000000E+00 0.  1.
</event>
<event>
 7    1  0.1312490E-005  0.1806174E+03  0.7561462E-02  0.1167207E+00
          2   -1    0    0  501    0  0.00000000000E+00  0.00000000000E+00  0.66125008982E+02  0.66125008982E+02  0.00000000000E+00 0. -1.
         -2   -1    0    0    0  501 -0.00000000000E+00 -0.00000000000E+00 -0.53182028192E+03  0.53182028192E+03  0.00000000000E+00 0.  1.
         23    2    1    2    0    0 -0.27055268403E+02 -0.14967253220E+03 -0.27579905175E+03  0.33888706234E+03  0.12508185172E+03 0.  0.
          5    1    3    3  502    0  0.13286698704E+02  0.18866540176E+02 -0.29110550639E+02  0.37381536340E+02  0.41800000000E+01 0.  1.
         -5    1    3    3    0  502 -0.40341967107E+02 -0.16853907237E+03 -0.24668850111E+03  0.30150552600E+03  0.41800000000E+01 0.  1.
        -11    1    1    2    0    0  0.26608044769E+02  0.16603254194E+02 -0.57858415202E+01  0.31892507872E+02  0.00000000000E+00 0. -1.
         11    1    1    2    0    0  0.44722363441E+00  0.13306927800E+03 -0.18411037967E+03  0.22716572069E+03  0.00000000000E+00 0.  1.
</event>
<event>
 7    1  0.1312490E-005  0.1600527E+03  0.7561462E-02  0.1188637E+00
         -2   -1    0    0    0  501 -0.00000000000E+00  0.00000000000E+00  0.19079206147E+02  0.19079206147E+02  0.00000000000E+00 0.  1.
          2   -1    0    0  501    0  0.00000000000E+00 -0.00000000000E+00 -0.16787256977E+04  0.16787256977E+04  0.00000000000E+00 0. -1.
         23    2    1    2    0    0  0.62206076562E+02  0.10998785838E+03 -0.11558745216E+04  0.11694702172E+04  0.12509098398E+03 0.  0.
          5    1    3    3  502    0 -0.16769345736E+02 -0.11806352882E+02 -0.51526736986E+02  0.55615447038E+02  0.41800000000E+01 0.  1.
         -5    1    3    3    0  502  0.78975422298E+02  0.12179421126E+03 -0.11043477847E+04  0.11138547702E+04  0.41800000000E+01 0.  1.
        -11    1    1    2    0    0 -0.24864447037E+02  0.11108965625E+02 -0.47101462374E+02  0.54407697998E+02  0.00000000000E+00 0.  1.
         11    1    1    2    0    0 -0.37341629525E+02 -0.12109682401E+03 -0.45667050755E+03  0.47392698862E+03  0.00000000000E+00 0. -1.
</event>
<event>
 7    1  0.1312490E-005  0.1274875E+03  0.7561462E-02  0.1231232E+00
          2   -1    0    0  501    0  0.00000000000E+00  0.00000000000E+00  0.15196285268E+03  0.15196285268E+03  0.00000000000E+00 0. -1.
         -2   -1    0    0    0  501 -0.00000000000E+00 -0.00000000000E+00 -0.15376718532E+03  0.15376718532E+03  0.00000000000E+00 0.  1.
         23    2    1    2    0    0 -0.72177018235E+02 -0.18930183357E+02 -0.78648690519E+02  0.16553335336E+03  0.12509116976E+03 0.  0.
          5    1    3    3  502    0 -0.54842050402E+02  0.49228861913E+02 -0.28826033780E+02  0.79243573626E+02  0.41800000000E+01 0. -1.
         -5    1    3    3    0  502 -0.17334967833E+02 -0.68159045270E+02 -0.49822656739E+02  0.86289779734E+02  0.41800000000E+01 0. -1.
        -11    1    1    2    0    0  0.82173447353E+02  0.36951368942E+02  0.41308130573E+02  0.99117308115E+02  0.00000000000E+00 0.  1.
         11    1    1    2    0    0 -0.99964291183E+01 -0.18021185585E+02  0.35536227300E+02  0.41079376525E+02  0.00000000000E+00 0. -1.
</event>
<event>
 7    1  0.1312490E-005  0.5682577E+02  0.7561462E-02  0.1411657E+00
          1   -1    0    0  501    0  0.00000000000E+00  0.00000000000E+00  0.18246125015E+03  0.18246125015E+03  0.00000000000E+00 0. -1.
         -1   -1    0    0    0  501 -0.00000000000E+00 -0.00000000000E+00 -0.70330764134E+02  0.70330764134E+02  0.00000000000E+00 0.  1.
         23    2    1    2    0    0  0.21909438684E+02  0.22753216331E+02  0.34491384797E+02  0.13354420890E+03  0.12508664096E+03 0.  0.
          5    1    3    3  502    0  0.25407509026E+02  0.22438719146E+02 -0.43531332275E+02  0.55330705051E+02  0.41800000000E+01 0.  1.
         -5    1    3    3    0  502 -0.34980703421E+01  0.31449718558E+00  0.78022717072E+02  0.78213503846E+02  0.41800000000E+01 0.  1.
        -11    1    1    2    0    0 -0.54466005445E+01  0.23927222399E+02 -0.29040847539E+01  0.24710547090E+02  0.00000000000E+00 0. -1.
         11    1    1    2    0    0 -0.16462838140E+02 -0.46680438730E+02  0.80543185976E+02  0.94537258300E+02  0.00000000000E+00 0.  1.
</event>
<event>
 7    1  0.1312490E-005  0.1029776E+03  0.7561462E-02  0.1274156E+00
         -1   -1    0    0    0  501 -0.00000000000E+00  0.00000000000E+00  0.64742624184E+02  0.64742624184E+02  0.00000000000E+00 0.  1.
          1   -1    0    0  501    0  0.00000000000E+00 -0.00000000000E+00 -0.31282492544E+03  0.31282492544E+03  0.00000000000E+00 0. -1.
         23    2    1    2    0    0  0.24080566815E+01 -0.55156918514E+02 -0.39657904128E+02  0.14288360813E+03  0.12567772959E+03 0.  0.
          5    1    3    3  502    0 -0.44615175752E+02 -0.25068188639E+02 -0.63819147823E+02  0.81910219252E+02  0.41800000000E+01 0. -1.
         -5    1    3    3    0  502  0.47023232434E+02 -0.30088729875E+02  0.24161243696E+02  0.60973388875E+02  0.41800000000E+01 0.  1.
        -11    1    1    2    0    0 -0.42069598550E+02  0.29749870751E+02 -0.60637860362E+02  0.79572960490E+02  0.00000000000E+00 0. -1.
         11    1    1    2    0    0  0.39661541868E+02  0.25407047762E+02 -0.14778653676E+03  0.15511098100E+03  0.00000000000E+00 0.  1.
</event>
<event>
 7    1  0.1312490E-005  0.1154913E+03  0.7561462E-02  0.1250726E+00
         -2   -1    0    0    0  501 -0.00000000000E+00  0.00000000000E+00  0.28493707625E+02  0.28493707625E+02  0.00000000000E+00 0.  1.
          2   -1    0    0  501    0  0.00000000000E+00 -0.00000000000E+00 -0.51051936972E+03  0.51051936972E+03  0.00000000000E+00 0. -1.
         23    2    1    2    0    0  0.39718562506E+02 -0.22487690483E+02 -0.22044299273E+03  0.25753697862E+03  0.12508765680E+03 0.  0.
          5    1    3    3  502    0 -0.13054893631E+02 -0.61485626004E+02 -0.14086383028E+03  0.15430814475E+03  0.41800000000E+01 0.  1.
         -5    1    3    3    0  502  0.52773456137E+02  0.38997935520E+02 -0.79579162452E+02  0.10322883388E+03  0.41800000000E+01 0.  1.
        -11    1    1    2    0    0 -0.24695852491E+02  0.58346043001E+02 -0.13642712203E+03  0.15042109390E+03  0.00000000000E+00 0.  1.
         11    1    1    2    0    0 -0.15022710014E+02 -0.35858352518E+02 -0.12515554733E+03  0.13105500482E+03  0.00000000000E+00 0. -1.
</event>
<event>
 7    1  0.1312490E-005  0.1076761E+03  0.7561462E-02  0.1264935E+00
          1   -1    0    0  501    0  0.00000000000E+00  0.00000000000E+00  0.22111243554E+02  0.22111243554E+02  0.00000000000E+00 0. -1.
         -1   -1    0    0    0  501 -0.00000000000E+00 -0.00000000000E+00 -0.64435283999E+03  0.64435283999E+03  0.00000000000E+00 0.  1.
         23    2    1    2    0    0  0.47607598024E+02 -0.14417171843E+02 -0.37713480536E+03  0.40044079982E+03  0.12509130470E+03 0.  0.
          5    1    3    3  502    0  0.21479540148E+02  0.46345213116E+02 -0.73163919104E+02  0.89329059563E+02  0.41800000000E+01 0. -1.
         -5    1    3    3    0  502  0.26128057876E+02 -0.60762384960E+02 -0.30397088625E+03  0.31111174025E+03  0.41800000000E+01 0. -1.
        -11    1    1    2    0    0 -0.52740483072E+01  0.45186042489E+02 -0.15785710697E+03  0.16428164913E+03  0.00000000000E+00 0.  1.
         11    1    1    2    0    0 -0.42333549717E+02 -0.30768870645E+02 -0.87249684112E+02  0.10174163459E+03  0.00000000000E+00 0. -1.
</event>
<event>
 7    1  0.1312490E-005  0.9655974E+02  0.7561462E-02  0.1287701E+00
          1   -1    0    0  501    0  0.00000000000E+00  0.00000000000E+00  0.27693872299E+03  0.27693872299E+03  0.00000000000E+00 0. -1.
         -1   -1    0    0    0  501 -0.00000000000E+00 -0.00000000000E+00 -0.53441128971E+02  0.53441128971E+02  0.00000000000E+00 0.  1.
         23    2    1    2    0    0  0.42417703562E+02  0.34878888133E+02  0.12561421342E+03  0.18558869524E+03  0.12509370398E+03 0.  0.
          5    1    3    3  502    0 -0.18932126746E+02 -0.99224628574E+01 -0.14490176489E+02  0.26159478339E+02  0.41800000000E+01 0. -1.
         -5    1    3    3    0  502  0.61349830308E+02  0.44801350991E+02  0.14010438991E+03  0.15942921690E+03  0.41800000000E+01 0. -1.
        -11    1    1    2    0    0 -0.52552693034E+02  0.62277735981E+01  0.20829726302E+02  0.56872209443E+02  0.00000000000E+00 0.  1.
         11    1    1    2    0    0  0.10134989472E+02 -0.41106661731E+02  0.77053654304E+02  0.87918947286E+02  0.00000000000E+00 0. -1.
</event>
<event>
 6    1  0.1312490E-005  0.1673421E+03  0.7561462E-02  0.1180648E+00
          2   -1    0    0  501    0  0.00000000000E+00  0.00000000000E+00  0.16517151618E+04  0.16517151618E+04  0.00000000000E+00 0. -1.
         -2   -1    0    0    0  501 -0.00000000000E+00 -0.00000000000E+00 -0.24539572473E+02  0.24539572473E+02  0.00000000000E+00 0.  1.
          5    1    1    2  502    0 -0.96877891660E+02 -0.60846157273E+02  0.78745851340E+03  0.79573611422E+03  0.41800000000E+01 0. -1.
         -5    1    1    2    0  502  0.90110822775E+02 -0.25567829141E+02  0.13390876026E+03  0.16347080089E+03  0.41800000000E+01 0.  1.
        -11    1    1    2    0    0 -0.34812802488E+02  0.75981582150E+02  0.46135181274E+03  0.46886098916E+03  0.00000000000E+00 0.  1.
         11    1    1    2    0    0  0.41579871373E+02  0.10432404263E+02  0.24445650291E+03  0.24818682999E+03  0.00000000000E+00 0. -1.
</event>
<event>
 6    1  0.1312490E-005  0.2207933E+03  0.7561462E-02  0.1133293E+00
          2   -1    0    0  501    0  0.00000000000E+00  0.00000000000E+00  0.10203958048E+04  0.10203958048E+04  0.00000000000E+00 0. -1.
         -2   -1    0    0    0  501 -0.00000000000E+00 -0.00000000000E+00 -0.80601896927E+02  0.80601896927E+02  0.00000000000E+00 0.  1.
          5    1    1    2  502    0  0.66657082003E+02  0.44172922880E+02  0.40594671598E+02  0.89776463837E+02  0.41800000000E+01 0. -1.
         -5    1    1    2    0  502 -0.59215968590E+00 -0.18630989599E+03  0.14691252627E+03  0.23730253006E+03  0.41800000000E+01 0.  1.
        -11    1    1    2    0    0  0.13447972693E+02  0.57397526248E+02  0.16421299412E+03  0.17447415691E+03  0.00000000000E+00 0.  1.
         11    1    1    2    0    0 -0.79512895010E+02  0.84739446861E+02  0.58807371592E+03  0.59944455097E+03  0.00000000000E+00 0. -1.
</event>
<event>
 7    1  0.1312490E-005  0.1679961E+03  0.7561462E-02  0.1179954E+00
         -1   -1    0    0    0  501 -0.00000000000E+00  0.00000000000E+00  0.60094370389E+02  0.60094370389E+02  0.00000000000E+00 0.  1.
          1   -1    0    0  501    0  0.00000000000E+00 -0.00000000000E+00 -0.60541539056E+03  0.60541539056E+03  0.00000000000E+00 0. -1.
         23    2    1    2    0    0 -0.13650632239E+03 -0.74977660048E+02 -0.24659194472E+03  0.31734893685E+03  0.12508850850E+03 0.  0.
          5    1    3    3  502    0 -0.43562670626E+02 -0.65496387676E+02 -0.35366600806E+02  0.86346696076E+02  0.41800000000E+01 0.  1.
         -5    1    3    3    0  502 -0.92943651761E+02 -0.94812723723E+01 -0.21122534391E+03  0.23100224077E+03  0.41800000000E+01 0.  1.
        -11    1    1    2    0    0  0.47333383582E+02  0.54541300485E+02 -0.64982370115E+02  0.97148911912E+02  0.00000000000E+00 0.  1.
         11    1    1    2    0    0  0.89172938805E+02  0.20436359563E+02 -0.23374670533E+03  0.25101191219E+03  0.00000000000E+00 0. -1.
</event>
<event>
 7    1  0.1312490E-005  0.1150727E+03  0.7561462E-02  0.1251454E+00
         -1   -1    0    0    0  501 -0.00000000000E+00  0.00000000000E+00  0.36943323835E+02  0.36943323835E+02  0.00000000000E+00 0.  1.
          1   -1    0    0  501    0  0.00000000000E+00 -0.00000000000E+00 -0.43304292567E+03  0.43304292567E+03  0.00000000000E+00 0. -1.
         23    2    1    2    0    0  0.27350302076E+02 -0.50241198980E+02 -0.15321921758E+03  0.20590283357E+03  0.12509049180E+03 0.  0.
          5    1    3    3  502    0  0.46614935362E+02 -0.80972815475E+02 -0.13717102632E+03  0.16602081769E+03  0.41800000000E+01 0.  1.
         -5    1    3    3    0  502 -0.19264633286E+02  0.30731616495E+02 -0.16048191253E+02  0.39882015878E+02  0.41800000000E+01 0.  1.
        -11    1    1    2    0    0  0.27728580898E+02  0.31414242183E+02 -0.13691745353E+03  0.14318560644E+03  0.00000000000E+00 0. -1.
         11    1    1    2    0    0 -0.55078882973E+02  0.18826956797E+02 -0.10596293073E+03  0.12089780950E+03  0.00000000000E+00 0.  1.
</event>
<event>
 7    1  0.1312490E-005  0.1171268E+03  0.7561462E-02  0.1247914E+00
          1   -1    0    0  501    0  0.00000000000E+00  0.00000000000E+00  0.43497960607E+03  0.43497960607E+03  0.00000000000E+00 0. -1.
         -1   -1    0    0    0  501 -0.00000000000E+00 -0.00000000000E+00 -0.46563127341E+02  0.46563127341E+02  0.00000000000E+00 0.  1.
         23    2    1    2    0    0 -0.76069847151E+01  0.60748536653E+02  0.95756071985E+02  0.16901188296E+03  0.12509012886E+03 0.  0.
          5    1    3    3  502    0 -0.29330539373E+02  0.94042796957E+02  0.75585222295E+02  0.12423737935E+03  0.41800000000E+01 0. -1.
         -5    1    3    3    0  502  0.21723554658E+02 -0.33294260304E+02  0.20170849690E+02  0.44774503608E+02  0.41800000000E+01 0. -1.
        -11    1    1    2    0    0 -0.23463701459E+02  0.40569727780E+01  0.21751663663E+02  0.32251188915E+02  0.00000000000E+00 0.  1.
         11    1    1    2    0    0  0.31070686174E+02 -0.64805509431E+02  0.27090874308E+03  0.28027966153E+03  0.00000000000E+00 0. -1.
</event>
<event>
 7    1  0.1312490E-005  0.1114459E+03  0.7561462E-02  0.1257915E+00
          1   -1    0    0  501    0  0.00000000000E+00  0.00000000000E+00  0.10776388599E+03  0.10776388599E+03  0.00000000000E+00 0. -1.
         -1   -1    0    0    0  501 -0.00000000000E+00 -0.00000000000E+00 -0.33581513420E+03  0.33581513420E+03  0.00000000000E+00 0.  1.
         23    2    1    2    0    0 -0.31649547081E+02 -0.57272558194E+02 -0.28442543871E+03  0.31753076396E+03  0.12508443596E+03 0.  0.
          5    1    3    3  502    0 -0.33713862599E+02 -0.84019684183E+02 -0.27374198020E+03  0.28835408092E+03  0.41800000000E+01 0.  1.
         -5    1    3    3    0  502  0.20643155182E+01  0.26747125989E+02 -0.10683458516E+02  0.29176683038E+02  0.41800000000E+01 0.  1.
        -11    1    1    2    0    0 -0.18148137084E+01  0.69471470914E+02  0.14352154064E+02  0.70961701967E+02  0.00000000000E+00 0.  1.
         11    1    1    2    0    0  0.33464360789E+02 -0.12198912720E+02  0.42022036437E+02  0.55086554266E+02  0.00000000000E+00 0. -1.
</event>
<event>
 7    1  0.1312490E-005  0.8206007E+02  0.7561462E-02  0.1323305E+00
         -1   -1    0    0    0  501 -0.00000000000E+00  0.00000000000E+00  0.22661198728E+03  0.22661198728E+03  0.00000000000E+00 0.  1.
          1   -1    0    0  501    0  0.00000000000E+00 -0.00000000000E+00 -0.64211887600E+02  0.64211887600E+02  0.00000000000E+00 0. -1.
         23    2    1    2    0    0 -0.52001325487E+02  0.80799590944E+01  0.95760605836E+02  0.16609551784E+03  0.12509278087E+03 0.  0.
          5    1    3    3  502    0 -0.51155340764E+01  0.20338522143E+02  0.11260667188E+03  0.11461919178E+03  0.41800000000E+01 0.  1.
         -5    1    3    3    0  502 -0.46885791411E+02 -0.12258563048E+02 -0.16846066042E+02  0.51476326067E+02  0.41800000000E+01 0.  1.
        -11    1    1    2    0    0  0.13165552993E+02 -0.41075506499E+02  0.30538655716E+01  0.43241821362E+02  0.00000000000E+00 0.  1.
         11    1    1    2    0    0  0.38835772494E+02  0.32995547405E+02  0.63585628270E+02  0.81486535675E+02  0.00000000000E+00 0. -1.
</event>
<event>
 7    1  0.1312490E-005  0.9163536E+02  0.7561462E-02  0.1298939E+00
          2   -1    0    0  501    0  0.00000000000E+00  0.00000000000E+00  0.30963005062E+03  0.30963005062E+03  0.00000000000E+00 0. -1.
         -2   -1    0    0    0  501 -0.00000000000E+00 -0.00000000000E+00 -0.42220465290E+02  0.42220465290E+02  0.00000000000E+00 0.  1.
         23    2    1    2    0    0 -0.16175268412E+02 -0.28145403626E+02  0.13093066991E+03  0.18397017197E+03  0.12509348823E+03 0.  0.
          5    1    3    3  502    0  0.17461495911E+02  0.21943554286E+02  0.11899195710E+03  0.12232326708E+03  0.41800000000E+01 0.  1.
         -5    1    3    3    0  502 -0.33636764323E+02 -0.50088957912E+02  0.11938712812E+02  0.61646904889E+02  0.41800000000E+01 0.  1.
        -11    1    1    2    0    0  0.52991736607E+02  0.20607404181E+02  0.59962717786E+02  0.82633629837E+02  0.00000000000E+00 0. -1.
         11    1    1    2    0    0 -0.36816468195E+02  0.75379994445E+01  0.76516197634E+02  0.85246714109E+02  0.00000000000E+00 0.  1.
</event>
<event>
 7    1  0.1312490E-005  0.1755205E+03  0.7561462E-02  0.1172210E+00
          3   -1    0    0  501    0  0.00000000000E+00  0.00000000000E+00  0.48456977897E+03  0.48456977897E+03  0.00000000000E+00 0. -1.
         -3   -1    0    0    0  501 -0.00000000000E+00 -0.00000000000E+00 -0.75105508262E+02  0.75105508262E+02  0.00000000000E+00 0.  1.
         23    2    1    2    0    0 -0.14334503576E+03  0.40912590273E+02  0.14581064265E+03  0.24316457781E+03  0.12508648637E+03 0.  0.
          5    1    3    3  502    0  0.10192447688E+02 -0.99706251678E+01 -0.10497220778E+02  0.18192399516E+02  0.41800000000E+01 0. -1.
         -5    1    3    3    0  502 -0.15353748345E+03  0.50883215441E+02  0.15630786343E+03  0.22497217829E+03  0.41800000000E+01 0. -1.
        -11    1    1    2    0    0  0.83219840774E+02 -0.68917812783E+02  0.14901650677E+03  0.18406826480E+03  0.00000000000E+00 0.  1.
         11    1    1    2    0    0  0.60125194985E+02  0.28005222509E+02  0.11463712129E+03  0.13244244462E+03  0.00000000000E+00 0. -1.
</event>
<event>
 7    1  0.1312490E-005  0.7281311E+02  0.7561462E-02  0.1350780E+00
          3   -1    0    0  501    0  0.00000000000E+00  0.00000000000E+00  0.56673304420E+02  0.56673304420E+02  0.00000000000E+00 0. -1.
         -3   -1    0    0    0  501 -0.00000000000E+00 -0.00000000000E+00 -0.21235172231E+03  0.21235172231E+03  0.00000000000E+00 0.  1.
         23    2    1    2    0    0 -0.40989676532E+01  0.10068303875E+02 -0.10417799074E+03  0.16315634198E+03  0.12509502746E+03 0.  0.
          5    1    3    3  502    0 -0.45135055143E+02  0.38513042118E+02 -0.95198791891E+02  0.11225288412E+03  0.41800000000E+01 0. -1.
         -5    1    3    3    0  502  0.41036087490E+02 -0.28444738243E+02 -0.89791988530E+01  0.50903457862E+02  0.41800000000E+01 0. -1.
        -11    1    1    2    0    0  0.18986954537E+02 -0.92759230557E+01  0.22215227516E+02  0.30660455390E+02  0.00000000000E+00 0. -1.
         11    1    1    2    0    0 -0.14887986884E+02 -0.79238081934E+00 -0.73715654667E+02  0.75208229362E+02  0.00000000000E+00 0.  1.
</event>
<event>
 7    1  0.1312490E-005  0.2203787E+03  0.7561462E-02  0.1133601E+00
         -1   -1    0    0    0  501 -0.00000000000E+00  0.00000000000E+00  0.20447945425E+04  0.20447945425E+04  0.00000000000E+00 0.  1.
          1   -1    0    0  501    0  0.00000000000E+00 -0.00000000000E+00 -0.25360149617E+02  0.25360149617E+02  0.00000000000E+00 0. -1.
         23    2    1    2    0    0 -0.18470219229E+03  0.46966630763E+02  0.13008498220E+04  0.13206736336E+04  0.12509125742E+03 0.  0.
          5    1    3    3  502    0 -0.14653458639E+03  0.88520300814E+02  0.99752246826E+03  0.10121150012E+04  0.41800000000E+01 0. -1.
         -5    1    3    3    0  502 -0.38167605902E+02 -0.41553670051E+02  0.30332735378E+03  0.30855863233E+03  0.41800000000E+01 0. -1.
        -11    1    1    2    0    0  0.87077677616E+02 -0.71045039205E+02  0.37187662390E+03  0.38848699198E+03  0.00000000000E+00 0.  1.
         11    1    1    2    0    0  0.97624514676E+02  0.24078408442E+02  0.34670794698E+03  0.36099406660E+03  0.00000000000E+00 0. -1.
</event>
<event>
 7    1  0.1312490E-005  0.1298476E+03  0.7561462E-02  0.1227682E+00
          3   -1    0    0  501    0  0.00000000000E+00  0.00000000000E+00  0.10200617078E+03  0.10200617078E+03  0.00000000000E+00 0. -1.
         -3   -1    0    0    0  501 -0.00000000000E+00 -0.00000000000E+00 -0.19025181410E+03  0.19025181410E+03  0.00000000000E+00 0.  1.
         23    2    1    2    0    0 -0.27663363509E+02  0.82593254993E+02 -0.43987387552E+02  0.15864383549E+03  0.12508424691E+03 0.  0.
          5    1    3    3  502    0 -0.55233479210E+02 -0.53550936393E+01 -0.35460694789E+02  0.65987480089E+02  0.41800000000E+01 0.  1.
         -5    1    3    3    0  502  0.27570115701E+02  0.87948348633E+02 -0.85266927631E+01  0.92656355402E+02  0.41800000000E+01 0.  1.
        -11    1    1    2    0    0 -0.23676349062E+02 -0.30885132629E+02 -0.46597039097E+02  0.60710336641E+02  0.00000000000E+00 0.  1.
         11    1    1    2    0    0  0.51339712572E+02 -0.51708122365E+02  0.23387833238E+01  0.72903812746E+02  0.00000000000E+00 0. -1.
</event>
<event>
 7    1  0.1312490E-005  0.1559048E+03  0.7561462E-02  0.1193399E+00
         -2   -1    0    0    0  501 -0.00000000000E+00  0.00000000000E+00  0.13495056971E+03  0.13495056971E+03  0.00000000000E+00 0. -1.
          2   -1    0    0  501    0  0.00000000000E+00 -0.00000000000E+00 -0.25450956151E+03  0.25450956151E+03  0.00000000000E+00 0.  1.
         23    2    1    2    0    0 -0.12584516205E+03 -0.67156510336E+00  0.23678404831E+02  0.17900541451E+03  0.12507923791E+03 0.  0.
          5    1    3    3  502    0 -0.12059718370E+03 -0.36298609540E+02 -0.13917989000E+02  0.12677717692E+03  0.41800000000E+01 0.  1.
         -5    1    3    3    0  502 -0.52479783493E+01  0.35627044436E+02  0.37596393832E+02  0.52228237584E+02  0.41800000000E+01 0.  1.
        -11    1    1    2    0    0  0.39274656183E+02  0.38566483762E+02 -0.29067057319E+02  0.62247619306E+02  0.00000000000E+00 0. -1.
         11    1    1    2    0    0  0.86570505865E+02 -0.37894918659E+02 -0.11417033931E+03  0.14820709742E+03  0.00000000000E+00 0.  1.
</event>
<event>
 7    1  0.1405604E-005  0.3424980E+03  0.7561462E-02  0.1065737E+00
          2   -1    0    0  501    0  0.00000000000E+00  0.00000000000E+00  0.24040186068E+03  0.24040186068E+03  0.00000000000E+00 0. -1.
         -2   -1    0    0    0  501 -0.00000000000E+00 -0.00000000000E+00 -0.52446056593E+03  0.52446056593E+03  0.00000000000E+00 0.  1.
         23    2    1    2    0    0  0.33410993757E+02 -0.32607607018E+03 -0.23550321503E+03  0.42255303939E+03  0.12508960293E+03 0.  0.
          5    1    3    3  502    0  0.78735204364E+02 -0.21720912726E+03 -0.17554898828E+03  0.29019641118E+03  0.41800000000E+01 0. -1.
         -5    1    3    3    0  502 -0.45324210607E+02 -0.10886694292E+03 -0.59954226747E+02  0.13235662821E+03  0.41800000000E+01 0. -1.
        -11    1    1    2    0    0  0.20237318927E+02  0.16287575392E+03 -0.46179231402E+02  0.17050097274E+03  0.00000000000E+00 0. -1.
         11    1    1    2    0    0 -0.53648312683E+02  0.16320031626E+03 -0.23762588191E+01  0.17180841448E+03  0.00000000000E+00 0.  1.
</event>
<event>
 7    1  0.1312490E-005  0.9035418E+02  0.7561462E-02  0.1301996E+00
          1   -1    0    0  501    0  0.00000000000E+00  0.00000000000E+00  0.60521243013E+02  0.60521243013E+02  0.00000000000E+00 0. -1.
         -1   -1    0    0    0  501 -0.00000000000E+00 -0.00000000000E+00 -0.20449425299E+03  0.20449425299E+03  0.00000000000E+00 0.  1.
         23    2    1    2    0    0 -0.50052264222E+01 -0.13363558879E+02 -0.99525678351E+02  0.16110817133E+03  0.12588425327E+03 0.  0.
          5    1    3    3  502    0 -0.49620155054E+02 -0.40416384047E+02 -0.85570456211E+02  0.10693651978E+03  0.41800000000E+01 0. -1.
         -5    1    3    3    0  502  0.44614928632E+02  0.27052825167E+02 -0.13955222140E+02  0.54171651547E+02  0.41800000000E+01 0.  1.
        -11    1    1    2    0    0  0.31639506550E+02  0.19139552373E+02  0.13903639398E+02  0.39505594898E+02  0.00000000000E+00 0. -1.
         11    1    1    2    0    0 -0.26634280128E+02 -0.57759934935E+01 -0.58350971024E+02  0.64401729776E+02  0.00000000000E+00 0.  1.
</event>
<event>
 7    1  0.1312490E-005  0.9964735E+02  0.7561462E-02  0.1281039E+00
          3   -1    0    0  501    0  0.00000000000E+00  0.00000000000E+00  0.70465394260E+02  0.70465394260E+02  0.00000000000E+00 0. -1.
         -3   -1    0    0    0  501 -0.00000000000E+00 -0.00000000000E+00 -0.17356692116E+03  0.17356692116E+03  0.00000000000E+00 0.  1.
         23    2    1    2    0    0  0.65625256905E+01 -0.19831379610E+02 -0.80753098636E+02  0.15034510909E+03  0.12508492526E+03 0.  0.
          5    1    3    3  502    0 -0.30208750198E+02  0.36249694743E+02 -0.66518106403E+02  0.81662352630E+02  0.41800000000E+01 0.  1.
         -5    1    3    3    0  502  0.36771275889E+02 -0.56081074354E+02 -0.14234992233E+02  0.68682756461E+02  0.41800000000E+01 0.  1.
        -11    1    1    2    0    0  0.36150122814E+02 -0.30456200157E+01 -0.26691859778E+02  0.45039566596E+02  0.00000000000E+00 0.  1.
         11    1    1    2    0    0 -0.42712648504E+02  0.22876999626E+02  0.43434315157E+01  0.48647639732E+02  0.00000000000E+00 0. -1.
</event>
<event>
 7    1  0.1312490E-005  0.1475421E+03  0.7561462E-02  0.1203526E+00
          3   -1    0    0  501    0  0.00000000000E+00  0.00000000000E+00  0.49854231087E+02  0.49854231087E+02  0.00000000000E+00 0. -1.
         -3   -1    0    0    0  501 -0.00000000000E+00 -0.00000000000E+00 -0.51402190751E+03  0.51402190751E+03  0.00000000000E+00 0.  1.
         23    2    1    2    0    0 -0.32952320287E+02 -0.10653923403E+03 -0.31918466801E+03  0.36050115518E+03  0.12508303958E+03 0.  0.
          5    1    3    3  502    0 -0.66570439009E+02 -0.99289304729E+02 -0.17338106668E+03  0.21063821132E+03  0.41800000000E+01 0.  1.
         -5    1    3    3    0  502  0.33618118722E+02 -0.72499293024E+01 -0.14580360133E+03  0.14986294386E+03  0.41800000000E+01 0.  1.
        -11    1    1    2    0    0 -0.29568673335E+02  0.33525372333E+02 -0.31676307281E+02  0.54787274762E+02  0.00000000000E+00 0. -1.
         11    1    1    2    0    0  0.62520993621E+02  0.73013861698E+02 -0.11330670113E+03  0.14858770866E+03  0.00000000000E+00 0.  1.
</event>
<event>
 7    1  0.1312490E-005  0.1014994E+03  0.7561462E-02  0.1277174E+00
         -1   -1    0    0    0  501 -0.00000000000E+00  0.00000000000E+00  0.10395562181E+03  0.10395562181E+03  0.00000000000E+00 0.  1.
          1   -1    0    0  501    0  0.00000000000E+00 -0.00000000000E+00 -0.16712028020E+03  0.16712028020E+03  0.00000000000E+00 0. -1.
         23    2    1    2    0    0  0.25694462950E+02 -0.13395343037E+02  0.36863287233E+02  0.13359476736E+03  0.12509604022E+03 0.  0.
          5    1    3    3  502    0  0.61405754417E+02 -0.31860131472E+02  0.55783572461E+02  0.88966364484E+02  0.41800000000E+01 0. -1.
         -5    1    3    3    0  502 -0.35711291467E+02  0.18464788435E+02 -0.18920285228E+02  0.44628402876E+02  0.41800000000E+01 0. -1.
        -11    1    1    2    0    0  0.33248159483E+02  0.70869294040E+01 -0.46568790429E+02  0.57656889609E+02  0.00000000000E+00 0. -1.
         11    1    1    2    0    0 -0.58942622434E+02  0.63084136332E+01 -0.53459155195E+02  0.79824245039E+02  0.00000000000E+00 0.  1.
</event>
<event>
 7    1  0.1312490E-005  0.8159175E+02  0.7561462E-02  0.1324594E+00
          2   -1    0    0  501    0  0.00000000000E+00  0.00000000000E+00  0.49630561938E+03  0.49630561938E+03  0.00000000000E+00 0. -1.
         -2   -1    0    0    0  501 -0.00000000000E+00 -0.00000000000E+00 -0.23579756570E+02  0.23579756570E+02  0.00000000000E+00 0.  1.
         23    2    1    2    0    0 -0.11994188099E+02  0.25245758315E+02  0.26465401824E+03  0.29070144766E+03  0.11698022671E+03 0.  0.
          5    1    3    3  502    0  0.44917795838E+02 -0.59199734689E+01  0.56013337614E+02  0.72163847316E+02  0.41800000000E+01 0. -1.
         -5    1    3    3    0  502 -0.56911983937E+02  0.31165731784E+02  0.20864068062E+03  0.21853760035E+03  0.41800000000E+01 0.  1.
        -11    1    1    2    0    0  0.17083092482E+02 -0.36506872917E+02  0.21232353022E+03  0.21611539812E+03  0.00000000000E+00 0. -1.
         11    1    1    2    0    0 -0.50889043829E+01  0.11261114602E+02 -0.42516856504E+01  0.13068530169E+02  0.00000000000E+00 0.  1.
</event>
<event>
 7    1  0.1312490E-005  0.9573507E+02  0.7561462E-02  0.1289529E+00
         -3   -1    0    0    0  501 -0.00000000000E+00  0.00000000000E+00  0.99201088555E+02  0.99201088555E+02  0.00000000000E+00 0.  1.
          3   -1    0    0  501    0  0.00000000000E+00 -0.00000000000E+00 -0.14570687436E+03  0.14570687436E+03  0.00000000000E+00 0. -1.
         23    2    1    2    0    0  0.46370707864E+02  0.17254906579E+02 -0.26354211134E+01  0.13454605716E+03  0.12509085380E+03 0.  0.
          5    1    3    3  502    0 -0.31404251115E+02  0.34267624178E+02 -0.23337234697E+02  0.52178501112E+02  0.41800000000E+01 0. -1.
         -5    1    3    3    0  502  0.77774958980E+02 -0.17012717599E+02  0.20701813584E+02  0.82367556053E+02  0.41800000000E+01 0. -1.
        -11    1    1    2    0    0 -0.11484846962E+02  0.14090697822E+02  0.22604976030E+02  0.29007488967E+02  0.00000000000E+00 0.  1.
         11    1    1    2    0    0 -0.34885860903E+02 -0.31345604402E+02 -0.66475340718E+02  0.81354416781E+02  0.00000000000E+00 0. -1.
</event>
<event>
 7    1  0.1312490E-005  0.3732872E+03  0.7561462E-02  0.1053443E+00
          2   -1    0    0  501    0  0.00000000000E+00  0.00000000000E+00  0.13497028051E+04  0.13497028051E+04  0.00000000000E+00 0. -1.
         -2   -1    0    0    0  501 -0.00000000000E+00 -0.00000000000E+00 -0.10966055121E+03  0.10966055121E+03  0.00000000000E+00 0.  1.
         23    2    1    2    0    0  0.24208296859E+03  0.27758210702E+03  0.57573142917E+03  0.69481680884E+03  0.12509088491E+03 0.  0.
          5    1    3    3  502    0  0.17244181884E+03  0.19274729988E+03  0.28942757913E+03  0.38816684358E+03  0.41800000000E+01 0. -1.
         -5    1    3    3    0  502  0.69641149742E+02  0.84834807142E+02  0.28630385005E+03  0.30664996526E+03  0.41800000000E+01 0. -1.
        -11    1    1    2    0    0 -0.95578091144E+01 -0.56240074143E+02  0.88562044764E+02  0.10534483104E+03  0.00000000000E+00 0.  1.
         11    1    1    2    0    0 -0.23252515947E+03 -0.22134203288E+03  0.57574877991E+03  0.65920171638E+03  0.00000000000E+00 0. -1.
</event>
<event>
 7    1  0.1312490E-005  0.1205075E+03  0.7561462E-02  0.1242262E+00
          1   -1    0    0  501    0  0.00000000000E+00  0.00000000000E+00  0.34583034643E+03  0.34583034643E+03  0.00000000000E+00 0. -1.
         -1   -1    0    0    0  501 -0.00000000000E+00 -0.00000000000E+00 -0.59213345696E+02  0.59213345696E+02  0.00000000000E+00 0.  1.
         23    2    1    2    0    0  0.33677497769E+02 -0.56856122406E+02  0.43734243788E+02  0.13763528332E+03  0.11253441529E+03 0.  0.
          5    1    3    3  502    0 -0.40356290754E+02 -0.29440807069E+02  0.26575207426E+02  0.56737160433E+02  0.41800000000E+01 0. -1.
         -5    1    3    3    0  502  0.74033788523E+02 -0.27415315337E+02  0.17159036362E+02  0.80898122889E+02  0.41800000000E+01 0.  1.
        -11    1    1    2    0    0 -0.29025348725E+02  0.81622477982E+02  0.18502915628E+03  0.20430489093E+03  0.00000000000E+00 0.  1.
         11    1    1    2    0    0 -0.46521490447E+01 -0.24766355576E+02  0.57853600664E+02  0.63103517881E+02  0.00000000000E+00 0. -1.
</event>
<event>
 7    1  0.1312490E-005  0.2419479E+03  0.7561462E-02  0.1118502E+00
         -1   -1    0    0    0  501 -0.00000000000E+00  0.00000000000E+00  0.14320362361E+03  0.14320362361E+03  0.00000000000E+00 0.  1.
          1   -1    0    0  501    0  0.00000000000E+00 -0.00000000000E+00 -0.62283975056E+03  0.62283975056E+03  0.00000000000E+00 0. -1.
         23    2    1    2    0    0  0.15363253007E+03 -0.16985992939E+03 -0.47737326049E+02  0.26529537514E+03  0.12508970326E+03 0.  0.
          5    1    3    3  502    0  0.96948921097E+02 -0.48718828959E+02  0.27188707302E+02  0.11193442635E+03  0.41800000000E+01 0. -1.
         -5    1    3    3    0  502  0.56683608977E+02 -0.12114110043E+03 -0.74926033351E+02  0.15336094879E+03  0.41800000000E+01 0. -1.
        -11    1    1    2    0    0 -0.91849265620E+02  0.15128863058E+03 -0.37524389082E+03  0.41488855725E+03  0.00000000000E+00 0.  1.
         11    1    1    2    0    0 -0.61783264455E+02  0.18571298810E+02 -0.56654910084E+02  0.85859441780E+02  0.00000000000E+00 0. -1.
</event>
<event>
 7    1  0.1312490E-005  0.1061474E+03  0.7561462E-02  0.1267875E+00
         -2   -1    0    0    0  501 -0.00000000000E+00  0.00000000000E+00  0.13650852861E+04  0.13650852861E+04  0.00000000000E+00 0.  1.
          2   -1    0    0  501    0  0.00000000000E+00 -0.00000000000E+00 -0.96394320208E+01  0.96394320208E+01  0.00000000000E+00 0. -1.
         23    2    1    2    0    0 -0.23553731923E+02  0.16657752831E+02  0.90999776128E+03  0.91900834888E+03  0.12509260876E+03 0.  0.
          5    1    3    3  502    0 -0.33150376223E+01  0.64581074878E+02  0.30746110223E+03  0.31421570058E+03  0.41800000000E+01 0. -1.
         -5    1    3    3    0  502 -0.20238694301E+02 -0.47923322047E+02  0.60253665905E+03  0.60479264830E+03  0.41800000000E+01 0. -1.
        -11    1    1    2    0    0 -0.26234031430E+02  0.20405759379E+02  0.12708003226E+03  0.13135430720E+03  0.00000000000E+00 0. -1.
         11    1    1    2    0    0  0.49787763353E+02 -0.37063512211E+02  0.31836806057E+03  0.32436206207E+03  0.00000000000E+00 0.  1.
</event>
<event>
 7    1  0.1312490E-005  0.1047884E+03  0.7561462E-02  0.1270537E+00
          1   -1    0    0  501    0  0.00000000000E+00  0.00000000000E+00  0.36525433756E+03  0.36525433756E+03  0.00000000000E+00 0. -1.
         -1   -1    0    0    0  501 -0.00000000000E+00 -0.00000000000E+00 -0.36673257197E+02  0.36673257197E+02  0.00000000000E+00 0.  1.
         23    2    1    2    0    0 -0.37077634008E+02  0.38559519555E+01  0.15780863442E+03  0.20479479581E+03  0.12509086291E+03 0.  0.
          5    1    3    3  502    0  0.18214436213E+02 -0.48692678403E+02  0.81921858413E+02  0.97115425667E+02  0.41800000000E+01 0. -1.
         -5    1    3    3    0  502 -0.55292070221E+02  0.52548630359E+02  0.75886776009E+02  0.10767937015E+03  0.41800000000E+01 0. -1.
        -11    1    1    2    0    0  0.29739598161E+02 -0.36777713192E+02  0.39579148677E+02  0.61672951092E+02  0.00000000000E+00 0.  1.
         11    1    1    2    0    0  0.73380358468E+01  0.32921761236E+02  0.13119329726E+03  0.13545984785E+03  0.00000000000E+00 0. -1.
</event>
<event>
 7    1  0.1312490E-005  0.1080209E+03  0.7561462E-02  0.1264279E+00
          1   -1    0    0  501    0  0.00000000000E+00  0.00000000000E+00  0.52163890086E+03  0.52163890086E+03  0.00000000000E+00 0. -1.
         -1   -1    0    0    0  501 -0.00000000000E+00 -0.00000000000E+00 -0.27981080549E+02  0.27981080549E+02  0.00000000000E+00 0.  1.
         23    2    1    2    0    0 -0.38679428845E+02  0.32652345148E+02  0.22618268895E+03  0.26337809406E+03  0.12508851981E+03 0.  0.
          5    1    3    3  502    0 -0.48149594865E+02 -0.26413650287E+02  0.40814932129E+02  0.68552137034E+02  0.41800000000E+01 0. -1.
         -5    1    3    3    0  502  0.94701660198E+01  0.59065995435E+02  0.18536775682E+03  0.19482595702E+03  0.41800000000E+01 0. -1.
        -11    1    1    2    0    0 -0.15199884158E+02 -0.43463526550E+02  0.10283455303E+03  0.11267235648E+03  0.00000000000E+00 0. -1.
         11    1    1    2    0    0  0.53879313002E+02  0.10811181402E+02  0.16464057834E+03  0.17356953087E+03  0.00000000000E+00 0.  1.
</event>
<event>
 7    1  0.1708185E-005  0.2141555E+03  0.7561462E-02  0.1138317E+00
          2   -1    0    0  501    0  0.00000000000E+00  0.00000000000E+00  0.74373387619E+03  0.74373387619E+03  0.00000000000E+00 0. -1.
         -2   -1    0    0    0  501 -0.00000000000E+00 -0.00000000000E+00 -0.76196982656E+02  0.76196982656E+02  0.00000000000E+00 0.  1.
         23    2    1    2    0    0 -0.15021701033E+03  0.14856499921E+03  0.34420973249E+03  0.42280549320E+03  0.12508971163E+03 0.  0.
          5    1    3    3  502    0 -0.10412838472E+03  0.11619504255E+03  0.13583148295E+03  0.20690981750E+03  0.41800000000E+01 0.  1.
         -5    1    3    3    0  502 -0.46088625613E+02  0.32369956661E+02  0.20837824954E+03  0.21589567570E+03  0.41800000000E+01 0.  1.
        -11    1    1    2    0    0  0.16255937516E+02 -0.40494716114E+02  0.13554798745E+03  0.14239850575E+03  0.00000000000E+00 0. -1.
         11    1    1    2    0    0  0.13396107282E+03 -0.10807028309E+03  0.18777917359E+03  0.25472685990E+03  0.00000000000E+00 0.  1.
</event>
<event>
 7    1  0.1312490E-005  0.1235897E+03  0.7561462E-02  0.1237290E+00
          2   -1    0    0  501    0  0.00000000000E+00  0.00000000000E+00  0.30388059882E+02  0.30388059882E+02  0.00000000000E+00 0. -1.
         -2   -1    0    0    0  501 -0.00000000000E+00 -0.00000000000E+00 -0.11079376761E+04  0.11079376761E+04  0.00000000000E+00 0.  1.
         23    2    1    2    0    0 -0.67662332631E+02 -0.36167936663E+02 -0.95772616480E+03  0.96890330816E+03  0.12509157817E+03 0.  0.
          5    1    3    3  502    0 -0.93140485521E+02 -0.41025184814E+02 -0.89663948725E+03  0.90240681421E+03  0.41800000000E+01 0. -1.
         -5    1    3    3    0  502  0.25478152891E+02  0.48572481506E+01 -0.61086677544E+02  0.66496493950E+02  0.41800000000E+01 0. -1.
        -11    1    1    2    0    0  0.34003278089E+02 -0.29654251218E+02 -0.36527214689E+02  0.58050279491E+02  0.00000000000E+00 0. -1.
         11    1    1    2    0    0  0.33659054542E+02  0.65822187881E+02 -0.83296236734E+02  0.11137214833E+03  0.00000000000E+00 0.  1.
</event>
<event>
 7    1  0.1312490E-005  0.1439811E+03  0.7561462E-02  0.1208070E+00
          2   -1    0    0  501    0  0.00000000000E+00  0.00000000000E+00  0.60733862012E+03  0.60733862012E+03  0.00000000000E+00 0. -1.
         -2   -1    0    0    0  501 -0.00000000000E+00 -0.00000000000E+00 -0.40701721194E+02  0.40701721194E+02  0.00000000000E+00 0.  1.
         23    2    1    2    0    0  0.90867289582E+02 -0.29296169798E+02  0.17714040167E+03  0.23694041948E+03  0.12508761168E+03 0.  0.
          5    1    3    3  502    0  0.93327053595E+01  0.45001450177E+02  0.63648197888E+02  0.78618034838E+02  0.41800000000E+01 0.  1.
         -5    1    3    3    0  502  0.81534584222E+02 -0.74297619975E+02  0.11349220378E+03  0.15832238464E+03  0.41800000000E+01 0.  1.
        -11    1    1    2    0    0 -0.10263240539E+03  0.30666334099E+01  0.29796055024E+03  0.31515600007E+03  0.00000000000E+00 0. -1.
         11    1    1    2    0    0  0.11765115813E+02  0.26229536388E+02  0.91535947018E+02  0.95943921776E+02  0.00000000000E+00 0.  1.
</event>
<event>
 7    1  0.1344345E-005  0.2667512E+03  0.7561462E-02  0.1103153E+00
         -2   -1    0    0    0  501 -0.00000000000E+00  0.00000000000E+00  0.77485138646E+02  0.77485138646E+02  0.00000000000E+00 0. -1.
          2   -1    0    0  501    0  0.00000000000E+00 -0.00000000000E+00 -0.98107769735E+03  0.98107769735E+03  0.00000000000E+00 0.  1.
         23    2    1    2    0    0 -0.25108980184E+03  0.32479211013E+02 -0.45132181201E+03  0.53239144971E+03  0.12509312528E+03 0.  0.
          5    1    3    3  502    0 -0.19161723312E+03  0.76271843915E+02 -0.35950031860E+03  0.41447859978E+03  0.41800000000E+01 0. -1.
         -5    1    3    3    0  502 -0.59472568720E+02 -0.43792632903E+02 -0.91821493413E+02  0.11791284993E+03  0.41800000000E+01 0. -1.
        -11    1    1    2    0    0  0.16027291299E+03 -0.23501425238E+02 -0.19681237632E+03  0.25490161847E+03  0.00000000000E+00 0. -1.
         11    1    1    2    0    0  0.90816888849E+02 -0.89777857742E+01 -0.25545837037E+03  0.27126976781E+03  0.00000000000E+00 0.  1.
</event>
<event>
 7    1  0.1312490E-005  0.1111900E+03  0.7561462E-02  0.1258382E+00
          2   -1    0    0  501    0  0.00000000000E+00  0.00000000000E+00  0.22116518686E+02  0.22116518686E+02  0.00000000000E+00 0. -1.
         -2   -1    0    0    0  501 -0.00000000000E+00 -0.00000000000E+00 -0.74052033800E+03  0.74052033800E+03  0.00000000000E+00 0.  1.
         23    2    1    2    0    0 -0.26264035059E+02  0.59139552861E+02 -0.45475996027E+03  0.47606729747E+03  0.12508462739E+03 0.  0.
          5    1    3    3  502    0  0.26040857475E+02 -0.27449310157E+02 -0.95321173759E+02  0.10264107099E+03  0.41800000000E+01 0.  1.
         -5    1    3    3    0  502 -0.52304892534E+02  0.86588863019E+02 -0.35943878651E+03  0.37342622649E+03  0.41800000000E+01 0.  1.
        -11    1    1    2    0    0  0.36434267188E+02 -0.17904446283E+02 -0.33771237884E+02  0.52806453492E+02  0.00000000000E+00 0. -1.
         11    1    1    2    0    0 -0.10170232129E+02 -0.41235106578E+02 -0.22987262116E+03  0.23376310572E+03  0.00000000000E+00 0.  1.
</event>
<event>
 7    1  0.1312490E-005  0.9444355E+02  0.7561462E-02  0.1292434E+00
          1   -1    0    0  501    0  0.00000000000E+00  0.00000000000E+00  0.48942531935E+03  0.48942531935E+03  0.00000000000E+00 0. -1.
         -1   -1    0    0    0  501 -0.00000000000E+00 -0.00000000000E+00 -0.45705688699E+02  0.45705688699E+02  0.00000000000E+00 0.  1.
         23    2    1    2    0    0 -0.24308142382E+02  0.58984202815E+02  0.95301571155E+02  0.16911934870E+03  0.12429377567E+03 0.  0.
          5    1    3    3  502    0 -0.34640790816E+02  0.15057622706E+02  0.11394540338E+03  0.12011554330E+03  0.41800000000E+01 0. -1.
         -5    1    3    3    0  502  0.10332648434E+02  0.43926580109E+02 -0.18643832226E+02  0.49003805401E+02  0.41800000000E+01 0.  1.
        -11    1    1    2    0    0 -0.31011959126E+02 -0.12988283156E+02  0.17605126755E+03  0.17923304917E+03  0.00000000000E+00 0.  1.
         11    1    1    2    0    0  0.55320101508E+02 -0.45995919659E+02  0.17236679195E+03  0.18677861019E+03  0.00000000000E+00 0. -1.
</event>
<event>
 7    1  0.1312490E-005  0.7276482E+02  0.7561462E-02  0.1350936E+00
         -2   -1    0    0    0  501 -0.00000000000E+00  0.00000000000E+00  0.39439037070E+02  0.39439037070E+02  0.00000000000E+00 0.  1.
          2   -1    0    0  501    0  0.00000000000E+00 -0.00000000000E+00 -0.32004730936E+03  0.32004730936E+03  0.00000000000E+00 0. -1.
         23    2    1    2    0    0 -0.18026053462E+02 -0.18660837156E+02 -0.13417957909E+03  0.18527387885E+03  0.12509630408E+03 0.  0.
          5    1    3    3  502    0 -0.12285004627E+02 -0.34691742869E+02 -0.15424348747E+03  0.15862838393E+03  0.41800000000E+01 0.  1.
         -5    1    3    3    0  502 -0.57410488356E+01  0.16030905713E+02  0.20063908384E+02  0.26645494917E+02  0.41800000000E+01 0.  1.
        -11    1    1    2    0    0  0.53195227697E+02  0.58023078197E+01 -0.10814785292E+03  0.12066216108E+03  0.00000000000E+00 0. -1.
         11    1    1    2    0    0 -0.35169174235E+02  0.12858529337E+02 -0.38280840279E+02  0.53550306493E+02  0.00000000000E+00 0.  1.
</event>
<event>
 7    1  0.1312490E-005  0.9749039E+02  0.7561462E-02  0.1285664E+00
         -2   -1    0    0    0  501 -0.00000000000E+00  0.00000000000E+00  0.19323286169E+02  0.19323286169E+02  0.00000000000E+00 0.  1.
          2   -1    0    0  501    0  0.00000000000E+00 -0.00000000000E+00 -0.93709592173E+03  0.93709592173E+03  0.00000000000E+00 0. -1.
         23    2    1    2    0    0 -0.44454147689E+02 -0.64536836845E+02 -0.42132138323E+03  0.44643108814E+03  0.12509130238E+03 0.  0.
          5    1    3    3  502    0  0.10920139412E+02 -0.22396301105E+02 -0.33279294685E+03  0.33375059794E+03  0.41800000000E+01 0.  1.
         -5    1    3    3    0  502 -0.55374287101E+02 -0.42140535740E+02 -0.88528436374E+02  0.11268049020E+03  0.41800000000E+01 0.  1.
        -11    1    1    2    0    0 -0.30010711975E+01 -0.10666485081E+02 -0.84074106849E+01  0.13909165566E+02  0.00000000000E+00 0.  1.
         11    1    1    2    0    0  0.47455218887E+02  0.75203321926E+02 -0.48804384164E+03  0.49607895419E+03  0.00000000000E+00 0. -1.
</event>
<event>
 7    1  0.1312490E-005  0.1143303E+03  0.7561462E-02  0.1252755E+00
         -4   -1    0    0    0  501 -0.00000000000E+00  0.00000000000E+00  0.14030766759E+03  0.14030766759E+03  0.00000000000E+00 0.  1.
          4   -1    0    0  501    0  0.00000000000E+00 -0.00000000000E+00 -0.14495512683E+03  0.14495512683E+03  0.00000000000E+00 0. -1.
         23    2    1    2    0    0  0.78357839741E+02 -0.32879411587E+02  0.34670460703E+02  0.15514903282E+03  0.12509266479E+03 0.  0.
          5    1    3    3  502    0 -0.62149051829E+01  0.79310655464E+01 -0.35956513448E+02  0.37574860033E+02  0.41800000000E+01 0.  1.
         -5    1    3    3    0  502  0.84572744924E+02 -0.40810477134E+02  0.70626974151E+02  0.11757417278E+03  0.41800000000E+01 0.  1.
        -11    1    1    2    0    0 -0.29012689013E+02  0.60577859800E+02 -0.25657327456E+02  0.71900707048E+02  0.00000000000E+00 0. -1.
         11    1    1    2    0    0 -0.49345150728E+02 -0.27698448213E+02 -0.13660592486E+02  0.58213054557E+02  0.00000000000E+00 0.  1.
</event>
<event>
 7    1  0.1312490E-005  0.1191414E+03  0.7561462E-02  0.1244520E+00
         -1   -1    0    0    0  501 -0.00000000000E+00  0.00000000000E+00  0.10356988810E+03  0.10356988810E+03  0.00000000000E+00 0.  1.
          1   -1    0    0  501    0  0.00000000000E+00 -0.00000000000E+00 -0.16658725965E+03  0.16658725965E+03  0.00000000000E+00 0. -1.
         23    2    1    2    0    0  0.54959727617E+02  0.37780143208E+02  0.48583969286E+00  0.14175891246E+03  0.12508973715E+03 0.  0.
          5    1    3    3  502    0  0.13145229835E+02  0.73136775218E+02 -0.28456667048E+02  0.79680858781E+02  0.41800000000E+01 0. -1.
         -5    1    3    3    0  502  0.41814497782E+02 -0.35356632010E+02  0.28942506740E+02  0.62078053677E+02  0.41800000000E+01 0. -1.
        -11    1    1    2    0    0 -0.57409128990E+02  0.12371408362E+02 -0.20232535679E+02  0.62114534018E+02  0.00000000000E+00 0.  1.
         11    1    1    2    0    0  0.24494013728E+01 -0.50151551570E+02 -0.43270675563E+02  0.66283701282E+02  0.00000000000E+00 0. -1.
</event>
<event>
 7    1  0.1312490E-005  0.1215258E+03  0.7561462E-02  0.1240601E+00
         -2   -1    0    0    0  501 -0.00000000000E+00  0.00000000000E+00  0.19465256235E+03  0.19465256235E+03  0.00000000000E+00 0.  1.
          2   -1    0    0  501    0  0.00000000000E+00 -0.00000000000E+00 -0.11908492177E+03  0.11908492177E+03  0.00000000000E+00 0. -1.
         23    2    1    2    0    0 -0.36125026130E+02 -0.95228183842E+02  0.74307822155E+02  0.17760110060E+03  0.12508826480E+03 0.  0.
          5    1    3    3  502    0 -0.35694513452E+02  0.44184184766E+01  0.68760668062E+02  0.77711791800E+02  0.41800000000E+01 0.  1.
         -5    1    3    3    0  502 -0.43051267817E+00 -0.99646602319E+02  0.55471540937E+01  0.99889308804E+02  0.41800000000E+01 0.  1.
        -11    1    1    2    0    0  0.29551870155E+01  0.54503884454E+02 -0.41370129882E+02  0.68490102915E+02  0.00000000000E+00 0. -1.
         11    1    1    2    0    0  0.33169839115E+02  0.40724299388E+02  0.42629948304E+02  0.67646280607E+02  0.00000000000E+00 0.  1.
</event>
<event>
 6    1  0.1312490E-005  0.2541091E+03  0.7561462E-02  0.1110735E+00
          1   -1    0    0  501    0  0.00000000000E+00  0.00000000000E+00  0.83635139160E+03  0.83635139160E+03  0.00000000000E+00 0. -1.
         -1   -1    0    0    0  501 -0.00000000000E+00 -0.00000000000E+00 -0.16356265960E+03  0.16356265960E+03  0.00000000000E+00 0.  1.
          5    1    1    2  502    0 -0.68604034821E+02 -0.17995854233E+03  0.79239017509E+02  0.20829758723E+03  0.41800000000E+01 0. -1.
         -5    1    1    2    0  502  0.30186132777E+02  0.21073611391E+03  0.25649486497E+02  0.21446743547E+03  0.41800000000E+01 0.  1.
        -11    1    1    2    0    0  0.68170632621E+02 -0.21990022846E+02  0.41442065648E+03  0.42056542509E+03  0.00000000000E+00 0. -1.
         11    1    1    2    0    0 -0.29752730578E+02 -0.87875487318E+01  0.15347957151E+03  0.15658360342E+03  0.00000000000E+00 0.  1.
</event>
<event>
 7    1  0.1312490E-005  0.1643028E+03  0.7561462E-02  0.1183923E+00
         -1   -1    0    0    0  501 -0.00000000000E+00  0.00000000000E+00  0.47447176743E+02  0.47447176743E+02  0.00000000000E+00 0.  1.
          1   -1    0    0  501    0  0.00000000000E+00 -0.00000000000E+00 -0.65925606340E+03  0.65925606340E+03  0.00000000000E+00 0. -1.
         23    2    1    2    0    0 -0.89861965959E+02  0.10627036804E+03 -0.33043224837E+03  0.37973756559E+03  0.12508630584E+03 0.  0.
          5    1    3    3  502    0 -0.11604709425E+03  0.53421089381E+02 -0.23342104690E+03  0.26612703435E+03  0.41800000000E+01 0.  1.
         -5    1    3    3    0  502  0.26185128292E+02  0.52849278658E+02 -0.97011201469E+02  0.11361053124E+03  0.41800000000E+01 0.  1.
        -11    1    1    2    0    0  0.27848423318E+02 -0.15940365454E+02 -0.89225321899E+01  0.33305277551E+02  0.00000000000E+00 0.  1.
         11    1    1    2    0    0  0.62013542641E+02 -0.90330002585E+02 -0.27245410610E+03  0.29366039700E+03  0.00000000000E+00 0. -1.
</event>
<event>
 7    1  0.1312490E-005  0.1264683E+03  0.7561462E-02  0.1232792E+00
          1   -1    0    0  501    0  0.00000000000E+00  0.00000000000E+00  0.74276187669E+02  0.74276187669E+02  0.00000000000E+00 0. -1.
         -1   -1    0    0    0  501 -0.00000000000E+00 -0.00000000000E+00 -0.36186656543E+03  0.36186656543E+03  0.00000000000E+00 0.  1.
         23    2    1    2    0    0  0.26494508258E+02  0.90085129658E+02 -0.25936745243E+03  0.30287874681E+03  0.12508705103E+03 0.  0.
          5    1    3    3  502    0  0.43708720654E+02  0.13618510770E+02 -0.18516580903E+02  0.49560591857E+02  0.41800000000E+01 0.  1.
         -5    1    3    3    0  502 -0.17214212397E+02  0.76466618888E+02 -0.24085087153E+03  0.25331815495E+03  0.41800000000E+01 0.  1.
        -11    1    1    2    0    0 -0.42564243008E+02 -0.61411643650E+01 -0.19916657925E+02  0.47393057988E+02  0.00000000000E+00 0. -1.
         11    1    1    2    0    0  0.16069734750E+02 -0.83943965293E+02 -0.83062674061E+01  0.85870948302E+02  0.00000000000E+00 0.  1.
</event>
<event>
 7    1  0.1312490E-005  0.9116626E+02  0.7561462E-02  0.1300052E+00
          1   -1    0    0  501    0  0.00000000000E+00  0.00000000000E+00  0.34125246058E+03  0.34125246058E+03  0.00000000000E+00 0. -1.
         -1   -1    0    0    0  501 -0.00000000000E+00 -0.00000000000E+00 -0.38987259031E+02  0.38987259031E+02  0.00000000000E+00 0.  1.
         23    2    1    2    0    0 -0.19692585663E+02  0.28878491716E+02  0.14554791297E+03  0.19507318956E+03  0.12509032378E+03 0.  0.
          5    1    3    3  502    0 -0.15087220540E+02  0.78088628634E+02  0.80129884056E+02  0.11297667398E+03  0.41800000000E+01 0.  1.
         -5    1    3    3    0  502 -0.46053651227E+01 -0.49210136918E+02  0.65418028911E+02  0.82096515578E+02  0.41800000000E+01 0.  1.
        -11    1    1    2    0    0  0.11462611234E+02  0.88444626650E+01 -0.76155314794E+01  0.16358859858E+02  0.00000000000E+00 0.  1.
         11    1    1    2    0    0  0.82299744284E+01 -0.37722954381E+02  0.16433282007E+03  0.16880767020E+03  0.00000000000E+00 0. -1.
</event>
<event>
 7    1  0.1312490E-005  0.1120832E+03  0.7561462E-02  0.1256760E+00
          2   -1    0    0  501    0  0.00000000000E+00  0.00000000000E+00  0.16482544546E+03  0.16482544546E+03  0.00000000000E+00 0. -1.
         -2   -1    0    0    0  501 -0.00000000000E+00 -0.00000000000E+00 -0.10301002535E+03  0.10301002535E+03  0.00000000000E+00 0.  1.
         23    2    1    2    0    0  0.49090309225E+02  0.51194090959E+02  0.37382572954E+02  0.14857847727E+03  0.12508962283E+03 0.  0.
          5    1    3    3  502    0  0.88354337691E+02  0.54822151015E+02  0.24815273946E+02  0.10698236982E+03  0.41800000000E+01 0.  1.
         -5    1    3    3    0  502 -0.39264028466E+02 -0.36280600563E+01  0.12567299008E+02  0.41596107456E+02  0.41800000000E+01 0.  1.
        -11    1    1    2    0    0  0.54989344401E+01 -0.12144590993E+02 -0.30007685595E+02  0.32835812235E+02  0.00000000000E+00 0.  1.
         11    1    1    2    0    0 -0.54589243665E+02 -0.39049499966E+02  0.54440532753E+02  0.86421181304E+02  0.00000000000E+00 0. -1.
</event>
<event>
 7    1  0.1312490E-005  0.2447880E+03  0.7561462E-02  0.1116644E+00
         -2   -1    0    0    0  501 -0.00000000000E+00  0.00000000000E+00  0.17355960442E+03  0.17355960442E+03  0.00000000000E+00 0.  1.
          2   -1    0    0  501    0  0.00000000000E+00 -0.00000000000E+00 -0.46040788802E+03  0.46040788802E+03  0.00000000000E+00 0. -1.
         23    2    1    2    0    0 -0.93882558976E+02 -0.19935824241E+03  0.10484511827E+02  0.25360411921E+03  0.12508989006E+03 0.  0.
          5    1    3    3  502    0 -0.19985116385E+02  0.15295232665E+02  0.72643182712E+01  0.26525303753E+02  0.41800000000E+01 0. -1.
         -5    1    3    3    0  502 -0.73897442590E+02 -0.21465347507E+03  0.32201935557E+01  0.22707881545E+03  0.41800000000E+01 0. -1.
        -11    1    1    2    0    0 -0.44233201553E+01  0.89416583434E+02 -0.10474492681E+03  0.13779111309E+03  0.00000000000E+00 0.  1.
         11    1    1    2    0    0  0.98305879131E+02  0.10994165897E+03 -0.19258786862E+03  0.24257226014E+03  0.00000000000E+00 0. -1.
</event>
<event>
 7    1  0.1312490E-005  0.1311929E+03  0.7561462E-02  0.1225696E+00
         -2   -1    0    0    0  501 -0.00000000000E+00  0.00000000000E+00  0.26301240442E+03  0.26301240442E+03  0.00000000000E+00 0. -1.
          2   -1    0    0  501    0  0.00000000000E+00 -0.00000000000E+00 -0.66800477410E+02  0.66800477410E+02  0.00000000000E+00 0.  1.
         23    2    1    2    0    0 -0.55580154818E+02 -0.52372767475E+02  0.11795666425E+03  0.18813172064E+03  0.12509080418E+03 0.  0.
          5    1    3    3  502    0  0.33213464293E+02 -0.45398151763E+02  0.35251001692E+02  0.66514899941E+02  0.41800000000E+01 0. -1.
         -5    1    3    3    0  502 -0.88793619111E+02 -0.69746157124E+01  0.82705662554E+02  0.12161682070E+03  0.41800000000E+01 0. -1.
        -11    1    1    2    0    0 -0.11393528334E+02  0.48400626205E+02  0.23094028298E+02  0.54824878003E+02  0.00000000000E+00 0.  1.
         11    1    1    2    0    0  0.66973683152E+02  0.39721412695E+01  0.55161234468E+02  0.86856283188E+02  0.00000000000E+00 0. -1.
</event>
<event>
 7    1  0.1312490E-005  0.7539120E+02  0.7561462E-02  0.1342664E+00
         -2   -1    0    0    0  501 -0.00000000000E+00  0.00000000000E+00  0.48757780719E+02  0.48757780719E+02  0.00000000000E+00 0.  1.
          2   -1    0    0  501    0  0.00000000000E+00 -0.00000000000E+00 -0.26768995871E+03  0.26768995871E+03  0.00000000000E+00 0. -1.
         23    2    1    2    0    0  0.57632006917E+01  0.33433436642E+02 -0.10407263598E+03  0.16621934995E+03  0.12508696802E+03 0.  0.
          5    1    3    3  502    0 -0.29317254058E+02  0.36712806633E+01  0.18582772832E+02  0.35153542259E+02  0.41800000000E+01 0.  1.
         -5    1    3    3    0  502  0.35080454750E+02  0.29762155979E+02 -0.12265540881E+03  0.13106580769E+03  0.41800000000E+01 0.  1.
        -11    1    1    2    0    0  0.21125303565E+02  0.10227959716E+02 -0.90435974551E+02  0.93432088191E+02  0.00000000000E+00 0. -1.
         11    1    1    2    0    0 -0.26888504257E+02 -0.43661396358E+02 -0.24423567465E+02  0.56796301295E+02  0.00000000000E+00 0.  1.
</event>
<event>
 7    1  0.1312490E-005  0.4421931E+02  0.7561462E-02  0.1479275E+00
          2   -1    0    0  501    0  0.00000000000E+00  0.00000000000E+00  0.18541425140E+03  0.18541425140E+03  0.00000000000E+00 0. -1.
         -2   -1    0    0    0  501 -0.00000000000E+00 -0.00000000000E+00 -0.46298857811E+02  0.46298857811E+02  0.00000000000E+00 0.  1.
         23    2    1    2    0    0 -0.36515733902E+00  0.38551355952E+02  0.47168340968E+02  0.13112541274E+03  0.11611494775E+03 0.  0.
          5    1    3    3  502    0 -0.35222962951E+01  0.41722971633E+02  0.83913701734E+02  0.93873290513E+02  0.41800000000E+01 0. -1.
         -5    1    3    3    0  502  0.31571389561E+01 -0.31716156811E+01 -0.36745360766E+02  0.37252122224E+02  0.41800000000E+01 0.  1.
        -11    1    1    2    0    0  0.51083466790E+01 -0.93782546213E+01  0.17673826770E+02  0.20649721989E+02  0.00000000000E+00 0.  1.
         11    1    1    2    0    0 -0.47431893400E+01 -0.29173101331E+02  0.74273225846E+02  0.79937974480E+02  0.00000000000E+00 0. -1.
</event>
<event>
 7    1  0.1312490E-005  0.1091759E+03  0.7561462E-02  0.1262104E+00
          2   -1    0    0  501    0  0.00000000000E+00  0.00000000000E+00  0.74740304429E+03  0.74740304429E+03  0.00000000000E+00 0.  1.
         -2   -1    0    0    0  501 -0.00000000000E+00 -0.00000000000E+00 -0.19927854032E+02  0.19927854032E+02  0.00000000000E+00 0. -1.
         23    2    1    2    0    0 -0.28220185044E+02  0.32392143062E+02  0.38299584659E+03  0.40519064426E+03  0.12509200580E+03 0.  0.
          5    1    3    3  502    0 -0.21375229478E+02  0.79132397260E+02  0.28038976283E+03  0.29215531525E+03  0.41800000000E+01 0.  1.
         -5    1    3    3    0  502 -0.68449555659E+01 -0.46740254198E+02  0.10260608376E+03  0.11303532901E+03  0.41800000000E+01 0.  1.
        -11    1    1    2    0    0  0.45447488089E+02 -0.47644618868E+02  0.32612978285E+03  0.33271026306E+03  0.00000000000E+00 0.  1.
         11    1    1    2    0    0 -0.17227303045E+02  0.15252475806E+02  0.18349560820E+02  0.29429991008E+02  0.00000000000E+00 0. -1.
</event>
<event>
 7    1  0.1312490E-005  0.1042310E+03  0.7561462E-02  0.1271642E+00
          2   -1    0    0  501    0  0.00000000000E+00  0.00000000000E+00  0.33789884366E+03  0.33789884366E+03  0.00000000000E+00 0. -1.
         -2   -1    0    0    0  501 -0.00000000000E+00 -0.00000000000E+00 -0.55479397698E+02  0.55479397698E+02  0.00000000000E+00 0.  1.
         23    2    1    2    0    0 -0.67331015175E+02  0.43149991505E+02  0.12931590160E+03  0.19688559239E+03  0.12508375879E+03 0.  0.
          5    1    3    3  502    0 -0.97617805443E+01  0.65206302453E+02  0.11627524999E+03  0.13373316866E+03  0.41800000000E+01 0.  1.
         -5    1    3    3    0  502 -0.57569234631E+02 -0.22056310948E+02  0.13040651603E+02  0.63152423729E+02  0.41800000000E+01 0.  1.
        -11    1    1    2    0    0  0.42771438505E+02 -0.21526037358E+02  0.15643667846E+03  0.16360073534E+03  0.00000000000E+00 0. -1.
         11    1    1    2    0    0  0.24559576670E+02 -0.21623954148E+02 -0.33331340955E+01  0.32891913628E+02  0.00000000000E+00 0.  1.
</event>
<event>
 7    1  0.1312490E-005  0.1177608E+03  0.7561462E-02  0.1246837E+00
          2   -1    0    0  501    0  0.00000000000E+00  0.00000000000E+00  0.42298399626E+03  0.42298399626E+03  0.00000000000E+00 0.  1.
         -2   -1    0    0    0  501 -0.00000000000E+00 -0.00000000000E+00 -0.37080732936E+02  0.37080732936E+02  0.00000000000E+00 0. -1.
         23    2    1    2    0    0 -0.49799507861E+02 -0.20839737780E+02  0.16307451209E+03  0.21249958674E+03  0.12509393358E+03 0.  0.
          5    1    3    3  502    0  0.37947159986E+02  0.18398176344E+01  0.20140893400E+02  0.43203007614E+02  0.41800000000E+01 0.  1.
         -5    1    3    3    0  502 -0.87746667847E+02 -0.22679555414E+02  0.14293361869E+03  0.16929657913E+03  0.41800000000E+01 0.  1.
        -11    1    1    2    0    0  0.56588683476E+02  0.50683511087E+02  0.17505744886E+03  0.19083031152E+03  0.00000000000E+00 0.  1.
         11    1    1    2    0    0 -0.67891756151E+01 -0.29843773307E+02  0.47771302369E+02  0.56734830931E+02  0.00000000000E+00 0. -1.
</event>
<event>
 7    1  0.1312490E-005  0.1926477E+03  0.7561462E-02  0.1156095E+00
         -1   -1    0    0    0  501 -0.00000000000E+00  0.00000000000E+00  0.30128526199E+02  0.30128526199E+02  0.00000000000E+00 0.  1.
          1   -1    0    0  501    0  0.00000000000E+00 -0.00000000000E+00 -0.12691210143E+04  0.12691210143E+04  0.00000000000E+00 0. -1.
         23    2    1    2    0    0 -0.14239130532E+03  0.74681320959E+02 -0.62378160821E+03  0.65620326969E+03  0.12508658154E+03 0.  0.
          5    1    3    3  502    0 -0.41767132795E+02  0.92332644532E+02 -0.31723946216E+03  0.33305879268E+03  0.41800000000E+01 0. -1.
         -5    1    3    3    0  502 -0.10062417252E+03 -0.17651323573E+02 -0.30654214605E+03  0.32314447702E+03  0.41800000000E+01 0. -1.
        -11    1    1    2    0    0  0.11118659013E+03 -0.93420920399E+02 -0.54428071501E+03  0.56332177565E+03  0.00000000000E+00 0.  1.
         11    1    1    2    0    0  0.31204715189E+02  0.18739599440E+02 -0.70930164860E+02  0.79724495134E+02  0.00000000000E+00 0. -1.
</event>
<event>
 7    1  0.1312490E-005  0.1730178E+03  0.7561462E-02  0.1174737E+00
         -1   -1    0    0    0  501 -0.00000000000E+00  0.00000000000E+00  0.72684431762E+02  0.72684431762E+02  0.00000000000E+00 0. -1.
          1   -1    0    0  501    0  0.00000000000E+00 -0.00000000000E+00 -0.68069039314E+03  0.68069039314E+03  0.00000000000E+00 0.  1.
         23    2    1    2    0    0  0.12369304643E+03 -0.56080677839E+02 -0.80980539041E+02  0.20163084717E+03  0.12510850757E+03 0.  0.
          5    1    3    3  502    0 -0.22076532240E+02  0.99458717089E+01 -0.11099118176E+02  0.26962130185E+02  0.41800000000E+01 0. -1.
         -5    1    3    3    0  502  0.14576957867E+03 -0.66026549548E+02 -0.69881420865E+02  0.17466871699E+03  0.41800000000E+01 0. -1.
        -11    1    1    2    0    0 -0.26161845784E+02  0.58220973470E+02 -0.16853545294E+03  0.18021743207E+03  0.00000000000E+00 0.  1.
         11    1    1    2    0    0 -0.97531200651E+02 -0.21402956311E+01 -0.35848996940E+03  0.37152654565E+03  0.00000000000E+00 0. -1.
</event>
<event>
 7    1  0.1312490E-005  0.1044148E+03  0.7561462E-02  0.1271277E+00
         -1   -1    0    0    0  501 -0.00000000000E+00  0.00000000000E+00  0.86587333434E+02  0.86587333434E+02  0.00000000000E+00 0.  1.
          1   -1    0    0  501    0  0.00000000000E+00 -0.00000000000E+00 -0.13789087605E+03  0.13789087605E+03  0.00000000000E+00 0. -1.
         23    2    1    2    0    0 -0.15336116878E+02  0.12642018812E+02 -0.14345787875E+02  0.12747279792E+03  0.12509394653E+03 0.  0.
          5    1    3    3  502    0 -0.70056837165E+02  0.83301846839E+01 -0.36120406634E+00  0.70674997551E+02  0.41800000000E+01 0.  1.
         -5    1    3    3    0  502  0.54720720287E+02  0.43118341285E+01 -0.13984583809E+02  0.56797800368E+02  0.41800000000E+01 0.  1.
        -11    1    1    2    0    0  0.17204839193E+02 -0.46301601724E+02 -0.39431227809E+02  0.63203374438E+02  0.00000000000E+00 0. -1.
         11    1    1    2    0    0 -0.18687223150E+01  0.33659582911E+02  0.24734730684E+01  0.33802037126E+02  0.00000000000E+00 0.  1.
</event>
<event>
 7    1  0.1312490E-005  0.1414446E+03  0.7561462E-02  0.1211398E+00
         -1   -1    0    0    0  501 -0.00000000000E+00  0.00000000000E+00  0.39843277005E+02  0.39843277005E+02  0.00000000000E+00 0.  1.
          1   -1    0    0  501    0  0.00000000000E+00 -0.00000000000E+00 -0.67972478816E+03  0.67972478816E+03  0.00000000000E+00 0. -1.
         23    2    1    2    0    0  0.11893457863E+03 -0.13007077629E+02 -0.27700888647E+03  0.32664704907E+03  0.12509897449E+03 0.  0.
          5    1    3    3  502    0  0.13937064873E+03 -0.20103745814E+02 -0.26814307080E+03  0.30289687542E+03  0.41800000000E+01 0. -1.
         -5    1    3    3    0  502 -0.20436070102E+02  0.70966681850E+01 -0.88658156714E+01  0.23750173643E+02  0.41800000000E+01 0. -1.
        -11    1    1    2    0    0 -0.29922870677E+02 -0.63503729011E+00 -0.14801142947E+02  0.33389448849E+02  0.00000000000E+00 0.  1.
         11    1    1    2    0    0 -0.89011707949E+02  0.13642114919E+02 -0.34807148173E+03  0.35953156725E+03  0.00000000000E+00 0. -1.
</event>
<event>
 7    1  0.1312490E-005  0.1120572E+03  0.7561462E-02  0.1256807E+00
         -2   -1    0    0    0  501 -0.00000000000E+00  0.00000000000E+00  0.14980673587E+03  0.14980673587E+03  0.00000000000E+00 0.  1.
          2   -1    0    0  501    0  0.00000000000E+00 -0.00000000000E+00 -0.11806572635E+03  0.11806572635E+03  0.00000000000E+00 0. -1.
         23    2    1    2    0    0 -0.51316688024E+02  0.61723089105E+02  0.44526557119E+02  0.14547188639E+03  0.11285527565E+03 0.  0.
          5    1    3    3  502    0 -0.70855956242E+02  0.65242143601E+02 -0.14533009756E+00  0.96408492144E+02  0.41800000000E+01 0. -1.
         -5    1    3    3    0  502  0.19539268218E+02 -0.35190544958E+01  0.44671887217E+02  0.49063394242E+02  0.41800000000E+01 0.  1.
        -11    1    1    2    0    0  0.51988520748E+02 -0.67327808732E+01  0.22513134850E+02  0.57052413346E+02  0.00000000000E+00 0.  1.
         11    1    1    2    0    0 -0.67183272406E+00 -0.54990308232E+02 -0.35298682443E+02  0.65348162490E+02  0.00000000000E+00 0. -1.
</event>
<event>
 7    1  0.1312490E-005  0.1486861E+03  0.7561462E-02  0.1202097E+00
          2   -1    0    0  501    0  0.00000000000E+00  0.00000000000E+00  0.35527676066E+03  0.35527676066E+03  0.00000000000E+00 0. -1.
         -2   -1    0    0    0  501 -0.00000000000E+00 -0.00000000000E+00 -0.73413939574E+02  0.73413939574E+02  0.00000000000E+00 0.  1.
         23    2    1    2    0    0 -0.17346852596E+02  0.10586938725E+03  0.80207225206E+02  0.18327318135E+03  0.12508644841E+03 0.  0.
          5    1    3    3  502    0  0.46390541410E+02  0.11685570957E+02  0.40258583878E+02  0.62664670084E+02  0.41800000000E+01 0. -1.
         -5    1    3    3    0  502 -0.63737394005E+02  0.94183816292E+02  0.39948641328E+02  0.12060851127E+03  0.41800000000E+01 0. -1.
        -11    1    1    2    0    0  0.38743442379E+02 -0.10732497673E+03  0.18823494273E+03  0.22011837411E+03  0.00000000000E+00 0. -1.
         11    1    1    2    0    0 -0.21396589783E+02  0.14555894783E+01  0.13420653143E+02  0.25299144765E+02  0.00000000000E+00 0.  1.
</event>
<event>
 7    1  0.1312490E-005  0.1626646E+03  0.7561462E-02  0.1185721E+00
         -2   -1    0    0    0  501 -0.00000000000E+00  0.00000000000E+00  0.41978352041E+02  0.41978352041E+02  0.00000000000E+00 0.  1.
          2   -1    0    0  501    0  0.00000000000E+00 -0.00000000000E+00 -0.73041762918E+03  0.73041762918E+03  0.00000000000E+00 0. -1.
         23    2    1    2    0    0 -0.12411279394E+02  0.13647979164E+03 -0.38453102652E+03  0.42695797729E+03  0.12509288802E+03 0.  0.
          5    1    3    3  502    0  0.42221903440E+02  0.17593803560E+02 -0.16582662450E+03  0.17207025555E+03  0.41800000000E+01 0.  1.
         -5    1    3    3    0  502 -0.54633182833E+02  0.11888598808E+03 -0.21870440202E+03  0.25488772173E+03  0.41800000000E+01 0.  1.
        -11    1    1    2    0    0  0.30730704830E+02 -0.40819837276E+02 -0.42450535520E+02  0.66428030985E+02  0.00000000000E+00 0.  1.
         11    1    1    2    0    0 -0.18319425436E+02 -0.95659954365E+02 -0.26145771510E+03  0.27900997295E+03  0.00000000000E+00 0. -1.
</event>
<event>
 7    1  0.1312490E-005  0.1252225E+03  0.7561462E-02  0.1234722E+00
          1   -1    0    0  501    0  0.00000000000E+00  0.00000000000E+00  0.51837111168E+03  0.51837111168E+03  0.00000000000E+00 0. -1.
         -1   -1    0    0    0  501 -0.00000000000E+00 -0.00000000000E+00 -0.38088242006E+02  0.38088242006E+02  0.00000000000E+00 0.  1.
         23    2    1    2    0    0 -0.56527581281E+02 -0.60850529988E+02  0.19189829234E+03  0.24366092959E+03  0.12509012574E+03 0.  0.
          5    1    3    3  502    0 -0.89479110635E+02 -0.44005962599E+02  0.87180811492E+02  0.13251793191E+03  0.41800000000E+01 0. -1.
         -5    1    3    3    0  502  0.32951529354E+02 -0.16844567389E+02  0.10471748085E+03  0.11114299768E+03  0.41800000000E+01 0. -1.
        -11    1    1    2    0    0  0.73829883713E+02  0.33589492770E+02  0.24895609659E+03  0.26183629195E+03  0.00000000000E+00 0. -1.
         11    1    1    2    0    0 -0.17302302432E+02  0.27261037218E+02  0.39428480741E+02  0.50962132149E+02  0.00000000000E+00 0.  1.
</event>
<event>
 7    1  0.1312490E-005  0.1106787E+03  0.7561462E-02  0.1259318E+00
         -2   -1    0    0    0  501 -0.00000000000E+00  0.00000000000E+00  0.21015447856E+02  0.21015447856E+02  0.00000000000E+00 0.  1.
          2   -1    0    0  501    0  0.00000000000E+00 -0.00000000000E+00 -0.77425144506E+03  0.77425144506E+03  0.00000000000E+00 0. -1.
         23    2    1    2    0    0  0.48386480121E+02  0.44848235756E+02 -0.36545733600E+03  0.39186568402E+03  0.12508810562E+03 0.  0.
          5    1    3    3  502    0 -0.41168380649E+02  0.11118915795E+02 -0.79793591862E+02  0.90570169239E+02  0.41800000000E+01 0.  1.
         -5    1    3    3    0  502  0.89554860770E+02  0.33729319961E+02 -0.28566374414E+03  0.30129551478E+03  0.41800000000E+01 0.  1.
        -11    1    1    2    0    0 -0.56434277245E+02 -0.25816892020E+02 -0.37267465229E+03  0.37780647959E+03  0.00000000000E+00 0. -1.
         11    1    1    2    0    0  0.80477971245E+01 -0.19031343736E+02 -0.15104008916E+02  0.25594729307E+02  0.00000000000E+00 0.  1.
</event>
<event>
 7    1  0.1312490E-005  0.1827063E+03  0.7561462E-02  0.1165209E+00
          1   -1    0    0  501    0  0.00000000000E+00  0.00000000000E+00  0.59374687497E+02  0.59374687497E+02  0.00000000000E+00 0. -1.
         -1   -1    0    0    0  501 -0.00000000000E+00 -0.00000000000E+00 -0.62144204519E+03  0.62144204519E+03  0.00000000000E+00 0.  1.
         23    2    1    2    0    0  0.11119083290E+03 -0.10220957611E+03 -0.38082468138E+03  0.42838563020E+03  0.12520627558E+03 0.  0.
          5    1    3    3  502    0  0.73610428558E+02  0.92236719651E+01 -0.19222762780E+03  0.20608858437E+03  0.41800000000E+01 0.  1.
         -5    1    3    3    0  502  0.37580404343E+02 -0.11143324807E+03 -0.18859705358E+03  0.22229704583E+03  0.41800000000E+01 0.  1.
        -11    1    1    2    0    0 -0.66609917856E+02  0.53692031920E+01 -0.50667341597E+02  0.83862321720E+02  0.00000000000E+00 0. -1.
         11    1    1    2    0    0 -0.44580915045E+02  0.96840372918E+02 -0.13057533472E+03  0.16856878077E+03  0.00000000000E+00 0.  1.
</event>
<event>
 7    1  0.1312490E-005  0.1322412E+03  0.7561462E-02  0.1224168E+00
          2   -1    0    0  501    0  0.00000000000E+00  0.00000000000E+00  0.58206904113E+03  0.58206904113E+03  0.00000000000E+00 0. -1.
         -2   -1    0    0    0  501 -0.00000000000E+00 -0.00000000000E+00 -0.39851674363E+02  0.39851674363E+02  0.00000000000E+00 0.  1.
         23    2    1    2    0    0 -0.68252462210E+02 -0.74183556052E+02  0.21837502020E+03  0.27110138179E+03  0.12508681456E+03 0.  0.
          5    1    3    3  502    0 -0.54819902824E+02  0.24610769294E+02  0.93963736768E+02  0.11161347561E+03  0.41800000000E+01 0. -1.
         -5    1    3    3    0  502 -0.13432559386E+02 -0.98794325346E+02  0.12441128344E+03  0.15948790618E+03  0.41800000000E+01 0. -1.
        -11    1    1    2    0    0  0.38274563284E+02  0.60293400657E+02  0.30400754791E+03  0.31228324570E+03  0.00000000000E+00 0. -1.
         11    1    1    2    0    0  0.29977898926E+02  0.13890155395E+02  0.19834798658E+02  0.38536088005E+02  0.00000000000E+00 0.  1.
</event>
<event>
 7    1  0.1312490E-005  0.1165745E+03  0.7561462E-02  0.1248857E+00
          1   -1    0    0  501    0  0.00000000000E+00  0.00000000000E+00  0.91969264121E+02  0.91969264121E+02  0.00000000000E+00 0. -1.
         -1   -1    0    0    0  501 -0.00000000000E+00 -0.00000000000E+00 -0.22149837807E+03  0.22149837807E+03  0.00000000000E+00 0.  1.
         23    2    1    2    0    0  0.24548638609E+02  0.55439553560E+02 -0.14836753522E+03  0.20331418600E+03  0.12509017934E+03 0.  0.
          5    1    3    3  502    0 -0.43739378386E+02  0.21934839210E+02 -0.17968189854E+02  0.52293390016E+02  0.41800000000E+01 0. -1.
         -5    1    3    3    0  502  0.68288016994E+02  0.33504714350E+02 -0.13039934537E+03  0.15102079599E+03  0.41800000000E+01 0. -1.
        -11    1    1    2    0    0  0.31441846002E+02 -0.37777550092E+02  0.14683062378E+02  0.51296445215E+02  0.00000000000E+00 0. -1.
         11    1    1    2    0    0 -0.55990484610E+02 -0.17662003468E+02  0.41553588902E+01  0.58857010975E+02  0.00000000000E+00 0.  1.
</event>
<event>
 7    1  0.1312490E-005  0.1703471E+03  0.7561462E-02  0.1177486E+00
          1   -1    0    0  501    0  0.00000000000E+00  0.00000000000E+00  0.72104883654E+03  0.72104883654E+03  0.00000000000E+00 0. -1.
         -1   -1    0    0    0  501 -0.00000000000E+00 -0.00000000000E+00 -0.61219081053E+02  0.61219081053E+02  0.00000000000E+00 0.  1.
         23    2    1    2    0    0 -0.12464782890E+03  0.46685158818E+02  0.11945015153E+03  0.21823947169E+03  0.12507415000E+03 0.  0.
          5    1    3    3  502    0 -0.14268029615E+03  0.64621799627E+02  0.99072310770E+02  0.18538187359E+03  0.41800000000E+01 0. -1.
         -5    1    3    3    0  502  0.18032467244E+02 -0.17936640809E+02  0.20377840764E+02  0.32857598096E+02  0.41800000000E+01 0. -1.
        -11    1    1    2    0    0 -0.95867570166E+01 -0.18839690652E+02  0.40421556226E+02  0.45615151669E+02  0.00000000000E+00 0.  1.
         11    1    1    2    0    0  0.13423458592E+03 -0.27845468165E+02  0.49995804773E+03  0.51841329423E+03  0.00000000000E+00 0. -1.
</event>
<event>
 7    1  0.1312490E-005  0.1888905E+03  0.7561462E-02  0.1159466E+00
         -3   -1    0    0    0  501 -0.00000000000E+00  0.00000000000E+00  0.12386247800E+03  0.12386247800E+03  0.00000000000E+00 0.  1.
          3   -1    0    0  501    0  0.00000000000E+00 -0.00000000000E+00 -0.48626585723E+03  0.48626585723E+03  0.00000000000E+00 0. -1.
         23    2    1    2    0    0  0.12143017543E+03  0.98204155660E+02  0.54193584724E+01  0.20016935697E+03  0.12509619631E+03 0.  0.
          5    1    3    3  502    0  0.13988281426E+03  0.50525670524E+02  0.50577458721E+01  0.14887275876E+03  0.41800000000E+01 0. -1.
         -5    1    3    3    0  502 -0.18452638829E+02  0.47678485136E+02  0.36161260037E+00  0.51296598213E+02  0.41800000000E+01 0. -1.
        -11    1    1    2    0    0 -0.82363908473E+02 -0.10951279168E+03 -0.24685054244E+03  0.28233323443E+03  0.00000000000E+00 0. -1.
         11    1    1    2    0    0 -0.39066266959E+02  0.11308636025E+02 -0.12097219526E+03  0.12762574383E+03  0.00000000000E+00 0.  1.
</event>
<event>
 7    1  0.1312490E-005  0.1112793E+03  0.7561462E-02  0.1258219E+00
         -2   -1    0    0    0  501 -0.00000000000E+00  0.00000000000E+00  0.20307515715E+02  0.20307515715E+02  0.00000000000E+00 0.  1.
          2   -1    0    0  501    0  0.00000000000E+00 -0.00000000000E+00 -0.75852436035E+03  0.75852436035E+03  0.00000000000E+00 0. -1.
         23    2    1    2    0    0 -0.15509099896E+02  0.49842050093E+02 -0.33834742318E+03  0.36448487173E+03  0.12508189640E+03 0.  0.
          5    1    3    3  502    0  0.38799560338E+02  0.50273109147E+02 -0.26833323172E+03  0.27577706038E+03  0.41800000000E+01 0.  1.
         -5    1    3    3    0  502 -0.54308660234E+02 -0.43105905413E+00 -0.70014191459E+02  0.88707811348E+02  0.41800000000E+01 0.  1.
        -11    1    1    2    0    0 -0.38083398448E+02 -0.18192230243E+02 -0.10884276049E+03  0.11673923501E+03  0.00000000000E+00 0.  1.
         11    1    1    2    0    0  0.53592498344E+02 -0.31649819850E+02 -0.29102666097E+03  0.29760776933E+03  0.00000000000E+00 0. -1.
</event>
<event>
 7    1  0.1312490E-005  0.2052929E+03  0.7561462E-02  0.1145349E+00
          2   -1    0    0  501    0  0.00000000000E+00  0.00000000000E+00  0.23523861962E+03  0.23523861962E+03  0.00000000000E+00 0. -1.
         -2   -1    0    0    0  501 -0.00000000000E+00 -0.00000000000E+00 -0.24755280939E+03  0.24755280939E+03  0.00000000000E+00 0.  1.
         23    2    1    2    0    0 -0.15535942096E+03  0.12582485955E+03 -0.86279650577E+02  0.25111699644E+03  0.12508846004E+03 0.  0.
          5    1    3    3  502    0 -0.65893899274E+02  0.15348509551E+02 -0.85220925459E+02  0.10889288885E+03  0.41800000000E+01 0. -1.
         -5    1    3    3    0  502 -0.89465521683E+02  0.11047635000E+03 -0.10587251174E+01  0.14222410759E+03  0.41800000000E+01 0. -1.
        -11    1    1    2    0    0  0.80454306316E+02 -0.54722476423E+02  0.83148952631E+02  0.12798903529E+03  0.00000000000E+00 0. -1.
         11    1    1    2    0    0  0.74905114641E+02 -0.71102383129E+02 -0.91834918290E+01  0.10368539728E+03  0.00000000000E+00 0.  1.
</event>
<event>
 7    1  0.1312490E-005  0.1145751E+03  0.7561462E-02  0.1252325E+00
          3   -1    0    0  501    0  0.00000000000E+00  0.00000000000E+00  0.47742695518E+02  0.47742695518E+02  0.00000000000E+00 0. -1.
         -3   -1    0    0    0  501 -0.00000000000E+00 -0.00000000000E+00 -0.31520092095E+03  0.31520092095E+03  0.00000000000E+00 0.  1.
         23    2    1    2    0    0  0.37636499145E+02  0.20171432310E+02 -0.20887085708E+03  0.24717987130E+03  0.12508981208E+03 0.  0.
          5    1    3    3  502    0 -0.66939382913E+01 -0.48793959287E+02 -0.90696771658E+02  0.10329102605E+03  0.41800000000E+01 0.  1.
         -5    1    3    3    0  502  0.44330437436E+02  0.68965391596E+02 -0.11817408542E+03  0.14388884525E+03  0.41800000000E+01 0.  1.
        -11    1    1    2    0    0 -0.26161147805E+01  0.33469005543E+02 -0.32084829618E+02  0.46437642923E+02  0.00000000000E+00 0.  1.
         11    1    1    2    0    0 -0.35020384364E+02 -0.53640437853E+02 -0.26502538736E+02  0.69326102252E+02  0.00000000000E+00 0. -1.
</event>
<event>
 7    1  0.1312490E-005  0.1165761E+03  0.7561462E-02  0.1248855E+00
         -1   -1    0    0    0  501 -0.00000000000E+00  0.00000000000E+00  0.21015670715E+02  0.21015670715E+02  0.00000000000E+00 0.  1.
          1   -1    0    0  501    0  0.00000000000E+00 -0.00000000000E+00 -0.86109244470E+03  0.86109244470E+03  0.00000000000E+00 0. -1.
         23    2    1    2    0    0 -0.67653904585E+02 -0.36787584494E+02 -0.38221754622E+03  0.40947351964E+03  0.12509170025E+03 0.  0.
          5    1    3    3  502    0  0.18209941828E+02 -0.21718970962E+02 -0.15621342979E+02  0.32631494563E+02  0.41800000000E+01 0. -1.
         -5    1    3    3    0  502 -0.85863846413E+02 -0.15068613532E+02 -0.36659620324E+03  0.37684202508E+03  0.41800000000E+01 0. -1.
        -11    1    1    2    0    0  0.84840312924E+02  0.10038580673E+02 -0.32911958129E+03  0.34002698509E+03  0.00000000000E+00 0.  1.
         11    1    1    2    0    0 -0.17186408339E+02  0.26749003821E+02 -0.12873964648E+03  0.13260761069E+03  0.00000000000E+00 0. -1.
</event>
<event>
 7    1  0.1312490E-005  0.8625283E+02  0.7561462E-02  0.1312188E+00
          2   -1    0    0  501    0  0.00000000000E+00  0.00000000000E+00  0.29817666847E+03  0.29817666847E+03  0.00000000000E+00 0.  1.
         -2   -1    0    0    0  501 -0.00000000000E+00 -0.00000000000E+00 -0.51543998291E+02  0.51543998291E+02  0.00000000000E+00 0. -1.
         23    2    1    2    0    0 -0.40750388422E+02  0.39518798596E+02  0.10126367684E+03  0.17065764026E+03  0.12508944134E+03 0.  0.
          5    1    3    3  502    0  0.31960789351E+02  0.41902510071E+01 -0.91338337167E+01  0.33763139336E+02  0.41800000000E+01 0.  1.
         -5    1    3    3    0  502 -0.72711177774E+02  0.35328547588E+02  0.11039751055E+03  0.13689450093E+03  0.41800000000E+01 0.  1.
        -11    1    1    2    0    0  0.19222403820E+02 -0.29734666365E+02  0.15071587119E+03  0.15481900730E+03  0.00000000000E+00 0.  1.
         11    1    1    2    0    0  0.21527984602E+02 -0.97841322301E+01 -0.53468778404E+01  0.24244019204E+02  0.00000000000E+00 0. -1.
</event>
<event>
 7    1  0.1312490E-005  0.1148573E+03  0.7561462E-02  0.1251830E+00
         -2   -1    0    0    0  501 -0.00000000000E+00  0.00000000000E+00  0.66077181649E+02  0.66077181649E+02  0.00000000000E+00 0. -1.
          2   -1    0    0  501    0  0.00000000000E+00 -0.00000000000E+00 -0.36182028797E+03  0.36182028797E+03  0.00000000000E+00 0.  1.
         23    2    1    2    0    0  0.89001219563E+02  0.31881646079E+02 -0.84520146551E+02  0.17812519773E+03  0.12508906608E+03 0.  0.
          5    1    3    3  502    0  0.44650699143E+02 -0.14064290994E+02 -0.10155282785E+03  0.11190146764E+03  0.41800000000E+01 0.  1.
         -5    1    3    3    0  502  0.44350520420E+02  0.45945937073E+02  0.17032681297E+02  0.66223730091E+02  0.41800000000E+01 0.  1.
        -11    1    1    2    0    0 -0.19047062678E+02  0.22958893152E+02 -0.11487226461E+03  0.11868251155E+03  0.00000000000E+00 0.  1.
         11    1    1    2    0    0 -0.69954156885E+02 -0.54840539231E+02 -0.96350695162E+02  0.13108976034E+03  0.00000000000E+00 0. -1.
</event>
<event>
 7    1  0.1312490E-005  0.1048568E+03  0.7561462E-02  0.1270402E+00
         -2   -1    0    0    0  501 -0.00000000000E+00  0.00000000000E+00  0.10534022670E+03  0.10534022670E+03  0.00000000000E+00 0.  1.
          2   -1    0    0  501    0  0.00000000000E+00 -0.00000000000E+00 -0.18797065969E+03  0.18797065969E+03  0.00000000000E+00 0. -1.
         23    2    1    2    0    0  0.68838810486E+02  0.51823984129E+01  0.16465328499E+02  0.14382001298E+03  0.12508976780E+03 0.  0.
          5    1    3    3  502    0 -0.78025084324E+01 -0.44509689352E+02 -0.13917741777E+02  0.47467541754E+02  0.41800000000E+01 0.  1.
         -5    1    3    3    0  502  0.76641318919E+02  0.49692087765E+02  0.30383070276E+02  0.96352471226E+02  0.41800000000E+01 0.  1.
        -11    1    1    2    0    0 -0.15813711151E+02  0.87466516750E+01  0.14622877281E+02  0.23246632355E+02  0.00000000000E+00 0.  1.
         11    1    1    2    0    0 -0.53025099335E+02 -0.13929050088E+02 -0.11371863877E+03  0.12624424105E+03  0.00000000000E+00 0. -1.
</event>
<event>
 7    1  0.1312490E-005  0.1080579E+03  0.7561462E-02  0.1264209E+00
          2   -1    0    0  501    0  0.00000000000E+00  0.00000000000E+00  0.12728978533E+03  0.12728978533E+03  0.00000000000E+00 0. -1.
         -2   -1    0    0    0  501 -0.00000000000E+00 -0.00000000000E+00 -0.10524764115E+03  0.10524764115E+03  0.00000000000E+00 0.  1.
         23    2    1    2    0    0  0.38963960730E+02 -0.40027132629E+00  0.11659778444E+02  0.13153692141E+03  0.12509061039E+03 0.  0.
          5    1    3    3  502    0  0.73528221974E+02 -0.34370271169E+02  0.15521084314E+02  0.82741110853E+02  0.41800000000E+01 0.  1.
         -5    1    3    3    0  502 -0.34564261244E+02  0.33969999843E+02 -0.38613058697E+01  0.48795810555E+02  0.41800000000E+01 0.  1.
        -11    1    1    2    0    0 -0.55085204610E+02  0.21942142947E+02 -0.17926312829E+02  0.61945057072E+02  0.00000000000E+00 0.  1.
         11    1    1    2    0    0  0.16121243881E+02 -0.21541871620E+02  0.28308678564E+02  0.39055448009E+02  0.00000000000E+00 0. -1.
</event>
<event>
 7    1  0.1312490E-005  0.1374500E+03  0.7561462E-02  0.1216802E+00
          2   -1    0    0  501    0  0.00000000000E+00  0.00000000000E+00  0.44546023330E+03  0.44546023330E+03  0.00000000000E+00 0. -1.
         -2   -1    0    0    0  501 -0.00000000000E+00 -0.00000000000E+00 -0.52580897710E+02  0.52580897710E+02  0.00000000000E+00 0.  1.
         23    2    1    2    0    0  0.89478007573E+02 -0.20826493934E+02  0.12018948133E+03  0.19629613722E+03  0.12508639165E+03 0.  0.
          5    1    3    3  502    0  0.89585430028E+02 -0.63402998327E+02  0.69533720672E+02  0.12999192352E+03  0.41800000000E+01 0.  1.
         -5    1    3    3    0  502 -0.10742245521E+00  0.42576504393E+02  0.50655760662E+02  0.66304213698E+02  0.41800000000E+01 0.  1.
        -11    1    1    2    0    0 -0.59739727248E+02  0.52002034232E+02  0.12570646954E+03  0.14857712832E+03  0.00000000000E+00 0.  1.
         11    1    1    2    0    0 -0.29738280324E+02 -0.31175540298E+02  0.14698338472E+03  0.15316786547E+03  0.00000000000E+00 0. -1.
</event>
<event>
 7    1  0.1312490E-005  0.1611251E+03  0.7561462E-02  0.1187432E+00
          2   -1    0    0  501    0  0.00000000000E+00  0.00000000000E+00  0.53759160091E+03  0.53759160091E+03  0.00000000000E+00 0. -1.
         -2   -1    0    0    0  501 -0.00000000000E+00 -0.00000000000E+00 -0.71257771932E+02  0.71257771932E+02  0.00000000000E+00 0.  1.
         23    2    1    2    0    0 -0.95507589719E+02  0.11705245194E+03  0.15291713075E+03  0.24871127037E+03  0.12510264160E+03 0.  0.
          5    1    3    3  502    0 -0.62375351721E+02  0.72424533692E+02  0.11077886857E+02  0.96312977111E+02  0.41800000000E+01 0. -1.
         -5    1    3    3    0  502 -0.33132237998E+02  0.44627918253E+02  0.14183924389E+03  0.15239829326E+03  0.41800000000E+01 0. -1.
        -11    1    1    2    0    0  0.92359353942E+02 -0.52559484784E+02  0.23933444763E+03  0.26186585788E+03  0.00000000000E+00 0. -1.
         11    1    1    2    0    0  0.31482357767E+01 -0.64492967160E+02  0.74082250597E+02  0.98272244582E+02  0.00000000000E+00 0.  1.
</event>
<event>
 7    1  0.1312490E-005  0.8492363E+02  0.7561462E-02  0.1315632E+00
         -4   -1    0    0    0  501 -0.00000000000E+00  0.00000000000E+00  0.20147822750E+03  0.20147822750E+03  0.00000000000E+00 0.  1.
          4   -1    0    0  501    0  0.00000000000E+00 -0.00000000000E+00 -0.66500646854E+02  0.66500646854E+02  0.00000000000E+00 0. -1.
         23    2    1    2    0    0 -0.37449252493E+02 -0.67257033208E+01  0.70537268924E+02  0.14856123616E+03  0.12508898027E+03 0.  0.
          5    1    3    3  502    0 -0.37764771887E+02 -0.59234276276E+02  0.64643415613E+02  0.95556899613E+02  0.41800000000E+01 0. -1.
         -5    1    3    3    0  502  0.31551939335E+00  0.52508572955E+02  0.58938533108E+01  0.53004336550E+02  0.41800000000E+01 0. -1.
        -11    1    1    2    0    0  0.31665683757E+02 -0.65337880907E+01 -0.17119216604E+02  0.36585153980E+02  0.00000000000E+00 0. -1.
         11    1    1    2    0    0  0.57835687367E+01  0.13259491411E+02  0.81559528322E+02  0.82832484207E+02  0.00000000000E+00 0.  1.
</event>
<event>
 7    1  0.1312490E-005  0.1539193E+03  0.7561462E-02  0.1195738E+00
         -2   -1    0    0    0  501 -0.00000000000E+00  0.00000000000E+00  0.36094153388E+03  0.36094153388E+03  0.00000000000E+00 0.  1.
          2   -1    0    0  501    0  0.00000000000E+00 -0.00000000000E+00 -0.10240678599E+03  0.10240678599E+03  0.00000000000E+00 0. -1.
         23    2    1    2    0    0  0.51947237726E+02  0.14427472246E+03  0.18418327293E+03  0.27034272144E+03  0.12509195803E+03 0.  0.
          5    1    3    3  502    0  0.34008439642E+02  0.89680803228E+02  0.22367117763E+02  0.98574747231E+02  0.41800000000E+01 0.  1.
         -5    1    3    3    0  502  0.17938798084E+02  0.54593919229E+02  0.16181615516E+03  0.17176797421E+03  0.41800000000E+01 0.  1.
        -11    1    1    2    0    0 -0.41243041036E+02 -0.91460459518E+02 -0.10404166643E+01  0.10033487208E+03  0.00000000000E+00 0. -1.
         11    1    1    2    0    0 -0.10704196691E+02 -0.52814262940E+02  0.75391891632E+02  0.92670726341E+02  0.00000000000E+00 0.  1.
</event>
<event>
 7    1  0.1312490E-005  0.1037912E+03  0.7561462E-02  0.1272520E+00
         -1   -1    0    0    0  501 -0.00000000000E+00  0.00000000000E+00  0.59930593144E+02  0.59930593144E+02  0.00000000000E+00 0.  1.
          1   -1    0    0  501    0  0.00000000000E+00 -0.00000000000E+00 -0.22669084164E+03  0.22669084164E+03  0.00000000000E+00 0. -1.
         23    2    1    2    0    0 -0.80307580132E+01  0.40183073706E+02 -0.77975676780E+02  0.15299538471E+03  0.12509280190E+03 0.  0.
          5    1    3    3  502    0 -0.48968616322E+02 -0.20752729436E+02 -0.13091114908E+02  0.54931328521E+02  0.41800000000E+01 0.  1.
         -5    1    3    3    0  502  0.40937858309E+02  0.60935803141E+02 -0.64884561872E+02  0.98064056191E+02  0.41800000000E+01 0.  1.
        -11    1    1    2    0    0 -0.25668277956E+02 -0.39366557011E+02 -0.10161747574E+02  0.48081674449E+02  0.00000000000E+00 0.  1.
         11    1    1    2    0    0  0.33699035969E+02 -0.81651669503E+00 -0.78622824139E+02  0.85544375621E+02  0.00000000000E+00 0. -1.
</event>
<event>
 7    1  0.1312490E-005  0.1029276E+03  0.7561462E-02  0.1274257E+00
          1   -1    0    0  501    0  0.00000000000E+00  0.00000000000E+00  0.67573325857E+03  0.67573325857E+03  0.00000000000E+00 0. -1.
         -1   -1    0    0    0  501 -0.00000000000E+00 -0.00000000000E+00 -0.17736549084E+02  0.17736549084E+02  0.00000000000E+00 0.  1.
         23    2    1    2    0    0  0.17567911380E+02 -0.85635069267E+01  0.37618481932E+03  0.39691760905E+03  0.12508638987E+03 0.  0.
          5    1    3    3  502    0 -0.39274136748E+02 -0.36733027570E+02  0.24842646697E+03  0.25421438792E+03  0.41800000000E+01 0.  1.
         -5    1    3    3    0  502  0.56842048128E+02  0.28169520643E+02  0.12775835234E+03  0.14270322113E+03  0.41800000000E+01 0.  1.
        -11    1    1    2    0    0 -0.46584483842E+02 -0.17080055478E+02  0.11398742855E+03  0.12431804494E+03  0.00000000000E+00 0.  1.
         11    1    1    2    0    0  0.29016572462E+02  0.25643562404E+02  0.16782446161E+03  0.17223415366E+03  0.00000000000E+00 0. -1.
</event>
<event>
 7    1  0.1312490E-005  0.9115096E+02  0.7561462E-02  0.1300088E+00
         -2   -1    0    0    0  501 -0.00000000000E+00  0.00000000000E+00  0.97277717102E+02  0.97277717102E+02  0.00000000000E+00 0.  1.
          2   -1    0    0  501    0  0.00000000000E+00 -0.00000000000E+00 -0.27913703199E+03  0.27913703199E+03  0.00000000000E+00 0. -1.
         23    2    1    2    0    0 -0.23366541125E+02 -0.33649654456E+02  0.35731514529E+02  0.13639574132E+03  0.12509501442E+03 0.  0.
          5    1    3    3  502    0  0.11841705001E+02  0.40952804450E+02  0.32437355954E+02  0.53730928067E+02  0.41800000000E+01 0.  1.
         -5    1    3    3    0  502 -0.35208246126E+02 -0.74602458906E+02  0.32941585748E+01  0.82664813257E+02  0.41800000000E+01 0.  1.
        -11    1    1    2    0    0  0.24698897572E+01  0.35777938854E+02 -0.21599683201E+03  0.21895385976E+03  0.00000000000E+00 0. -1.
         11    1    1    2    0    0  0.20896651368E+02 -0.21282843978E+01 -0.15939974028E+01  0.21065148008E+02  0.00000000000E+00 0.  1.
</event>
<event>
 7    1  0.1312490E-005  0.1013115E+03  0.7561462E-02  0.1277562E+00
         -2   -1    0    0    0  501 -0.00000000000E+00  0.00000000000E+00  0.42044628957E+03  0.42044628957E+03  0.00000000000E+00 0.  1.
          2   -1    0    0  501    0  0.00000000000E+00 -0.00000000000E+00 -0.37763078194E+02  0.37763078194E+02  0.00000000000E+00 0. -1.
         23    2    1    2    0    0 -0.19772014918E+02  0.48508396738E+02  0.27689862543E+03  0.30832493189E+03  0.12508963879E+03 0.  0.
          5    1    3    3  502    0  0.24012417213E+02  0.75312709739E+02  0.12524852974E+03  0.14816634919E+03  0.41800000000E+01 0. -1.
         -5    1    3    3    0  502 -0.43784432131E+02 -0.26804313002E+02  0.15165009568E+03  0.16015858270E+03  0.41800000000E+01 0. -1.
        -11    1    1    2    0    0  0.24264258317E+02 -0.10505748333E+01  0.98756610334E+02  0.10169919382E+03  0.00000000000E+00 0.  1.
         11    1    1    2    0    0 -0.44922433985E+01 -0.47457821904E+02  0.70279756164E+01  0.48185242055E+02  0.00000000000E+00 0. -1.
</event>
<event>
 7    1  0.1312490E-005  0.1304026E+03  0.7561462E-02  0.1226860E+00
         -2   -1    0    0    0  501 -0.00000000000E+00  0.00000000000E+00  0.11896261441E+03  0.11896261441E+03  0.00000000000E+00 0.  1.
          2   -1    0    0  501    0  0.00000000000E+00 -0.00000000000E+00 -0.19399926258E+03  0.19399926258E+03  0.00000000000E+00 0. -1.
         23    2    1    2    0    0  0.64761765878E+02 -0.62388173283E+02  0.17673721831E+02  0.15506736586E+03  0.12508859671E+03 0.  0.
          5    1    3    3  502    0  0.80725838300E+02 -0.63491343248E+01 -0.22526129641E+02  0.84153855482E+02  0.41800000000E+01 0. -1.
         -5    1    3    3    0  502 -0.15964072422E+02 -0.56039038959E+02  0.40199851472E+02  0.70913510378E+02  0.41800000000E+01 0. -1.
        -11    1    1    2    0    0 -0.81738878173E+02  0.34643959773E+02 -0.88048199169E+02  0.12503572902E+03  0.00000000000E+00 0. -1.
         11    1    1    2    0    0  0.16977112296E+02  0.27744213510E+02 -0.46621708360E+01  0.32858782115E+02  0.00000000000E+00 0.  1.
</event>
<event>
 7    1  0.1312490E-005  0.1145946E+03  0.7561462E-02  0.1252290E+00
         -1   -1    0    0    0  501 -0.00000000000E+00  0.00000000000E+00  0.47331833240E+02  0.47331833240E+02  0.00000000000E+00 0.  1.
          1   -1    0    0  501    0  0.00000000000E+00 -0.00000000000E+00 -0.39633376999E+03  0.39633376999E+03  0.00000000000E+00 0. -1.
         23    2    1    2    0    0 -0.60229867268E+02 -0.45212409666E+02 -0.13255539045E+03  0.19720358341E+03  0.12508606187E+03 0.  0.
          5    1    3    3  502    0 -0.89509393545E+02 -0.44438746009E+02 -0.13442988520E+03  0.16755775158E+03  0.41800000000E+01 0.  1.
         -5    1    3    3    0  502  0.29279526278E+02 -0.77366365711E+00  0.18744947467E+01  0.29645831833E+02  0.41800000000E+01 0.  1.
        -11    1    1    2    0    0  0.56993437601E+02  0.28172067420E+01 -0.54071519873E+02  0.78612453497E+02  0.00000000000E+00 0.  1.
         11    1    1    2    0    0  0.32364296665E+01  0.42395202924E+02 -0.16237502643E+03  0.16784956632E+03  0.00000000000E+00 0. -1.
</event>
<event>
 7    1  0.1312490E-005  0.1376074E+03  0.7561462E-02  0.1216585E+00
          1   -1    0    0  501    0  0.00000000000E+00  0.00000000000E+00  0.52239064317E+03  0.52239064317E+03  0.00000000000E+00 0. -1.
         -1   -1    0    0    0  501 -0.00000000000E+00 -0.00000000000E+00 -0.44726255511E+02  0.44726255511E+02  0.00000000000E+00 0.  1.
         23    2    1    2    0    0  0.94911228738E+02 -0.49676190992E+02  0.19478392632E+03  0.25507835030E+03  0.12509325141E+03 0.  0.
          5    1    3    3  502    0  0.79671551759E+02  0.23918403957E+02  0.13639556560E+03  0.15981510856E+03  0.41800000000E+01 0. -1.
         -5    1    3    3    0  502  0.15239676979E+02 -0.73594594949E+02  0.58388360723E+02  0.95263241746E+02  0.41800000000E+01 0. -1.
        -11    1    1    2    0    0 -0.15220627711E+02  0.31399150770E+02  0.29172248486E+02  0.45481801402E+02  0.00000000000E+00 0.  1.
         11    1    1    2    0    0 -0.79690601027E+02  0.18277040222E+02  0.25370821285E+03  0.26655674698E+03  0.00000000000E+00 0. -1.
</event>
<event>
 7    1  0.1312490E-005  0.1130948E+03  0.7561462E-02  0.1254944E+00
          2   -1    0    0  501    0  0.00000000000E+00  0.00000000000E+00  0.46402540784E+03  0.46402540784E+03  0.00000000000E+00 0. -1.
         -2   -1    0    0    0  501 -0.00000000000E+00 -0.00000000000E+00 -0.36995075014E+02  0.36995075014E+02  0.00000000000E+00 0.  1.
         23    2    1    2    0    0 -0.12759596701E+02  0.45682755714E+02  0.12956381684E+03  0.18623679587E+03  0.12509052732E+03 0.  0.
          5    1    3    3  502    0  0.47663847759E+01  0.83046885157E+02  0.11557734397E+03  0.14246086620E+03  0.41800000000E+01 0. -1.
         -5    1    3    3    0  502 -0.17525981477E+02 -0.37364129443E+02  0.13986472871E+02  0.43775929678E+02  0.41800000000E+01 0. -1.
        -11    1    1    2    0    0  0.49164998323E+02 -0.94663163685E+01  0.17409879544E+03  0.18115517873E+03  0.00000000000E+00 0.  1.
         11    1    1    2    0    0 -0.36405401622E+02 -0.36216439345E+02  0.12336772054E+03  0.13362850826E+03  0.00000000000E+00 0. -1.
</event>
<event>
 7    1  0.1312490E-005  0.1112961E+03  0.7561462E-02  0.1258188E+00
         -1   -1    0    0    0  501 -0.00000000000E+00  0.00000000000E+00  0.18976259763E+03  0.18976259763E+03  0.00000000000E+00 0. -1.
          1   -1    0    0  501    0  0.00000000000E+00 -0.00000000000E+00 -0.91313920204E+02  0.91313920204E+02  0.00000000000E+00 0.  1.
         23    2    1    2    0    0 -0.45285674054E+02  0.44527467904E+02  0.97389717635E+02  0.17077988847E+03  0.12509006968E+03 0.  0.
          5    1    3    3  502    0 -0.81388445966E+02 -0.15633397731E+01  0.59491528546E+02  0.10091202870E+03  0.41800000000E+01 0.  1.
         -5    1    3    3    0  502  0.36102771912E+02  0.46090807677E+02  0.37898189089E+02  0.69867859766E+02  0.41800000000E+01 0.  1.
        -11    1    1    2    0    0 -0.11880011420E+02 -0.10524421882E+02  0.32919377536E+02  0.36545636465E+02  0.00000000000E+00 0. -1.
         11    1    1    2    0    0  0.57165685474E+02 -0.34003046022E+02 -0.31860417746E+02  0.73750992898E+02  0.00000000000E+00 0.  1.
</event>
<event>
 7    1  0.1312490E-005  0.1219549E+03  0.7561462E-02  0.1239907E+00
          1   -1    0    0  501    0  0.00000000000E+00  0.00000000000E+00  0.25424650591E+03  0.25424650591E+03  0.00000000000E+00 0. -1.
         -1   -1    0    0    0  501 -0.00000000000E+00 -0.00000000000E+00 -0.62430460009E+02  0.62430460009E+02  0.00000000000E+00 0.  1.
         23    2    1    2    0    0  0.39818034008E+02 -0.41539595476E+02  0.76749328566E+02  0.15763610780E+03  0.12509064403E+03 0.  0.
          5    1    3    3  502    0  0.82543645714E+02 -0.89236025366E+01  0.53933829517E+02  0.99092958863E+02  0.41800000000E+01 0. -1.
         -5    1    3    3    0  502 -0.42725611705E+02 -0.32615992940E+02  0.22815499049E+02  0.58543148940E+02  0.41800000000E+01 0. -1.
        -11    1    1    2    0    0  0.13080949999E+02  0.51414870046E+02  0.75373699707E+02  0.92172635430E+02  0.00000000000E+00 0. -1.
         11    1    1    2    0    0 -0.52898984007E+02 -0.98752745696E+01  0.39693017633E+02  0.66868222689E+02  0.00000000000E+00 0.  1.
</event>
<event>
 7    1  0.1312490E-005  0.9075150E+02  0.7561462E-02  0.1301042E+00
          2   -1    0    0  501    0  0.00000000000E+00  0.00000000000E+00  0.57604801475E+02  0.57604801475E+02  0.00000000000E+00 0.  1.
         -2   -1    0    0    0  501 -0.00000000000E+00 -0.00000000000E+00 -0.33540510999E+03  0.33540510999E+03  0.00000000000E+00 0. -1.
         23    2    1    2    0    0  0.70955933108E+02  0.30951590290E+02 -0.20634386438E+03  0.25341508806E+03  0.12509464859E+03 0.  0.
          5    1    3    3  502    0  0.75245969348E+02  0.20335374025E+02 -0.22098395480E+03  0.23436480968E+03  0.41800000000E+01 0.  1.
         -5    1    3    3    0  502 -0.42900362402E+01  0.10616216265E+02  0.14640090421E+02  0.19050278378E+02  0.41800000000E+01 0.  1.
        -11    1    1    2    0    0 -0.61618202744E+02 -0.43636808693E+02 -0.88536694261E+02  0.11636030342E+03  0.00000000000E+00 0. -1.
         11    1    1    2    0    0 -0.93377303642E+01  0.12685218403E+02  0.17080250124E+02  0.23234519977E+02  0.00000000000E+00 0.  1.
</event>
<event>
 7    1  0.1312490E-005  0.1563275E+03  0.7561462E-02  0.1192907E+00
         -4   -1    0    0    0  501 -0.00000000000E+00  0.00000000000E+00  0.55454474276E+02  0.55454474276E+02  0.00000000000E+00 0. -1.
          4   -1    0    0  501    0  0.00000000000E+00 -0.00000000000E+00 -0.61430374827E+03  0.61430374827E+03  0.00000000000E+00 0.  1.
         23    2    1    2    0    0 -0.10320087862E+03  0.61858559050E+02 -0.13467787275E+03  0.21969174119E+03  0.12509767808E+03 0.  0.
          5    1    3    3  502    0 -0.36126854903E+01  0.68503106566E+02 -0.81204638981E+02  0.10638323598E+03  0.41800000000E+01 0.  1.
         -5    1    3    3    0  502 -0.99588193131E+02 -0.66445475163E+01 -0.53473233773E+02  0.11330850521E+03  0.41800000000E+01 0.  1.
        -11    1    1    2    0    0 -0.79061853877E+01 -0.26163829528E+02 -0.14385017768E+03  0.14642379370E+03  0.00000000000E+00 0.  1.
         11    1    1    2    0    0  0.11110706401E+03 -0.35694729522E+02 -0.28032122356E+03  0.30364268766E+03  0.00000000000E+00 0. -1.
</event>
<event>
 7    1  0.1312490E-005  0.1167651E+03  0.7561462E-02  0.1248531E+00
         -2   -1    0    0    0  501 -0.00000000000E+00  0.00000000000E+00  0.16236707608E+03  0.16236707608E+03  0.00000000000E+00 0.  1.
          2   -1    0    0  501    0  0.00000000000E+00 -0.00000000000E+00 -0.11383629981E+03  0.11383629981E+03  0.00000000000E+00 0. -1.
         23    2    1    2    0    0  0.29332743345E+02  0.52109104083E+02  0.83820755279E+02  0.16201501582E+03  0.12508867965E+03 0.  0.
          5    1    3    3  502    0  0.36672010996E+02  0.91103637517E+02  0.65431128713E+02  0.11808223475E+03  0.41800000000E+01 0.  1.
         -5    1    3    3    0  502 -0.73392676505E+01 -0.38994533434E+02  0.18389626566E+02  0.43932781071E+02  0.41800000000E+01 0.  1.
        -11    1    1    2    0    0 -0.42463059461E+02 -0.90344036148E+00  0.11054093009E+02  0.43887590450E+02  0.00000000000E+00 0.  1.
         11    1    1    2    0    0  0.13130316115E+02 -0.51205663721E+02 -0.46344072018E+02  0.70300769623E+02  0.00000000000E+00 0. -1.
</event>
<event>
 7    1  0.1312490E-005  0.1828573E+03  0.7561462E-02  0.1165066E+00
          1   -1    0    0  501    0  0.00000000000E+00  0.00000000000E+00  0.79503014964E+02  0.79503014964E+02  0.00000000000E+00 0. -1.
         -1   -1    0    0    0  501 -0.00000000000E+00 -0.00000000000E+00 -0.56432715599E+03  0.56432715599E+03  0.00000000000E+00 0.  1.
         23    2    1    2    0    0  0.14690501978E+03  0.19427506972E+02 -0.40759824383E+03  0.45137848989E+03  0.12509076663E+03 0.  0.
          5    1    3    3  502    0 -0.21969525225E+02 -0.29914773312E+01 -0.34727845534E+02  0.41413821735E+02  0.41800000000E+01 0. -1.
         -5    1    3    3    0  502  0.16887454500E+03  0.22418984303E+02 -0.37287039830E+03  0.40996466815E+03  0.41800000000E+01 0. -1.
        -11    1    1    2    0    0 -0.50747867548E+02 -0.50596737277E+02 -0.13396678347E+02  0.72902996334E+02  0.00000000000E+00 0.  1.
         11    1    1    2    0    0 -0.96157152228E+02  0.31169230305E+02 -0.63829218844E+02  0.11954868473E+03  0.00000000000E+00 0. -1.
</event>
<event>
 7    1  0.1312490E-005  0.2033253E+03  0.7561462E-02  0.1146963E+00
          2   -1    0    0  501    0  0.00000000000E+00  0.00000000000E+00  0.60018895724E+03  0.60018895724E+03  0.00000000000E+00 0. -1.
         -2   -1    0    0    0  501 -0.00000000000E+00 -0.00000000000E+00 -0.11660278202E+03  0.11660278202E+03  0.00000000000E+00 0.  1.
         23    2    1    2    0    0 -0.77953346135E+02 -0.15868335538E+03  0.26581855678E+02  0.21819970817E+03  0.12508951254E+03 0.  0.
          5    1    3    3  502    0  0.16003534504E+02 -0.10240611120E+03  0.31729211496E+02  0.10847737087E+03  0.41800000000E+01 0.  1.
         -5    1    3    3    0  502 -0.93956880639E+02 -0.56277244181E+02 -0.51473558179E+01  0.10972233731E+03  0.41800000000E+01 0.  1.
        -11    1    1    2    0    0  0.27883896733E+02  0.10303334704E+01  0.31578775405E+02  0.42140151164E+02  0.00000000000E+00 0.  1.
         11    1    1    2    0    0  0.50069449402E+02  0.15765302191E+03  0.42542554413E+03  0.45645187992E+03  0.00000000000E+00 0. -1.
</event>
<event>
 7    1  0.1312490E-005  0.1398989E+03  0.7561462E-02  0.1213465E+00
          1   -1    0    0  501    0  0.00000000000E+00  0.00000000000E+00  0.16030450588E+03  0.16030450588E+03  0.00000000000E+00 0. -1.
         -1   -1    0    0    0  501 -0.00000000000E+00 -0.00000000000E+00 -0.17487875101E+03  0.17487875101E+03  0.00000000000E+00 0.  1.
         23    2    1    2    0    0 -0.97380931450E+02  0.17531355086E+02 -0.87868820777E+02  0.18209489734E+03  0.12508887941E+03 0.  0.
          5    1    3    3  502    0 -0.10307068198E+03  0.54777598848E+02 -0.45776042443E+02  0.12544747619E+03  0.41800000000E+01 0. -1.
         -5    1    3    3    0  502  0.56897505343E+01 -0.37246243761E+02 -0.42092778334E+02  0.56647421154E+02  0.41800000000E+01 0. -1.
        -11    1    1    2    0    0  0.55808096605E+02 -0.47949783010E+02  0.69861604547E+02  0.10146117054E+03  0.00000000000E+00 0.  1.
         11    1    1    2    0    0  0.41572834845E+02  0.30418427923E+02  0.34329711002E+01  0.51627189009E+02  0.00000000000E+00 0. -1.
</event>
<event>
 7    1  0.1312490E-005  0.1746002E+03  0.7561462E-02  0.1173134E+00
         -2   -1    0    0    0  501 -0.00000000000E+00  0.00000000000E+00  0.32041968537E+03  0.32041968537E+03  0.00000000000E+00 0.  1.
          2   -1    0    0  501    0  0.00000000000E+00 -0.00000000000E+00 -0.10808622469E+03  0.10808622469E+03  0.00000000000E+00 0. -1.
         23    2    1    2    0    0 -0.20030652444E+01  0.14823519442E+03  0.11302855452E+03  0.22450508483E+03  0.12509753732E+03 0.  0.
          5    1    3    3  502    0 -0.61686247114E+02  0.90120787340E+02  0.76758627469E+02  0.13355264387E+03  0.41800000000E+01 0.  1.
         -5    1    3    3    0  502  0.59683181870E+02  0.58114407079E+02  0.36269927056E+02  0.90952440962E+02  0.41800000000E+01 0.  1.
        -11    1    1    2    0    0  0.19756778133E+02 -0.24375512825E+02  0.68193203534E+02  0.75065364290E+02  0.00000000000E+00 0.  1.
         11    1    1    2    0    0 -0.17753712889E+02 -0.12385968159E+03  0.31111702622E+02  0.12893546093E+03  0.00000000000E+00 0. -1.
</event>
<event>
 7    1  0.1312490E-005  0.9156074E+02  0.7561462E-02  0.1299116E+00
         -3   -1    0    0    0  501 -0.00000000000E+00  0.00000000000E+00  0.16114168140E+03  0.16114168140E+03  0.00000000000E+00 0.  1.
          3   -1    0    0  501    0  0.00000000000E+00 -0.00000000000E+00 -0.80256551914E+02  0.80256551914E+02  0.00000000000E+00 0. -1.
         23    2    1    2    0    0 -0.29711536996E+02 -0.48478007644E+01  0.66168182538E+02  0.14467301138E+03  0.12508307335E+03 0.  0.
          5    1    3    3  502    0  0.39818133637E+02  0.24466143921E+02  0.45061364460E+01  0.47136542410E+02  0.41800000000E+01 0. -1.
         -5    1    3    3    0  502 -0.69529670633E+02 -0.29313944685E+02  0.61662046092E+02  0.97536468973E+02  0.41800000000E+01 0. -1.
        -11    1    1    2    0    0 -0.17592619052E+01  0.23817735730E+02  0.43783085644E+02  0.49873220532E+02  0.00000000000E+00 0.  1.
         11    1    1    2    0    0  0.31470798901E+02 -0.18969934965E+02 -0.29066138699E+02  0.46852001397E+02  0.00000000000E+00 0. -1.
</event>
<event>
 7    1  0.1312490E-005  0.1323714E+03  0.7561462E-02  0.1223979E+00
          2   -1    0    0  501    0  0.00000000000E+00  0.00000000000E+00  0.29705300557E+03  0.29705300557E+03  0.00000000000E+00 0. -1.
         -2   -1    0    0    0  501 -0.00000000000E+00 -0.00000000000E+00 -0.61727824711E+02  0.61727824711E+02  0.00000000000E+00 0.  1.
         23    2    1    2    0    0  0.41861523025E+02 -0.65073399976E+02  0.10136502657E+03  0.17863181708E+03  0.12509005943E+03 0.  0.
          5    1    3    3  502    0  0.13009766393E+02  0.37727029937E+02  0.24672719949E+02  0.47104122104E+02  0.41800000000E+01 0. -1.
         -5    1    3    3    0  502  0.28851756632E+02 -0.10280042991E+03  0.76692306625E+02  0.13152769498E+03  0.41800000000E+01 0. -1.
        -11    1    1    2    0    0 -0.54559465845E+02  0.32575869916E+01  0.81260566588E+02  0.97931745969E+02  0.00000000000E+00 0.  1.
         11    1    1    2    0    0  0.12697942821E+02  0.61815812985E+02  0.52699587692E+02  0.82217267224E+02  0.00000000000E+00 0. -1.
</event>
<event>
 6    1  0.1312490E-005  0.1398788E+03  0.7561462E-02  0.1213492E+00
          2   -1    0    0  501    0  0.00000000000E+00  0.00000000000E+00  0.42581803977E+03  0.42581803977E+03  0.00000000000E+00 0. -1.
         -2   -1    0    0    0  501 -0.00000000000E+00 -0.00000000000E+00 -0.63968660073E+02  0.63968660073E+02  0.00000000000E+00 0.  1.
          5    1    1    2  502    0  0.36902883654E+01  0.81797894593E+02  0.29475272819E+02  0.87125070421E+02  0.41800000000E+01 0. -1.
         -5    1    1    2    0  502 -0.12607685351E+02 -0.11386034600E+03  0.10484290625E+03  0.15534683619E+03  0.41800000000E+01 0.  1.
        -11    1    1    2    0    0 -0.21991658776E+02 -0.15151461683E+02  0.23335100474E+02  0.35464443616E+02  0.00000000000E+00 0.  1.
         11    1    1    2    0    0  0.30909055761E+02  0.47213913092E+02  0.20419610014E+03  0.21185034961E+03  0.00000000000E+00 0. -1.
</event>
<event>
 7    1  0.1312490E-005  0.4055656E+03  0.7561462E-02  0.1041869E+00
          3   -1    0    0  501    0  0.00000000000E+00  0.00000000000E+00  0.14239334686E+04  0.14239334686E+04  0.00000000000E+00 0. -1.
         -3   -1    0    0    0  501 -0.00000000000E+00 -0.00000000000E+00 -0.11700260327E+03  0.11700260327E+03  0.00000000000E+00 0.  1.
         23    2    1    2    0    0  0.16296875766E+03  0.35785352090E+03  0.65562975081E+03  0.77467033315E+03  0.12508315846E+03 0.  0.
          5    1    3    3  502    0  0.80706641376E+02  0.29270395298E+03  0.53100668305E+03  0.61169823925E+03  0.41800000000E+01 0. -1.
         -5    1    3    3    0  502  0.82262116282E+02  0.65149567918E+02  0.12462306776E+03  0.16297209391E+03  0.41800000000E+01 0. -1.
        -11    1    1    2    0    0 -0.93015465394E+02 -0.10579086110E+03  0.19994686754E+03  0.24458604403E+03  0.00000000000E+00 0.  1.
         11    1    1    2    0    0 -0.69953292263E+02 -0.25206265980E+03  0.45135424695E+03  0.52167969464E+03  0.00000000000E+00 0. -1.
</event>
<event>
 7    1  0.1312490E-005  0.9507065E+02  0.7561462E-02  0.1291017E+00
         -3   -1    0    0    0  501 -0.00000000000E+00  0.00000000000E+00  0.39602129861E+02  0.39602129861E+02  0.00000000000E+00 0.  1.
          3   -1    0    0  501    0  0.00000000000E+00 -0.00000000000E+00 -0.42566171375E+03  0.42566171375E+03  0.00000000000E+00 0. -1.
         23    2    1    2    0    0 -0.66684887817E+02 -0.13931705318E+02 -0.24424602866E+03  0.28274397232E+03  0.12508822763E+03 0.  0.
          5    1    3    3  502    0 -0.40253541168E+02  0.40050600419E+02 -0.39449770190E+02  0.69268715439E+02  0.41800000000E+01 0. -1.
         -5    1    3    3    0  502 -0.26431346649E+02 -0.53982305737E+02 -0.20479625847E+03  0.21347525688E+03  0.41800000000E+01 0. -1.
        -11    1    1    2    0    0  0.22231949198E+02 -0.76849747835E+01  0.79342138594E+01  0.24824789065E+02  0.00000000000E+00 0.  1.
         11    1    1    2    0    0  0.44452938619E+02  0.21616680102E+02 -0.14974776909E+03  0.15769508222E+03  0.00000000000E+00 0. -1.
</event>
<event>
 6    1  0.1312490E-005  0.7363319E+02  0.7561462E-02  0.1348157E+00
         -1   -1    0    0    0  501 -0.00000000000E+00  0.00000000000E+00  0.11970212013E+03  0.11970212013E+03  0.00000000000E+00 0.  1.
          1   -1    0    0  501    0  0.00000000000E+00 -0.00000000000E+00 -0.55328976651E+03  0.55328976651E+03  0.00000000000E+00 0. -1.
          5    1    1    2  502    0  0.22348544099E+02  0.21626391121E+02 -0.44848054977E+02  0.54735533719E+02  0.41800000000E+01 0. -1.
         -5    1    1    2    0  502 -0.25110302055E+02  0.44083176296E+01  0.10917851402E+03  0.11219349739E+03  0.41800000000E+01 0.  1.
        -11    1    1    2    0    0  0.33097424232E+02  0.17151002035E+02 -0.18379123659E+03  0.18753350370E+03  0.00000000000E+00 0. -1.
         11    1    1    2    0    0 -0.30335666277E+02 -0.43185710787E+02 -0.31412686883E+03  0.31852935184E+03  0.00000000000E+00 0.  1.
</event>
<event>
 7    1  0.1312490E-005  0.8327968E+02  0.7561462E-02  0.1319994E+00
         -1   -1    0    0    0  501 -0.00000000000E+00  0.00000000000E+00  0.10766545251E+03  0.10766545251E+03  0.00000000000E+00 0.  1.
          1   -1    0    0  501    0  0.00000000000E+00 -0.00000000000E+00 -0.11159575556E+03  0.11159575556E+03  0.00000000000E+00 0. -1.
         23    2    1    2    0    0 -0.12235373073E+02 -0.75684723923E-02  0.39604035761E+01  0.12574916266E+03  0.12508981854E+03 0.  0.
          5    1    3    3  502    0 -0.57689886403E+02 -0.26535834745E+02 -0.21452331138E+02  0.67156149608E+02  0.41800000000E+01 0.  1.
         -5    1    3    3    0  502  0.45454513330E+02  0.26528266273E+02  0.25412734714E+02  0.58593013057E+02  0.41800000000E+01 0.  1.
        -11    1    1    2    0    0  0.23270885616E+02  0.17725567278E+02  0.35117970941E+02  0.45705598516E+02  0.00000000000E+00 0.  1.
         11    1    1    2    0    0 -0.11035512543E+02 -0.17717998806E+02 -0.43008677565E+02  0.47806446894E+02  0.00000000000E+00 0. -1.
</event>
<event>
 7    1  0.1312490E-005  0.1278177E+03  0.7561462E-02  0.1230730E+00
         -1   -1    0    0    0  501 -0.00000000000E+00  0.00000000000E+00  0.93251852170E+02  0.93251852170E+02  0.00000000000E+00 0.  1.
          1   -1    0    0  501    0  0.00000000000E+00 -0.00000000000E+00 -0.22289545849E+03  0.22289545849E+03  0.00000000000E+00 0. -1.
         23    2    1    2    0    0  0.47067481086E+02  0.78188264582E+02 -0.39258151675E+02  0.15973808432E+03  0.12508517344E+03 0.  0.
          5    1    3    3  502    0 -0.23407379763E+02  0.43633487809E+02  0.27339873102E+02  0.56716203566E+02  0.41800000000E+01 0.  1.
         -5    1    3    3    0  502  0.70474860848E+02  0.34554776773E+02 -0.66598024778E+02  0.10302188075E+03  0.41800000000E+01 0.  1.
        -11    1    1    2    0    0  0.26303165267E+02 -0.13690624874E+02 -0.25750202025E+02  0.39272924729E+02  0.00000000000E+00 0.  1.
         11    1    1    2    0    0 -0.73370646352E+02 -0.64497639708E+02 -0.64635252621E+02  0.11713630161E+03  0.00000000000E+00 0. -1.
</event>
<event>
 7    1  0.1312490E-005  0.5068221E+02  0.7561462E-02  0.1441696E+00
          2   -1    0    0  501    0  0.00000000000E+00  0.00000000000E+00  0.29473584332E+03  0.29473584332E+03  0.00000000000E+00 0. -1.
         -2   -1    0    0    0  501 -0.00000000000E+00 -0.00000000000E+00 -0.47650553807E+02  0.47650553807E+02  0.00000000000E+00 0.  1.
         23    2    1    2    0    0  0.52764712019E+01  0.20477024205E+02  0.64130386421E+02  0.14215658350E+03  0.12509451667E+03 0.  0.
          5    1    3    3  502    0  0.21398681426E+01 -0.16044893256E+01 -0.37600066208E+02  0.37926122930E+02  0.41800000000E+01 0. -1.
         -5    1    3    3    0  502  0.31366030593E+01  0.22081513530E+02  0.10173045263E+03  0.10423046057E+03  0.41800000000E+01 0. -1.
        -11    1    1    2    0    0 -0.35685264002E+02 -0.24137772289E+02  0.14604518363E+03  0.15226708698E+03  0.00000000000E+00 0. -1.
         11    1    1    2    0    0  0.30408792800E+02  0.36607480838E+01  0.36909719464E+02  0.47962726643E+02  0.00000000000E+00 0.  1.
</event>
<event>
 7    1  0.1312490E-005  0.1305851E+03  0.7561462E-02  0.1226590E+00
         -2   -1    0    0    0  501 -0.00000000000E+00  0.00000000000E+00  0.24923034910E+03  0.24923034910E+03  0.00000000000E+00 0.  1.
          2   -1    0    0  501    0  0.00000000000E+00 -0.00000000000E+00 -0.92679943559E+02  0.92679943559E+02  0.00000000000E+00 0. -1.
         23    2    1    2    0    0  0.37162023860E+02 -0.88949247308E+02  0.13127135596E+03  0.20536275158E+03  0.12509478897E+03 0.  0.
          5    1    3    3  502    0 -0.36944814509E+02 -0.86795401809E+01  0.70767058110E+02  0.80409593025E+02  0.41800000000E+01 0.  1.
         -5    1    3    3    0  502  0.74106838369E+02 -0.80269707127E+02  0.60504297853E+02  0.12495315856E+03  0.41800000000E+01 0.  1.
        -11    1    1    2    0    0 -0.50258109153E+02  0.43844386696E+02 -0.21681251598E+02  0.70130481612E+02  0.00000000000E+00 0.  1.
         11    1    1    2    0    0  0.13096085292E+02  0.45104860613E+02  0.46960301174E+02  0.66417059460E+02  0.00000000000E+00 0. -1.
</event>
<event>
 7    1  0.1312490E-005  0.1337274E+03  0.7561462E-02  0.1222028E+00
         -3   -1    0    0    0  501 -0.00000000000E+00  0.00000000000E+00  0.16363387961E+04  0.16363387961E+04  0.00000000000E+00 0.  1.
          3   -1    0    0  501    0  0.00000000000E+00 -0.00000000000E+00 -0.17887370215E+02  0.17887370215E+02  0.00000000000E+00 0. -1.
         23    2    1    2    0    0  0.11049011749E+02  0.11543933762E+03  0.12013038280E+04  0.12123221616E+04  0.11465520099E+03 0.  0.
          5    1    3    3  502    0 -0.15833937712E+02  0.33331110954E+02  0.86083835198E+02  0.93752736618E+02  0.41800000000E+01 0. -1.
         -5    1    3    3    0  502  0.26882949461E+02  0.82108226666E+02  0.11152199928E+04  0.11185694250E+04  0.41800000000E+01 0.  1.
        -11    1    1    2    0    0  0.28358085687E+02 -0.81255676772E+01  0.11869048306E+03  0.12230141718E+03  0.00000000000E+00 0.  1.
         11    1    1    2    0    0 -0.39407097436E+02 -0.10731376994E+03  0.29845711488E+03  0.31960258755E+03  0.00000000000E+00 0. -1.
</event>
<event>
 7    1  0.1312490E-005  0.7508196E+02  0.7561462E-02  0.1343617E+00
         -2   -1    0    0    0  501 -0.00000000000E+00  0.00000000000E+00  0.59808868239E+02  0.59808868239E+02  0.00000000000E+00 0. -1.
          2   -1    0    0  501    0  0.00000000000E+00 -0.00000000000E+00 -0.25130744497E+03  0.25130744497E+03  0.00000000000E+00 0.  1.
         23    2    1    2    0    0  0.49357418433E+02 -0.23281646148E+02 -0.87597606160E+02  0.16216986662E+03  0.12509010846E+03 0.  0.
          5    1    3    3  502    0 -0.17122000839E+02  0.95087041174E+01 -0.85586770462E+02  0.87898498536E+02  0.41800000000E+01 0.  1.
         -5    1    3    3    0  502  0.66479419272E+02 -0.32790350265E+02 -0.20108356976E+01  0.74271368086E+02  0.41800000000E+01 0.  1.
        -11    1    1    2    0    0 -0.17892879633E+02  0.22190696706E+01  0.15443341982E+02  0.23739760389E+02  0.00000000000E+00 0. -1.
         11    1    1    2    0    0 -0.31464538800E+02  0.21062576477E+02 -0.11934431256E+03  0.12520668620E+03  0.00000000000E+00 0.  1.
</event>
<event>
 6    1  0.1312490E-005  0.9868407E+02  0.7561462E-02  0.1283088E+00
         -2   -1    0    0    0  501 -0.00000000000E+00  0.00000000000E+00  0.15632084612E+03  0.15632084612E+03  0.00000000000E+00 0.  1.
          2   -1    0    0  501    0  0.00000000000E+00 -0.00000000000E+00 -0.13337196875E+03  0.13337196875E+03  0.00000000000E+00 0. -1.
          5    1    1    2  502    0 -0.48510687992E+02 -0.66491663836E+01 -0.58718483559E+02  0.76569125465E+02  0.41800000000E+01 0. -1.
         -5    1    1    2    0  502 -0.29738866284E+02 -0.84176228525E+01  0.86445335119E+02  0.91899537029E+02  0.41800000000E+01 0.  1.
        -11    1    1    2    0    0  0.71967887316E+02 -0.25223535352E+02  0.11872273489E+02  0.77178717391E+02  0.00000000000E+00 0.  1.
         11    1    1    2    0    0  0.62816669595E+01  0.40290324588E+02 -0.16650247686E+02  0.44045434987E+02  0.00000000000E+00 0. -1.
</event>
<event>
 7    1  0.1312490E-005  0.1185476E+03  0.7561462E-02  0.1245512E+00
          2   -1    0    0  501    0  0.00000000000E+00  0.00000000000E+00  0.50649449717E+03  0.50649449717E+03  0.00000000000E+00 0. -1.
         -2   -1    0    0    0  501 -0.00000000000E+00 -0.00000000000E+00 -0.34432680903E+02  0.34432680903E+02  0.00000000000E+00 0.  1.
         23    2    1    2    0    0  0.72610096160E+02  0.18387426041E+01  0.21922284888E+03  0.26264371306E+03  0.12508978975E+03 0.  0.
          5    1    3    3  502    0  0.27283377154E+02  0.56646528040E+02  0.55029750718E+02  0.83659773321E+02  0.41800000000E+01 0.  1.
         -5    1    3    3    0  502  0.45326719007E+02 -0.54807785436E+02  0.16419309817E+03  0.17898393974E+03  0.41800000000E+01 0.  1.
        -11    1    1    2    0    0 -0.57178543356E+02  0.32086772205E+02  0.21657399644E+03  0.22628133530E+03  0.00000000000E+00 0.  1.
         11    1    1    2    0    0 -0.15431552804E+02 -0.33925514809E+02  0.36264970944E+02  0.52002129712E+02  0.00000000000E+00 0. -1.
</event>
<event>
 7    1  0.1312490E-005  0.1932169E+03  0.7561462E-02  0.1155591E+00
          2   -1    0    0  501    0  0.00000000000E+00  0.00000000000E+00  0.99332726360E+02  0.99332726360E+02  0.00000000000E+00 0. -1.
         -2   -1    0    0    0  501 -0.00000000000E+00 -0.00000000000E+00 -0.47602264966E+03  0.47602264966E+03  0.00000000000E+00 0.  1.
         23    2    1    2    0    0  0.93594905437E+02  0.16087143570E+03 -0.23275198496E+03  0.32320733865E+03  0.12509944887E+03 0.  0.
          5    1    3    3  502    0  0.69736406482E+02  0.49350121548E+02 -0.17615362614E+03  0.19582178961E+03  0.41800000000E+01 0. -1.
         -5    1    3    3    0  502  0.23858498955E+02  0.11152131415E+03 -0.56598358826E+02  0.12738554904E+03  0.41800000000E+01 0. -1.
        -11    1    1    2    0    0 -0.21710460871E+01 -0.11082912507E+02  0.12649612736E+02  0.16957508459E+02  0.00000000000E+00 0. -1.
         11    1    1    2    0    0 -0.91423859350E+02 -0.14978852319E+03 -0.15658755107E+03  0.23519052891E+03  0.00000000000E+00 0.  1.
</event>
<event>
 7    1  0.1312490E-005  0.1564271E+03  0.7561462E-02  0.1192791E+00
         -2   -1    0    0    0  501 -0.00000000000E+00  0.00000000000E+00  0.34784132067E+02  0.34784132067E+02  0.00000000000E+00 0.  1.
          2   -1    0    0  501    0  0.00000000000E+00 -0.00000000000E+00 -0.90125441752E+03  0.90125441752E+03  0.00000000000E+00 0. -1.
         23    2    1    2    0    0 -0.49340839551E+02 -0.12648492655E+03 -0.50459747794E+03  0.53731250355E+03  0.12511257584E+03 0.  0.
          5    1    3    3  502    0 -0.39404665134E+02  0.54979881247E+01 -0.21747900619E+03  0.22112789521E+03  0.41800000000E+01 0. -1.
         -5    1    3    3    0  502 -0.99361744174E+01 -0.13198291468E+03 -0.28711847175E+03  0.31618460834E+03  0.41800000000E+01 0. -1.
        -11    1    1    2    0    0  0.23982866593E+02  0.10336542211E+03 -0.34408373278E+03  0.36007388623E+03  0.00000000000E+00 0. -1.
         11    1    1    2    0    0  0.25357972959E+02  0.23119504440E+02 -0.17789074733E+02  0.38652159810E+02  0.00000000000E+00 0.  1.
</event>
<event>
 7    1  0.1312490E-005  0.1214375E+03  0.7561462E-02  0.1240744E+00
         -2   -1    0    0    0  501 -0.00000000000E+00  0.00000000000E+00  0.25209552466E+02  0.25209552466E+02  0.00000000000E+00 0. -1.
          2   -1    0    0  501    0  0.00000000000E+00 -0.00000000000E+00 -0.91026815109E+03  0.91026815109E+03  0.00000000000E+00 0.  1.
         23    2    1    2    0    0 -0.65013668238E+02  0.65621826279E+02 -0.32047924003E+03  0.35621270258E+03  0.12509014768E+03 0.  0.
          5    1    3    3  502    0 -0.70892980337E+02  0.26715868251E+02 -0.71989158327E+02  0.10459189067E+03  0.41800000000E+01 0.  1.
         -5    1    3    3    0  502  0.58793120985E+01  0.38905958027E+02 -0.24849008170E+03  0.25162081191E+03  0.41800000000E+01 0.  1.
        -11    1    1    2    0    0  0.64820122163E+02 -0.30846780507E+01 -0.23448738316E+03  0.24330124607E+03  0.00000000000E+00 0. -1.
         11    1    1    2    0    0  0.19354607573E+00 -0.62537148228E+02 -0.33009197543E+03  0.33596375490E+03  0.00000000000E+00 0.  1.
</event>
<event>
 7    1  0.1312490E-005  0.1366008E+03  0.7561462E-02  0.1217977E+00
         -1   -1    0    0    0  501 -0.00000000000E+00  0.00000000000E+00  0.57931735887E+03  0.57931735887E+03  0.00000000000E+00 0.  1.
          1   -1    0    0  501    0  0.00000000000E+00 -0.00000000000E+00 -0.41094151050E+02  0.41094151050E+02  0.00000000000E+00 0. -1.
         23    2    1    2    0    0 -0.21958847005E+02 -0.95034955066E+02  0.39303370102E+03  0.42383450247E+03  0.12508541761E+03 0.  0.
          5    1    3    3  502    0  0.44625626409E+02 -0.50627638535E+02  0.25888073173E+03  0.26756552464E+03  0.41800000000E+01 0.  1.
         -5    1    3    3    0  502 -0.66584473414E+02 -0.44407316531E+02  0.13415296930E+03  0.15626897783E+03  0.41800000000E+01 0.  1.
        -11    1    1    2    0    0 -0.29943496610E+02  0.33118852756E+02  0.84353769880E+02  0.95441237890E+02  0.00000000000E+00 0. -1.
         11    1    1    2    0    0  0.51902343615E+02  0.61916102310E+02  0.60835736916E+02  0.10113576956E+03  0.00000000000E+00 0.  1.
</event>
<event>
 7    1  0.1312490E-005  0.1067822E+03  0.7561462E-02  0.1266647E+00
          1   -1    0    0  501    0  0.00000000000E+00  0.00000000000E+00  0.21791688457E+03  0.21791688457E+03  0.00000000000E+00 0. -1.
         -1   -1    0    0    0  501 -0.00000000000E+00 -0.00000000000E+00 -0.69903377863E+02  0.69903377863E+02  0.00000000000E+00 0.  1.
         23    2    1    2    0    0 -0.84543186787E+00 -0.10678351039E+02  0.42273764914E+02  0.13247649471E+03  0.12509279962E+03 0.  0.
          5    1    3    3  502    0 -0.27964137769E+02 -0.47259138434E+02  0.61779296059E+02  0.82762147073E+02  0.41800000000E+01 0. -1.
         -5    1    3    3    0  502  0.27118705901E+02  0.36580787395E+02 -0.19505531145E+02  0.49714347641E+02  0.41800000000E+01 0. -1.
        -11    1    1    2    0    0  0.21603259063E+02 -0.46858151280E+02  0.38041736391E+02  0.64105856605E+02  0.00000000000E+00 0.  1.
         11    1    1    2    0    0 -0.20757827195E+02  0.57536502318E+02  0.67698005404E+02  0.91237911115E+02  0.00000000000E+00 0. -1.
</event>
<event>
 7    1  0.1312490E-005  0.1019998E+03  0.7561462E-02  0.1276146E+00
         -1   -1    0    0    0  501 -0.00000000000E+00  0.00000000000E+00  0.80406155418E+02  0.80406155418E+02  0.00000000000E+00 0.  1.
          1   -1    0    0  501    0  0.00000000000E+00 -0.00000000000E+00 -0.27305184383E+03  0.27305184383E+03  0.00000000000E+00 0. -1.
         23    2    1    2    0    0  0.33689512131E+02 -0.42001199128E+02 -0.44847866938E-01  0.13617976528E+03  0.12508334224E+03 0.  0.
          5    1    3    3  502    0  0.22728233036E+02  0.43028151207E+02  0.96948725101E+01  0.49794149518E+02  0.41800000000E+01 0.  1.
         -5    1    3    3    0  502  0.10961279094E+02 -0.85029350334E+02 -0.97397203770E+01  0.86385615763E+02  0.41800000000E+01 0.  1.
        -11    1    1    2    0    0 -0.18167937319E+02 -0.57953048325E+01 -0.89038195403E+00  0.19090633425E+02  0.00000000000E+00 0.  1.
         11    1    1    2    0    0 -0.15521574811E+02  0.47796503960E+02 -0.19171045859E+03  0.19818760055E+03  0.00000000000E+00 0. -1.
</event>
<event>
 7    1  0.1312490E-005  0.1544336E+03  0.7561462E-02  0.1195128E+00
         -2   -1    0    0    0  501 -0.00000000000E+00  0.00000000000E+00  0.11861068022E+03  0.11861068022E+03  0.00000000000E+00 0. -1.
          2   -1    0    0  501    0  0.00000000000E+00 -0.00000000000E+00 -0.31173288170E+03  0.31173288170E+03  0.00000000000E+00 0.  1.
         23    2    1    2    0    0 -0.10733032968E+03  0.82059996980E+02 -0.42785047448E+01  0.18417770515E+03  0.12509787647E+03 0.  0.
          5    1    3    3  502    0  0.48288244183E+01 -0.19736354522E+02  0.22170889081E+02  0.30362179726E+02  0.41800000000E+01 0. -1.
         -5    1    3    3    0  502 -0.11215915410E+03  0.10179635150E+03 -0.26449393825E+02  0.15381552542E+03  0.41800000000E+01 0. -1.
        -11    1    1    2    0    0  0.46670756663E+02 -0.48356515929E+02 -0.31544633159E+02  0.74239989503E+02  0.00000000000E+00 0. -1.
         11    1    1    2    0    0  0.60659573017E+02 -0.33703481051E+02 -0.15729906358E+03  0.17192586727E+03  0.00000000000E+00 0.  1.
</event>
<event>
 6    1  0.1312490E-005  0.1063541E+03  0.7561462E-02  0.1267475E+00
          2   -1    0    0  501    0  0.00000000000E+00  0.00000000000E+00  0.45824870901E+03  0.45824870901E+03  0.00000000000E+00 0. -1.
         -2   -1    0    0    0  501 -0.00000000000E+00 -0.00000000000E+00 -0.17447769567E+03  0.17447769567E+03  0.00000000000E+00 0.  1.
          5    1    1    2  502    0 -0.43561089230E+02 -0.19897153349E+01  0.11413617505E+03  0.12225410552E+03  0.41800000000E+01 0. -1.
         -5    1    1    2    0  502  0.44438040505E+02 -0.75548278255E+02 -0.14759764833E+03  0.17171144395E+03  0.41800000000E+01 0.  1.
        -11    1    1    2    0    0  0.10504331714E+02  0.20992109187E+02  0.89390553240E+01  0.25118048152E+02  0.00000000000E+00 0.  1.
         11    1    1    2    0    0 -0.11381282990E+02  0.56545884403E+02  0.30829343128E+03  0.31364280706E+03  0.00000000000E+00 0. -1.
</event>
<event>
 7    1  0.1312490E-005  0.1040399E+03  0.7561462E-02  0.1272023E+00
         -2   -1    0    0    0  501 -0.00000000000E+00  0.00000000000E+00  0.23894979105E+03  0.23894979105E+03  0.00000000000E+00 0.  1.
          2   -1    0    0  501    0  0.00000000000E+00 -0.00000000000E+00 -0.67929453421E+02  0.67929453421E+02  0.00000000000E+00 0. -1.
         23    2    1    2    0    0 -0.58570893517E+02  0.27219257679E+02  0.12395344604E+03  0.18757172620E+03  0.12508900083E+03 0.  0.
          5    1    3    3  502    0  0.30986329816E+02  0.39249207411E+02  0.48265792229E+02  0.69625512690E+02  0.41800000000E+01 0. -1.
         -5    1    3    3    0  502 -0.89557223333E+02 -0.12029949732E+02  0.75687653811E+02  0.11794621351E+03  0.41800000000E+01 0. -1.
        -11    1    1    2    0    0  0.40829188137E+02 -0.86058746347E+01  0.72174702503E+02  0.83368287517E+02  0.00000000000E+00 0.  1.
         11    1    1    2    0    0  0.17741705380E+02 -0.18613383045E+02 -0.25107810915E+02  0.35939230753E+02  0.00000000000E+00 0. -1.
</event>
<event>
 7    1  0.1312490E-005  0.1777591E+03  0.7561462E-02  0.1169990E+00
         -2   -1    0    0    0  501 -0.00000000000E+00  0.00000000000E+00  0.97901999124E+02  0.97901999124E+02  0.00000000000E+00 0.  1.
          2   -1    0    0  501    0  0.00000000000E+00 -0.00000000000E+00 -0.35874773824E+03  0.35874773824E+03  0.00000000000E+00 0. -1.
         23    2    1    2    0    0 -0.78124580439E+02  0.13701288722E+03 -0.12175319118E+03  0.22761607965E+03  0.11004207750E+03 0.  0.
          5    1    3    3  502    0 -0.10217140108E+03  0.12865308956E+03 -0.92398525451E+02  0.18853533503E+03  0.41800000000E+01 0. -1.
         -5    1    3    3    0  502  0.24046820637E+02  0.83597976587E+01 -0.29354665726E+02  0.39080744614E+02  0.41800000000E+01 0.  1.
        -11    1    1    2    0    0  0.54018359578E+02 -0.12919798403E+03 -0.72307245100E+02  0.15760215716E+03  0.00000000000E+00 0.  1.
         11    1    1    2    0    0  0.24106220861E+02 -0.78149031846E+01 -0.66785302844E+02  0.71431500558E+02  0.00000000000E+00 0. -1.
</event>
<event>
 7    1  0.1312490E-005  0.1030066E+03  0.7561462E-02  0.1274098E+00
          1   -1    0    0  501    0  0.00000000000E+00  0.00000000000E+00  0.35091351306E+03  0.35091351306E+03  0.00000000000E+00 0.  1.
         -1   -1    0    0    0  501 -0.00000000000E+00 -0.00000000000E+00 -0.41860198867E+02  0.41860198867E+02  0.00000000000E+00 0. -1.
         23    2    1    2    0    0  0.42105977708E+02  0.29605048191E+02  0.15087876455E+03  0.20263387385E+03  0.12508682187E+03 0.  0.
          5    1    3    3  502    0  0.16129340569E+02  0.59655385895E+02  0.15043869151E+03  0.16269048219E+03  0.41800000000E+01 0.  1.
         -5    1    3    3    0  502  0.25976637140E+02 -0.30050337704E+02  0.44007303958E+00  0.39943391662E+02  0.41800000000E+01 0.  1.
        -11    1    1    2    0    0 -0.70858231507E+02 -0.17855803122E+02  0.12424240956E+03  0.14413845778E+03  0.00000000000E+00 0.  1.
         11    1    1    2    0    0  0.28752253799E+02 -0.11749245069E+02  0.33932140086E+02  0.46001380295E+02  0.00000000000E+00 0. -1.
</event>
<event>
 7    1  0.1312490E-005  0.9208559E+02  0.7561462E-02  0.1297878E+00
          1   -1    0    0  501    0  0.00000000000E+00  0.00000000000E+00  0.57225132899E+02  0.57225132899E+02  0.00000000000E+00 0. -1.
         -1   -1    0    0    0  501 -0.00000000000E+00 -0.00000000000E+00 -0.16570143489E+03  0.16570143489E+03  0.00000000000E+00 0.  1.
         23    2    1    2    0    0  0.23945468432E+02 -0.15039696121E+02 -0.65960219926E+02  0.14421518205E+03  0.12509072789E+03 0.  0.
          5    1    3    3  502    0 -0.12765714449E+02  0.50903940157E+02 -0.28015718559E+02  0.59636628638E+02  0.41800000000E+01 0. -1.
         -5    1    3    3    0  502  0.36711182881E+02 -0.65943636278E+02 -0.37944501367E+02  0.84578553417E+02  0.41800000000E+01 0. -1.
        -11    1    1    2    0    0  0.14915320278E+02  0.26619529743E+01 -0.33751021702E+02  0.36995732708E+02  0.00000000000E+00 0.  1.
         11    1    1    2    0    0 -0.38860788710E+02  0.12377743147E+02 -0.87650603653E+01  0.41715653031E+02  0.00000000000E+00 0. -1.
</event>
<event>
 7    1  0.1312490E-005  0.9994319E+02  0.7561462E-02  0.1280415E+00
         -2   -1    0    0    0  501 -0.00000000000E+00  0.00000000000E+00  0.14147901804E+03  0.14147901804E+03  0.00000000000E+00 0.  1.
          2   -1    0    0  501    0  0.00000000000E+00 -0.00000000000E+00 -0.88025094624E+02  0.88025094624E+02  0.00000000000E+00 0. -1.
         23    2    1    2    0    0  0.29889416001E+02 -0.34109714778E+01  0.32360049236E+02  0.13266586904E+03  0.12509215845E+03 0.  0.
          5    1    3    3  502    0 -0.33482105062E+02 -0.32042925783E+02  0.41567623926E+02  0.62395033544E+02  0.41800000000E+01 0. -1.
         -5    1    3    3    0  502  0.63371521063E+02  0.28631954305E+02 -0.92075746901E+01  0.70270835492E+02  0.41800000000E+01 0. -1.
        -11    1    1    2    0    0 -0.38653315720E+02 -0.30138039979E+02  0.34203064768E+02  0.59768134566E+02  0.00000000000E+00 0.  1.
         11    1    1    2    0    0  0.87638997193E+01  0.33549011457E+02 -0.13109190588E+02  0.37070109063E+02  0.00000000000E+00 0. -1.
</event>
<event>
 7    1  0.1312490E-005  0.1126371E+03  0.7561462E-02  0.1255763E+00
         -1   -1    0    0    0  501 -0.00000000000E+00  0.00000000000E+00  0.46818293319E+03  0.46818293319E+03  0.00000000000E+00 0.  1.
          1   -1    0    0  501    0  0.00000000000E+00 -0.00000000000E+00 -0.43038557944E+02  0.43038557944E+02  0.00000000000E+00 0. -1.
         23    2    1    2    0    0  0.36807604365E+02  0.79197192194E+02  0.27856252493E+03  0.31760238881E+03  0.12508877685E+03 0.  0.
          5    1    3    3  502    0  0.48692672949E+02  0.71966583598E+02  0.78994701654E+02  0.11750659915E+03  0.41800000000E+01 0. -1.
         -5    1    3    3    0  502 -0.11885068583E+02  0.72306085960E+01  0.19956782327E+03  0.20009578966E+03  0.41800000000E+01 0. -1.
        -11    1    1    2    0    0 -0.64342543529E+02 -0.39687594445E+02  0.10841973180E+03  0.13217377313E+03  0.00000000000E+00 0. -1.
         11    1    1    2    0    0  0.27534939164E+02 -0.39509597749E+02  0.38162118515E+02  0.61445329185E+02  0.00000000000E+00 0.  1.
</event>
<event>
 6    1  0.1312490E-005  0.1173062E+03  0.7561462E-02  0.1247608E+00
         -1   -1    0    0    0  501 -0.00000000000E+00  0.00000000000E+00  0.46017595892E+02  0.46017595892E+02  0.00000000000E+00 0.  1.
          1   -1    0    0  501    0  0.00000000000E+00 -0.00000000000E+00 -0.34626686964E+03  0.34626686964E+03  0.00000000000E+00 0. -1.
          5    1    1    2  502    0 -0.10981427519E+02  0.82166379794E+02 -0.10309656151E+03  0.13235663608E+03  0.41800000000E+01 0. -1.
         -5    1    1    2    0  502 -0.24592792158E+02 -0.60449754489E+02 -0.51022919008E+02  0.82944492934E+02  0.41800000000E+01 0.  1.
        -11    1    1    2    0    0 -0.23355603055E+02 -0.12744610056E+02 -0.10087230181E+02  0.28454551345E+02  0.00000000000E+00 0. -1.
         11    1    1    2    0    0  0.58929822731E+02 -0.89720152489E+01 -0.13604256305E+03  0.14852878518E+03  0.00000000000E+00 0.  1.
</event>
<event>
 7    1  0.1312490E-005  0.1460338E+03  0.7561462E-02  0.1205433E+00
         -1   -1    0    0    0  501 -0.00000000000E+00  0.00000000000E+00  0.45483612113E+03  0.45483612113E+03  0.00000000000E+00 0.  1.
          1   -1    0    0  501    0  0.00000000000E+00 -0.00000000000E+00 -0.69802037640E+02  0.69802037640E+02  0.00000000000E+00 0. -1.
         23    2    1    2    0    0 -0.70076624924E+02  0.86576280854E+02  0.32936136535E+03  0.36950091440E+03  0.12508329619E+03 0.  0.
          5    1    3    3  502    0  0.28022594811E+02  0.33765374821E+02  0.16577789133E+03  0.17153759941E+03  0.41800000000E+01 0. -1.
         -5    1    3    3    0  502 -0.98099219735E+02  0.52810906033E+02  0.16358347402E+03  0.19796331499E+03  0.41800000000E+01 0. -1.
        -11    1    1    2    0    0  0.74754280370E+02 -0.31326230514E+02  0.69949319005E+01  0.81353944122E+02  0.00000000000E+00 0.  1.
         11    1    1    2    0    0 -0.46776554467E+01 -0.55250050341E+02  0.48677786242E+02  0.73783300255E+02  0.00000000000E+00 0. -1.
</event>
<event>
 7    1  0.1312490E-005  0.9026606E+02  0.7561462E-02  0.1302209E+00
          3   -1    0    0  501    0  0.00000000000E+00  0.00000000000E+00  0.10708852158E+03  0.10708852158E+03  0.00000000000E+00 0. -1.
         -3   -1    0    0    0  501 -0.00000000000E+00 -0.00000000000E+00 -0.13242247206E+03  0.13242247206E+03  0.00000000000E+00 0.  1.
         23    2    1    2    0    0  0.38251099863E+01 -0.49338904955E+02 -0.23134926241E+02  0.13650262302E+03  0.12509509291E+03 0.  0.
          5    1    3    3  502    0  0.39749873801E+02 -0.73664091552E+02 -0.35768059891E+02  0.91122320864E+02  0.41800000000E+01 0.  1.
         -5    1    3    3    0  502 -0.35924763815E+02  0.24325186596E+02  0.12633133650E+02  0.45380302157E+02  0.41800000000E+01 0.  1.
        -11    1    1    2    0    0 -0.11392973315E+02  0.22068338417E+02 -0.45174340717E+02  0.51551260515E+02  0.00000000000E+00 0.  1.
         11    1    1    2    0    0  0.75678633285E+01  0.27270566539E+02  0.42975316471E+02  0.51457110106E+02  0.00000000000E+00 0. -1.
</event>
<event>
 7    1  0.1312490E-005  0.1144190E+03  0.7561462E-02  0.1252599E+00
          2   -1    0    0  501    0  0.00000000000E+00  0.00000000000E+00  0.56655068709E+03  0.56655068709E+03  0.00000000000E+00 0. -1.
         -2   -1    0    0    0  501 -0.00000000000E+00 -0.00000000000E+00 -0.23945520926E+02  0.23945520926E+02  0.00000000000E+00 0.  1.
         23    2    1    2    0    0 -0.16385612934E+02 -0.37197974858E+02  0.26419068578E+03  0.29512043653E+03  0.12508867241E+03 0.  0.
          5    1    3    3  502    0  0.25184728347E+02 -0.72363518155E+02  0.14661697228E+03  0.16548340782E+03  0.41800000000E+01 0.  1.
         -5    1    3    3    0  502 -0.41570341281E+02  0.35165543297E+02  0.11757371349E+03  0.12963702872E+03  0.41800000000E+01 0.  1.
        -11    1    1    2    0    0 -0.36518186967E+02  0.21192113748E+02  0.14337371765E+03  0.14946138825E+03  0.00000000000E+00 0.  1.
         11    1    1    2    0    0  0.52903799901E+02  0.16005861110E+02  0.13504076274E+03  0.14591438323E+03  0.00000000000E+00 0. -1.
</event>
<event>
 7    1  0.1312490E-005  0.9465386E+02  0.7561462E-02  0.1291958E+00
         -1   -1    0    0    0  501 -0.00000000000E+00  0.00000000000E+00  0.18918997038E+03  0.18918997038E+03  0.00000000000E+00 0.  1.
          1   -1    0    0  501    0  0.00000000000E+00 -0.00000000000E+00 -0.76419108723E+02  0.76419108723E+02  0.00000000000E+00 0. -1.
         23    2    1    2    0    0 -0.14130201740E+02  0.19515055809E+02  0.11282823235E+03  0.17017083265E+03  0.12508957696E+03 0.  0.
          5    1    3    3  502    0 -0.68946641215E+02  0.18985609730E+01  0.69366921745E+02  0.97910602598E+02  0.41800000000E+01 0. -1.
         -5    1    3    3    0  502  0.54816439475E+02  0.17616494836E+02  0.43461310609E+02  0.72260230050E+02  0.41800000000E+01 0. -1.
        -11    1    1    2    0    0 -0.22241296451E+02 -0.26855734169E+01  0.35423045858E+02  0.41912763572E+02  0.00000000000E+00 0.  1.
         11    1    1    2    0    0  0.36371498191E+02 -0.16829482392E+02 -0.35480416559E+02  0.53525482880E+02  0.00000000000E+00 0. -1.
</event>
<event>
 7    1  0.1312490E-005  0.7197437E+02  0.7561462E-02  0.1353505E+00
          4   -1    0    0  501    0  0.00000000000E+00  0.00000000000E+00  0.41296576103E+02  0.41296576103E+02  0.00000000000E+00 0. -1.
         -4   -1    0    0    0  501 -0.00000000000E+00 -0.00000000000E+00 -0.26231077133E+03  0.26231077133E+03  0.00000000000E+00 0.  1.
         23    2    1    2    0    0 -0.19342228156E+02 -0.18157242291E+02 -0.13447198984E+03  0.18556669972E+03  0.12509387177E+03 0.  0.
          5    1    3    3  502    0 -0.17379531983E+02  0.19468012932E+02  0.15661514096E+02  0.30721443379E+02  0.41800000000E+01 0. -1.
         -5    1    3    3    0  502 -0.19626961729E+01 -0.37625255223E+02 -0.15013350394E+03  0.15484525634E+03  0.41800000000E+01 0. -1.
        -11    1    1    2    0    0  0.14580350818E+02  0.47601650463E+02 -0.61273532189E+02  0.78949031050E+02  0.00000000000E+00 0.  1.
         11    1    1    2    0    0  0.47618773381E+01 -0.29444408172E+02 -0.25268673203E+02  0.39091616669E+02  0.00000000000E+00 0. -1.
</event>
<event>
 7    1  0.1312490E-005  0.9084223E+02  0.7561462E-02  0.1300825E+00
          1   -1    0    0  501    0  0.00000000000E+00  0.00000000000E+00  0.21336202631E+03  0.21336202631E+03  0.00000000000E+00 0. -1.
         -1   -1    0    0    0  501 -0.00000000000E+00 -0.00000000000E+00 -0.89948142996E+02  0.89948142996E+02  0.00000000000E+00 0.  1.
         23    2    1    2    0    0 -0.93937969752E+01  0.22002145278E+02 -0.22579583642E+02  0.12934307789E+03  0.12508979327E+03 0.  0.
          5    1    3    3  502    0 -0.49526889586E+02  0.54391656576E+02 -0.24266232363E+02  0.77573755421E+02  0.41800000000E+01 0.  1.
         -5    1    3    3    0  502  0.40133092610E+02 -0.32389511297E+02  0.16866487209E+01  0.51769322465E+02  0.41800000000E+01 0.  1.
        -11    1    1    2    0    0 -0.21148385086E+02 -0.10646799595E+02 -0.71061041564E+00  0.23687834441E+02  0.00000000000E+00 0.  1.
         11    1    1    2    0    0  0.30542182061E+02 -0.11355345684E+02  0.14670407737E+03  0.15027925697E+03  0.00000000000E+00 0. -1.
</event>
<event>
 7    1  0.1312490E-005  0.1100357E+03  0.7561462E-02  0.1260504E+00
          2   -1    0    0  501    0  0.00000000000E+00  0.00000000000E+00  0.29738161460E+03  0.29738161460E+03  0.00000000000E+00 0. -1.
         -2   -1    0    0    0  501 -0.00000000000E+00 -0.00000000000E+00 -0.53727618157E+02  0.53727618157E+02  0.00000000000E+00 0.  1.
         23    2    1    2    0    0  0.19334995208E+02 -0.46104527740E+02  0.76255942740E+02  0.15479294596E+03  0.12508564186E+03 0.  0.
          5    1    3    3  502    0 -0.50476785525E+02 -0.25977656361E+02  0.54570847557E+02  0.78855528088E+02  0.41800000000E+01 0.  1.
         -5    1    3    3    0  502  0.69811780733E+02 -0.20126871378E+02  0.21685095184E+02  0.75937417876E+02  0.41800000000E+01 0.  1.
        -11    1    1    2    0    0  0.26663209403E+02  0.21487376314E+01  0.13879740905E+02  0.30136207735E+02  0.00000000000E+00 0.  1.
         11    1    1    2    0    0 -0.45998204611E+02  0.43955790109E+02  0.15351831280E+03  0.16618007906E+03  0.00000000000E+00 0. -1.
</event>
<event>
 7    1  0.1312490E-005  0.2085615E+03  0.7561462E-02  0.1142710E+00
          2   -1    0    0  501    0  0.00000000000E+00  0.00000000000E+00  0.65656350190E+03  0.65656350190E+03  0.00000000000E+00 0.  1.
         -2   -1    0    0    0  501 -0.00000000000E+00 -0.00000000000E+00 -0.40728543885E+03  0.40728543885E+03  0.00000000000E+00 0. -1.
         23    2    1    2    0    0  0.39983587219E+02 -0.18567736334E+03 -0.35630011296E+03  0.42271945698E+03  0.12516867945E+03 0.  0.
          5    1    3    3  502    0 -0.34999339738E+02 -0.11333005524E+03 -0.14743726453E+03  0.18927195929E+03  0.41800000000E+01 0.  1.
         -5    1    3    3    0  502  0.74982926957E+02 -0.72347308099E+02 -0.20886284843E+03  0.23344749769E+03  0.41800000000E+01 0.  1.
        -11    1    1    2    0    0 -0.38641713411E+02  0.83877184200E+02  0.41404721937E+03  0.42422124406E+03  0.00000000000E+00 0.  1.
         11    1    1    2    0    0 -0.13418738087E+01  0.10180017913E+03  0.19153095664E+03  0.21690823970E+03  0.00000000000E+00 0. -1.
</event>
<event>
 7    1  0.1312490E-005  0.1163663E+03  0.7561462E-02  0.1249215E+00
         -1   -1    0    0    0  501 -0.00000000000E+00  0.00000000000E+00  0.91241722906E+02  0.91241722906E+02  0.00000000000E+00 0.  1.
          1   -1    0    0  501    0  0.00000000000E+00 -0.00000000000E+00 -0.22759157516E+03  0.22759157516E+03  0.00000000000E+00 0. -1.
         23    2    1    2    0    0  0.60706385325E+01  0.95276639258E+02 -0.69013572568E+02  0.17182985333E+03  0.12509250439E+03 0.  0.
          5    1    3    3  502    0  0.49508188601E+02  0.29910636524E+02 -0.72883532121E+02  0.93140692344E+02  0.41800000000E+01 0. -1.
         -5    1    3    3    0  502 -0.43437550068E+02  0.65366002734E+02  0.38699595530E+01  0.78689160983E+02  0.41800000000E+01 0. -1.
        -11    1    1    2    0    0  0.18543413497E+01 -0.58293234373E+02  0.11607527455E+02  0.59466582625E+02  0.00000000000E+00 0.  1.
         11    1    1    2    0    0 -0.79249798821E+01 -0.36983404885E+02 -0.78943807145E+02  0.87536862119E+02  0.00000000000E+00 0. -1.
</event>
<event>
 7    1  0.1312490E-005  0.1279844E+03  0.7561462E-02  0.1230478E+00
          1   -1    0    0  501    0  0.00000000000E+00  0.00000000000E+00  0.21544124394E+03  0.21544124394E+03  0.00000000000E+00 0. -1.
         -1   -1    0    0    0  501 -0.00000000000E+00 -0.00000000000E+00 -0.90377822763E+02  0.90377822763E+02  0.00000000000E+00 0.  1.
         23    2    1    2    0    0  0.20678328501E+02  0.80581469374E+02  0.38426048021E+02  0.15506448242E+03  0.12508983198E+03 0.  0.
          5    1    3    3  502    0  0.93989886182E+01  0.11383340519E+03  0.23529646247E+02  0.11669405202E+03  0.41800000000E+01 0.  1.
         -5    1    3    3    0  502  0.11279339883E+02 -0.33251935812E+02  0.14896401773E+02  0.38370430402E+02  0.41800000000E+01 0.  1.
        -11    1    1    2    0    0 -0.40834898057E+02 -0.74999359744E+02  0.95435870851E+02  0.12806403986E+03  0.00000000000E+00 0. -1.
         11    1    1    2    0    0  0.20156569556E+02 -0.55821096302E+01 -0.87984976990E+01  0.22690544418E+02  0.00000000000E+00 0.  1.
</event>
<event>
 7    1  0.1312490E-005  0.1512556E+03  0.7561462E-02  0.1198939E+00
          4   -1    0    0  501    0  0.00000000000E+00  0.00000000000E+00  0.24213302240E+02  0.24213302240E+02  0.00000000000E+00 0. -1.
         -4   -1    0    0    0  501 -0.00000000000E+00 -0.00000000000E+00 -0.10506799851E+04  0.10506799851E+04  0.00000000000E+00 0.  1.
         23    2    1    2    0    0 -0.77240035975E+02 -0.80947437990E+02 -0.62398649318E+03  0.64616182237E+03  0.12508975237E+03 0.  0.
          5    1    3    3  502    0  0.23495857005E+02  0.52100127930E+01 -0.21086546482E+03  0.21227556662E+03  0.41800000000E+01 0.  1.
         -5    1    3    3    0  502 -0.10073589298E+03 -0.86157450783E+02 -0.41312102836E+03  0.43388625575E+03  0.41800000000E+01 0.  1.
        -11    1    1    2    0    0  0.53251188282E+02  0.10101247091E+03 -0.28160293789E+03  0.30387402482E+03  0.00000000000E+00 0. -1.
         11    1    1    2    0    0  0.23988847692E+02 -0.20065032915E+02 -0.12087725176E+03  0.12485744012E+03  0.00000000000E+00 0.  1.
</event>
<event>
 7    1  0.1312490E-005  0.1540943E+03  0.7561462E-02  0.1195530E+00
         -1   -1    0    0    0  501 -0.00000000000E+00  0.00000000000E+00  0.53780663641E+03  0.53780663641E+03  0.00000000000E+00 0.  1.
          1   -1    0    0  501    0  0.00000000000E+00 -0.00000000000E+00 -0.60875613134E+02  0.60875613134E+02  0.00000000000E+00 0. -1.
         23    2    1    2    0    0 -0.10602414697E+03 -0.69377444836E+02  0.36544278143E+03  0.40707433110E+03  0.12691231205E+03 0.  0.
          5    1    3    3  502    0 -0.63887122198E+01  0.31918887852E+02  0.38646025043E+02  0.50701269187E+02  0.41800000000E+01 0. -1.
         -5    1    3    3    0  502 -0.99635434747E+02 -0.10129633269E+03  0.32679675639E+03  0.35637306191E+03  0.41800000000E+01 0.  1.
        -11    1    1    2    0    0  0.23919249250E+02 -0.25673103712E+01  0.71350247453E+02  0.75296609345E+02  0.00000000000E+00 0.  1.
         11    1    1    2    0    0  0.82104897717E+02  0.71944755207E+02  0.40137994398E+02  0.11631130910E+03  0.00000000000E+00 0. -1.
</event>
<event>
 7    1  0.1312490E-005  0.1503199E+03  0.7561462E-02  0.1200080E+00
         -1   -1    0    0    0  501 -0.00000000000E+00  0.00000000000E+00  0.36315388737E+02  0.36315388737E+02  0.00000000000E+00 0.  1.
          1   -1    0    0  501    0  0.00000000000E+00 -0.00000000000E+00 -0.89809946416E+03  0.89809946416E+03  0.00000000000E+00 0. -1.
         23    2    1    2    0    0  0.12873881041E+03  0.24883530399E+02 -0.38273719690E+03  0.42347121604E+03  0.12508891851E+03 0.  0.
          5    1    3    3  502    0 -0.16787103042E+01 -0.27953651331E+02 -0.20838058605E+02  0.35155679163E+02  0.41800000000E+01 0.  1.
         -5    1    3    3    0  502  0.13041752071E+03  0.52837181730E+02 -0.36189913829E+03  0.38831553688E+03  0.41800000000E+01 0.  1.
        -11    1    1    2    0    0 -0.44281361402E+02 -0.13714329837E+02 -0.33171476465E+02  0.57002356630E+02  0.00000000000E+00 0.  1.
         11    1    1    2    0    0 -0.84457449005E+02 -0.11169200562E+02 -0.44587540206E+03  0.45394128023E+03  0.00000000000E+00 0. -1.
</event>
<event>
 7    1  0.1312490E-005  0.1106327E+03  0.7561462E-02  0.1259403E+00
         -3   -1    0    0    0  501 -0.00000000000E+00  0.00000000000E+00  0.36012268274E+03  0.36012268274E+03  0.00000000000E+00 0.  1.
          3   -1    0    0  501    0  0.00000000000E+00 -0.00000000000E+00 -0.36458293127E+02  0.36458293127E+02  0.00000000000E+00 0. -1.
         23    2    1    2    0    0  0.50258402784E+01  0.35185449696E+02  0.21451915205E+03  0.25085759512E+03  0.12509113274E+03 0.  0.
          5    1    3    3  502    0 -0.30945636387E+02 -0.34649274650E+02  0.11430663811E+03  0.12345721753E+03  0.41800000000E+01 0. -1.
         -5    1    3    3    0  502  0.35971476666E+02  0.69834724346E+02  0.10021251395E+03  0.12740037759E+03  0.41800000000E+01 0. -1.
        -11    1    1    2    0    0 -0.37413159703E-01 -0.65365697023E+02  0.66551336255E+02  0.93283203763E+02  0.00000000000E+00 0.  1.
         11    1    1    2    0    0 -0.49884271187E+01  0.30180247326E+02  0.42593901300E+02  0.52440176980E+02  0.00000000000E+00 0. -1.
</event>
<event>
 7    1  0.1312490E-005  0.1976378E+03  0.7561462E-02  0.1151747E+00
          2   -1    0    0  501    0  0.00000000000E+00  0.00000000000E+00  0.18451585674E+04  0.18451585674E+04  0.00000000000E+00 0. -1.
         -2   -1    0    0    0  501 -0.00000000000E+00 -0.00000000000E+00 -0.27921328347E+02  0.27921328347E+02  0.00000000000E+00 0.  1.
         23    2    1    2    0    0 -0.59664958208E+02 -0.17715634182E+03  0.66245273821E+03  0.69959616088E+03  0.12508749445E+03 0.  0.
          5    1    3    3  502    0 -0.15166744188E+01 -0.68276004277E+02  0.43885137232E+03  0.44415302819E+03  0.41800000000E+01 0.  1.
         -5    1    3    3    0  502 -0.58148283790E+02 -0.10888033754E+03  0.22360136589E+03  0.25544313269E+03  0.41800000000E+01 0.  1.
        -11    1    1    2    0    0  0.69637497825E+02  0.17998201821E+03  0.11334844236E+04  0.11497955673E+04  0.00000000000E+00 0. -1.
         11    1    1    2    0    0 -0.99725396165E+01 -0.28256763926E+01  0.21300077240E+02  0.23688167593E+02  0.00000000000E+00 0.  1.
</event>
<event>
 7    1  0.1312490E-005  0.1314853E+03  0.7561462E-02  0.1225268E+00
         -2   -1    0    0    0  501 -0.00000000000E+00  0.00000000000E+00  0.18539265575E+03  0.18539265575E+03  0.00000000000E+00 0.  1.
          2   -1    0    0  501    0  0.00000000000E+00 -0.00000000000E+00 -0.13127017828E+03  0.13127017828E+03  0.00000000000E+00 0. -1.
         23    2    1    2    0    0  0.82087833790E+02  0.74159380292E+02  0.46774519931E+02  0.17341566532E+03  0.12508841322E+03 0.  0.
          5    1    3    3  502    0  0.59204500096E+02  0.20988422046E+02  0.83621818710E+02  0.10466980298E+03  0.41800000000E+01 0. -1.
         -5    1    3    3    0  502  0.22883333694E+02  0.53170958246E+02 -0.36847298779E+02  0.68745862341E+02  0.41800000000E+01 0. -1.
        -11    1    1    2    0    0 -0.47840723954E+02  0.11949801745E+02  0.10933757333E+02  0.50508213982E+02  0.00000000000E+00 0.  1.
         11    1    1    2    0    0 -0.34247109837E+02 -0.86109182037E+02 -0.35857997874E+01  0.92738954724E+02  0.00000000000E+00 0. -1.
</event>
<event>
 7    1  0.1312490E-005  0.1174921E+03  0.7561462E-02  0.1247293E+00
          4   -1    0    0  501    0  0.00000000000E+00  0.00000000000E+00  0.29010798353E+03  0.29010798353E+03  0.00000000000E+00 0. -1.
         -4   -1    0    0    0  501 -0.00000000000E+00 -0.00000000000E+00 -0.59550033756E+02  0.59550033756E+02  0.00000000000E+00 0.  1.
         23    2    1    2    0    0  0.21091705781E+02 -0.40097774961E+02  0.50692319533E+02  0.14237851587E+03  0.12509691807E+03 0.  0.
          5    1    3    3  502    0  0.70600015531E+02 -0.43565424221E+02  0.35241689206E+02  0.90231687553E+02  0.41800000000E+01 0.  1.
         -5    1    3    3    0  502 -0.49508309750E+02  0.34676492602E+01  0.15450630327E+02  0.52146828314E+02  0.41800000000E+01 0.  1.
        -11    1    1    2    0    0  0.35751560387E+02  0.23912487340E+02  0.89556425844E+02  0.99349557275E+02  0.00000000000E+00 0.  1.
         11    1    1    2    0    0 -0.56843266168E+02  0.16185287621E+02  0.90309204399E+02  0.10792994414E+03  0.00000000000E+00 0. -1.
</event>
<event>
 7    1  0.1312490E-005  0.1683462E+03  0.7561462E-02  0.1179584E+00
         -4   -1    0    0    0  501 -0.00000000000E+00  0.00000000000E+00  0.25604045208E+03  0.25604045208E+03  0.00000000000E+00 0.  1.
          4   -1    0    0  501    0  0.00000000000E+00 -0.00000000000E+00 -0.13223817422E+03  0.13223817422E+03  0.00000000000E+00 0. -1.
         23    2    1    2    0    0 -0.65160740186E+02  0.12057615052E+03  0.13490654071E+03  0.22339623484E+03  0.11367309656E+03 0.  0.
          5    1    3    3  502    0 -0.24411811728E+02 -0.16564419715E+02  0.52119791099E+01  0.30248201246E+02  0.41800000000E+01 0. -1.
         -5    1    3    3    0  502 -0.40748928458E+02  0.13714057023E+03  0.12969456160E+03  0.19314803360E+03  0.41800000000E+01 0.  1.
        -11    1    1    2    0    0  0.80545791391E+02 -0.57809084997E+02  0.91998397752E+00  0.99148177943E+02  0.00000000000E+00 0. -1.
         11    1    1    2    0    0 -0.15385051205E+02 -0.62767065523E+02 -0.12024246816E+02  0.65734213515E+02  0.00000000000E+00 0.  1.
</event>
<event>
 7    1  0.1312490E-005  0.1060325E+03  0.7561462E-02  0.1268099E+00
         -2   -1    0    0    0  501 -0.00000000000E+00  0.00000000000E+00  0.52251844917E+02  0.52251844917E+02  0.00000000000E+00 0.  1.
          2   -1    0    0  501    0  0.00000000000E+00 -0.00000000000E+00 -0.29583735992E+03  0.29583735992E+03  0.00000000000E+00 0. -1.
         23    2    1    2    0    0 -0.54648235677E+01 -0.53508756285E+02 -0.92582922329E+02  0.16466002324E+03  0.12509306316E+03 0.  0.
          5    1    3    3  502    0  0.53818817480E+02 -0.36271244016E+02 -0.77112044038E+02  0.10087521000E+03  0.41800000000E+01 0. -1.
         -5    1    3    3    0  502 -0.59283641048E+02 -0.17237512269E+02 -0.15470878291E+02  0.63784813241E+02  0.41800000000E+01 0. -1.
        -11    1    1    2    0    0 -0.20968921280E+02  0.54810075587E+02 -0.14480929519E+03  0.15624843045E+03  0.00000000000E+00 0. -1.
         11    1    1    2    0    0  0.26433744848E+02 -0.13013193013E+01 -0.61932974800E+01  0.27180751135E+02  0.00000000000E+00 0.  1.
</event>
<event>
 7    1  0.1312490E-005  0.9531684E+02  0.7561462E-02  0.1290464E+00
          2   -1    0    0  501    0  0.00000000000E+00  0.00000000000E+00  0.32143392285E+03  0.32143392285E+03  0.00000000000E+00 0. -1.
         -2   -1    0    0    0  501 -0.00000000000E+00 -0.00000000000E+00 -0.63253914293E+02  0.63253914293E+02  0.00000000000E+00 0.  1.
         23    2    1    2    0    0 -0.34958048082E+02  0.87371811724E+02  0.12326046100E+03  0.19922469010E+03  0.12506573188E+03 0.  0.
          5    1    3    3  502    0 -0.13378676808E+02  0.55801862475E+02 -0.11851483838E+02  0.58743228699E+02  0.41800000000E+01 0. -1.
         -5    1    3    3    0  502 -0.21579371275E+02  0.31569949249E+02  0.13511194483E+03  0.14048146140E+03  0.41800000000E+01 0. -1.
        -11    1    1    2    0    0  0.15575757120E+02 -0.26405717380E+02 -0.55100853518E+01  0.31148469638E+02  0.00000000000E+00 0.  1.
         11    1    1    2    0    0  0.19382290962E+02 -0.60966094345E+02  0.14042963291E+03  0.15431467740E+03  0.00000000000E+00 0. -1.
</event>
<event>
 7    1  0.1312490E-005  0.1480480E+03  0.7561462E-02  0.1202892E+00
          4   -1    0    0  501    0  0.00000000000E+00  0.00000000000E+00  0.42782877160E+03  0.42782877160E+03  0.00000000000E+00 0. -1.
         -4   -1    0    0    0  501 -0.00000000000E+00 -0.00000000000E+00 -0.68245137967E+02  0.68245137967E+02  0.00000000000E+00 0.  1.
         23    2    1    2    0    0 -0.12918091294E+03  0.25444930832E+02  0.19643488946E+03  0.26752309343E+03  0.12508711744E+03 0.  0.
          5    1    3    3  502    0 -0.54753977357E+01 -0.26455745337E+02 -0.26013678497E+01  0.27461353870E+02  0.41800000000E+01 0.  1.
         -5    1    3    3    0  502 -0.12370551520E+03  0.51900676169E+02  0.19903625731E+03  0.24006173956E+03  0.41800000000E+01 0.  1.
        -11    1    1    2    0    0  0.16594978024E+02  0.60001073117E+01 -0.95079941597E+01  0.20044863090E+02  0.00000000000E+00 0.  1.
         11    1    1    2    0    0  0.11258593491E+03 -0.31445038144E+02  0.17265673833E+03  0.20850595305E+03  0.00000000000E+00 0. -1.
</event>
<event>
 7    1  0.1312490E-005  0.1109100E+03  0.7561462E-02  0.1258894E+00
         -3   -1    0    0    0  501 -0.00000000000E+00  0.00000000000E+00  0.88614952946E+02  0.88614952946E+02  0.00000000000E+00 0.  1.
          3   -1    0    0  501    0  0.00000000000E+00 -0.00000000000E+00 -0.19819680515E+03  0.19819680515E+03  0.00000000000E+00 0. -1.
         23    2    1    2    0    0  0.43872813136E+02  0.61510783494E+02 -0.67054968287E+02  0.16079289392E+03  0.12509830433E+03 0.  0.
          5    1    3    3  502    0  0.16235062223E+02 -0.38627268926E+02 -0.17101054228E+02  0.45448449982E+02  0.41800000000E+01 0.  1.
         -5    1    3    3    0  502  0.27637750913E+02  0.10013805242E+03 -0.49953914059E+02  0.11534444394E+03  0.41800000000E+01 0.  1.
        -11    1    1    2    0    0 -0.30901449217E+02 -0.38921027292E+02 -0.71488977934E+02  0.87065606845E+02  0.00000000000E+00 0. -1.
         11    1    1    2    0    0 -0.12971363919E+02 -0.22589756203E+02  0.28962094013E+02  0.38953257332E+02  0.00000000000E+00 0.  1.
</event>
<event>
 7    1  0.1312490E-005  0.1646595E+03  0.7561462E-02  0.1183534E+00
         -1   -1    0    0    0  501 -0.00000000000E+00  0.00000000000E+00  0.10435167455E+03  0.10435167455E+03  0.00000000000E+00 0.  1.
          1   -1    0    0  501    0  0.00000000000E+00 -0.00000000000E+00 -0.41918402681E+03  0.41918402681E+03  0.00000000000E+00 0. -1.
         23    2    1    2    0    0  0.12419849495E+02  0.14996117073E+03 -0.44004200106E+02  0.20056677709E+03  0.12509219423E+03 0.  0.
          5    1    3    3  502    0  0.32684115013E+02  0.15192248977E+03 -0.67256254112E+02  0.16937995864E+03  0.41800000000E+01 0.  1.
         -5    1    3    3    0  502 -0.20264265518E+02 -0.19613190411E+01  0.23252054006E+02  0.31186818447E+02  0.41800000000E+01 0.  1.
        -11    1    1    2    0    0  0.84524106271E+01 -0.25048296735E+02 -0.13377150587E+03  0.13635863082E+03  0.00000000000E+00 0. -1.
         11    1    1    2    0    0 -0.20872260122E+02 -0.12491287400E+03 -0.13705664628E+03  0.18661029345E+03  0.00000000000E+00 0.  1.
</event>
<event>
 7    1  0.1312490E-005  0.1015342E+03  0.7561462E-02  0.1277102E+00
          1   -1    0    0  501    0  0.00000000000E+00  0.00000000000E+00  0.15799626594E+03  0.15799626594E+03  0.00000000000E+00 0. -1.
         -1   -1    0    0    0  501 -0.00000000000E+00 -0.00000000000E+00 -0.14151227201E+03  0.14151227201E+03  0.00000000000E+00 0.  1.
         23    2    1    2    0    0  0.34466213522E+02 -0.65908572847E+02 -0.69674459207E+02  0.16134759552E+03  0.12508659587E+03 0.  0.
          5    1    3    3  502    0  0.24292356537E+02 -0.84424070203E+02 -0.94087949423E+02  0.12879268940E+03  0.41800000000E+01 0. -1.
         -5    1    3    3    0  502  0.10173856986E+02  0.18515497356E+02  0.24413490217E+02  0.32554906126E+02  0.41800000000E+01 0. -1.
        -11    1    1    2    0    0  0.21307852596E+01  0.55491814283E+02  0.15088718869E+02  0.57546078366E+02  0.00000000000E+00 0.  1.
         11    1    1    2    0    0 -0.36596998782E+02  0.10416758564E+02  0.71069734262E+02  0.80614864057E+02  0.00000000000E+00 0. -1.
</event>
<event>
 7    1  0.1312490E-005  0.1581095E+03  0.7561462E-02  0.1190848E+00
         -1   -1    0    0    0  501 -0.00000000000E+00  0.00000000000E+00  0.19988718226E+04  0.19988718226E+04  0.00000000000E+00 0. -1.
          1   -1    0    0  501    0  0.00000000000E+00 -0.00000000000E+00 -0.16993929767E+02  0.16993929767E+02  0.00000000000E+00 0.  1.
         23    2    1    2    0    0  0.14695745129E+03  0.42686525657E+02  0.12360606005E+04  0.12517636786E+04  0.12509143519E+03 0.  0.
          5    1    3    3  502    0  0.62055451217E+02  0.29790047443E+02  0.18916448881E+03  0.20134299635E+03  0.41800000000E+01 0.  1.
         -5    1    3    3    0  502  0.84902000071E+02  0.12896478214E+02  0.10468961116E+04  0.10504206823E+04  0.41800000000E+01 0.  1.
        -11    1    1    2    0    0 -0.73244772233E+02  0.51163161283E+01  0.24991308400E+03  0.26047557065E+03  0.00000000000E+00 0.  1.
         11    1    1    2    0    0 -0.73712679055E+02 -0.47802841785E+02  0.49590420841E+03  0.50362650313E+03  0.00000000000E+00 0. -1.
</event>
<event>
 7    1  0.1312490E-005  0.6706935E+02  0.7561462E-02  0.1370352E+00
         -1   -1    0    0    0  501 -0.00000000000E+00  0.00000000000E+00  0.12518471458E+03  0.12518471458E+03  0.00000000000E+00 0.  1.
          1   -1    0    0  501    0  0.00000000000E+00 -0.00000000000E+00 -0.10951777320E+03  0.10951777320E+03  0.00000000000E+00 0. -1.
         23    2    1    2    0    0  0.39750446615E+02 -0.13667943230E+02  0.16391791355E+02  0.13297830843E+03  0.12509048329E+03 0.  0.
          5    1    3    3  502    0  0.25320266635E+02 -0.12308561136E+02  0.70911470068E+02  0.76410245169E+02  0.41800000000E+01 0.  1.
         -5    1    3    3    0  502  0.14430179981E+02 -0.13593820934E+01 -0.54519678713E+02  0.56568063260E+02  0.41800000000E+01 0.  1.
        -11    1    1    2    0    0  0.13183683742E+01  0.41153252148E+02  0.22720448236E+02  0.47027088211E+02  0.00000000000E+00 0.  1.
         11    1    1    2    0    0 -0.41068814990E+02 -0.27485308919E+02 -0.23445298211E+02  0.54697091140E+02  0.00000000000E+00 0. -1.
</event>
<event>
 7    1  0.1312490E-005  0.1164720E+03  0.7561462E-02  0.1249033E+00
         -1   -1    0    0    0  501 -0.00000000000E+00  0.00000000000E+00  0.31397865547E+02  0.31397865547E+02  0.00000000000E+00 0.  1.
          1   -1    0    0  501    0  0.00000000000E+00 -0.00000000000E+00 -0.48435821265E+03  0.48435821265E+03  0.00000000000E+00 0. -1.
         23    2    1    2    0    0  0.12409233515E+02 -0.15333871672E+02 -0.16609668680E+03  0.20886416364E+03  0.12508802017E+03 0.  0.
          5    1    3    3  502    0 -0.31526828599E+01  0.54605808038E+02 -0.72938776900E+02  0.91264841293E+02  0.41800000000E+01 0.  1.
         -5    1    3    3    0  502  0.15561916375E+02 -0.69939679710E+02 -0.93157909897E+02  0.11759932234E+03  0.41800000000E+01 0.  1.
        -11    1    1    2    0    0  0.26556518118E+02  0.48402668606E+02 -0.11457203532E+03  0.12718025893E+03  0.00000000000E+00 0.  1.
         11    1    1    2    0    0 -0.38965751633E+02 -0.33068796933E+02 -0.17229162499E+03  0.17971165564E+03  0.00000000000E+00 0. -1.
</event>
<event>
 7    1  0.1312490E-005  0.1777400E+03  0.7561462E-02  0.1170008E+00
         -2   -1    0    0    0  501 -0.00000000000E+00  0.00000000000E+00  0.93233106143E+02  0.93233106143E+02  0.00000000000E+00 0. -1.
          2   -1    0    0  501    0  0.00000000000E+00 -0.00000000000E+00 -0.39065483635E+03  0.39065483635E+03  0.00000000000E+00 0.  1.
         23    2    1    2    0    0 -0.75809850417E+02  0.13575047411E+03 -0.16972468212E+03  0.26197187197E+03  0.12508984508E+03 0.  0.
          5    1    3    3  502    0  0.25198283548E+02  0.36862157764E+01 -0.21867019421E+01  0.25899724823E+02  0.41800000000E+01 0.  1.
         -5    1    3    3    0  502 -0.10100813396E+03  0.13206425834E+03 -0.16753798018E+03  0.23607214715E+03  0.41800000000E+01 0.  1.
        -11    1    1    2    0    0  0.73723298006E+02 -0.84811575053E+02 -0.37787341277E+02  0.11855804946E+03  0.00000000000E+00 0. -1.
         11    1    1    2    0    0  0.20865524107E+01 -0.50938899061E+02 -0.89909706807E+02  0.10335802106E+03  0.00000000000E+00 0.  1.
</event>
<event>
 7    1  0.1312490E-005  0.1049609E+03  0.7561462E-02  0.1270197E+00
          2   -1    0    0  501    0  0.00000000000E+00  0.00000000000E+00  0.17391494291E+03  0.17391494291E+03  0.00000000000E+00 0. -1.
         -2   -1    0    0    0  501 -0.00000000000E+00 -0.00000000000E+00 -0.78931791947E+02  0.78931791947E+02  0.00000000000E+00 0.  1.
         23    2    1    2    0    0 -0.13270764676E+02 -0.44189759385E+02  0.34985147753E+02  0.13782407649E+03  0.12507064990E+03 0.  0.
          5    1    3    3  502    0  0.42500652818E+02  0.20757287937E+02  0.97073824705E+01  0.48465205734E+02  0.41800000000E+01 0. -1.
         -5    1    3    3    0  502 -0.55771417494E+02 -0.64947047322E+02  0.25277765282E+02  0.89358870756E+02  0.41800000000E+01 0. -1.
        -11    1    1    2    0    0 -0.81228592960E+01  0.52981115640E+02  0.31998349211E+01  0.53695608769E+02  0.00000000000E+00 0.  1.
         11    1    1    2    0    0  0.21393623972E+02 -0.87913562550E+01  0.56798168292E+02  0.61327049601E+02  0.00000000000E+00 0. -1.
</event>
<event>
 7    1  0.1312490E-005  0.1140184E+03  0.7561462E-02  0.1253304E+00
          4   -1    0    0  501    0  0.00000000000E+00  0.00000000000E+00  0.61007640156E+02  0.61007640156E+02  0.00000000000E+00 0. -1.
         -4   -1    0    0    0  501 -0.00000000000E+00 -0.00000000000E+00 -0.29695464684E+03  0.29695464684E+03  0.00000000000E+00 0.  1.
         23    2    1    2    0    0  0.59767779477E+02  0.50302979542E+02 -0.14187983279E+03  0.20464516807E+03  0.12508869113E+03 0.  0.
          5    1    3    3  502    0 -0.10358035717E+02 -0.35095610564E+02 -0.38159655188E+02  0.53034163224E+02  0.41800000000E+01 0.  1.
         -5    1    3    3    0  502  0.70125815194E+02  0.85398590106E+02 -0.10372017760E+03  0.15161100485E+03  0.41800000000E+01 0.  1.
        -11    1    1    2    0    0 -0.28153669121E+02 -0.36585877905E+02 -0.10698002933E+03  0.11651558790E+03  0.00000000000E+00 0.  1.
         11    1    1    2    0    0 -0.31614110356E+02 -0.13717101637E+02  0.12912855434E+02  0.36801531033E+02  0.00000000000E+00 0. -1.
</event>
<event>
 7    1  0.1312490E-005  0.3048463E+03  0.7561462E-02  0.1082843E+00
          1   -1    0    0  501    0  0.00000000000E+00  0.00000000000E+00  0.76930407742E+03  0.76930407742E+03  0.00000000000E+00 0. -1.
         -1   -1    0    0    0  501 -0.00000000000E+00 -0.00000000000E+00 -0.13103740152E+03  0.13103740152E+03  0.00000000000E+00 0.  1.
         23    2    1    2    0    0 -0.21334172248E+03  0.18979853241E+03  0.44586134224E+03  0.54403847536E+03  0.12508937888E+03 0.  0.
          5    1    3    3  502    0 -0.19860170801E+03  0.10330498297E+03  0.32147512773E+03  0.39176305094E+03  0.41800000000E+01 0. -1.
         -5    1    3    3    0  502 -0.14740014464E+02  0.86493549443E+02  0.12438621451E+03  0.15227542442E+03  0.41800000000E+01 0. -1.
        -11    1    1    2    0    0  0.75237309043E+02 -0.12384089336E+03  0.73404593348E+02  0.16243599929E+03  0.00000000000E+00 0. -1.
         11    1    1    2    0    0  0.13810441343E+03 -0.65957639051E+02  0.11900074031E+03  0.19386700429E+03  0.00000000000E+00 0.  1.
</event>
<event>
 7    1  0.1312490E-005  0.1030854E+03  0.7561462E-02  0.1273938E+00
          1   -1    0    0  501    0  0.00000000000E+00  0.00000000000E+00  0.41749288101E+03  0.41749288101E+03  0.00000000000E+00 0. -1.
         -1   -1    0    0    0  501 -0.00000000000E+00 -0.00000000000E+00 -0.67199246795E+02  0.67199246795E+02  0.00000000000E+00 0.  1.
         23    2    1    2    0    0  0.24468430188E+02  0.36957883791E+02  0.12888653700E+02  0.13243800916E+03  0.12413347504E+03 0.  0.
          5    1    3    3  502    0 -0.31244365138E+02  0.38615269956E+02 -0.33284593121E+02  0.59939018726E+02  0.41800000000E+01 0. -1.
         -5    1    3    3    0  502  0.55712795326E+02 -0.16573861655E+01  0.46173246821E+02  0.72498990434E+02  0.41800000000E+01 0.  1.
        -11    1    1    2    0    0  0.27499597881E+02  0.11090917862E+02  0.80872636263E+02  0.86137214018E+02  0.00000000000E+00 0.  1.
         11    1    1    2    0    0 -0.51968028069E+02 -0.48048801652E+02  0.25653234425E+03  0.26611690463E+03  0.00000000000E+00 0. -1.
</event>
<event>
 7    1  0.1312490E-005  0.1067545E+03  0.7561462E-02  0.1266701E+00
         -1   -1    0    0    0  501 -0.00000000000E+00  0.00000000000E+00  0.26553389375E+03  0.26553389375E+03  0.00000000000E+00 0.  1.
          1   -1    0    0  501    0  0.00000000000E+00 -0.00000000000E+00 -0.53481299517E+02  0.53481299517E+02  0.00000000000E+00 0. -1.
         23    2    1    2    0    0  0.46605969939E+02  0.77955252780E+01  0.13242365564E+03  0.18819321481E+03  0.12509106635E+03 0.  0.
          5    1    3    3  502    0  0.48649446217E+02  0.48667402389E+02  0.12980205014E+03  0.14697390685E+03  0.41800000000E+01 0. -1.
         -5    1    3    3    0  502 -0.20434762787E+01 -0.40871877111E+02  0.26216054961E+01  0.41219307966E+02  0.41800000000E+01 0. -1.
        -11    1    1    2    0    0 -0.31476453913E+02 -0.49728975391E+02  0.50685961477E+02  0.77671132573E+02  0.00000000000E+00 0. -1.
         11    1    1    2    0    0 -0.15129516025E+02  0.41933450113E+02  0.28942977119E+02  0.53150845883E+02  0.00000000000E+00 0.  1.
</event>
<event>
 7    1  0.1312490E-005  0.1017006E+03  0.7561462E-02  0.1276760E+00
         -1   -1    0    0    0  501 -0.00000000000E+00  0.00000000000E+00  0.37778099993E+02  0.37778099993E+02  0.00000000000E+00 0.  1.
          1   -1    0    0  501    0  0.00000000000E+00 -0.00000000000E+00 -0.50539848270E+03  0.50539848270E+03  0.00000000000E+00 0. -1.
         23    2    1    2    0    0 -0.19695800767E+02 -0.79637080656E+02 -0.20559850672E+03  0.25425919821E+03  0.12508798794E+03 0.  0.
          5    1    3    3  502    0 -0.22581071659E+02 -0.39346812658E+02 -0.20862119971E+03  0.21353771056E+03  0.41800000000E+01 0. -1.
         -5    1    3    3    0  502  0.28852708922E+01 -0.40290267997E+02  0.30226929900E+01  0.40721487649E+02  0.41800000000E+01 0. -1.
        -11    1    1    2    0    0 -0.29607692608E+01 -0.17367758092E+02 -0.17274904690E+02  0.24674430243E+02  0.00000000000E+00 0.  1.
         11    1    1    2    0    0  0.22656570028E+02  0.97004838748E+02 -0.24474697129E+03  0.26424295424E+03  0.00000000000E+00 0. -1.
</event>
<event>
 7    1  0.1312490E-005  0.8611094E+02  0.7561462E-02  0.1312553E+00
         -3   -1    0    0    0  501 -0.00000000000E+00  0.00000000000E+00  0.57711474364E+03  0.57711474364E+03  0.00000000000E+00 0.  1.
          3   -1    0    0  501    0  0.00000000000E+00 -0.00000000000E+00 -0.25849163116E+02  0.25849163116E+02  0.00000000000E+00 0. -1.
         23    2    1    2    0    0 -0.47799410937E+02 -0.25736858817E+02  0.33542337837E+03  0.36208214213E+03  0.12508982894E+03 0.  0.
          5    1    3    3  502    0 -0.13206191212E+02 -0.28164634488E+02  0.32372928985E+03  0.32524725307E+03  0.41800000000E+01 0.  1.
         -5    1    3    3    0  502 -0.34593219725E+02  0.24277756709E+01  0.11694088520E+02  0.36834889058E+02  0.41800000000E+01 0.  1.
        -11    1    1    2    0    0 -0.22879858723E+02 -0.11943823350E+02  0.68062577873E+02  0.72791877007E+02  0.00000000000E+00 0.  1.
         11    1    1    2    0    0  0.70679269660E+02  0.37680682166E+02  0.14777962428E+03  0.16808988762E+03  0.00000000000E+00 0. -1.
</event>
<event>
 7    1  0.1312490E-005  0.1121091E+03  0.7561462E-02  0.1256713E+00
         -2   -1    0    0    0  501 -0.00000000000E+00  0.00000000000E+00  0.71107184111E+02  0.71107184111E+02  0.00000000000E+00 0.  1.
          2   -1    0    0  501    0  0.00000000000E+00 -0.00000000000E+00 -0.20925034686E+03  0.20925034686E+03  0.00000000000E+00 0. -1.
         23    2    1    2    0    0  0.41922773922E+02  0.14672749057E+02 -0.40236190108E+02  0.13849280371E+03  0.12485390321E+03 0.  0.
          5    1    3    3  502    0  0.78223960886E+02 -0.11191400092E+02 -0.48721612179E+02  0.92927409230E+02  0.41800000000E+01 0. -1.
         -5    1    3    3    0  502 -0.36301186964E+02  0.25864149148E+02  0.84854220714E+01  0.45565394477E+02  0.41800000000E+01 0. -1.
        -11    1    1    2    0    0 -0.52656239880E+02  0.25664732057E+02 -0.41929300051E+02  0.72037658712E+02  0.00000000000E+00 0.  1.
         11    1    1    2    0    0  0.10733465958E+02 -0.40337481114E+02 -0.55977672595E+02  0.69827068556E+02  0.00000000000E+00 0. -1.
</event>
<event>
 7    1  0.1312490E-005  0.1112126E+03  0.7561462E-02  0.1258341E+00
         -1   -1    0    0    0  501 -0.00000000000E+00  0.00000000000E+00  0.40059164038E+03  0.40059164038E+03  0.00000000000E+00 0.  1.
          1   -1    0    0  501    0  0.00000000000E+00 -0.00000000000E+00 -0.33286505426E+02  0.33286505426E+02  0.00000000000E+00 0. -1.
         23    2    1    2    0    0  0.41089375187E+02 -0.30254995676E+02  0.23639762603E+03  0.27227859214E+03  0.12509233641E+03 0.  0.
          5    1    3    3  502    0  0.45631202530E+02 -0.73034340968E+02  0.11728247033E+03  0.14556397855E+03  0.41800000000E+01 0.  1.
         -5    1    3    3    0  502 -0.45418273427E+01  0.42779345292E+02  0.11911515570E+03  0.12671461359E+03  0.41800000000E+01 0.  1.
        -11    1    1    2    0    0 -0.64406233631E+02  0.24958953790E+02  0.10972206204E+03  0.12965355067E+03  0.00000000000E+00 0.  1.
         11    1    1    2    0    0  0.23316858444E+02  0.52960418864E+01  0.21185446887E+02  0.31946002992E+02  0.00000000000E+00 0. -1.
</event>
<event>
 7    1  0.1312490E-005  0.1290920E+03  0.7561462E-02  0.1228809E+00
         -2   -1    0    0    0  501 -0.00000000000E+00  0.00000000000E+00  0.12489361351E+03  0.12489361351E+03  0.00000000000E+00 0. -1.
          2   -1    0    0  501    0  0.00000000000E+00 -0.00000000000E+00 -0.28180451150E+03  0.28180451150E+03  0.00000000000E+00 0.  1.
         23    2    1    2    0    0  0.45503017440E+02  0.61233610094E+02  0.50619944290E+02  0.15501597713E+03  0.12508994686E+03 0.  0.
          5    1    3    3  502    0 -0.22596326966E+02  0.73639066343E+02  0.28241411094E+02  0.82148376641E+02  0.41800000000E+01 0. -1.
         -5    1    3    3    0  502  0.68099344406E+02 -0.12405456249E+02  0.22378533196E+02  0.72867600490E+02  0.41800000000E+01 0. -1.
        -11    1    1    2    0    0 -0.36351721788E+02 -0.81620704436E+02 -0.73202094474E+02  0.11550728854E+03  0.00000000000E+00 0. -1.
         11    1    1    2    0    0 -0.91512956514E+01  0.20387094342E+02 -0.13432874781E+03  0.13617485934E+03  0.00000000000E+00 0.  1.
</event>
<event>
 7    1  0.1312490E-005  0.1254017E+03  0.7561462E-02  0.1234443E+00
          2   -1    0    0  501    0  0.00000000000E+00  0.00000000000E+00  0.46448099089E+03  0.46448099089E+03  0.00000000000E+00 0. -1.
         -2   -1    0    0    0  501 -0.00000000000E+00 -0.00000000000E+00 -0.50939851870E+02  0.50939851870E+02  0.00000000000E+00 0.  1.
         23    2    1    2    0    0  0.36084555513E+02  0.99507869762E+02  0.18426352835E+03  0.24658526089E+03  0.12508929496E+03 0.  0.
          5    1    3    3  502    0  0.40394455390E+02  0.15647670487E+02 -0.57471159146E+00  0.43524295644E+02  0.41800000000E+01 0.  1.
         -5    1    3    3    0  502 -0.43098998762E+01  0.83860199276E+02  0.18483823995E+03  0.20306096524E+03  0.41800000000E+01 0.  1.
        -11    1    1    2    0    0 -0.54215741710E+02 -0.69460620983E+02  0.21228197684E+03  0.22984290768E+03  0.00000000000E+00 0. -1.
         11    1    1    2    0    0  0.18131186197E+02 -0.30047248780E+02  0.16995633828E+02  0.38992674201E+02  0.00000000000E+00 0.  1.
</event>
<event>
 7    1  0.1312490E-005  0.1617422E+03  0.7561462E-02  0.1186744E+00
         -4   -1    0    0    0  501 -0.00000000000E+00  0.00000000000E+00  0.10179257960E+03  0.10179257960E+03  0.00000000000E+00 0.  1.
          4   -1    0    0  501    0  0.00000000000E+00 -0.00000000000E+00 -0.29494653586E+03  0.29494653586E+03  0.00000000000E+00 0. -1.
         23    2    1    2    0    0  0.34059386420E+01 -0.13097779420E+03 -0.70186850167E+02  0.19426970748E+03  0.12509093619E+03 0.  0.
          5    1    3    3  502    0  0.46964844518E+02 -0.94738422339E+02 -0.84795011567E+02  0.13560505770E+03  0.41800000000E+01 0.  1.
         -5    1    3    3    0  502 -0.43558905876E+02 -0.36239371859E+02  0.14608161400E+02  0.58664649776E+02  0.41800000000E+01 0.  1.
        -11    1    1    2    0    0  0.38146003141E+02  0.10530520223E+03 -0.84801098376E+02  0.14048319991E+03  0.00000000000E+00 0.  1.
         11    1    1    2    0    0 -0.41551941783E+02  0.25672591968E+02 -0.38166007717E+02  0.61986208058E+02  0.00000000000E+00 0. -1.
</event>
<event>
 7    1  0.1312490E-005  0.9038855E+02  0.7561462E-02  0.1301913E+00
         -2   -1    0    0    0  501 -0.00000000000E+00  0.00000000000E+00  0.14116136114E+03  0.14116136114E+03  0.00000000000E+00 0.  1.
          2   -1    0    0  501    0  0.00000000000E+00 -0.00000000000E+00 -0.98375706283E+02  0.98375706283E+02  0.00000000000E+00 0. -1.
         23    2    1    2    0    0  0.27034395570E+02 -0.27833241187E+02  0.12901188507E+02  0.13161516344E+03  0.12510220911E+03 0.  0.
          5    1    3    3  502    0 -0.15291771304E+02 -0.58589584911E+02  0.39854674471E+02  0.72611605180E+02  0.41800000000E+01 0. -1.
         -5    1    3    3    0  502  0.42326166874E+02  0.30756343724E+02 -0.26953485964E+02  0.59003558258E+02  0.41800000000E+01 0. -1.
        -11    1    1    2    0    0  0.28669033532E+01  0.36381358953E+02  0.56316773001E+02  0.67107386593E+02  0.00000000000E+00 0.  1.
         11    1    1    2    0    0 -0.29901298923E+02 -0.85481177662E+01 -0.26432306654E+02  0.40814517389E+02  0.00000000000E+00 0. -1.
</event>
<event>
 7    1  0.1312490E-005  0.1139186E+03  0.7561462E-02  0.1253481E+00
         -2   -1    0    0    0  501 -0.00000000000E+00  0.00000000000E+00  0.17375655098E+02  0.17375655098E+02  0.00000000000E+00 0.  1.
          2   -1    0    0  501    0  0.00000000000E+00 -0.00000000000E+00 -0.77013205627E+03  0.77013205627E+03  0.00000000000E+00 0. -1.
         23    2    1    2    0    0  0.39080124751E+02 -0.18229855540E+02 -0.41833980716E+03  0.43876519094E+03  0.12508842767E+03 0.  0.
          5    1    3    3  502    0 -0.44302713637E+02 -0.60618562387E+01 -0.10364289495E+03  0.11295485209E+03  0.41800000000E+01 0.  1.
         -5    1    3    3    0  502  0.83382838388E+02 -0.12167999301E+02 -0.31469691221E+03  0.32581033884E+03  0.41800000000E+01 0.  1.
        -11    1    1    2    0    0  0.29216903277E+01 -0.32536857710E+02 -0.12548960665E+03  0.12967198911E+03  0.00000000000E+00 0. -1.
         11    1    1    2    0    0 -0.42001815079E+02  0.50766713250E+02 -0.20892698736E+03  0.21907053132E+03  0.00000000000E+00 0.  1.
</event>
<event>
 7    1  0.1312490E-005  0.8877641E+02  0.7561462E-02  0.1305842E+00
          1   -1    0    0  501    0  0.00000000000E+00  0.00000000000E+00  0.11680310251E+03  0.11680310251E+03  0.00000000000E+00 0. -1.
         -1   -1    0    0    0  501 -0.00000000000E+00 -0.00000000000E+00 -0.13942426846E+03  0.13942426846E+03  0.00000000000E+00 0.  1.
         23    2    1    2    0    0  0.46662204287E+02  0.34483513455E+01 -0.63135986750E+02  0.14772854832E+03  0.12509324014E+03 0.  0.
          5    1    3    3  502    0  0.47277023730E+02  0.28704796915E+02 -0.93064525712E+02  0.10834002347E+03  0.41800000000E+01 0. -1.
         -5    1    3    3    0  502 -0.61481944289E+00 -0.25256445569E+02  0.29928538962E+02  0.39388524853E+02  0.41800000000E+01 0. -1.
        -11    1    1    2    0    0 -0.25990979860E+02  0.40379219717E+02  0.35629804241E+02  0.59795446058E+02  0.00000000000E+00 0. -1.
         11    1    1    2    0    0 -0.20671224427E+02 -0.43827571062E+02  0.48850165622E+01  0.48703376591E+02  0.00000000000E+00 0.  1.
</event>
<event>
 6    1  0.1312490E-005  0.1227296E+03  0.7561462E-02  0.1238661E+00
         -1   -1    0    0    0  501 -0.00000000000E+00  0.00000000000E+00  0.69579809921E+02  0.69579809921E+02  0.00000000000E+00 0.  1.
          1   -1    0    0  501    0  0.00000000000E+00 -0.00000000000E+00 -0.29512913534E+03  0.29512913534E+03  0.00000000000E+00 0. -1.
          5    1    1    2  502    0 -0.10329944724E+02 -0.83799224774E+02 -0.52811817037E+02  0.99677370799E+02  0.41800000000E+01 0. -1.
         -5    1    1    2    0  502  0.27401835688E+02  0.60167439417E+02  0.17886611942E+01  0.66269548618E+02  0.41800000000E+01 0.  1.
        -11    1    1    2    0    0 -0.12605994473E+01 -0.34454218227E+02 -0.54594231678E+02  0.64569438569E+02  0.00000000000E+00 0. -1.
         11    1    1    2    0    0 -0.15811291517E+02  0.58086003583E+02 -0.11993193790E+03  0.13419258727E+03  0.00000000000E+00 0.  1.
</event>
<event>
 7    1  0.1312490E-005  0.1262618E+03  0.7561462E-02  0.1233110E+00
          3   -1    0    0  501    0  0.00000000000E+00  0.00000000000E+00  0.69139967266E+03  0.69139967266E+03  0.00000000000E+00 0. -1.
         -3   -1    0    0    0  501 -0.00000000000E+00 -0.00000000000E+00 -0.34450261426E+02  0.34450261426E+02  0.00000000000E+00 0.  1.
         23    2    1    2    0    0 -0.42128645190E+02  0.68728306345E+02  0.21458411268E+03  0.26114048156E+03  0.12509838869E+03 0.  0.
          5    1    3    3  502    0 -0.13600370247E+02 -0.27797559805E+02  0.11622121372E+03  0.12034333102E+03  0.41800000000E+01 0. -1.
         -5    1    3    3    0  502 -0.28528274943E+02  0.96525866150E+02  0.98362898965E+02  0.14079715054E+03  0.41800000000E+01 0. -1.
        -11    1    1    2    0    0 -0.17189965952E+02 -0.57719221651E+02  0.97453519636E+02  0.11456086577E+03  0.00000000000E+00 0.  1.
         11    1    1    2    0    0  0.59318611142E+02 -0.11009084694E+02  0.34491177892E+03  0.35014858676E+03  0.00000000000E+00 0. -1.
</event>
<event>
 7    1  0.1312490E-005  0.8229250E+02  0.7561462E-02  0.1322669E+00
         -1   -1    0    0    0  501 -0.00000000000E+00  0.00000000000E+00  0.24273806256E+02  0.24273806256E+02  0.00000000000E+00 0.  1.
          1   -1    0    0  501    0  0.00000000000E+00 -0.00000000000E+00 -0.50360953881E+03  0.50360953881E+03  0.00000000000E+00 0. -1.
         23    2    1    2    0    0  0.20130812122E+02 -0.48703684915E+01 -0.25208022828E+03  0.28216858013E+03  0.12508275676E+03 0.  0.
          5    1    3    3  502    0  0.40999833862E+02  0.37523066424E+02 -0.50928805089E+02  0.75499552836E+02  0.41800000000E+01 0. -1.
         -5    1    3    3    0  502 -0.20869021740E+02 -0.42393434915E+02 -0.20115142319E+03  0.20666902729E+03  0.41800000000E+01 0. -1.
        -11    1    1    2    0    0  0.20302828304E+02  0.52780907743E+01 -0.75123804687E+01  0.22282256162E+02  0.00000000000E+00 0.  1.
         11    1    1    2    0    0 -0.40433640427E+02 -0.40772228281E+00 -0.21974312381E+03  0.22343250878E+03  0.00000000000E+00 0. -1.
</event>
<event>
 7    1  0.1312490E-005  0.1216638E+03  0.7561462E-02  0.1240377E+00
         -2   -1    0    0    0  501 -0.00000000000E+00  0.00000000000E+00  0.12087119739E+03  0.12087119739E+03  0.00000000000E+00 0.  1.
          2   -1    0    0  501    0  0.00000000000E+00 -0.00000000000E+00 -0.17361886681E+03  0.17361886681E+03  0.00000000000E+00 0. -1.
         23    2    1    2    0    0 -0.48838617889E+01 -0.93280730652E+02 -0.10289198385E+02  0.15645955657E+03  0.12509427813E+03 0.  0.
          5    1    3    3  502    0 -0.83480179756E+01 -0.11866767102E+03 -0.31278333287E+02  0.12307522936E+03  0.41800000000E+01 0. -1.
         -5    1    3    3    0  502  0.34641561866E+01  0.25386940365E+02  0.20989134902E+02  0.33384327208E+02  0.41800000000E+01 0. -1.
        -11    1    1    2    0    0  0.17599815854E+02  0.42860695031E+02  0.25164939358E+02  0.52726339428E+02  0.00000000000E+00 0.  1.
         11    1    1    2    0    0 -0.12715954065E+02  0.50420035621E+02 -0.67623410393E+02  0.85304168204E+02  0.00000000000E+00 0. -1.
</event>
<event>
 6    1  0.1312490E-005  0.1731052E+03  0.7561462E-02  0.1174648E+00
         -2   -1    0    0    0  501 -0.00000000000E+00  0.00000000000E+00  0.73227470071E+02  0.73227470071E+02  0.00000000000E+00 0.  1.
          2   -1    0    0  501    0  0.00000000000E+00 -0.00000000000E+00 -0.43418307518E+03  0.43418307518E+03  0.00000000000E+00 0. -1.
          5    1    1    2  502    0 -0.13334003284E+03 -0.47447655932E+02 -0.20363680787E+03  0.24802472927E+03  0.41800000000E+01 0. -1.
         -5    1    1    2    0  502  0.89090162453E+02 -0.73929963726E+01 -0.69035249331E+02  0.11302677334E+03  0.41800000000E+01 0.  1.
        -11    1    1    2    0    0  0.64314767294E+02  0.88163355842E+01 -0.61644095630E+02  0.89521570536E+02  0.00000000000E+00 0. -1.
         11    1    1    2    0    0 -0.20064896904E+02  0.46024316720E+02 -0.26639452280E+02  0.56837472104E+02  0.00000000000E+00 0.  1.
</event>
<event>
 7    1  0.1312490E-005  0.1169622E+03  0.7561462E-02  0.1248194E+00
          2   -1    0    0  501    0  0.00000000000E+00  0.00000000000E+00  0.51069733385E+03  0.51069733385E+03  0.00000000000E+00 0.  1.
         -2   -1    0    0    0  501 -0.00000000000E+00 -0.00000000000E+00 -0.39272723597E+02  0.39272723597E+02  0.00000000000E+00 0. -1.
         23    2    1    2    0    0 -0.86937823588E+02 -0.97721169826E+01  0.21055995380E+03  0.26006985387E+03  0.12508858985E+03 0.  0.
          5    1    3    3  502    0  0.26347333377E+01 -0.22623803611E+02 -0.71747097699E+01  0.24243084991E+02  0.41800000000E+01 0. -1.
         -5    1    3    3    0  502 -0.89572556926E+02  0.12851686629E+02  0.21773466357E+03  0.23582676888E+03  0.41800000000E+01 0. -1.
        -11    1    1    2    0    0  0.57667444800E+02  0.45885299793E+02  0.20114959972E+03  0.21422454666E+03  0.00000000000E+00 0.  1.
         11    1    1    2    0    0  0.29270378788E+02 -0.36113182810E+02  0.59715056738E+02  0.75675656907E+02  0.00000000000E+00 0. -1.
</event>
<event>
 7    1  0.1312490E-005  0.9925371E+02  0.7561462E-02  0.1281873E+00
          2   -1    0    0  501    0  0.00000000000E+00  0.00000000000E+00  0.34452126445E+02  0.34452126445E+02  0.00000000000E+00 0. -1.
         -2   -1    0    0    0  501 -0.00000000000E+00 -0.00000000000E+00 -0.51866589029E+03  0.51866589029E+03  0.00000000000E+00 0.  1.
         23    2    1    2    0    0 -0.22552239170E+02 -0.40813455746E+02 -0.40075256761E+03  0.42240282010E+03  0.12508868981E+03 0.  0.
          5    1    3    3  502    0  0.28287707880E+02  0.68220608976E+01 -0.29004395532E+03  0.29152993560E+03  0.41800000000E+01 0.  1.
         -5    1    3    3    0  502 -0.50839947051E+02 -0.47635516643E+02 -0.11070861229E+03  0.13087288450E+03  0.41800000000E+01 0.  1.
        -11    1    1    2    0    0 -0.15042097241E+02  0.56582373713E+02 -0.59266238204E+02  0.83308563156E+02  0.00000000000E+00 0.  1.
         11    1    1    2    0    0  0.37594336411E+02 -0.15768917967E+02 -0.24194958034E+02  0.47406633484E+02  0.00000000000E+00 0. -1.
</event>
<event>
 7    1  0.1312490E-005  0.9710984E+02  0.7561462E-02  0.1286494E+00
         -2   -1    0    0    0  501 -0.00000000000E+00  0.00000000000E+00  0.18180106913E+02  0.18180106913E+02  0.00000000000E+00 0.  1.
          2   -1    0    0  501    0  0.00000000000E+00 -0.00000000000E+00 -0.76250700936E+03  0.76250700936E+03  0.00000000000E+00 0. -1.
         23    2    1    2    0    0  0.18394449477E+02  0.36688680846E+02 -0.40674918031E+03  0.42752473401E+03  0.12509231566E+03 0.  0.
          5    1    3    3  502    0  0.23921454162E+02  0.74875209444E+02 -0.35020885796E+03  0.35894602596E+03  0.41800000000E+01 0. -1.
         -5    1    3    3    0  502 -0.55270046856E+01 -0.38186528598E+02 -0.56540322349E+02  0.68578708055E+02  0.41800000000E+01 0. -1.
        -11    1    1    2    0    0 -0.26569282136E+02 -0.52530834727E+02 -0.32736806464E+03  0.33261879847E+03  0.00000000000E+00 0. -1.
         11    1    1    2    0    0  0.81748326592E+01  0.15842153881E+02 -0.10209657496E+02  0.20543583786E+02  0.00000000000E+00 0.  1.
</event>
<event>
 7    1  0.1312490E-005  0.1343742E+03  0.7561462E-02  0.1221106E+00
         -1   -1    0    0    0  501 -0.00000000000E+00  0.00000000000E+00  0.45816216298E+02  0.45816216298E+02  0.00000000000E+00 0.  1.
          1   -1    0    0  501    0  0.00000000000E+00 -0.00000000000E+00 -0.61824279179E+03  0.61824279179E+03  0.00000000000E+00 0. -1.
         23    2    1    2    0    0  0.12691995711E+03 -0.48211238895E+01 -0.25177471947E+03  0.30849814822E+03  0.12509468151E+03 0.  0.
          5    1    3    3  502    0  0.10393526811E+03 -0.26408966959E+02 -0.80137450540E+02  0.13393825769E+03  0.41800000000E+01 0.  1.
         -5    1    3    3    0  502  0.22984688993E+02  0.21587843070E+02 -0.17163726893E+03  0.17455989053E+03  0.41800000000E+01 0.  1.
        -11    1    1    2    0    0 -0.73992798999E+02 -0.99791283872E+01 -0.83012530394E+02  0.11164944026E+03  0.00000000000E+00 0. -1.
         11    1    1    2    0    0 -0.52927158107E+02  0.14800252277E+02 -0.23763932564E+03  0.24391141962E+03  0.00000000000E+00 0.  1.
</event>
<event>
 7    1  0.1312490E-005  0.6973141E+02  0.7561462E-02  0.1361009E+00
         -2   -1    0    0    0  501 -0.00000000000E+00  0.00000000000E+00  0.93892509896E+02  0.93892509896E+02  0.00000000000E+00 0.  1.
          2   -1    0    0  501    0  0.00000000000E+00 -0.00000000000E+00 -0.18602709035E+03  0.18602709035E+03  0.00000000000E+00 0. -1.
         23    2    1    2    0    0  0.13475871542E+02 -0.30854341130E+01  0.28003958920E+02  0.12892803628E+03  0.12508836000E+03 0.  0.
          5    1    3    3  502    0  0.60805815613E+01  0.21285534641E+02 -0.45637441099E+02  0.50894949525E+02  0.41800000000E+01 0. -1.
         -5    1    3    3    0  502  0.73952899803E+01 -0.24370968754E+02  0.73641400019E+02  0.78033086756E+02  0.41800000000E+01 0. -1.
        -11    1    1    2    0    0 -0.52203509415E+02  0.42875331138E+01 -0.75381393928E+02  0.91792940283E+02  0.00000000000E+00 0. -1.
         11    1    1    2    0    0  0.38727637873E+02 -0.12020990008E+01 -0.44757145450E+02  0.59198623684E+02  0.00000000000E+00 0.  1.
</event>
<event>
 7    1  0.1312490E-005  0.1330603E+03  0.7561462E-02  0.1222984E+00
          2   -1    0    0  501    0  0.00000000000E+00  0.00000000000E+00  0.82647404677E+03  0.82647404677E+03  0.00000000000E+00 0. -1.
         -2   -1    0    0    0  501 -0.00000000000E+00 -0.00000000000E+00 -0.25056927712E+02  0.25056927712E+02  0.00000000000E+00 0.  1.
         23    2    1    2    0    0  0.70292967699E+02 -0.33421141233E+02  0.28003108101E+03  0.31641862360E+03  0.12508103389E+03 0.  0.
          5    1    3    3  502    0 -0.34597917500E+02 -0.19171123418E+02  0.98655368868E+02  0.10637152850E+03  0.41800000000E+01 0.  1.
         -5    1    3    3    0  502  0.10489088520E+03 -0.14250017816E+02  0.18137571214E+03  0.21004709510E+03  0.41800000000E+01 0.  1.
        -11    1    1    2    0    0  0.18134234265E+02  0.25961377174E+02  0.14081459223E+03  0.14433153828E+03  0.00000000000E+00 0.  1.
         11    1    1    2    0    0 -0.88427201965E+02  0.74597640598E+01  0.38057144582E+03  0.39078081261E+03  0.00000000000E+00 0. -1.
</event>
<event>
 7    1  0.1312490E-005  0.8906924E+02  0.7561462E-02  0.1305121E+00
          1   -1    0    0  501    0  0.00000000000E+00  0.00000000000E+00  0.12483618422E+03  0.12483618422E+03  0.00000000000E+00 0. -1.
         -1   -1    0    0    0  501 -0.00000000000E+00 -0.00000000000E+00 -0.16047532469E+03  0.16047532469E+03  0.00000000000E+00 0.  1.
         23    2    1    2    0    0 -0.19794522838E+01  0.54054698302E+02 -0.50250915662E+02  0.14525367848E+03  0.12509055898E+03 0.  0.
          5    1    3    3  502    0  0.10891964571E+02  0.28199333090E+02 -0.90517804248E+02  0.95523727758E+02  0.41800000000E+01 0.  1.
         -5    1    3    3    0  502 -0.12871416855E+02  0.25855365212E+02  0.40266888586E+02  0.49729950719E+02  0.41800000000E+01 0.  1.
        -11    1    1    2    0    0 -0.12477055335E+02  0.30344636963E+02  0.39056341072E+02  0.51008545168E+02  0.00000000000E+00 0. -1.
         11    1    1    2    0    0  0.14456507618E+02 -0.84399335265E+02 -0.24444565873E+02  0.89049285266E+02  0.00000000000E+00 0.  1.
</event>
<event>
 7    1  0.1312490E-005  0.1784797E+03  0.7561462E-02  0.1169283E+00
          2   -1    0    0  501    0  0.00000000000E+00  0.00000000000E+00  0.19703640636E+03  0.19703640636E+03  0.00000000000E+00 0. -1.
         -2   -1    0    0    0  501 -0.00000000000E+00 -0.00000000000E+00 -0.22806866869E+03  0.22806866869E+03  0.00000000000E+00 0.  1.
         23    2    1    2    0    0  0.22923975199E+02  0.15510596112E+03 -0.10930672511E+03  0.22842777920E+03  0.12509165577E+03 0.  0.
          5    1    3    3  502    0  0.68578629559E+02  0.12290654509E+03 -0.57408853731E+02  0.15206017278E+03  0.41800000000E+01 0.  1.
         -5    1    3    3    0  502 -0.45654654360E+02  0.32199416024E+02 -0.51897871378E+02  0.76367606422E+02  0.41800000000E+01 0.  1.
        -11    1    1    2    0    0 -0.26568054462E+02 -0.68878327260E+02  0.81944117306E+02  0.11029471359E+03  0.00000000000E+00 0.  1.
         11    1    1    2    0    0  0.36440792634E+01 -0.86227633856E+02 -0.36696545298E+01  0.86382582263E+02  0.00000000000E+00 0. -1.
</event>
<event>
 7    1  0.1312490E-005  0.9645304E+02  0.7561462E-02  0.1287937E+00
         -3   -1    0    0    0  501 -0.00000000000E+00  0.00000000000E+00  0.21958618686E+03  0.21958618686E+03  0.00000000000E+00 0.  1.
          3   -1    0    0  501    0  0.00000000000E+00 -0.00000000000E+00 -0.72467941622E+02  0.72467941622E+02  0.00000000000E+00 0. -1.
         23    2    1    2    0    0 -0.59729531374E+01 -0.55133941952E+02  0.11938975681E+03  0.18159384935E+03  0.12508790655E+03 0.  0.
          5    1    3    3  502    0  0.28854123649E+02  0.16524077060E+02  0.90893787130E+02  0.96874963294E+02  0.41800000000E+01 0.  1.
         -5    1    3    3    0  502 -0.34827076786E+02 -0.71658019012E+02  0.28495969683E+02  0.84718886055E+02  0.41800000000E+01 0.  1.
        -11    1    1    2    0    0 -0.23070299141E+02  0.41600870221E+02  0.51841569142E+02  0.70359216857E+02  0.00000000000E+00 0.  1.
         11    1    1    2    0    0  0.29043252279E+02  0.13533071732E+02 -0.24113080722E+02  0.40101062271E+02  0.00000000000E+00 0. -1.
</event>
<event>
 7    1  0.1312490E-005  0.2045290E+03  0.7561462E-02  0.1145973E+00
          2   -1    0    0  501    0  0.00000000000E+00  0.00000000000E+00  0.13079800675E+04  0.13079800675E+04  0.00000000000E+00 0. -1.
         -2   -1    0    0    0  501 -0.00000000000E+00 -0.00000000000E+00 -0.35314322359E+02  0.35314322359E+02  0.00000000000E+00 0.  1.
         23    2    1    2    0    0 -0.12852631738E+03  0.13272379205E+03  0.68135296682E+03  0.71695415775E+03  0.12508708843E+03 0.  0.
          5    1    3    3  502    0 -0.14153077408E+03  0.69440526729E+02  0.50748768573E+03  0.53142654274E+03  0.41800000000E+01 0. -1.
         -5    1    3    3    0  502  0.13004456695E+02  0.63283265321E+02  0.17386528109E+03  0.18552761501E+03  0.41800000000E+01 0. -1.
        -11    1    1    2    0    0  0.29132568814E+02 -0.15760393221E+02  0.30936394933E+02  0.45322809838E+02  0.00000000000E+00 0.  1.
         11    1    1    2    0    0  0.99393748567E+02 -0.11696339883E+03  0.56037638342E+03  0.58101742230E+03  0.00000000000E+00 0. -1.
</event>
<event>
 7    1  0.1312490E-005  0.9354343E+02  0.7561462E-02  0.1294491E+00
          1   -1    0    0  501    0  0.00000000000E+00  0.00000000000E+00  0.68868306709E+03  0.68868306709E+03  0.00000000000E+00 0. -1.
         -1   -1    0    0    0  501 -0.00000000000E+00 -0.00000000000E+00 -0.25150874976E+02  0.25150874976E+02  0.00000000000E+00 0.  1.
         23    2    1    2    0    0  0.17075715645E+01  0.69329379528E+02  0.29385683452E+03  0.32681798176E+03  0.12509466554E+03 0.  0.
          5    1    3    3  502    0 -0.28929547712E+02  0.38683894898E+02  0.25174203280E+02  0.54631267293E+02  0.41800000000E+01 0.  1.
         -5    1    3    3    0  502  0.30637119276E+02  0.30645484630E+02  0.26868263124E+03  0.27218671447E+03  0.41800000000E+01 0.  1.
        -11    1    1    2    0    0 -0.30663121568E+02 -0.54502669292E+02  0.32920427000E+03  0.33509135974E+03  0.00000000000E+00 0. -1.
         11    1    1    2    0    0  0.28955550003E+02 -0.14826710236E+02  0.40471087589E+02  0.51924600557E+02  0.00000000000E+00 0.  1.
</event>
<event>
 7    1  0.1312490E-005  0.1061054E+03  0.7561462E-02  0.1267957E+00
          1   -1    0    0  501    0  0.00000000000E+00  0.00000000000E+00  0.37113370516E+03  0.37113370516E+03  0.00000000000E+00 0. -1.
         -1   -1    0    0    0  501 -0.00000000000E+00 -0.00000000000E+00 -0.61141977872E+02  0.61141977872E+02  0.00000000000E+00 0.  1.
         23    2    1    2    0    0  0.48823120007E+02 -0.69421279690E+02  0.83563605898E+02  0.17271459443E+03  0.12507775092E+03 0.  0.
          5    1    3    3  502    0  0.25536680603E+02 -0.13106156191E+02  0.10426073023E+03  0.10822044934E+03  0.41800000000E+01 0. -1.
         -5    1    3    3    0  502  0.23286439403E+02 -0.56315123499E+02 -0.20697124335E+02  0.64494145087E+02  0.41800000000E+01 0. -1.
        -11    1    1    2    0    0 -0.20638185935E+02  0.86659462397E+02  0.19296993824E+03  0.21253986498E+03  0.00000000000E+00 0. -1.
         11    1    1    2    0    0 -0.28184934071E+02 -0.17238182707E+02  0.33458183150E+02  0.47021223627E+02  0.00000000000E+00 0.  1.
</event>
<event>
 7    1  0.1312490E-005  0.1009642E+03  0.7561462E-02  0.1278281E+00
          2   -1    0    0  501    0  0.00000000000E+00  0.00000000000E+00  0.88170094830E+02  0.88170094830E+02  0.00000000000E+00 0. -1.
         -2   -1    0    0    0  501 -0.00000000000E+00 -0.00000000000E+00 -0.18512657996E+03  0.18512657996E+03  0.00000000000E+00 0.  1.
         23    2    1    2    0    0 -0.14992355225E+01  0.79862355436E+00 -0.12601317522E+03  0.17756560070E+03  0.12508931496E+03 0.  0.
          5    1    3    3  502    0 -0.44867986507E+02  0.44103608237E+02 -0.72629305065E+02  0.96180833990E+02  0.41800000000E+01 0. -1.
         -5    1    3    3    0  502  0.43368750985E+02 -0.43304984682E+02 -0.53383870157E+02  0.81384766715E+02  0.41800000000E+01 0. -1.
        -11    1    1    2    0    0 -0.37934060110E+02 -0.20771818812E+01  0.39616081486E+02  0.54888446082E+02  0.00000000000E+00 0.  1.
         11    1    1    2    0    0  0.39433295632E+02  0.12785583269E+01 -0.10559391398E+02  0.40842628007E+02  0.00000000000E+00 0. -1.
</event>
<event>
 7    1  0.2701942E-005  0.2034278E+03  0.7561462E-02  0.1146879E+00
         -2   -1    0    0    0  501 -0.00000000000E+00  0.00000000000E+00  0.66563702684E+02  0.66563702684E+02  0.00000000000E+00 0. -1.
          2   -1    0    0  501    0  0.00000000000E+00 -0.00000000000E+00 -0.70097193593E+03  0.70097193593E+03  0.00000000000E+00 0.  1.
         23    2    1    2    0    0 -0.14348134626E+03  0.11585619845E+03 -0.28300464896E+03  0.36020690408E+03  0.12509127456E+03 0.  0.
          5    1    3    3  502    0 -0.14111266633E+03  0.40465754116E+02 -0.17602555600E+03  0.22924382351E+03  0.41800000000E+01 0.  1.
         -5    1    3    3    0  502 -0.23686799339E+01  0.75390444333E+02 -0.10697909296E+03  0.13096308057E+03  0.41800000000E+01 0.  1.
        -11    1    1    2    0    0  0.85353228813E+02 -0.66621074459E+02 -0.28977742436E+03  0.30934527134E+03  0.00000000000E+00 0.  1.
         11    1    1    2    0    0  0.58128117448E+02 -0.49235123989E+02 -0.61626159926E+02  0.97983463194E+02  0.00000000000E+00 0. -1.
</event>
<event>
 7    1  0.1312490E-005  0.3161582E+03  0.7561462E-02  0.1077431E+00
         -2   -1    0    0    0  501 -0.00000000000E+00  0.00000000000E+00  0.12949700119E+03  0.12949700119E+03  0.00000000000E+00 0. -1.
          2   -1    0    0  501    0  0.00000000000E+00 -0.00000000000E+00 -0.83393013136E+03  0.83393013136E+03  0.00000000000E+00 0.  1.
         23    2    1    2    0    0 -0.56013559744E+02  0.30514358255E+03 -0.36351899070E+03  0.49400666883E+03  0.12508560028E+03 0.  0.
          5    1    3    3  502    0 -0.66184772603E+02  0.13051715730E+03 -0.23513791553E+03  0.27698820226E+03  0.41800000000E+01 0.  1.
         -5    1    3    3    0  502  0.10171212859E+02  0.17462642525E+03 -0.12838107517E+03  0.21701846656E+03  0.41800000000E+01 0.  1.
        -11    1    1    2    0    0  0.15597054930E+02 -0.14267146492E+03 -0.22088201641E+03  0.26341465449E+03  0.00000000000E+00 0.  1.
         11    1    1    2    0    0  0.40416504815E+02 -0.16247211763E+03 -0.12003212306E+03  0.20600580923E+03  0.00000000000E+00 0. -1.
</event>
<event>
 7    1  0.1312490E-005  0.1210870E+03  0.7561462E-02  0.1241314E+00
          2   -1    0    0  501    0  0.00000000000E+00  0.00000000000E+00  0.17694771685E+03  0.17694771685E+03  0.00000000000E+00 0.  1.
         -2   -1    0    0    0  501 -0.00000000000E+00 -0.00000000000E+00 -0.95573491922E+02  0.95573491922E+02  0.00000000000E+00 0. -1.
         23    2    1    2    0    0  0.51350635243E+01 -0.56511804939E+02 -0.54694165889E+00  0.13736436983E+03  0.12509483594E+03 0.  0.
          5    1    3    3  502    0 -0.59035738586E+02 -0.21737053064E+02 -0.93144353300E+01  0.63733421466E+02  0.41800000000E+01 0.  1.
         -5    1    3    3    0  502  0.64170802110E+02 -0.34774751876E+02  0.87674936711E+01  0.73630948363E+02  0.41800000000E+01 0.  1.
        -11    1    1    2    0    0 -0.26741907413E+02 -0.15448683227E+02  0.34524706254E+02  0.46322205986E+02  0.00000000000E+00 0. -1.
         11    1    1    2    0    0  0.21606843888E+02  0.71960488167E+02  0.47396460329E+02  0.88834632952E+02  0.00000000000E+00 0.  1.
</event>
<event>
 7    1  0.1312490E-005  0.7196813E+02  0.7561462E-02  0.1353525E+00
          1   -1    0    0  501    0  0.00000000000E+00  0.00000000000E+00  0.28708180245E+03  0.28708180245E+03  0.00000000000E+00 0. -1.
         -1   -1    0    0    0  501 -0.00000000000E+00 -0.00000000000E+00 -0.53351359337E+02  0.53351359337E+02  0.00000000000E+00 0.  1.
         23    2    1    2    0    0  0.20722934637E+02  0.30521076613E+02  0.67894397905E+02  0.14703280639E+03  0.12509204911E+03 0.  0.
          5    1    3    3  502    0  0.48046240304E+02  0.21534390985E+02 -0.18434990481E+02  0.55941866938E+02  0.41800000000E+01 0.  1.
         -5    1    3    3    0  502 -0.27323305667E+02  0.89866856282E+01  0.86329388386E+02  0.91090939452E+02  0.41800000000E+01 0.  1.
        -11    1    1    2    0    0  0.10611994923E+02  0.73434409510E+01 -0.63174857109E+01  0.14368409339E+02  0.00000000000E+00 0.  1.
         11    1    1    2    0    0 -0.31334929560E+02 -0.37864517564E+02  0.17215353092E+03  0.17903194606E+03  0.00000000000E+00 0. -1.
</event>
<event>
 7    1  0.1312490E-005  0.2523283E+03  0.7561462E-02  0.1111842E+00
          1   -1    0    0  501    0  0.00000000000E+00  0.00000000000E+00  0.24562652088E+04  0.24562652088E+04  0.00000000000E+00 0. -1.
         -1   -1    0    0    0  501 -0.00000000000E+00 -0.00000000000E+00 -0.29187733057E+02  0.29187733057E+02  0.00000000000E+00 0.  1.
         23    2    1    2    0    0  0.18439623183E+03  0.16062750047E+03  0.12344699953E+04  0.12646603173E+04  0.12508550879E+03 0.  0.
          5    1    3    3  502    0  0.65534462451E+02  0.82261917964E+02  0.81274368947E+03  0.81953130880E+03  0.41800000000E+01 0.  1.
         -5    1    3    3    0  502  0.11886176938E+03  0.78365582507E+02  0.42172630583E+03  0.44512900846E+03  0.41800000000E+01 0.  1.
        -11    1    1    2    0    0 -0.73567895053E+02 -0.16921780765E+02  0.26215261367E+03  0.27280501223E+03  0.00000000000E+00 0.  1.
         11    1    1    2    0    0 -0.11082833678E+03 -0.14370571971E+03  0.93045486680E+03  0.94798761240E+03  0.00000000000E+00 0. -1.
</event>
<event>
 7    1  0.1312490E-005  0.1202200E+03  0.7561462E-02  0.1242735E+00
         -1   -1    0    0    0  501 -0.00000000000E+00  0.00000000000E+00  0.10718112337E+03  0.10718112337E+03  0.00000000000E+00 0.  1.
          1   -1    0    0  501    0  0.00000000000E+00 -0.00000000000E+00 -0.16860756559E+03  0.16860756559E+03  0.00000000000E+00 0. -1.
         23    2    1    2    0    0 -0.34235095934E+02 -0.53131250630E+02  0.13614944713E+02  0.14081234511E+03  0.12509107974E+03 0.  0.
          5    1    3    3  502    0 -0.32421479798E+02 -0.91671793431E+02  0.24776626949E+02  0.10043019320E+03  0.41800000000E+01 0. -1.
         -5    1    3    3    0  502 -0.18136161359E+01  0.38540542801E+02 -0.11161682236E+02  0.40382151914E+02  0.41800000000E+01 0. -1.
        -11    1    1    2    0    0 -0.27510038816E+02  0.21588881034E+02 -0.50500227585E+02  0.61426012455E+02  0.00000000000E+00 0.  1.
         11    1    1    2    0    0  0.61745134750E+02  0.31542369595E+02 -0.24541159345E+02  0.73550331386E+02  0.00000000000E+00 0. -1.
</event>
<event>
 7    1  0.1312490E-005  0.1388936E+03  0.7561462E-02  0.1214826E+00
         -4   -1    0    0    0  501 -0.00000000000E+00  0.00000000000E+00  0.17035787124E+03  0.17035787124E+03  0.00000000000E+00 0.  1.
          4   -1    0    0  501    0  0.00000000000E+00 -0.00000000000E+00 -0.24030904494E+03  0.24030904494E+03  0.00000000000E+00 0. -1.
         23    2    1    2    0    0  0.18920333706E+02 -0.11287813061E+03  0.93536994036E+02  0.19363887959E+03  0.12508954807E+03 0.  0.
          5    1    3    3  502    0  0.10643749881E+02 -0.13650025298E+03  0.55240574159E+02  0.14769767063E+03  0.41800000000E+01 0. -1.
         -5    1    3    3    0  502  0.82765838246E+01  0.23622122371E+02  0.38296419876E+02  0.45941208957E+02  0.41800000000E+01 0. -1.
        -11    1    1    2    0    0 -0.20127205362E+02  0.78712120660E+02 -0.16379717652E+03  0.18283932118E+03  0.00000000000E+00 0. -1.
         11    1    1    2    0    0  0.12068716566E+01  0.34166009952E+02  0.30900878573E+00  0.34188715414E+02  0.00000000000E+00 0.  1.
</event>
<event>
 7    1  0.1694889E-005  0.2424361E+03  0.7561462E-02  0.1118181E+00
         -2   -1    0    0    0  501 -0.00000000000E+00  0.00000000000E+00  0.61522074619E+02  0.61522074619E+02  0.00000000000E+00 0.  1.
          2   -1    0    0  501    0  0.00000000000E+00 -0.00000000000E+00 -0.13220171762E+04  0.13220171762E+04  0.00000000000E+00 0. -1.
         23    2    1    2    0    0 -0.18046874696E+03  0.15306675140E+03 -0.36417788900E+03  0.45196399736E+03  0.12509005179E+03 0.  0.
          5    1    3    3  502    0 -0.12172364922E+01  0.18477028431E+02  0.53693828634E+01  0.19727770190E+02  0.41800000000E+01 0.  1.
         -5    1    3    3    0  502 -0.17925151047E+03  0.13458972297E+03 -0.36954727187E+03  0.43223622717E+03  0.41800000000E+01 0.  1.
        -11    1    1    2    0    0  0.60628707713E+02 -0.83295463239E+02 -0.52932680012E+03  0.53925952538E+03  0.00000000000E+00 0. -1.
         11    1    1    2    0    0  0.11984003924E+03 -0.69771288160E+02 -0.36699041243E+03  0.39231572804E+03  0.00000000000E+00 0.  1.
</event>
<event>
 7    1  0.1312490E-005  0.1109816E+03  0.7561462E-02  0.1258763E+00
          2   -1    0    0  501    0  0.00000000000E+00  0.00000000000E+00  0.57866310219E+02  0.57866310219E+02  0.00000000000E+00 0. -1.
         -2   -1    0    0    0  501 -0.00000000000E+00 -0.00000000000E+00 -0.25702963073E+03  0.25702963073E+03  0.00000000000E+00 0.  1.
         23    2    1    2    0    0  0.51758454497E+02 -0.58064945486E+01 -0.14589604197E+03  0.19911215662E+03  0.12508933951E+03 0.  0.
          5    1    3    3  502    0  0.91485539372E+02 -0.17331927519E+02 -0.91143140813E+02  0.13036312417E+03  0.41800000000E+01 0.  1.
         -5    1    3    3    0  502 -0.39727084875E+02  0.11525432970E+02 -0.54752901155E+02  0.68749032449E+02  0.41800000000E+01 0.  1.
        -11    1    1    2    0    0 -0.68617943966E+02 -0.18983606804E+01 -0.10854405208E+02  0.69497079937E+02  0.00000000000E+00 0. -1.
         11    1    1    2    0    0  0.16859489468E+02  0.77048552290E+01 -0.42412873339E+02  0.46286704399E+02  0.00000000000E+00 0.  1.
</event>
<event>
 7    1  0.1312490E-005  0.1728586E+03  0.7561462E-02  0.1174899E+00
         -4   -1    0    0    0  501 -0.00000000000E+00  0.00000000000E+00  0.24280870300E+03  0.24280870300E+03  0.00000000000E+00 0.  1.
          4   -1    0    0  501    0  0.00000000000E+00 -0.00000000000E+00 -0.17127371860E+03  0.17127371860E+03  0.00000000000E+00 0. -1.
         23    2    1    2    0    0  0.11610370917E+03 -0.81117623587E+02  0.13582911402E+03  0.23271497164E+03  0.12508624893E+03 0.  0.
          5    1    3    3  502    0 -0.22077162609E+02 -0.16819301266E+02 -0.66918125757E+00  0.28075081611E+02  0.41800000000E+01 0.  1.
         -5    1    3    3    0  502  0.13818087178E+03 -0.64298322322E+02  0.13649829528E+03  0.20463989003E+03  0.41800000000E+01 0.  1.
        -11    1    1    2    0    0 -0.25433440789E+02  0.69210759590E+02 -0.84562887584E+01  0.74219256080E+02  0.00000000000E+00 0.  1.
         11    1    1    2    0    0 -0.90670268380E+02  0.11906863997E+02 -0.55837840862E+02  0.10714819387E+03  0.00000000000E+00 0. -1.
</event>
<event>
 7    1  0.1312490E-005  0.1921646E+03  0.7561462E-02  0.1156523E+00
         -1   -1    0    0    0  501 -0.00000000000E+00  0.00000000000E+00  0.16749987649E+03  0.16749987649E+03  0.00000000000E+00 0.  1.
          1   -1    0    0  501    0  0.00000000000E+00 -0.00000000000E+00 -0.27647391130E+03  0.27647391130E+03  0.00000000000E+00 0. -1.
         23    2    1    2    0    0  0.16681635252E+03 -0.29219280855E+02  0.21641724494E+02  0.21165230315E+03  0.12508745481E+03 0.  0.
          5    1    3    3  502    0  0.12675612963E+02  0.34878981331E+02 -0.15745115148E+02  0.40528947108E+02  0.41800000000E+01 0. -1.
         -5    1    3    3    0  502  0.15414073956E+03 -0.64098262186E+02  0.37386839642E+02  0.17112335605E+03  0.41800000000E+01 0. -1.
        -11    1    1    2    0    0 -0.15808261145E+03  0.42866847952E+02 -0.86299072183E+02  0.18513564906E+03  0.00000000000E+00 0.  1.
         11    1    1    2    0    0 -0.87337410726E+01 -0.13647567097E+02 -0.44316687127E+02  0.47185835573E+02  0.00000000000E+00 0. -1.
</event>
<event>
 7    1  0.1312490E-005  0.1779688E+03  0.7561462E-02  0.1169783E+00
         -2   -1    0    0    0  501 -0.00000000000E+00  0.00000000000E+00  0.78647001869E+02  0.78647001869E+02  0.00000000000E+00 0.  1.
          2   -1    0    0  501    0  0.00000000000E+00 -0.00000000000E+00 -0.50531445834E+03  0.50531445834E+03  0.00000000000E+00 0. -1.
         23    2    1    2    0    0 -0.72831058175E+02 -0.15250349425E+03 -0.17641116360E+03  0.27446469039E+03  0.12509312066E+03 0.  0.
          5    1    3    3  502    0  0.33708107270E+01 -0.32021764915E+01 -0.81601830922E+02  0.81840989175E+02  0.41800000000E+01 0. -1.
         -5    1    3    3    0  502 -0.76201868902E+02 -0.14930131776E+03 -0.94809332673E+02  0.19262370121E+03  0.41800000000E+01 0. -1.
        -11    1    1    2    0    0  0.11419244259E+02  0.10161272694E+03 -0.14537766121E+03  0.17773634911E+03  0.00000000000E+00 0.  1.
         11    1    1    2    0    0  0.61411813916E+02  0.50890767303E+02 -0.10487863166E+03  0.13176042071E+03  0.00000000000E+00 0. -1.
</event>
<event>
 7    1  0.1312490E-005  0.1347923E+03  0.7561462E-02  0.1220513E+00
          1   -1    0    0  501    0  0.00000000000E+00  0.00000000000E+00  0.73688356684E+03  0.73688356684E+03  0.00000000000E+00 0. -1.
         -1   -1    0    0    0  501 -0.00000000000E+00 -0.00000000000E+00 -0.38354101767E+02  0.38354101767E+02  0.00000000000E+00 0.  1.
         23    2    1    2    0    0  0.10705626830E+03  0.66423329161E+02  0.32032127680E+03  0.36640160660E+03  0.12558389112E+03 0.  0.
          5    1    3    3  502    0  0.82927987614E+02  0.39991613702E+02  0.76053216441E+02  0.11949035286E+03  0.41800000000E+01 0.  1.
         -5    1    3    3    0  502  0.24128280689E+02  0.26431715459E+02  0.24426806036E+03  0.24691125374E+03  0.41800000000E+01 0.  1.
        -11    1    1    2    0    0 -0.66311273710E+01 -0.35787445254E+02  0.37255925993E+02  0.52083750917E+02  0.00000000000E+00 0.  1.
         11    1    1    2    0    0 -0.10042514093E+03 -0.30635883907E+02  0.34095226228E+03  0.35675231109E+03  0.00000000000E+00 0. -1.
</event>
<event>
 7    1  0.1312490E-005  0.1094807E+03  0.7561462E-02  0.1261535E+00
          4   -1    0    0  501    0  0.00000000000E+00  0.00000000000E+00  0.12497476898E+02  0.12497476898E+02  0.00000000000E+00 0. -1.
         -4   -1    0    0    0  501 -0.00000000000E+00 -0.00000000000E+00 -0.98822364899E+03  0.98822364899E+03  0.00000000000E+00 0.  1.
         23    2    1    2    0    0  0.21653304503E+02  0.78467280387E+00 -0.63041007570E+03  0.64306740230E+03  0.12509731835E+03 0.  0.
          5    1    3    3  502    0 -0.70152376567E+01  0.59873072903E+02 -0.33617268033E+03  0.34156045120E+03  0.41800000000E+01 0.  1.
         -5    1    3    3    0  502  0.28668542160E+02 -0.59088400099E+02 -0.29423739536E+03  0.30150695111E+03  0.41800000000E+01 0.  1.
        -11    1    1    2    0    0 -0.48596622684E+02  0.25674845468E+02 -0.18805957633E+03  0.19592660278E+03  0.00000000000E+00 0. -1.
         11    1    1    2    0    0  0.26943318180E+02 -0.26459518272E+02 -0.15725652007E+03  0.16172712081E+03  0.00000000000E+00 0.  1.
</event>
<event>
 7    1  0.1312490E-005  0.1180836E+03  0.7561462E-02  0.1246292E+00
         -1   -1    0    0    0  501 -0.00000000000E+00  0.00000000000E+00  0.16586728065E+03  0.16586728065E+03  0.00000000000E+00 0.  1.
          1   -1    0    0  501    0  0.00000000000E+00 -0.00000000000E+00 -0.14061265405E+03  0.14061265405E+03  0.00000000000E+00 0. -1.
         23    2    1    2    0    0 -0.68640819579E+02 -0.82390316665E+02  0.21077081723E+02  0.16615228015E+03  0.12515035131E+03 0.  0.
          5    1    3    3  502    0 -0.34309440066E+02 -0.83234112570E+01  0.64457121149E+02  0.73611206480E+02  0.41800000000E+01 0.  1.
         -5    1    3    3    0  502 -0.34331379513E+02 -0.74066905408E+02 -0.43380039426E+02  0.92541073673E+02  0.41800000000E+01 0.  1.
        -11    1    1    2    0    0  0.58266410054E+02  0.30136654514E+02 -0.34856391403E+02  0.74284322085E+02  0.00000000000E+00 0. -1.
         11    1    1    2    0    0  0.10374409525E+02  0.52253662151E+02  0.39033936280E+02  0.66043332462E+02  0.00000000000E+00 0.  1.
</event>
<event>
 7    1  0.1312490E-005  0.7336472E+02  0.7561462E-02  0.1349011E+00
         -1   -1    0    0    0  501 -0.00000000000E+00  0.00000000000E+00  0.35068416776E+02  0.35068416776E+02  0.00000000000E+00 0.  1.
          1   -1    0    0  501    0  0.00000000000E+00 -0.00000000000E+00 -0.35658365227E+03  0.35658365227E+03  0.00000000000E+00 0. -1.
         23    2    1    2    0    0 -0.13375688087E+02 -0.33203936095E+02 -0.18492626558E+03  0.22611312043E+03  0.12509200264E+03 0.  0.
          5    1    3    3  502    0  0.20610332584E+02 -0.31109050177E+02  0.48626991193E+00  0.37553530734E+02  0.41800000000E+01 0.  1.
         -5    1    3    3    0  502 -0.33986020671E+02 -0.20948859179E+01 -0.18541253549E+03  0.18855958969E+03  0.41800000000E+01 0.  1.
        -11    1    1    2    0    0 -0.24010030027E+02 -0.12359987566E+01 -0.51138154310E+01  0.24579673372E+02  0.00000000000E+00 0.  1.
         11    1    1    2    0    0  0.37385718114E+02  0.34439934852E+02 -0.13147515448E+03  0.14095927525E+03  0.00000000000E+00 0. -1.
</event>
<event>
 7    1  0.1312490E-005  0.1270764E+03  0.7561462E-02  0.1231859E+00
          1   -1    0    0  501    0  0.00000000000E+00  0.00000000000E+00  0.33845761495E+03  0.33845761495E+03  0.00000000000E+00 0. -1.
         -1   -1    0    0    0  501 -0.00000000000E+00 -0.00000000000E+00 -0.82352872300E+02  0.82352872300E+02  0.00000000000E+00 0.  1.
         23    2    1    2    0    0  0.10074345797E+03 -0.11282869678E+02  0.38152224623E+02  0.16547561039E+03  0.12510011158E+03 0.  0.
          5    1    3    3  502    0  0.41790614923E+02  0.32864119324E+02  0.67550746037E+02  0.86064403355E+02  0.41800000000E+01 0. -1.
         -5    1    3    3    0  502  0.58952843043E+02 -0.44146989003E+02 -0.29398521414E+02  0.79411207031E+02  0.41800000000E+01 0. -1.
        -11    1    1    2    0    0 -0.11320748570E+03  0.14630916236E+02  0.16370216971E+03  0.19957053614E+03  0.00000000000E+00 0.  1.
         11    1    1    2    0    0  0.12464027739E+02 -0.33480465582E+01  0.54250348321E+02  0.55764340722E+02  0.00000000000E+00 0. -1.
</event>
<event>
 7    1  0.1312490E-005  0.1232597E+03  0.7561462E-02  0.1237814E+00
          2   -1    0    0  501    0  0.00000000000E+00  0.00000000000E+00  0.21190286522E+03  0.21190286522E+03  0.00000000000E+00 0. -1.
         -2   -1    0    0    0  501 -0.00000000000E+00 -0.00000000000E+00 -0.11525407374E+03  0.11525407374E+03  0.00000000000E+00 0.  1.
         23    2    1    2    0    0  0.60124896619E+02 -0.19219941305E+02 -0.45622226167E+02  0.14734335559E+03  0.12507704657E+03 0.  0.
          5    1    3    3  502    0  0.97307552431E+02 -0.26405890338E+02 -0.41151041476E+02  0.10898124343E+03  0.41800000000E+01 0.  1.
         -5    1    3    3    0  502 -0.37182655812E+02  0.71859490333E+01 -0.44711846902E+01  0.38362112159E+02  0.41800000000E+01 0.  1.
        -11    1    1    2    0    0 -0.61654295940E+01  0.46593511429E+02  0.43834555719E+02  0.64268468975E+02  0.00000000000E+00 0.  1.
         11    1    1    2    0    0 -0.53959467025E+02 -0.27373570124E+02  0.98436461933E+02  0.11554511440E+03  0.00000000000E+00 0. -1.
</event>
<event>
 7    1  0.1312490E-005  0.9968002E+02  0.7561462E-02  0.1280970E+00
          1   -1    0    0  501    0  0.00000000000E+00  0.00000000000E+00  0.16149966863E+03  0.16149966863E+03  0.00000000000E+00 0. -1.
         -1   -1    0    0    0  501 -0.00000000000E+00 -0.00000000000E+00 -0.86978484608E+02  0.86978484608E+02  0.00000000000E+00 0.  1.
         23    2    1    2    0    0 -0.10349722112E+02  0.21652567377E+02 -0.56386448394E+01  0.12749760060E+03  0.12509154017E+03 0.  0.
          5    1    3    3  502    0 -0.51162207185E+02  0.42174487788E+02 -0.32900021043E+02  0.74135974054E+02  0.41800000000E+01 0.  1.
         -5    1    3    3    0  502  0.40812485073E+02 -0.20521920412E+02  0.27261376203E+02  0.53361626547E+02  0.41800000000E+01 0.  1.
        -11    1    1    2    0    0  0.43457577382E+02  0.60577015652E+01  0.57170169549E+02  0.72067226022E+02  0.00000000000E+00 0.  1.
         11    1    1    2    0    0 -0.33107855270E+02 -0.27710268942E+02  0.22989659314E+02  0.48913326618E+02  0.00000000000E+00 0. -1.
</event>
<event>
 7    1  0.1312490E-005  0.8915146E+02  0.7561462E-02  0.1304920E+00
          2   -1    0    0  501    0  0.00000000000E+00  0.00000000000E+00  0.16767573687E+03  0.16767573687E+03  0.00000000000E+00 0. -1.
         -2   -1    0    0    0  501 -0.00000000000E+00 -0.00000000000E+00 -0.74960246178E+02  0.74960246178E+02  0.00000000000E+00 0.  1.
         23    2    1    2    0    0  0.13595294969E+02 -0.14534130088E+02  0.31687324389E+02  0.13056485146E+03  0.12508805269E+03 0.  0.
          5    1    3    3  502    0  0.43245365081E+02 -0.32933762420E+02 -0.28008243253E+02  0.61292156090E+02  0.41800000000E+01 0.  1.
         -5    1    3    3    0  502 -0.29650070112E+02  0.18399632331E+02  0.59695567641E+02  0.69272695368E+02  0.41800000000E+01 0.  1.
        -11    1    1    2    0    0  0.35966838985E+02 -0.29415181015E+01  0.43832860138E+02  0.56776629551E+02  0.00000000000E+00 0. -1.
         11    1    1    2    0    0 -0.49562133954E+02  0.17475648190E+02  0.17195306169E+02  0.55294502041E+02  0.00000000000E+00 0.  1.
</event>
<event>
 7    1  0.1312490E-005  0.9565890E+02  0.7561462E-02  0.1289699E+00
          1   -1    0    0  501    0  0.00000000000E+00  0.00000000000E+00  0.22809572244E+03  0.22809572244E+03  0.00000000000E+00 0. -1.
         -1   -1    0    0    0  501 -0.00000000000E+00 -0.00000000000E+00 -0.73200818431E+02  0.73200818431E+02  0.00000000000E+00 0.  1.
         23    2    1    2    0    0  0.10820378835E+02 -0.68352628048E+02  0.81531554763E+02  0.16458255974E+03  0.12510340599E+03 0.  0.
          5    1    3    3  502    0  0.27555055191E+02 -0.70134776632E+02  0.10871286357E+03  0.13234095007E+03  0.41800000000E+01 0.  1.
         -5    1    3    3    0  502 -0.16734676356E+02  0.17821485833E+01 -0.27181308802E+02  0.32241609676E+02  0.41800000000E+01 0.  1.
        -11    1    1    2    0    0 -0.38140371121E+02  0.20236383499E+02  0.68759380269E+02  0.81191449681E+02  0.00000000000E+00 0. -1.
         11    1    1    2    0    0  0.27319992286E+02  0.48116244550E+02  0.46039689774E+01  0.55522531448E+02  0.00000000000E+00 0.  1.
</event>
<event>
 7    1  0.1312490E-005  0.7942548E+02  0.7561462E-02  0.1330690E+00
          1   -1    0    0  501    0  0.00000000000E+00  0.00000000000E+00  0.89487981792E+02  0.89487981792E+02  0.00000000000E+00 0. -1.
         -1   -1    0    0    0  501 -0.00000000000E+00 -0.00000000000E+00 -0.18058592941E+03  0.18058592941E+03  0.00000000000E+00 0.  1.
         23    2    1    2    0    0 -0.16776882174E+02 -0.41872001601E+02 -0.10282982051E+03  0.16809565726E+03  0.12508976661E+03 0.  0.
          5    1    3    3  502    0  0.88356855269E+01 -0.43402782130E+02  0.15370650154E+02  0.47070161689E+02  0.41800000000E+01 0. -1.
         -5    1    3    3    0  502 -0.25612567700E+02  0.15307805284E+01 -0.11820047066E+03  0.12102549557E+03  0.41800000000E+01 0. -1.
        -11    1    1    2    0    0  0.12074760532E+02  0.64312795090E+02  0.30644312805E+02  0.72256552378E+02  0.00000000000E+00 0. -1.
         11    1    1    2    0    0  0.47021216418E+01 -0.22440793489E+02 -0.18912439913E+02  0.29721701563E+02  0.00000000000E+00 0.  1.
</event>
<event>
 7    1  0.1312490E-005  0.8534278E+02  0.7561462E-02  0.1314539E+00
          3   -1    0    0  501    0  0.00000000000E+00  0.00000000000E+00  0.13870179094E+03  0.13870179094E+03  0.00000000000E+00 0. -1.
         -3   -1    0    0    0  501 -0.00000000000E+00 -0.00000000000E+00 -0.13215856216E+03  0.13215856216E+03  0.00000000000E+00 0.  1.
         23    2    1    2    0    0 -0.76041104637E+02  0.33453808877E+01 -0.23340672218E+02  0.14827874354E+03  0.12509339567E+03 0.  0.
          5    1    3    3  502    0 -0.25556141054E+02  0.26474504053E+02  0.46185683796E+02  0.59199708598E+02  0.41800000000E+01 0.  1.
         -5    1    3    3    0  502 -0.50484963582E+02 -0.23129123165E+02 -0.69526356013E+02  0.89079034945E+02  0.41800000000E+01 0.  1.
        -11    1    1    2    0    0  0.25972028443E+02  0.68657588514E+01 -0.32354398631E+02  0.42053442389E+02  0.00000000000E+00 0.  1.
         11    1    1    2    0    0  0.50069076194E+02 -0.10211139739E+02  0.62238299636E+02  0.80528167167E+02  0.00000000000E+00 0. -1.
</event>
<event>
 7    1  0.1312490E-005  0.1052563E+03  0.7561462E-02  0.1269616E+00
          2   -1    0    0  501    0  0.00000000000E+00  0.00000000000E+00  0.82094056571E+02  0.82094056571E+02  0.00000000000E+00 0. -1.
         -2   -1    0    0    0  501 -0.00000000000E+00 -0.00000000000E+00 -0.22503542686E+03  0.22503542686E+03  0.00000000000E+00 0.  1.
         23    2    1    2    0    0 -0.66031098785E+02 -0.26998375014E+02 -0.12248415684E+03  0.18905659926E+03  0.12510399988E+03 0.  0.
          5    1    3    3  502    0 -0.25273414822E+02 -0.53603778468E+02 -0.12678639523E+03  0.14001561691E+03  0.41800000000E+01 0. -1.
         -5    1    3    3    0  502 -0.40757683962E+02  0.26605403454E+02  0.43022383900E+01  0.49040982352E+02  0.41800000000E+01 0. -1.
        -11    1    1    2    0    0  0.79816381151E+02  0.34038515295E+02 -0.37956592037E+02  0.94709968338E+02  0.00000000000E+00 0.  1.
         11    1    1    2    0    0 -0.13785282366E+02 -0.70401402814E+01  0.17499378589E+02  0.23362915831E+02  0.00000000000E+00 0. -1.
</event>
<event>
 6    1  0.1312490E-005  0.8567952E+02  0.7561462E-02  0.1313665E+00
         -1   -1    0    0    0  501 -0.00000000000E+00  0.00000000000E+00  0.11606014953E+03  0.11606014953E+03  0.00000000000E+00 0.  1.
          1   -1    0    0  501    0  0.00000000000E+00 -0.00000000000E+00 -0.28571904782E+03  0.28571904782E+03  0.00000000000E+00 0. -1.
          5    1    1    2  502    0  0.34203362970E+02 -0.16595482487E+02 -0.13207747141E+03  0.13750349425E+03  0.41800000000E+01 0. -1.
         -5    1    1    2    0  502  0.24065116803E+02  0.69117897306E+01  0.92185982586E+02  0.95617103435E+02  0.41800000000E+01 0.  1.
        -11    1    1    2    0    0  0.24313924256E+02 -0.16607950899E+01 -0.28809348921E+02  0.37734649042E+02  0.00000000000E+00 0.  1.
         11    1    1    2    0    0 -0.82582404029E+02  0.11344487846E+02 -0.10095806055E+03  0.13092395063E+03  0.00000000000E+00 0. -1.
</event>
<event>
 7    1  0.1312490E-005  0.1535627E+03  0.7561462E-02  0.1196162E+00
          1   -1    0    0  501    0  0.00000000000E+00  0.00000000000E+00  0.13732707356E+03  0.13732707356E+03  0.00000000000E+00 0. -1.
         -1   -1    0    0    0  501 -0.00000000000E+00 -0.00000000000E+00 -0.24367733483E+03  0.24367733483E+03  0.00000000000E+00 0.  1.
         23    2    1    2    0    0  0.43751416796E+02 -0.12116346089E+03 -0.12890733993E+03  0.22104087098E+03  0.12508874300E+03 0.  0.
          5    1    3    3  502    0 -0.35006565092E+02 -0.31455628202E+02 -0.27816505462E+01  0.47329970684E+02  0.41800000000E+01 0. -1.
         -5    1    3    3    0  502  0.78757981888E+02 -0.89707832688E+02 -0.12612568939E+03  0.17371090029E+03  0.41800000000E+01 0. -1.
        -11    1    1    2    0    0 -0.16707788855E+02  0.10985230575E+03 -0.15213515845E+02  0.11215226414E+03  0.00000000000E+00 0. -1.
         11    1    1    2    0    0 -0.27043627941E+02  0.11311155138E+02  0.37770594508E+02  0.47811273276E+02  0.00000000000E+00 0.  1.
</event>
<event>
 7    1  0.1312490E-005  0.1092995E+03  0.7561462E-02  0.1261873E+00
          2   -1    0    0  501    0  0.00000000000E+00  0.00000000000E+00  0.55385622773E+02  0.55385622773E+02  0.00000000000E+00 0. -1.
         -2   -1    0    0    0  501 -0.00000000000E+00 -0.00000000000E+00 -0.34937811600E+03  0.34937811600E+03  0.00000000000E+00 0.  1.
         23    2    1    2    0    0  0.41848716401E+01  0.36646555088E+02 -0.27650207973E+03  0.30572497470E+03  0.12511545433E+03 0.  0.
          5    1    3    3  502    0 -0.53640549239E+02  0.36663183256E+02 -0.19591371254E+03  0.20644891061E+03  0.41800000000E+01 0.  1.
         -5    1    3    3    0  502  0.57825420879E+02 -0.16628167297E-01 -0.80588367183E+02  0.99276064092E+02  0.41800000000E+01 0.  1.
        -11    1    1    2    0    0  0.37906914455E+02 -0.37628767516E+02  0.90747368299E-01  0.53412232151E+02  0.00000000000E+00 0. -1.
         11    1    1    2    0    0 -0.42091786095E+02  0.98221242819E+00 -0.17581160875E+02  0.45626531926E+02  0.00000000000E+00 0.  1.
</event>
<event>
 7    1  0.1312490E-005  0.1112235E+03  0.7561462E-02  0.1258321E+00
          1   -1    0    0  501    0  0.00000000000E+00  0.00000000000E+00  0.48088747565E+03  0.48088747565E+03  0.00000000000E+00 0. -1.
         -1   -1    0    0    0  501 -0.00000000000E+00 -0.00000000000E+00 -0.26540704695E+02  0.26540704695E+02  0.00000000000E+00 0.  1.
         23    2    1    2    0    0 -0.28749634066E+02  0.11483566248E+02  0.27203391641E+03  0.30101216231E+03  0.12508979347E+03 0.  0.
          5    1    3    3  502    0  0.48916602904E+02 -0.45603381532E+01  0.11112424647E+03  0.12157179474E+03  0.41800000000E+01 0.  1.
         -5    1    3    3    0  502 -0.77666236970E+02  0.16043904401E+02  0.16090966994E+03  0.17944036757E+03  0.41800000000E+01 0.  1.
        -11    1    1    2    0    0  0.57451755094E+02  0.94178911122E+01  0.86791724812E+02  0.10450935045E+03  0.00000000000E+00 0.  1.
         11    1    1    2    0    0 -0.28702121028E+02 -0.20901457360E+02  0.95521129735E+02  0.10190666758E+03  0.00000000000E+00 0. -1.
</event>
<event>
 7    1  0.1312490E-005  0.1488775E+03  0.7561462E-02  0.1201859E+00
         -1   -1    0    0    0  501 -0.00000000000E+00  0.00000000000E+00  0.16445764438E+03  0.16445764438E+03  0.00000000000E+00 0.  1.
          1   -1    0    0  501    0  0.00000000000E+00 -0.00000000000E+00 -0.17630475592E+03  0.17630475592E+03  0.00000000000E+00 0. -1.
         23    2    1    2    0    0 -0.12449342903E+03  0.14158909159E+02  0.42224540116E+02  0.18201519867E+03  0.12509009625E+03 0.  0.
          5    1    3    3  502    0 -0.23526846652E+02 -0.30591017296E+02 -0.30798532777E+02  0.49551436647E+02  0.41800000000E+01 0.  1.
         -5    1    3    3    0  502 -0.10096658238E+03  0.44749926455E+02  0.73023072894E+02  0.13246376203E+03  0.41800000000E+01 0.  1.
        -11    1    1    2    0    0  0.37967303906E+02 -0.42859195973E+02 -0.12762712658E+02  0.58662711152E+02  0.00000000000E+00 0.  1.
         11    1    1    2    0    0  0.86526125127E+02  0.28700286813E+02 -0.41308938992E+02  0.10008449047E+03  0.00000000000E+00 0. -1.
</event>
<event>
 7    1  0.1312490E-005  0.2582194E+03  0.7561462E-02  0.1108218E+00
         -2   -1    0    0    0  501 -0.00000000000E+00  0.00000000000E+00  0.22189037827E+03  0.22189037827E+03  0.00000000000E+00 0.  1.
          2   -1    0    0  501    0  0.00000000000E+00 -0.00000000000E+00 -0.36936568048E+03  0.36936568048E+03  0.00000000000E+00 0. -1.
         23    2    1    2    0    0  0.10566661602E+03  0.22385905543E+03  0.22272312620E+02  0.27820194766E+03  0.12498782875E+03 0.  0.
          5    1    3    3  502    0  0.17818790831E+01  0.83953150868E+02 -0.39997858974E+02  0.93105358365E+02  0.41800000000E+01 0.  1.
         -5    1    3    3    0  502  0.10388473693E+03  0.13990590456E+03  0.62270171594E+02  0.18509658930E+03  0.41800000000E+01 0.  1.
        -11    1    1    2    0    0 -0.97152180387E+02 -0.12254405462E+03 -0.13185082924E+03  0.20454885150E+03  0.00000000000E+00 0. -1.
         11    1    1    2    0    0 -0.85144356285E+01 -0.10131500080E+03 -0.37896785586E+02  0.10850525960E+03  0.00000000000E+00 0.  1.
</event>
<event>
 7    1  0.1312490E-005  0.1442869E+03  0.7561462E-02  0.1207674E+00
         -1   -1    0    0    0  501 -0.00000000000E+00  0.00000000000E+00  0.12602750715E+03  0.12602750715E+03  0.00000000000E+00 0.  1.
          1   -1    0    0  501    0  0.00000000000E+00 -0.00000000000E+00 -0.23645546368E+03  0.23645546368E+03  0.00000000000E+00 0. -1.
         23    2    1    2    0    0  0.16313567497E+02  0.11128401321E+03  0.20193195685E+02  0.16942802102E+03  0.12509126698E+03 0.  0.
          5    1    3    3  502    0 -0.36214926661E+02  0.91181785037E+02  0.44749853485E+02  0.10791506207E+03  0.41800000000E+01 0. -1.
         -5    1    3    3    0  502  0.52528494158E+02  0.20102228176E+02 -0.24556657799E+02  0.61512958947E+02  0.41800000000E+01 0. -1.
        -11    1    1    2    0    0  0.17732476948E+02 -0.94254917755E+02 -0.11983510197E+03  0.15348902868E+03  0.00000000000E+00 0.  1.
         11    1    1    2    0    0 -0.34046044445E+02 -0.17029095458E+02 -0.10786050246E+02  0.39565921124E+02  0.00000000000E+00 0. -1.
</event>
<event>
 7    1  0.1312490E-005  0.1023844E+03  0.7561462E-02  0.1275360E+00
          3   -1    0    0  501    0  0.00000000000E+00  0.00000000000E+00  0.22656240009E+02  0.22656240009E+02  0.00000000000E+00 0. -1.
         -3   -1    0    0    0  501 -0.00000000000E+00 -0.00000000000E+00 -0.58812662266E+03  0.58812662266E+03  0.00000000000E+00 0.  1.
         23    2    1    2    0    0  0.90358518846E+01 -0.33590021339E+02 -0.37455676150E+03  0.39642104414E+03  0.12508773121E+03 0.  0.
          5    1    3    3  502    0 -0.32737183589E+02 -0.67867969653E+02 -0.20794456434E+03  0.22121527689E+03  0.41800000000E+01 0.  1.
         -5    1    3    3    0  502  0.41773035474E+02  0.34277948314E+02 -0.16661219716E+03  0.17520576724E+03  0.41800000000E+01 0.  1.
        -11    1    1    2    0    0  0.29065772229E+02  0.14029606809E+02 -0.19565238055E+02  0.37741853725E+02  0.00000000000E+00 0. -1.
         11    1    1    2    0    0 -0.38101624114E+02  0.19560414530E+02 -0.17134838310E+03  0.17661996481E+03  0.00000000000E+00 0.  1.
</event>
<event>
 7    1  0.1312490E-005  0.8235209E+02  0.7561462E-02  0.1322506E+00
          2   -1    0    0  501    0  0.00000000000E+00  0.00000000000E+00  0.19818781814E+03  0.19818781814E+03  0.00000000000E+00 0.  1.
         -2   -1    0    0    0  501 -0.00000000000E+00 -0.00000000000E+00 -0.67665274669E+02  0.67665274669E+02  0.00000000000E+00 0. -1.
         23    2    1    2    0    0  0.40803655727E+02 -0.55203215227E+01  0.89749152199E+02  0.15936144010E+03  0.12508295647E+03 0.  0.
          5    1    3    3  502    0 -0.10298830609E+02 -0.98772941273E+01  0.10471965828E+03  0.10577006231E+03  0.41800000000E+01 0.  1.
         -5    1    3    3    0  502  0.51102486337E+02  0.43569726046E+01 -0.14970506083E+02  0.53591377781E+02  0.41800000000E+01 0.  1.
        -11    1    1    2    0    0 -0.69374120685E+02  0.72629089332E+01  0.28884728479E+02  0.75497324497E+02  0.00000000000E+00 0.  1.
         11    1    1    2    0    0  0.28570464957E+02 -0.17425874105E+01  0.11888662797E+02  0.30994328221E+02  0.00000000000E+00 0. -1.
</event>
<event>
 7    1  0.1312490E-005  0.1049914E+03  0.7561462E-02  0.1270137E+00
         -1   -1    0    0    0  501 -0.00000000000E+00  0.00000000000E+00  0.13715232063E+03  0.13715232063E+03  0.00000000000E+00 0.  1.
          1   -1    0    0  501    0  0.00000000000E+00 -0.00000000000E+00 -0.10916216792E+03  0.10916216792E+03  0.00000000000E+00 0. -1.
         23    2    1    2    0    0 -0.71728138179E+01 -0.49246779861E+02  0.42371292551E+02  0.14114003435E+03  0.12509391783E+03 0.  0.
          5    1    3    3  502    0 -0.43770393439E+02 -0.54632657082E+02  0.66607069346E+02  0.96718915671E+02  0.41800000000E+01 0. -1.
         -5    1    3    3    0  502  0.36597579621E+02  0.53858772214E+01 -0.24235776795E+02  0.44421118676E+02  0.41800000000E+01 0. -1.
        -11    1    1    2    0    0 -0.28452110815E+02  0.59161749244E+02 -0.42386864684E+00  0.65649180103E+02  0.00000000000E+00 0.  1.
         11    1    1    2    0    0  0.35624924633E+02 -0.99149693837E+01 -0.13957271199E+02  0.39525274095E+02  0.00000000000E+00 0. -1.
</event>
<event>
 7    1  0.1312490E-005  0.8748373E+02  0.7561462E-02  0.1309062E+00
         -1   -1    0    0    0  501 -0.00000000000E+00  0.00000000000E+00  0.65383222941E+03  0.65383222941E+03  0.00000000000E+00 0.  1.
          1   -1    0    0  501    0  0.00000000000E+00 -0.00000000000E+00 -0.19310253807E+02  0.19310253807E+02  0.00000000000E+00 0. -1.
         23    2    1    2    0    0 -0.20531760369E+02 -0.16712987260E+02  0.36340676806E+03  0.38524376981E+03  0.12508959183E+03 0.  0.
          5    1    3    3  502    0 -0.55937966616E+02 -0.21557855624E+02  0.82631428943E+02  0.10217251439E+03  0.41800000000E+01 0.  1.
         -5    1    3    3    0  502  0.35406206247E+02  0.48448683641E+01  0.28077533911E+03  0.28307125542E+03  0.41800000000E+01 0.  1.
        -11    1    1    2    0    0  0.25753414267E+02 -0.25568995045E+02  0.45025171171E+02  0.57829731912E+02  0.00000000000E+00 0. -1.
         11    1    1    2    0    0 -0.52216538978E+01  0.42281982305E+02  0.22609003638E+03  0.23006898150E+03  0.00000000000E+00 0.  1.
</event>
<event>
 7    1  0.1312490E-005  0.1511661E+03  0.7561462E-02  0.1199047E+00
         -1   -1    0    0    0  501 -0.00000000000E+00  0.00000000000E+00  0.55592350038E+03  0.55592350038E+03  0.00000000000E+00 0.  1.
          1   -1    0    0  501    0  0.00000000000E+00 -0.00000000000E+00 -0.46103302083E+02  0.46103302083E+02  0.00000000000E+00 0. -1.
         23    2    1    2    0    0 -0.11108480894E+03 -0.32971873948E+02  0.28383326516E+03  0.33111173536E+03  0.12508668848E+03 0.  0.
          5    1    3    3  502    0  0.66990326701E+01 -0.43696871770E+02  0.38683089273E+02  0.58890979248E+02  0.41800000000E+01 0.  1.
         -5    1    3    3    0  502 -0.11778384161E+03  0.10724997821E+02  0.24515017589E+03  0.27222075612E+03  0.41800000000E+01 0.  1.
        -11    1    1    2    0    0  0.66373210584E+02 -0.20888095514E+02  0.64371717052E+02  0.94791526909E+02  0.00000000000E+00 0. -1.
         11    1    1    2    0    0  0.44711598358E+02  0.53859969462E+02  0.16161521608E+03  0.17612354019E+03  0.00000000000E+00 0.  1.
</event>
<event>
 6    1  0.1312490E-005  0.2391829E+03  0.7561462E-02  0.1120338E+00
          1   -1    0    0  501    0  0.00000000000E+00  0.00000000000E+00  0.42619753295E+03  0.42619753295E+03  0.00000000000E+00 0. -1.
         -1   -1    0    0    0  501 -0.00000000000E+00 -0.00000000000E+00 -0.16288552733E+03  0.16288552733E+03  0.00000000000E+00 0.  1.
          5    1    1    2  502    0 -0.11131061167E+03  0.10002152645E+03  0.11014016622E+03  0.18585662926E+03  0.41800000000E+01 0. -1.
         -5    1    1    2    0  502 -0.90317067187E+02 -0.31721668238E+02 -0.36703627655E+02  0.10260636210E+03  0.41800000000E+01 0.  1.
        -11    1    1    2    0    0 -0.99221829574E+01 -0.83350713781E+01  0.13754191338E+02  0.18897113771E+02  0.00000000000E+00 0.  1.
         11    1    1    2    0    0  0.21154986181E+03 -0.59964786838E+02  0.17612127572E+03  0.28172295514E+03  0.00000000000E+00 0. -1.
</event>
<event>
 7    1  0.1312490E-005  0.9657512E+02  0.7561462E-02  0.1287667E+00
          2   -1    0    0  501    0  0.00000000000E+00  0.00000000000E+00  0.18700561675E+03  0.18700561675E+03  0.00000000000E+00 0. -1.
         -2   -1    0    0    0  501 -0.00000000000E+00 -0.00000000000E+00 -0.95807130840E+02  0.95807130840E+02  0.00000000000E+00 0.  1.
         23    2    1    2    0    0 -0.19039400702E+02  0.11922509986E+02 -0.25075377484E+02  0.12953244768E+03  0.12508091550E+03 0.  0.
          5    1    3    3  502    0 -0.54256410651E+02  0.40462034460E+02 -0.43345538047E+02  0.80481317074E+02  0.41800000000E+01 0. -1.
         -5    1    3    3    0  502  0.35217009949E+02 -0.28539524474E+02  0.18270160563E+02  0.49051130609E+02  0.41800000000E+01 0. -1.
        -11    1    1    2    0    0  0.13762531444E+02  0.32389426990E+02  0.99612633603E+02  0.10564638671E+03  0.00000000000E+00 0. -1.
         11    1    1    2    0    0  0.52768692576E+01 -0.44311936976E+02  0.16661229787E+02  0.47633913190E+02  0.00000000000E+00 0.  1.
</event>
<event>
 7    1  0.1312490E-005  0.1627613E+03  0.7561462E-02  0.1185614E+00
          2   -1    0    0  501    0  0.00000000000E+00  0.00000000000E+00  0.35593519852E+03  0.35593519852E+03  0.00000000000E+00 0. -1.
         -2   -1    0    0    0  501 -0.00000000000E+00 -0.00000000000E+00 -0.14479758888E+03  0.14479758888E+03  0.00000000000E+00 0.  1.
         23    2    1    2    0    0 -0.13004506004E+03  0.28197680474E+02 -0.51077734876E+02  0.18963734852E+03  0.12508621878E+03 0.  0.
          5    1    3    3  502    0 -0.11289292786E+03 -0.25699227792E+02 -0.39936053796E+01  0.11592534129E+03  0.41800000000E+01 0. -1.
         -5    1    3    3    0  502 -0.17152132183E+02  0.53896908267E+02 -0.47084129497E+02  0.73712007228E+02  0.41800000000E+01 0. -1.
        -11    1    1    2    0    0  0.78401074227E+02  0.21482494515E+02  0.20111550770E+03  0.21692319712E+03  0.00000000000E+00 0. -1.
         11    1    1    2    0    0  0.51643985817E+02 -0.49680174989E+02  0.61099836819E+02  0.94172241756E+02  0.00000000000E+00 0.  1.
</event>
<event>
 7    1  0.1312490E-005  0.1080864E+03  0.7561462E-02  0.1264155E+00
         -2   -1    0    0    0  501 -0.00000000000E+00  0.00000000000E+00  0.15999894867E+03  0.15999894867E+03  0.00000000000E+00 0.  1.
          2   -1    0    0  501    0  0.00000000000E+00 -0.00000000000E+00 -0.78795325745E+02  0.78795325745E+02  0.00000000000E+00 0. -1.
         23    2    1    2    0    0 -0.22092430351E+02  0.10310040031E+02  0.63275458799E+02  0.14228645951E+03  0.12508909013E+03 0.  0.
          5    1    3    3  502    0 -0.14146786426E+00 -0.54246820990E+02  0.47381404060E+02  0.72147123653E+02  0.41800000000E+01 0. -1.
         -5    1    3    3    0  502 -0.21950962487E+02  0.64556861021E+02  0.15894054739E+02  0.70139335861E+02  0.41800000000E+01 0. -1.
        -11    1    1    2    0    0 -0.17826414214E+01  0.38801703335E+02 -0.58618073325E+00  0.38847053942E+02  0.00000000000E+00 0. -1.
         11    1    1    2    0    0  0.23875071772E+02 -0.49111743366E+02  0.18514344855E+02  0.57660760956E+02  0.00000000000E+00 0.  1.
</event>
<event>
 7    1  0.1312490E-005  0.1068666E+03  0.7561462E-02  0.1266485E+00
         -2   -1    0    0    0  501 -0.00000000000E+00  0.00000000000E+00  0.36027703807E+02  0.36027703807E+02  0.00000000000E+00 0. -1.
          2   -1    0    0  501    0  0.00000000000E+00 -0.00000000000E+00 -0.39831423309E+03  0.39831423309E+03  0.00000000000E+00 0.  1.
         23    2    1    2    0    0 -0.76736851045E+01 -0.24870016298E+02 -0.12365813589E+03  0.17781038034E+03  0.12509114130E+03 0.  0.
          5    1    3    3  502    0  0.36482109520E+00 -0.73006799131E+02 -0.47297169357E+02  0.87089726392E+02  0.41800000000E+01 0. -1.
         -5    1    3    3    0  502 -0.80385061997E+01  0.48136782834E+02 -0.76360966534E+02  0.90720653952E+02  0.41800000000E+01 0. -1.
        -11    1    1    2    0    0  0.36821068848E+02  0.43530506886E+02 -0.11825930238E+03  0.13128579032E+03  0.00000000000E+00 0.  1.
         11    1    1    2    0    0 -0.29147383743E+02 -0.18660490588E+02 -0.12036909102E+03  0.12524576624E+03  0.00000000000E+00 0. -1.
</event>
<event>
 7    1  0.1312490E-005  0.2696877E+03  0.7561462E-02  0.1101458E+00
          1   -1    0    0  501    0  0.00000000000E+00  0.00000000000E+00  0.81722599455E+03  0.81722599455E+03  0.00000000000E+00 0. -1.
         -1   -1    0    0    0  501 -0.00000000000E+00 -0.00000000000E+00 -0.98348161044E+02  0.98348161044E+02  0.00000000000E+00 0.  1.
         23    2    1    2    0    0  0.26138080011E+03  0.47944097806E+01  0.35854745186E+03  0.46102845221E+03  0.12509216395E+03 0.  0.
          5    1    3    3  502    0  0.23608874064E+03  0.91609137864E+01  0.36445845173E+03  0.43436073860E+03  0.41800000000E+01 0.  1.
         -5    1    3    3    0  502  0.25292059466E+02 -0.43665040058E+01 -0.59109998775E+01  0.26667713603E+02  0.41800000000E+01 0.  1.
        -11    1    1    2    0    0 -0.17406297856E+03  0.40483429617E+02  0.23029022023E+03  0.29149685095E+03  0.00000000000E+00 0.  1.
         11    1    1    2    0    0 -0.87317821550E+02 -0.45277839398E+02  0.13004016142E+03  0.16304885244E+03  0.00000000000E+00 0. -1.
</event>
<event>
 6    1  0.1312490E-005  0.6884632E+02  0.7561462E-02  0.1364061E+00
         -2   -1    0    0    0  501 -0.00000000000E+00  0.00000000000E+00  0.34663366552E+02  0.34663366552E+02  0.00000000000E+00 0.  1.
          2   -1    0    0  501    0  0.00000000000E+00 -0.00000000000E+00 -0.45727373038E+03  0.45727373038E+03  0.00000000000E+00 0. -1.
          5    1    1    2  502    0 -0.11698224569E+02  0.31968733079E+02 -0.15331585235E+03  0.15710528741E+03  0.41800000000E+01 0. -1.
         -5    1    1    2    0  502  0.15381291200E+02 -0.74268423450E+01  0.22257252807E+02  0.28365468596E+02  0.41800000000E+01 0.  1.
        -11    1    1    2    0    0 -0.40463141184E+02 -0.27481607721E+02 -0.22610458006E+03  0.23133479134E+03  0.00000000000E+00 0.  1.
         11    1    1    2    0    0  0.36780074554E+02  0.29397169868E+01 -0.65447184227E+02  0.75131549588E+02  0.00000000000E+00 0. -1.
</event>
<event>
 7    1  0.1312490E-005  0.1550234E+03  0.7561462E-02  0.1194433E+00
         -2   -1    0    0    0  501 -0.00000000000E+00  0.00000000000E+00  0.47546484831E+02  0.47546484831E+02  0.00000000000E+00 0.  1.
          2   -1    0    0  501    0  0.00000000000E+00 -0.00000000000E+00 -0.57554636835E+03  0.57554636835E+03  0.00000000000E+00 0. -1.
         23    2    1    2    0    0 -0.38530077923E+02 -0.10550825453E+03 -0.17853074277E+03  0.24522773711E+03  0.12508740246E+03 0.  0.
          5    1    3    3  502    0 -0.10996252974E+02  0.28569909505E+02 -0.38545352943E+02  0.49400141115E+02  0.41800000000E+01 0. -1.
         -5    1    3    3    0  502 -0.27533824949E+02 -0.13407816404E+03 -0.13998538983E+03  0.19582759599E+03  0.41800000000E+01 0. -1.
        -11    1    1    2    0    0 -0.10914859587E+00  0.10351935141E+03 -0.22841061143E+03  0.25077415226E+03  0.00000000000E+00 0.  1.
         11    1    1    2    0    0  0.38639226519E+02  0.19889031226E+01 -0.12105852932E+03  0.12709096381E+03  0.00000000000E+00 0. -1.
</event>
<event>
 7    1  0.1312490E-005  0.1920384E+03  0.7561462E-02  0.1156636E+00
          2   -1    0    0  501    0  0.00000000000E+00  0.00000000000E+00  0.15485329127E+04  0.15485329127E+04  0.00000000000E+00 0. -1.
         -2   -1    0    0    0  501 -0.00000000000E+00 -0.00000000000E+00 -0.30657967663E+02  0.30657967663E+02  0.00000000000E+00 0.  1.
         23    2    1    2    0    0 -0.14133592378E+03 -0.12357326388E+03  0.70776491064E+03  0.74284739690E+03  0.12507954049E+03 0.  0.
          5    1    3    3  502    0 -0.12209847761E+03 -0.12588062829E+03  0.69985832832E+03  0.72150753491E+03  0.41800000000E+01 0.  1.
         -5    1    3    3    0  502 -0.19237446174E+02  0.23073644083E+01  0.79065823207E+01  0.21339861991E+02  0.41800000000E+01 0.  1.
        -11    1    1    2    0    0  0.10293094292E+03  0.77427285008E+02  0.69162567310E+03  0.70351676253E+03  0.00000000000E+00 0. -1.
         11    1    1    2    0    0  0.38404980864E+02  0.46145978871E+02  0.11848436130E+03  0.13282672093E+03  0.00000000000E+00 0.  1.
</event>
<event>
 7    1  0.1312490E-005  0.7621897E+02  0.7561462E-02  0.1340137E+00
         -1   -1    0    0    0  501 -0.00000000000E+00  0.00000000000E+00  0.12492303284E+03  0.12492303284E+03  0.00000000000E+00 0.  1.
          1   -1    0    0  501    0  0.00000000000E+00 -0.00000000000E+00 -0.91435883869E+02  0.91435883869E+02  0.00000000000E+00 0. -1.
         23    2    1    2    0    0  0.99463356645E+01  0.93674934331E+01  0.31857569232E+02  0.12981557934E+03  0.12510196000E+03 0.  0.
          5    1    3    3  502    0  0.13700995570E+02 -0.41154809244E+02  0.58085580768E+02  0.72614342224E+02  0.41800000000E+01 0.  1.
         -5    1    3    3    0  502 -0.37546599054E+01  0.50522302677E+02 -0.26228011536E+02  0.57201237119E+02  0.41800000000E+01 0.  1.
        -11    1    1    2    0    0 -0.28148556845E+02  0.11438025036E+02 -0.31250649644E+02  0.43586382877E+02  0.00000000000E+00 0. -1.
         11    1    1    2    0    0  0.18202221181E+02 -0.20805518469E+02  0.32880229383E+02  0.42956954489E+02  0.00000000000E+00 0.  1.
</event>
<event>
 7    1  0.1312490E-005  0.2335042E+03  0.7561462E-02  0.1124197E+00
          3   -1    0    0  501    0  0.00000000000E+00  0.00000000000E+00  0.11393098970E+03  0.11393098970E+03  0.00000000000E+00 0. -1.
         -3   -1    0    0    0  501 -0.00000000000E+00 -0.00000000000E+00 -0.49571535311E+03  0.49571535311E+03  0.00000000000E+00 0.  1.
         23    2    1    2    0    0  0.18455275486E+03  0.93359453203E+02 -0.25166283850E+03  0.34893823736E+03  0.12509197568E+03 0.  0.
          5    1    3    3  502    0  0.13914010539E+03  0.16169307941E+01 -0.14162218610E+03  0.19858725888E+03  0.41800000000E+01 0.  1.
         -5    1    3    3    0  502  0.45412649476E+02  0.91742522409E+02 -0.11004065240E+03  0.15035097848E+03  0.41800000000E+01 0.  1.
        -11    1    1    2    0    0 -0.76540411937E+01 -0.39779185124E+02 -0.16481813617E+02  0.43733489408E+02  0.00000000000E+00 0. -1.
         11    1    1    2    0    0 -0.17689871367E+03 -0.53580268079E+02 -0.11363971129E+03  0.21697461604E+03  0.00000000000E+00 0.  1.
</event>
<event>
 7    1  0.1312490E-005  0.1073497E+03  0.7561462E-02  0.1265558E+00
         -1   -1    0    0    0  501 -0.00000000000E+00  0.00000000000E+00  0.22749399662E+02  0.22749399662E+02  0.00000000000E+00 0.  1.
          1   -1    0    0  501    0  0.00000000000E+00 -0.00000000000E+00 -0.54740748015E+03  0.54740748015E+03  0.00000000000E+00 0. -1.
         23    2    1    2    0    0  0.18209906922E+02  0.18234523683E+02 -0.27917314540E+03  0.30630867382E+03  0.12338257568E+03 0.  0.
          5    1    3    3  502    0 -0.41174410646E+02  0.39797971524E+02 -0.17727371228E+03  0.18634015159E+03  0.41800000000E+01 0. -1.
         -5    1    3    3    0  502  0.59384317567E+02 -0.21563447841E+02 -0.10189943312E+03  0.11996852223E+03  0.41800000000E+01 0.  1.
        -11    1    1    2    0    0 -0.42035564649E+02  0.21819927350E+02 -0.92469541305E+02  0.10389280049E+03  0.00000000000E+00 0. -1.
         11    1    1    2    0    0  0.23825657727E+02 -0.40054451033E+02 -0.15301539379E+03  0.15995540550E+03  0.00000000000E+00 0.  1.
</event>
<event>
 7    1  0.1312490E-005  0.1248268E+03  0.7561462E-02  0.1235340E+00
         -2   -1    0    0    0  501 -0.00000000000E+00  0.00000000000E+00  0.46844751899E+02  0.46844751899E+02  0.00000000000E+00 0.  1.
          2   -1    0    0  501    0  0.00000000000E+00 -0.00000000000E+00 -0.57824094299E+03  0.57824094299E+03  0.00000000000E+00 0. -1.
         23    2    1    2    0    0  0.32745657122E+02  0.10349021474E+03 -0.17820263068E+03  0.24390430958E+03  0.12629581167E+03 0.  0.
          5    1    3    3  502    0  0.10911407215E+02  0.27622524217E+02 -0.15998866212E+03  0.16277563410E+03  0.41800000000E+01 0. -1.
         -5    1    3    3    0  502  0.21834249907E+02  0.75867690524E+02 -0.18213968564E+02  0.81128675481E+02  0.41800000000E+01 0.  1.
        -11    1    1    2    0    0  0.31002087499E+02 -0.40289296270E+02 -0.93737384619E+02  0.10663514476E+03  0.00000000000E+00 0.  1.
         11    1    1    2    0    0 -0.63747744621E+02 -0.63200918472E+02 -0.25945617579E+03  0.27454624054E+03  0.00000000000E+00 0. -1.
</event>
<event>
 7    1  0.1312490E-005  0.9349886E+02  0.7561462E-02  0.1294593E+00
          2   -1    0    0  501    0  0.00000000000E+00  0.00000000000E+00  0.11879631788E+03  0.11879631788E+03  0.00000000000E+00 0. -1.
         -2   -1    0    0    0  501 -0.00000000000E+00 -0.00000000000E+00 -0.10300738142E+03  0.10300738142E+03  0.00000000000E+00 0.  1.
         23    2    1    2    0    0  0.19343281618E+01 -0.45537275367E+01 -0.57022742768E+01  0.12531680517E+03  0.12508919884E+03 0.  0.
          5    1    3    3  502    0  0.54994011063E+02 -0.32320128222E+02  0.58206950215E+01  0.64189444861E+02  0.41800000000E+01 0. -1.
         -5    1    3    3    0  502 -0.53059682901E+02  0.27766400685E+02 -0.11522969298E+02  0.61127360306E+02  0.41800000000E+01 0. -1.
        -11    1    1    2    0    0 -0.55678719502E+01 -0.28879424512E+02 -0.25346592848E+02  0.38826178374E+02  0.00000000000E+00 0.  1.
         11    1    1    2    0    0  0.36335437885E+01  0.33433152048E+02  0.46837803585E+02  0.57660715752E+02  0.00000000000E+00 0. -1.
</event>
<event>
 7    1  0.1312490E-005  0.9535770E+02  0.7561462E-02  0.1290372E+00
          1   -1    0    0  501    0  0.00000000000E+00  0.00000000000E+00  0.21520467898E+02  0.21520467898E+02  0.00000000000E+00 0. -1.
         -1   -1    0    0    0  501 -0.00000000000E+00 -0.00000000000E+00 -0.58501758736E+03  0.58501758736E+03  0.00000000000E+00 0.  1.
         23    2    1    2    0    0  0.14030658717E+02  0.37106854726E+02 -0.35877281004E+03  0.38202078268E+03  0.12509265016E+03 0.  0.
          5    1    3    3  502    0  0.14251009236E+02 -0.30424888141E+02 -0.26679723056E+02  0.43105047326E+02  0.41800000000E+01 0.  1.
         -5    1    3    3    0  502 -0.22035051934E+00  0.67531742867E+02 -0.33209308698E+03  0.33891573535E+03  0.41800000000E+01 0.  1.
        -11    1    1    2    0    0 -0.47474136065E+02 -0.24803705554E+02 -0.14938273356E+03  0.15869536380E+03  0.00000000000E+00 0. -1.
         11    1    1    2    0    0  0.33443477348E+02 -0.12303149172E+02 -0.55341575863E+02  0.65821908782E+02  0.00000000000E+00 0.  1.
</event>
<event>
 7    1  0.1312490E-005  0.1565229E+03  0.7561462E-02  0.1192679E+00
         -1   -1    0    0    0  501 -0.00000000000E+00  0.00000000000E+00  0.23311501044E+02  0.23311501044E+02  0.00000000000E+00 0.  1.
          1   -1    0    0  501    0  0.00000000000E+00 -0.00000000000E+00 -0.11456608275E+04  0.11456608275E+04  0.00000000000E+00 0. -1.
         23    2    1    2    0    0  0.16935206780E+02 -0.11944171017E+03 -0.55604777912E+03  0.58257144361E+03  0.12508889192E+03 0.  0.
          5    1    3    3  502    0  0.20685452692E+02 -0.13903850665E+03 -0.53537844110E+03  0.55354055125E+03  0.41800000000E+01 0.  1.
         -5    1    3    3    0  502 -0.37502459119E+01  0.19596796480E+02 -0.20669338021E+02  0.29030892355E+02  0.41800000000E+01 0.  1.
        -11    1    1    2    0    0  0.60399340707E+01  0.12752933349E+03 -0.46455981381E+03  0.48178421758E+03  0.00000000000E+00 0.  1.
         11    1    1    2    0    0 -0.22975140851E+02 -0.80876233189E+01 -0.10174173355E+03  0.10461666738E+03  0.00000000000E+00 0. -1.
</event>
<event>
 7    1  0.1312490E-005  0.1218316E+03  0.7561462E-02  0.1240106E+00
          2   -1    0    0  501    0  0.00000000000E+00  0.00000000000E+00  0.99930394790E+02  0.99930394790E+02  0.00000000000E+00 0. -1.
         -2   -1    0    0    0  501 -0.00000000000E+00 -0.00000000000E+00 -0.21155193016E+03  0.21155193016E+03  0.00000000000E+00 0.  1.
         23    2    1    2    0    0  0.66806466357E+02  0.36325262080E+02 -0.89071891845E+02  0.17136236792E+03  0.12509448672E+03 0.  0.
          5    1    3    3  502    0  0.33839034695E+02  0.71448063459E+02 -0.11560792465E+02  0.80006439513E+02  0.41800000000E+01 0.  1.
         -5    1    3    3    0  502  0.32967431663E+02 -0.35122801379E+02 -0.77511099380E+02  0.91355928402E+02  0.41800000000E+01 0.  1.
        -11    1    1    2    0    0 -0.70022043100E+01  0.27677317003E+02  0.27158466154E+02  0.39403642288E+02  0.00000000000E+00 0.  1.
         11    1    1    2    0    0 -0.59804262047E+02 -0.64002579083E+02 -0.49708109681E+02  0.10071631475E+03  0.00000000000E+00 0. -1.
</event>
<event>
 7    1  0.1312490E-005  0.1008398E+03  0.7561462E-02  0.1278540E+00
          1   -1    0    0  501    0  0.00000000000E+00  0.00000000000E+00  0.21531865522E+03  0.21531865522E+03  0.00000000000E+00 0. -1.
         -1   -1    0    0    0  501 -0.00000000000E+00 -0.00000000000E+00 -0.96103173950E+02  0.96103173950E+02  0.00000000000E+00 0.  1.
         23    2    1    2    0    0 -0.65261731898E+02  0.15641932730E+02 -0.81412709406E+01  0.14218914606E+03  0.12509080403E+03 0.  0.
          5    1    3    3  502    0  0.15814130478E+02 -0.26017176698E+02  0.30315505980E+02  0.43168072796E+02  0.41800000000E+01 0. -1.
         -5    1    3    3    0  502 -0.81075862376E+02  0.41659109428E+02 -0.38456776920E+02  0.99021073260E+02  0.41800000000E+01 0. -1.
        -11    1    1    2    0    0  0.25120046590E+02  0.14947445968E+02 -0.30607524665E+01  0.29390663267E+02  0.00000000000E+00 0.  1.
         11    1    1    2    0    0  0.40141685309E+02 -0.30589378698E+02  0.13041750467E+03  0.13984201984E+03  0.00000000000E+00 0. -1.
</event>
<event>
 7    1  0.1312490E-005  0.9732775E+02  0.7561462E-02  0.1286018E+00
         -1   -1    0    0    0  501 -0.00000000000E+00  0.00000000000E+00  0.18865946596E+02  0.18865946596E+02  0.00000000000E+00 0.  1.
          1   -1    0    0  501    0  0.00000000000E+00 -0.00000000000E+00 -0.76393958089E+03  0.76393958089E+03  0.00000000000E+00 0. -1.
         23    2    1    2    0    0  0.37828110678E+02 -0.78045053247E+00 -0.29429911476E+03  0.32201450682E+03  0.12509915504E+03 0.  0.
          5    1    3    3  502    0 -0.28204706402E+02  0.13873302497E+02 -0.15873160055E+02  0.35459887134E+02  0.41800000000E+01 0. -1.
         -5    1    3    3    0  502  0.66032817080E+02 -0.14653753030E+02 -0.27842595470E+03  0.28655461968E+03  0.41800000000E+01 0. -1.
        -11    1    1    2    0    0 -0.49662598832E+02  0.33819133832E+02 -0.26438571028E+03  0.27112711288E+03  0.00000000000E+00 0. -1.
         11    1    1    2    0    0  0.11834488154E+02 -0.33038683299E+02 -0.18638880926E+03  0.18966390780E+03  0.00000000000E+00 0.  1.
</event>
<event>
 7    1  0.1312490E-005  0.1174746E+03  0.7561462E-02  0.1247322E+00
         -4   -1    0    0    0  501 -0.00000000000E+00  0.00000000000E+00  0.31830895912E+03  0.31830895912E+03  0.00000000000E+00 0. -1.
          4   -1    0    0  501    0  0.00000000000E+00 -0.00000000000E+00 -0.50095322981E+02  0.50095322981E+02  0.00000000000E+00 0.  1.
         23    2    1    2    0    0 -0.32308333994E+02 -0.53907214387E+02  0.15770001745E+03  0.21087108424E+03  0.12508997744E+03 0.  0.
          5    1    3    3  502    0 -0.69921989334E+02 -0.49025281210E+02  0.14891509219E+03  0.17171412251E+03  0.41800000000E+01 0. -1.
         -5    1    3    3    0  502  0.37613655341E+02 -0.48819331770E+01  0.87849252610E+01  0.39156961724E+02  0.41800000000E+01 0. -1.
        -11    1    1    2    0    0  0.26978071223E+02  0.80121187062E+02  0.92328239005E+02  0.12518675913E+03  0.00000000000E+00 0. -1.
         11    1    1    2    0    0  0.53302627704E+01 -0.26213972674E+02  0.18185379693E+02  0.32346438740E+02  0.00000000000E+00 0.  1.
</event>
<event>
 7    1  0.1312490E-005  0.1599032E+03  0.7561462E-02  0.1188806E+00
          2   -1    0    0  501    0  0.00000000000E+00  0.00000000000E+00  0.17710574774E+03  0.17710574774E+03  0.00000000000E+00 0. -1.
         -2   -1    0    0    0  501 -0.00000000000E+00 -0.00000000000E+00 -0.20077767139E+03  0.20077767139E+03  0.00000000000E+00 0.  1.
         23    2    1    2    0    0  0.13211416534E+03  0.24355322589E+02 -0.88326138688E+02  0.20370723541E+03  0.12509115301E+03 0.  0.
          5    1    3    3  502    0  0.14882088379E+03  0.15838740279E+02 -0.45037988740E+02  0.15634709456E+03  0.41800000000E+01 0.  1.
         -5    1    3    3    0  502 -0.16706718455E+02  0.85165823097E+01 -0.43288149947E+02  0.47360140853E+02  0.41800000000E+01 0.  1.
        -11    1    1    2    0    0 -0.29734743030E+02  0.23463946699E+02  0.46102183926E+02  0.59666767136E+02  0.00000000000E+00 0. -1.
         11    1    1    2    0    0 -0.10237942231E+03 -0.47819269288E+02  0.18552031109E+02  0.11450941658E+03  0.00000000000E+00 0.  1.
</event>
<event>
 7    1  0.1312490E-005  0.1077918E+03  0.7561462E-02  0.1264715E+00
         -2   -1    0    0    0  501 -0.00000000000E+00  0.00000000000E+00  0.39836063800E+03  0.39836063800E+03  0.00000000000E+00 0.  1.
          2   -1    0    0  501    0  0.00000000000E+00 -0.00000000000E+00 -0.52821495772E+02  0.52821495772E+02  0.00000000000E+00 0. -1.
         23    2    1    2    0    0  0.80561658516E+02 -0.48463518017E+02  0.22045923388E+03  0.27034864400E+03  0.12508885686E+03 0.  0.
          5    1    3    3  502    0  0.51882893493E+02 -0.10231315130E+02  0.21571207059E+03  0.22213888503E+03  0.41800000000E+01 0. -1.
         -5    1    3    3    0  502  0.28678765023E+02 -0.38232202887E+02  0.47471632923E+01  0.48209758972E+02  0.41800000000E+01 0. -1.
        -11    1    1    2    0    0 -0.68375087888E+02  0.40377991548E+01  0.11472655255E+03  0.13361750756E+03  0.00000000000E+00 0.  1.
         11    1    1    2    0    0 -0.12186570629E+02  0.44425718862E+02  0.10353355801E+02  0.47215982214E+02  0.00000000000E+00 0. -1.
</event>
<event>
 7    1  0.1312490E-005  0.1257379E+03  0.7561462E-02  0.1233921E+00
          3   -1    0    0  501    0  0.00000000000E+00  0.00000000000E+00  0.16786623476E+03  0.16786623476E+03  0.00000000000E+00 0. -1.
         -3   -1    0    0    0  501 -0.00000000000E+00 -0.00000000000E+00 -0.11380109133E+03  0.11380109133E+03  0.00000000000E+00 0.  1.
         23    2    1    2    0    0  0.27580585623E+02  0.61826697553E+02 -0.22948479128E+02  0.14407325600E+03  0.12508893303E+03 0.  0.
          5    1    3    3  502    0  0.74074736156E+02  0.25326208918E+02 -0.30936979122E+02  0.84279608874E+02  0.41800000000E+01 0.  1.
         -5    1    3    3    0  502 -0.46494150533E+02  0.36500488634E+02  0.79884999940E+01  0.59793647125E+02  0.41800000000E+01 0.  1.
        -11    1    1    2    0    0  0.33955153431E+01  0.23138531717E+02  0.12608263793E+02  0.26568580886E+02  0.00000000000E+00 0.  1.
         11    1    1    2    0    0 -0.30976100966E+02 -0.84965229269E+02  0.64405358760E+02  0.11102548920E+03  0.00000000000E+00 0. -1.
</event>
<event>
 7    1  0.1312490E-005  0.1937480E+03  0.7561462E-02  0.1155124E+00
         -1   -1    0    0    0  501 -0.00000000000E+00  0.00000000000E+00  0.22395013465E+03  0.22395013465E+03  0.00000000000E+00 0.  1.
          1   -1    0    0  501    0  0.00000000000E+00 -0.00000000000E+00 -0.22179435248E+03  0.22179435248E+03  0.00000000000E+00 0. -1.
         23    2    1    2    0    0 -0.18837555686E+03  0.28262940075E+02  0.44187366930E+02  0.23212877471E+03  0.12508837056E+03 0.  0.
          5    1    3    3  502    0 -0.18956418437E+03  0.30347662439E+02  0.71118076419E+02  0.20477014872E+03  0.41800000000E+01 0.  1.
         -5    1    3    3    0  502  0.11886275115E+01 -0.20847223635E+01 -0.26930709489E+02  0.27358625994E+02  0.41800000000E+01 0.  1.
        -11    1    1    2    0    0  0.67388909530E+02 -0.14002742859E+02  0.26599710872E+02  0.73789474545E+02  0.00000000000E+00 0.  1.
         11    1    1    2    0    0  0.12098664733E+03 -0.14260197217E+02 -0.68631295628E+02  0.13982623787E+03  0.00000000000E+00 0. -1.
</event>
<event>
 7    1  0.1312490E-005  0.1517230E+03  0.7561462E-02  0.1198372E+00
         -1   -1    0    0    0  501 -0.00000000000E+00  0.00000000000E+00  0.22184692601E+02  0.22184692601E+02  0.00000000000E+00 0.  1.
          1   -1    0    0  501    0  0.00000000000E+00 -0.00000000000E+00 -0.13636487102E+04  0.13636487102E+04  0.00000000000E+00 0. -1.
         23    2    1    2    0    0  0.67588972239E+02  0.11292882713E+03 -0.56070266606E+03  0.58936660121E+03  0.12507726301E+03 0.  0.
          5    1    3    3  502    0  0.21380922261E+02  0.10061961235E+03 -0.19482543965E+03  0.22035397559E+03  0.41800000000E+01 0.  1.
         -5    1    3    3    0  502  0.46208049978E+02  0.12309214775E+02 -0.36587722642E+03  0.36901262561E+03  0.41800000000E+01 0.  1.
        -11    1    1    2    0    0 -0.83215477516E+02 -0.10751143140E+03 -0.74155677165E+03  0.75391642054E+03  0.00000000000E+00 0. -1.
         11    1    1    2    0    0  0.15626505277E+02 -0.54173957293E+01 -0.39204579849E+02  0.42550381018E+02  0.00000000000E+00 0.  1.
</event>
<event>
 6    1  0.1312490E-005  0.1448228E+03  0.7561462E-02  0.1206983E+00
         -1   -1    0    0    0  501 -0.00000000000E+00  0.00000000000E+00  0.46008473493E+03  0.46008473493E+03  0.00000000000E+00 0.  1.
          1   -1    0    0  501    0  0.00000000000E+00 -0.00000000000E+00 -0.67460468070E+02  0.67460468070E+02  0.00000000000E+00 0. -1.
          5    1    1    2  502    0  0.89515524732E+02 -0.59801030558E+02  0.36906247927E+02  0.11388035810E+03  0.41800000000E+01 0. -1.
         -5    1    1    2    0  502 -0.77739935389E+02  0.10189822602E+02  0.26222526132E+03  0.27372776643E+03  0.41800000000E+01 0.  1.
        -11    1    1    2    0    0 -0.24136628566E+02 -0.20827224640E+02  0.36711152565E+02  0.48621588285E+02  0.00000000000E+00 0.  1.
         11    1    1    2    0    0  0.12361039222E+02  0.70438432596E+02  0.56781605052E+02  0.91315490195E+02  0.00000000000E+00 0. -1.
</event>
<event>
 7    1  0.1312490E-005  0.9443447E+02  0.7561462E-02  0.1292455E+00
         -1   -1    0    0    0  501 -0.00000000000E+00  0.00000000000E+00  0.33680171425E+03  0.33680171425E+03  0.00000000000E+00 0.  1.
          1   -1    0    0  501    0  0.00000000000E+00 -0.00000000000E+00 -0.49173313870E+02  0.49173313870E+02  0.00000000000E+00 0. -1.
         23    2    1    2    0    0  0.10359547885E+02  0.67005134052E+02  0.17940177502E+03  0.22897514471E+03  0.12509041447E+03 0.  0.
          5    1    3    3  502    0  0.40335811655E+02  0.47011674946E+01  0.47616567951E+01  0.41100175828E+02  0.41800000000E+01 0.  1.
         -5    1    3    3    0  502 -0.29976263770E+02  0.62303966557E+02  0.17464011822E+03  0.18787496888E+03  0.41800000000E+01 0.  1.
        -11    1    1    2    0    0  0.65221054710E+01 -0.60240587243E+02  0.15550596844E+02  0.62556272854E+02  0.00000000000E+00 0. -1.
         11    1    1    2    0    0 -0.16881653356E+02 -0.67645468092E+01  0.92676028516E+02  0.94443610557E+02  0.00000000000E+00 0.  1.
</event>
<event>
 7    1  0.1312490E-005  0.1206797E+03  0.7561462E-02  0.1241980E+00
         -3   -1    0    0    0  501 -0.00000000000E+00  0.00000000000E+00  0.26274167958E+03  0.26274167958E+03  0.00000000000E+00 0.  1.
          3   -1    0    0  501    0  0.00000000000E+00 -0.00000000000E+00 -0.62930898317E+02  0.62930898317E+02  0.00000000000E+00 0. -1.
         23    2    1    2    0    0  0.33267750667E+02 -0.59266377938E+02  0.11213682136E+03  0.18122176506E+03  0.12508962643E+03 0.  0.
          5    1    3    3  502    0  0.67007254080E+02 -0.64389672673E+02  0.39899354575E+02  0.10121972605E+03  0.41800000000E+01 0.  1.
         -5    1    3    3    0  502 -0.33739503413E+02  0.51232947348E+01  0.72237466781E+02  0.80002039014E+02  0.41800000000E+01 0.  1.
        -11    1    1    2    0    0 -0.20873508123E+02 -0.22826088229E+02  0.31897524148E+02  0.44431809461E+02  0.00000000000E+00 0. -1.
         11    1    1    2    0    0 -0.12394242544E+02  0.82092466167E+02  0.55776435759E+02  0.10001900337E+03  0.00000000000E+00 0.  1.
</event>
<event>
 7    1  0.1312490E-005  0.1741964E+03  0.7561462E-02  0.1173541E+00
         -4   -1    0    0    0  501 -0.00000000000E+00  0.00000000000E+00  0.45017331140E+02  0.45017331140E+02  0.00000000000E+00 0. -1.
          4   -1    0    0  501    0  0.00000000000E+00 -0.00000000000E+00 -0.99363101103E+03  0.99363101103E+03  0.00000000000E+00 0.  1.
         23    2    1    2    0    0  0.91666720426E+02  0.12816923934E+03 -0.27508326258E+03  0.34080781912E+03  0.12509606978E+03 0.  0.
          5    1    3    3  502    0  0.45166505890E+01  0.66827471691E+02 -0.29975491865E+02  0.73500432772E+02  0.41800000000E+01 0. -1.
         -5    1    3    3    0  502  0.87150069837E+02  0.61341767646E+02 -0.24510777071E+03  0.26730738635E+03  0.41800000000E+01 0. -1.
        -11    1    1    2    0    0  0.13259307509E+02 -0.10072704410E+02 -0.22947481019E+02  0.28352345491E+02  0.00000000000E+00 0. -1.
         11    1    1    2    0    0 -0.10492602793E+03 -0.11809653493E+03 -0.65058293629E+03  0.66948817756E+03  0.00000000000E+00 0.  1.
</event>
<event>
 7    1  0.1312490E-005  0.9148473E+02  0.7561462E-02  0.1299296E+00
         -1   -1    0    0    0  501 -0.00000000000E+00  0.00000000000E+00  0.10353729058E+03  0.10353729058E+03  0.00000000000E+00 0.  1.
          1   -1    0    0  501    0  0.00000000000E+00 -0.00000000000E+00 -0.11826625661E+03  0.11826625661E+03  0.00000000000E+00 0. -1.
         23    2    1    2    0    0 -0.63356510201E+01 -0.73480326479E+01  0.13390380138E+02  0.12617467214E+03  0.12508641633E+03 0.  0.
          5    1    3    3  502    0 -0.62047076242E+02  0.77860592161E+00 -0.13501226277E+02  0.63641192701E+02  0.41800000000E+01 0. -1.
         -5    1    3    3    0  502  0.55711425222E+02 -0.81266385695E+01  0.26891606415E+02  0.62533479435E+02  0.41800000000E+01 0. -1.
        -11    1    1    2    0    0 -0.38582959302E+00  0.35436909911E+02 -0.48653008241E+02  0.60191682643E+02  0.00000000000E+00 0. -1.
         11    1    1    2    0    0  0.67214806131E+01 -0.28088877263E+02  0.20533662076E+02  0.35437192408E+02  0.00000000000E+00 0.  1.
</event>
<event>
 7    1  0.1312490E-005  0.1385152E+03  0.7561462E-02  0.1215341E+00
         -1   -1    0    0    0  501 -0.00000000000E+00  0.00000000000E+00  0.88338630044E+03  0.88338630044E+03  0.00000000000E+00 0.  1.
          1   -1    0    0  501    0  0.00000000000E+00 -0.00000000000E+00 -0.31795182777E+02  0.31795182777E+02  0.00000000000E+00 0. -1.
         23    2    1    2    0    0 -0.99431499136E+02 -0.70405034570E+02  0.56150219942E+03  0.58804000706E+03  0.12515126064E+03 0.  0.
          5    1    3    3  502    0 -0.71314203008E+02 -0.89088763070E+02  0.25190129183E+03  0.27657595066E+03  0.41800000000E+01 0. -1.
         -5    1    3    3    0  502 -0.28117296128E+02  0.18683728500E+02  0.30960090759E+03  0.31146405640E+03  0.41800000000E+01 0. -1.
        -11    1    1    2    0    0  0.56778461130E+02  0.14679805056E+02  0.50192789002E+02  0.77192009901E+02  0.00000000000E+00 0. -1.
         11    1    1    2    0    0  0.42653038006E+02  0.55725229514E+02  0.23989612924E+03  0.24994946625E+03  0.00000000000E+00 0.  1.
</event>
<event>
 7    1  0.1312490E-005  0.1319820E+03  0.7561462E-02  0.1224544E+00
          2   -1    0    0  501    0  0.00000000000E+00  0.00000000000E+00  0.87269937658E+03  0.87269937658E+03  0.00000000000E+00 0. -1.
         -2   -1    0    0    0  501 -0.00000000000E+00 -0.00000000000E+00 -0.24071163789E+02  0.24071163789E+02  0.00000000000E+00 0.  1.
         23    2    1    2    0    0  0.87485848822E+02  0.20636816510E+02  0.35040017501E+03  0.38276264564E+03  0.12508920140E+03 0.  0.
          5    1    3    3  502    0 -0.18525638403E+02  0.41731687853E+02  0.10677070764E+03  0.11619892193E+03  0.41800000000E+01 0.  1.
         -5    1    3    3    0  502  0.10601148722E+03 -0.21094871344E+02  0.24362946738E+03  0.26656372371E+03  0.41800000000E+01 0.  1.
        -11    1    1    2    0    0 -0.59644865329E+01  0.18555319249E+02  0.22547938850E+02  0.29804102376E+02  0.00000000000E+00 0.  1.
         11    1    1    2    0    0 -0.81521362289E+02 -0.39192135759E+02  0.47568009892E+03  0.48420379235E+03  0.00000000000E+00 0. -1.
</event>
<event>
 7    1  0.1312490E-005  0.1070541E+03  0.7561462E-02  0.1266125E+00
         -2   -1    0    0    0  501 -0.00000000000E+00  0.00000000000E+00  0.56158951446E+02  0.56158951446E+02  0.00000000000E+00 0. -1.
          2   -1    0    0  501    0  0.00000000000E+00 -0.00000000000E+00 -0.25504411159E+03  0.25504411159E+03  0.00000000000E+00 0.  1.
         23    2    1    2    0    0  0.29327498560E+02 -0.33778396611E+02 -0.11182696131E+03  0.17364962324E+03  0.12509132714E+03 0.  0.
          5    1    3    3  502    0 -0.29755599117E+02  0.12530042497E+02  0.67477931543E+01  0.33247597752E+02  0.41800000000E+01 0. -1.
         -5    1    3    3    0  502  0.59083097677E+02 -0.46308439108E+02 -0.11857475447E+03  0.14040202549E+03  0.41800000000E+01 0. -1.
        -11    1    1    2    0    0  0.15495667238E+02  0.54735950071E+02 -0.49944765861E+02  0.75700855809E+02  0.00000000000E+00 0. -1.
         11    1    1    2    0    0 -0.44823165799E+02 -0.20957553460E+02 -0.37113432970E+02  0.61852583989E+02  0.00000000000E+00 0.  1.
</event>
<event>
 7    1  0.1312490E-005  0.9314210E+02  0.7561462E-02  0.1295416E+00
          1   -1    0    0  501    0  0.00000000000E+00  0.00000000000E+00  0.53857558758E+03  0.53857558758E+03  0.00000000000E+00 0. -1.
         -1   -1    0    0    0  501 -0.00000000000E+00 -0.00000000000E+00 -0.41378588060E+02  0.41378588060E+02  0.00000000000E+00 0.  1.
         23    2    1    2    0    0  0.36530642390E+02  0.38423975375E+02  0.96134792212E+02  0.16643297235E+03  0.12508855381E+03 0.  0.
          5    1    3    3  502    0  0.63103528220E+02  0.38284918856E+02  0.11274277921E+03  0.13481912680E+03  0.41800000000E+01 0.  1.
         -5    1    3    3    0  502 -0.26572885830E+02  0.13905651892E+00 -0.16607987003E+02  0.31613845548E+02  0.41800000000E+01 0.  1.
        -11    1    1    2    0    0 -0.56409095290E+02 -0.27131660221E+02  0.36823668688E+03  0.37351890257E+03  0.00000000000E+00 0. -1.
         11    1    1    2    0    0  0.19878452899E+02 -0.11292315154E+02  0.32825520426E+02  0.40002300715E+02  0.00000000000E+00 0.  1.
</event>
<event>
 7    1  0.1312490E-005  0.1143869E+03  0.7561462E-02  0.1252655E+00
         -2   -1    0    0    0  501 -0.00000000000E+00  0.00000000000E+00  0.38055068914E+02  0.38055068914E+02  0.00000000000E+00 0.  1.
          2   -1    0    0  501    0  0.00000000000E+00 -0.00000000000E+00 -0.68911728621E+03  0.68911728621E+03  0.00000000000E+00 0. -1.
         23    2    1    2    0    0  0.25602594827E+02 -0.40974031810E+02 -0.10217169680E+03  0.16858496008E+03  0.12508984368E+03 0.  0.
          5    1    3    3  502    0  0.16210733235E+02  0.40100338819E+02 -0.85065675949E+01  0.44279330818E+02  0.41800000000E+01 0.  1.
         -5    1    3    3    0  502  0.93918615918E+01 -0.81074370629E+02 -0.93665129200E+02  0.12430562926E+03  0.41800000000E+01 0.  1.
        -11    1    1    2    0    0 -0.60301229861E+02  0.28776653061E+02 -0.34713770822E+03  0.35350943771E+03  0.00000000000E+00 0.  1.
         11    1    1    2    0    0  0.34698635035E+02  0.12197378749E+02 -0.20175281229E+03  0.20507795734E+03  0.00000000000E+00 0. -1.
</event>
<event>
 7    1  0.1312490E-005  0.1844532E+03  0.7561462E-02  0.1163561E+00
         -2   -1    0    0    0  501 -0.00000000000E+00  0.00000000000E+00  0.11836360715E+03  0.11836360715E+03  0.00000000000E+00 0.  1.
          2   -1    0    0  501    0  0.00000000000E+00 -0.00000000000E+00 -0.32656106496E+03  0.32656106496E+03  0.00000000000E+00 0. -1.
         23    2    1    2    0    0  0.13527112007E+03 -0.76332133639E+02 -0.50882872481E+02  0.20581828026E+03  0.12508887731E+03 0.  0.
          5    1    3    3  502    0  0.94259556735E+02  0.95266484518E+01 -0.56540186694E+02  0.11040781756E+03  0.41800000000E+01 0. -1.
         -5    1    3    3    0  502  0.41011563333E+02 -0.85858782091E+02  0.56573142127E+01  0.95410462703E+02  0.41800000000E+01 0. -1.
        -11    1    1    2    0    0 -0.11830611854E+03  0.19979844224E+02 -0.92031499280E+02  0.15121285897E+03  0.00000000000E+00 0.  1.
         11    1    1    2    0    0 -0.16965001529E+02  0.56352289415E+02 -0.65283086049E+02  0.87893532887E+02  0.00000000000E+00 0. -1.
</event>
<event>
 7    1  0.1312490E-005  0.1081261E+03  0.7561462E-02  0.1264080E+00
          1   -1    0    0  501    0  0.00000000000E+00  0.00000000000E+00  0.42655756178E+03  0.42655756178E+03  0.00000000000E+00 0. -1.
         -1   -1    0    0    0  501 -0.00000000000E+00 -0.00000000000E+00 -0.45504229653E+02  0.45504229653E+02  0.00000000000E+00 0.  1.
         23    2    1    2    0    0 -0.16637539027E+02  0.76543358219E+02  0.14644486656E+03  0.20791734265E+03  0.12509128282E+03 0.  0.
          5    1    3    3  502    0 -0.11548109797E+02 -0.70039076048E+01 -0.18273846502E+02  0.23104532620E+02  0.41800000000E+01 0.  1.
         -5    1    3    3    0  502 -0.50894292297E+01  0.83547265824E+02  0.16471871307E+03  0.18481281003E+03  0.41800000000E+01 0.  1.
        -11    1    1    2    0    0 -0.33821111754E+02 -0.52408351510E+02  0.93922446347E+02  0.11274718993E+03  0.00000000000E+00 0.  1.
         11    1    1    2    0    0  0.50458650780E+02 -0.24135006709E+02  0.14068601922E+03  0.15139725886E+03  0.00000000000E+00 0. -1.
</event>
<event>
 7    1  0.1312490E-005  0.1062678E+03  0.7561462E-02  0.1267642E+00
          1   -1    0    0  501    0  0.00000000000E+00  0.00000000000E+00  0.86375853303E+02  0.86375853303E+02  0.00000000000E+00 0. -1.
         -1   -1    0    0    0  501 -0.00000000000E+00 -0.00000000000E+00 -0.22234400303E+03  0.22234400303E+03  0.00000000000E+00 0.  1.
         23    2    1    2    0    0 -0.26957475886E+02 -0.32929137889E+02 -0.15980081538E+03  0.20735758822E+03  0.12509930123E+03 0.  0.
          5    1    3    3  502    0 -0.10473853667E+01 -0.76226188881E+02 -0.12298834705E+03  0.14475888504E+03  0.41800000000E+01 0.  1.
         -5    1    3    3    0  502 -0.25910090519E+02  0.43297050992E+02 -0.36812468331E+02  0.62598703181E+02  0.41800000000E+01 0.  1.
        -11    1    1    2    0    0  0.52122494992E+02  0.30213171004E+02 -0.79105173893E+01  0.60763199979E+02  0.00000000000E+00 0.  1.
         11    1    1    2    0    0 -0.25165019106E+02  0.27159668848E+01  0.31743183050E+02  0.40599068128E+02  0.00000000000E+00 0. -1.
</event>
<event>
 7    1  0.1312490E-005  0.1172184E+03  0.7561462E-02  0.1247758E+00
          1   -1    0    0  501    0  0.00000000000E+00  0.00000000000E+00  0.20131053257E+03  0.20131053257E+03  0.00000000000E+00 0. -1.
         -1   -1    0    0    0  501 -0.00000000000E+00 -0.00000000000E+00 -0.87260669315E+02  0.87260669315E+02  0.00000000000E+00 0.  1.
         23    2    1    2    0    0 -0.53613807653E+02 -0.56346320750E+02  0.74232413470E+02  0.16494559663E+03  0.12508896996E+03 0.  0.
          5    1    3    3  502    0  0.27132605236E+02  0.44937514265E+01  0.55439757605E+02  0.62027503513E+02  0.41800000000E+01 0.  1.
         -5    1    3    3    0  502 -0.80746412889E+02 -0.60840072177E+02  0.18792655865E+02  0.10291809312E+03  0.41800000000E+01 0.  1.
        -11    1    1    2    0    0  0.20627878593E+02  0.67522565977E+02 -0.16229358159E+00  0.70603347163E+02  0.00000000000E+00 0.  1.
         11    1    1    2    0    0  0.32985929060E+02 -0.11176245226E+02  0.39979743370E+02  0.53022258092E+02  0.00000000000E+00 0. -1.
</event>
<event>
 6    1  0.1312490E-005  0.1203149E+03  0.7561462E-02  0.1242578E+00
          1   -1    0    0  501    0  0.00000000000E+00  0.00000000000E+00  0.57609333513E+02  0.57609333513E+02  0.00000000000E+00 0. -1.
         -1   -1    0    0    0  501 -0.00000000000E+00 -0.00000000000E+00 -0.84872757621E+03  0.84872757621E+03  0.00000000000E+00 0.  1.
          5    1    1    2  502    0  0.23219479861E+02 -0.12865751903E+02  0.12218782006E+01  0.26900505635E+02  0.41800000000E+01 0. -1.
         -5    1    1    2    0  502  0.78834320700E+02  0.39999192024E+02 -0.71507485809E+03  0.72053057573E+03  0.41800000000E+01 0.  1.
        -11    1    1    2    0    0  0.72743223796E+01  0.76232568059E+01 -0.35156852791E+02  0.36701963280E+02  0.00000000000E+00 0.  1.
         11    1    1    2    0    0 -0.10932812294E+03 -0.34756696926E+02 -0.42108410016E+02  0.12220386508E+03  0.00000000000E+00 0. -1.
</event>
<event>
 7    1  0.1312490E-005  0.8985970E+02  0.7561462E-02  0.1303192E+00
         -2   -1    0    0    0  501 -0.00000000000E+00  0.00000000000E+00  0.34213947595E+02  0.34213947595E+02  0.00000000000E+00 0.  1.
          2   -1    0    0  501    0  0.00000000000E+00 -0.00000000000E+00 -0.35052229328E+03  0.35052229328E+03  0.00000000000E+00 0. -1.
         23    2    1    2    0    0 -0.14484775341E+02  0.95899627200E+01 -0.16487338968E+03  0.20768353949E+03  0.12508973518E+03 0.  0.
          5    1    3    3  502    0 -0.17432960765E+02  0.57214463639E+02 -0.14293324862E+03  0.15499931913E+03  0.41800000000E+01 0.  1.
         -5    1    3    3    0  502  0.29481854233E+01 -0.47624500919E+02 -0.21940141068E+02  0.52684220362E+02  0.41800000000E+01 0.  1.
        -11    1    1    2    0    0  0.41358634135E+02 -0.15813399383E+02 -0.32409060850E+02  0.54872100768E+02  0.00000000000E+00 0.  1.
         11    1    1    2    0    0 -0.26873858794E+02  0.62234366626E+01 -0.11902589515E+03  0.12218060062E+03  0.00000000000E+00 0. -1.
</event>
<event>
 7    1  0.2465627E-005  0.2761030E+03  0.7561462E-02  0.1097837E+00
         -1   -1    0    0    0  501 -0.00000000000E+00  0.00000000000E+00  0.13654110260E+03  0.13654110260E+03  0.00000000000E+00 0.  1.
          1   -1    0    0  501    0  0.00000000000E+00 -0.00000000000E+00 -0.57008528460E+03  0.57008528460E+03  0.00000000000E+00 0. -1.
         23    2    1    2    0    0 -0.17536470409E+03  0.18430800594E+03 -0.18107915571E+03  0.33639167378E+03  0.12508987595E+03 0.  0.
          5    1    3    3  502    0 -0.13477869660E+03  0.19858911846E+03 -0.14852245401E+03  0.28227526773E+03  0.41800000000E+01 0.  1.
         -5    1    3    3    0  502 -0.40586007486E+02 -0.14281112519E+02 -0.32556701706E+02  0.54116406056E+02  0.41800000000E+01 0.  1.
        -11    1    1    2    0    0  0.35539685758E+02 -0.98894649496E+02 -0.77836310255E+02  0.13077351474E+03  0.00000000000E+00 0. -1.
         11    1    1    2    0    0  0.13982501833E+03 -0.85413356440E+02 -0.17462871603E+03  0.23946119868E+03  0.00000000000E+00 0.  1.
</event>
<event>
 7    1  0.1584572E-005  0.2127074E+03  0.7561462E-02  0.1139440E+00
          2   -1    0    0  501    0  0.00000000000E+00  0.00000000000E+00  0.16454107037E+03  0.16454107037E+03  0.00000000000E+00 0. -1.
         -2   -1    0    0    0  501 -0.00000000000E+00 -0.00000000000E+00 -0.31861420653E+03  0.31861420653E+03  0.00000000000E+00 0.  1.
         23    2    1    2    0    0  0.18596802036E+03 -0.60458091435E+02 -0.13211037517E+03  0.26709526711E+03  0.12508974804E+03 0.  0.
          5    1    3    3  502    0  0.36360984730E+02 -0.70805404550E+02 -0.27973828171E+02  0.84472089986E+02  0.41800000000E+01 0.  1.
         -5    1    3    3    0  502  0.14960703563E+03  0.10347313116E+02 -0.10413654700E+03  0.18262317712E+03  0.41800000000E+01 0.  1.
        -11    1    1    2    0    0 -0.15151051474E+03  0.46225870129E+02 -0.53534050712E+02  0.16720694284E+03  0.00000000000E+00 0.  1.
         11    1    1    2    0    0 -0.34457505620E+02  0.14232221306E+02  0.31571289717E+02  0.48853066958E+02  0.00000000000E+00 0. -1.
</event>
<event>
 7    1  0.1312490E-005  0.1564276E+03  0.7561462E-02  0.1192790E+00
          2   -1    0    0  501    0  0.00000000000E+00  0.00000000000E+00  0.37092479289E+03  0.37092479289E+03  0.00000000000E+00 0. -1.
         -2   -1    0    0    0  501 -0.00000000000E+00 -0.00000000000E+00 -0.91522918773E+02  0.91522918773E+02  0.00000000000E+00 0.  1.
         23    2    1    2    0    0 -0.12818523042E+03  0.25288579824E+02  0.53279214970E+02  0.18856692924E+03  0.12509135257E+03 0.  0.
          5    1    3    3  502    0 -0.12379375857E+03 -0.10057855384E+02  0.76417783367E+02  0.14588764557E+03  0.41800000000E+01 0. -1.
         -5    1    3    3    0  502 -0.43914718516E+01  0.35346435208E+02 -0.23138568396E+02  0.42679283667E+02  0.41800000000E+01 0. -1.
        -11    1    1    2    0    0  0.88148383967E+02 -0.54071686992E+02  0.17174859388E+03  0.20047808965E+03  0.00000000000E+00 0. -1.
         11    1    1    2    0    0  0.40036846457E+02  0.28783107168E+02  0.54374065271E+02  0.73402692775E+02  0.00000000000E+00 0.  1.
</event>
<event>
 7    1  0.1312490E-005  0.1553220E+03  0.7561462E-02  0.1194082E+00
         -1   -1    0    0    0  501 -0.00000000000E+00  0.00000000000E+00  0.16989742263E+04  0.16989742263E+04  0.00000000000E+00 0.  1.
          1   -1    0    0  501    0  0.00000000000E+00 -0.00000000000E+00 -0.19871472127E+02  0.19871472127E+02  0.00000000000E+00 0. -1.
         23    2    1    2    0    0 -0.12232214613E+03  0.63759239440E+02  0.11282076328E+04  0.11434722228E+04  0.12509321970E+03 0.  0.
          5    1    3    3  502    0 -0.40149255271E+02 -0.15645831015E+02  0.66321777890E+03  0.66462925709E+03  0.41800000000E+01 0. -1.
         -5    1    3    3    0  502 -0.82172890855E+02  0.79405070455E+02  0.46498985386E+03  0.47884296570E+03  0.41800000000E+01 0. -1.
        -11    1    1    2    0    0  0.16152417794E+02 -0.41493043047E+02  0.74571033398E+02  0.86852819436E+02  0.00000000000E+00 0. -1.
         11    1    1    2    0    0  0.10616972833E+03 -0.22266196392E+02  0.47632408798E+03  0.48852065618E+03  0.00000000000E+00 0.  1.
</event>
<event>
 7    1  0.1312490E-005  0.9567990E+02  0.7561462E-02  0.1289652E+00
         -2   -1    0    0    0  501 -0.00000000000E+00  0.00000000000E+00  0.18428737214E+03  0.18428737214E+03  0.00000000000E+00 0. -1.
          2   -1    0    0  501    0  0.00000000000E+00 -0.00000000000E+00 -0.62738954429E+02  0.62738954429E+02  0.00000000000E+00 0.  1.
         23    2    1    2    0    0 -0.31488978338E+02 -0.37272754447E+01  0.67146639608E+02  0.14546998087E+03  0.12508955106E+03 0.  0.
          5    1    3    3  502    0 -0.72937679934E+02  0.48398100939E+01  0.71969726304E+02  0.10266665876E+03  0.41800000000E+01 0. -1.
         -5    1    3    3    0  502  0.41448701597E+02 -0.85670855386E+01 -0.48230866960E+01  0.42803322114E+02  0.41800000000E+01 0. -1.
        -11    1    1    2    0    0 -0.14884349570E+02 -0.18863275782E+02 -0.31921822760E+01  0.24239576378E+02  0.00000000000E+00 0.  1.
         11    1    1    2    0    0  0.46373327907E+02  0.22590551226E+02  0.57593960381E+02  0.77316769321E+02  0.00000000000E+00 0. -1.
</event>
<event>
 7    1  0.1312490E-005  0.1225060E+03  0.7561462E-02  0.1239019E+00
          1   -1    0    0  501    0  0.00000000000E+00  0.00000000000E+00  0.70711203195E+03  0.70711203195E+03  0.00000000000E+00 0. -1.
         -1   -1    0    0    0  501 -0.00000000000E+00 -0.00000000000E+00 -0.31455543732E+02  0.31455543732E+02  0.00000000000E+00 0.  1.
         23    2    1    2    0    0 -0.22297071123E+02 -0.80721989587E+02  0.19926205659E+03  0.24972891640E+03  0.12508383391E+03 0.  0.
          5    1    3    3  502    0 -0.17783403392E+02 -0.10695681396E+03  0.19398684823E+03  0.22227095891E+03  0.41800000000E+01 0.  1.
         -5    1    3    3    0  502 -0.45136677310E+01  0.26234824376E+02  0.52752083665E+01  0.27457957494E+02  0.41800000000E+01 0.  1.
        -11    1    1    2    0    0  0.44546472413E+02  0.28730824542E+02  0.23688370647E+03  0.24274212422E+03  0.00000000000E+00 0.  1.
         11    1    1    2    0    0 -0.22249401290E+02  0.51991165045E+02  0.23951072516E+03  0.24609653506E+03  0.00000000000E+00 0. -1.
</event>
<event>
 7    1  0.1312490E-005  0.1320229E+03  0.7561462E-02  0.1224485E+00
         -2   -1    0    0    0  501 -0.00000000000E+00  0.00000000000E+00  0.23033410688E+03  0.23033410688E+03  0.00000000000E+00 0.  1.
          2   -1    0    0  501    0  0.00000000000E+00 -0.00000000000E+00 -0.15461801752E+03  0.15461801752E+03  0.00000000000E+00 0. -1.
         23    2    1    2    0    0 -0.73581602542E+02  0.72202753011E+02  0.15696894488E+03  0.22564226552E+03  0.12509073729E+03 0.  0.
          5    1    3    3  502    0  0.73571381589E+01 -0.16251718068E+02 -0.93494977849E+01  0.20570156317E+02  0.41800000000E+01 0. -1.
         -5    1    3    3    0  502 -0.80938740701E+02  0.88454471080E+02  0.16631844267E+03  0.20507210920E+03  0.41800000000E+01 0. -1.
        -11    1    1    2    0    0 -0.14002238401E+02 -0.34850919442E+01  0.81129412335E+01  0.16553802027E+02  0.00000000000E+00 0.  1.
         11    1    1    2    0    0  0.87583840943E+02 -0.68717661067E+02 -0.89365796756E+02  0.14275605685E+03  0.00000000000E+00 0. -1.
</event>
<event>
 7    1  0.1312490E-005  0.8898175E+02  0.7561462E-02  0.1305336E+00
         -1   -1    0    0    0  501 -0.00000000000E+00  0.00000000000E+00  0.10737747861E+03  0.10737747861E+03  0.00000000000E+00 0.  1.
          1   -1    0    0  501    0  0.00000000000E+00 -0.00000000000E+00 -0.11705939071E+03  0.11705939071E+03  0.00000000000E+00 0. -1.
         23    2    1    2    0    0 -0.10619426918E+02 -0.88307715915E+01  0.24050177827E+02  0.12812336373E+03  0.12508569273E+03 0.  0.
          5    1    3    3  502    0 -0.55606851541E+02 -0.38880614738E+02  0.28429172984E+02  0.73685238802E+02  0.41800000000E+01 0.  1.
         -5    1    3    3    0  502  0.44987424623E+02  0.30049843147E+02 -0.43789951573E+01  0.54438124930E+02  0.41800000000E+01 0.  1.
        -11    1    1    2    0    0 -0.22184722075E+02  0.44449218107E+01  0.21959528381E+02  0.31529987475E+02  0.00000000000E+00 0.  1.
         11    1    1    2    0    0  0.32804148994E+02  0.43858497808E+01 -0.55691618309E+02  0.64783518115E+02  0.00000000000E+00 0. -1.
</event>
<event>
 7    1  0.1312490E-005  0.1122126E+03  0.7561462E-02  0.1256526E+00
         -1   -1    0    0    0  501 -0.00000000000E+00  0.00000000000E+00  0.13003664278E+03  0.13003664278E+03  0.00000000000E+00 0.  1.
          1   -1    0    0  501    0  0.00000000000E+00 -0.00000000000E+00 -0.10773088345E+03  0.10773088345E+03  0.00000000000E+00 0. -1.
         23    2    1    2    0    0 -0.35110902608E+02  0.44974575091E+02  0.34751505130E+02  0.13018896164E+03  0.11174081947E+03 0.  0.
          5    1    3    3  502    0 -0.71531466228E+02  0.43725663482E+02  0.70767078513E+01  0.84239162517E+02  0.41800000000E+01 0. -1.
         -5    1    3    3    0  502  0.36420563620E+02  0.12489116096E+01  0.27674797278E+02  0.45949799118E+02  0.41800000000E+01 0.  1.
        -11    1    1    2    0    0  0.63812471180E+02 -0.37985871893E+02  0.28415849642E+01  0.74317108035E+02  0.00000000000E+00 0.  1.
         11    1    1    2    0    0 -0.28701568572E+02 -0.69887031979E+01 -0.15287330759E+02  0.33261456562E+02  0.00000000000E+00 0. -1.
</event>
<event>
 7    1  0.1312490E-005  0.2091748E+03  0.7561462E-02  0.1142221E+00
         -4   -1    0    0    0  501 -0.00000000000E+00  0.00000000000E+00  0.78677271473E+03  0.78677271473E+03  0.00000000000E+00 0.  1.
          4   -1    0    0  501    0  0.00000000000E+00 -0.00000000000E+00 -0.63885466448E+02  0.63885466448E+02  0.00000000000E+00 0. -1.
         23    2    1    2    0    0  0.53225689059E+02 -0.18346505616E+03  0.45660399673E+03  0.51051604408E+03  0.12508805146E+03 0.  0.
          5    1    3    3  502    0  0.25664731475E+02 -0.19529071556E+03  0.37757334406E+03  0.42588290007E+03  0.41800000000E+01 0.  1.
         -5    1    3    3    0  502  0.27560957584E+02  0.11825659394E+02  0.79030652671E+02  0.84633144008E+02  0.41800000000E+01 0.  1.
        -11    1    1    2    0    0 -0.41227906559E+01  0.11509936113E+02 -0.65919225948E+01  0.13889905530E+02  0.00000000000E+00 0. -1.
         11    1    1    2    0    0 -0.49102898403E+02  0.17195512005E+03  0.27287517415E+03  0.32625223158E+03  0.00000000000E+00 0.  1.
</event>
<event>
 7    1  0.1312490E-005  0.1508767E+03  0.7561462E-02  0.1199400E+00
         -1   -1    0    0    0  501 -0.00000000000E+00  0.00000000000E+00  0.14729073822E+03  0.14729073822E+03  0.00000000000E+00 0.  1.
          1   -1    0    0  501    0  0.00000000000E+00 -0.00000000000E+00 -0.27121269579E+03  0.27121269579E+03  0.00000000000E+00 0. -1.
         23    2    1    2    0    0  0.15004793469E+03 -0.12151002243E+02  0.16702658245E+02  0.19643925304E+03  0.12508945511E+03 0.  0.
          5    1    3    3  502    0  0.66854824508E+02 -0.93291069966E+01 -0.54470311393E+02  0.86839432406E+02  0.41800000000E+01 0. -1.
         -5    1    3    3    0  502  0.83193110184E+02 -0.28218952468E+01  0.71172969639E+02  0.10959982063E+03  0.41800000000E+01 0. -1.
        -11    1    1    2    0    0 -0.11559622068E+03  0.12915228648E+02 -0.52834186699E+02  0.12775265418E+03  0.00000000000E+00 0. -1.
         11    1    1    2    0    0 -0.34451714011E+02 -0.76422640418E+00 -0.87790429121E+02  0.94311526790E+02  0.00000000000E+00 0.  1.
</event>
<event>
 7    1  0.1312490E-005  0.1464769E+03  0.7561462E-02  0.1204870E+00
         -2   -1    0    0    0  501 -0.00000000000E+00  0.00000000000E+00  0.94467163664E+02  0.94467163664E+02  0.00000000000E+00 0.  1.
          2   -1    0    0  501    0  0.00000000000E+00 -0.00000000000E+00 -0.29294832015E+03  0.29294832015E+03  0.00000000000E+00 0. -1.
         23    2    1    2    0    0  0.58775631392E+02  0.11051582164E+03 -0.10064170934E+03  0.20358075921E+03  0.12509216675E+03 0.  0.
          5    1    3    3  502    0  0.27405373672E+02  0.11557409707E+03 -0.25033186035E+02  0.12146011371E+03  0.41800000000E+01 0. -1.
         -5    1    3    3    0  502  0.31370257719E+02 -0.50582754323E+01 -0.75608523306E+02  0.82120645493E+02  0.41800000000E+01 0. -1.
        -11    1    1    2    0    0 -0.66901855168E+02 -0.56906797020E+02 -0.21891621284E+02  0.90517870360E+02  0.00000000000E+00 0. -1.
         11    1    1    2    0    0  0.81262237766E+01 -0.53609024621E+02 -0.75947825864E+02  0.93316854250E+02  0.00000000000E+00 0.  1.
</event>
<event>
 7    1  0.1312490E-005  0.1256592E+03  0.7561462E-02  0.1234043E+00
         -1   -1    0    0    0  501 -0.00000000000E+00  0.00000000000E+00  0.98267407324E+02  0.98267407324E+02  0.00000000000E+00 0.  1.
          1   -1    0    0  501    0  0.00000000000E+00 -0.00000000000E+00 -0.20788485407E+03  0.20788485407E+03  0.00000000000E+00 0. -1.
         23    2    1    2    0    0 -0.81284636845E+02  0.28978068889E+02 -0.20846187766E+02  0.15338938934E+03  0.12508725177E+03 0.  0.
          5    1    3    3  502    0  0.31098222204E+02  0.22231709473E+02 -0.12422740936E+02  0.40412191511E+02  0.41800000000E+01 0. -1.
         -5    1    3    3    0  502 -0.11238285905E+03  0.67463594160E+01 -0.84234468303E+01  0.11297719783E+03  0.41800000000E+01 0. -1.
        -11    1    1    2    0    0  0.30039545449E+02  0.14165530166E+02 -0.78180597507E+02  0.84942582739E+02  0.00000000000E+00 0. -1.
         11    1    1    2    0    0  0.51245091396E+02 -0.43143599054E+02 -0.10590661468E+02  0.67820289308E+02  0.00000000000E+00 0.  1.
</event>
<event>
 7    1  0.1312490E-005  0.9769369E+02  0.7561462E-02  0.1285222E+00
          1   -1    0    0  501    0  0.00000000000E+00  0.00000000000E+00  0.45121184626E+02  0.45121184626E+02  0.00000000000E+00 0. -1.
         -1   -1    0    0    0  501 -0.00000000000E+00 -0.00000000000E+00 -0.44108057093E+03  0.44108057093E+03  0.00000000000E+00 0.  1.
         23    2    1    2    0    0  0.88760942685E+02 -0.22310790974E+02 -0.22163232233E+03  0.27045147586E+03  0.12508732211E+03 0.  0.
          5    1    3    3  502    0  0.63170050505E+02  0.40089624557E+01 -0.22459903528E+03  0.23338535968E+03  0.41800000000E+01 0.  1.
         -5    1    3    3    0  502  0.25590892180E+02 -0.26319753429E+02  0.29667129519E+01  0.37066116183E+02  0.41800000000E+01 0.  1.
        -11    1    1    2    0    0 -0.45947675260E+02  0.24623101268E+02 -0.16338601139E+03  0.17150065509E+03  0.00000000000E+00 0.  1.
         11    1    1    2    0    0 -0.42813267424E+02 -0.23123102941E+01 -0.10941052583E+02  0.44249624609E+02  0.00000000000E+00 0. -1.
</event>
<event>
 7    1  0.1312490E-005  0.1016582E+03  0.7561462E-02  0.1276847E+00
          2   -1    0    0  501    0  0.00000000000E+00  0.00000000000E+00  0.43389406215E+03  0.43389406215E+03  0.00000000000E+00 0. -1.
         -2   -1    0    0    0  501 -0.00000000000E+00 -0.00000000000E+00 -0.33395274268E+02  0.33395274268E+02  0.00000000000E+00 0.  1.
         23    2    1    2    0    0 -0.48234256703E+02  0.15860787792E+02  0.20218375037E+03  0.24309149923E+03  0.12504839054E+03 0.  0.
          5    1    3    3  502    0 -0.20928223783E+01  0.53136245437E+02  0.16391912482E+03  0.17237979106E+03  0.41800000000E+01 0.  1.
         -5    1    3    3    0  502 -0.46141434324E+02 -0.37275457645E+02  0.38264625547E+02  0.70711708171E+02  0.41800000000E+01 0.  1.
        -11    1    1    2    0    0 -0.15744093964E+02  0.12910758148E+02  0.89205519337E+01  0.22229269387E+02  0.00000000000E+00 0.  1.
         11    1    1    2    0    0  0.63978350666E+02 -0.28771545940E+02  0.18939448558E+03  0.20196856780E+03  0.00000000000E+00 0. -1.
</event>
<event>
 6    1  0.1312490E-005  0.1200200E+03  0.7561462E-02  0.1243064E+00
          1   -1    0    0  501    0  0.00000000000E+00  0.00000000000E+00  0.36211617219E+03  0.36211617219E+03  0.00000000000E+00 0. -1.
         -1   -1    0    0    0  501 -0.00000000000E+00 -0.00000000000E+00 -0.48565718736E+02  0.48565718736E+02  0.00000000000E+00 0.  1.
          5    1    1    2  502    0 -0.53487537254E+02 -0.38582824788E+02  0.20944115272E+02  0.69323007541E+02  0.41800000000E+01 0. -1.
         -5    1    1    2    0  502  0.56320916696E+02 -0.26157629144E+02  0.12765444497E+03  0.14201900204E+03  0.41800000000E+01 0.  1.
        -11    1    1    2    0    0 -0.46872589381E+02  0.36407576009E+02  0.81550240355E+02  0.10086125583E+03  0.00000000000E+00 0. -1.
         11    1    1    2    0    0  0.44039209938E+02  0.28332877922E+02  0.83401652857E+02  0.98478625512E+02  0.00000000000E+00 0.  1.
</event>
<event>
 7    1  0.1312490E-005  0.1137991E+03  0.7561462E-02  0.1253692E+00
          3   -1    0    0  501    0  0.00000000000E+00  0.00000000000E+00  0.44072983268E+02  0.44072983268E+02  0.00000000000E+00 0. -1.
         -3   -1    0    0    0  501 -0.00000000000E+00 -0.00000000000E+00 -0.34972772756E+03  0.34972772756E+03  0.00000000000E+00 0.  1.
         23    2    1    2    0    0  0.56724556727E+02  0.17266342879E+02 -0.15090631392E+03  0.20478059429E+03  0.12508626736E+03 0.  0.
          5    1    3    3  502    0  0.79673874631E+01 -0.46942102442E+02 -0.21850684105E+02  0.52554400772E+02  0.41800000000E+01 0. -1.
         -5    1    3    3    0  502  0.48757169264E+02  0.64208445320E+02 -0.12905562982E+03  0.15222619352E+03  0.41800000000E+01 0. -1.
        -11    1    1    2    0    0 -0.10730568165E+02 -0.44394242593E+02 -0.11086175772E+03  0.11990130605E+03  0.00000000000E+00 0.  1.
         11    1    1    2    0    0 -0.45993988562E+02  0.27127899715E+02 -0.43886672650E+02  0.69118810486E+02  0.00000000000E+00 0. -1.
</event>
<event>
 7    1  0.1312490E-005  0.1005862E+03  0.7561462E-02  0.1279068E+00
         -1   -1    0    0    0  501 -0.00000000000E+00  0.00000000000E+00  0.11510758439E+03  0.11510758439E+03  0.00000000000E+00 0.  1.
          1   -1    0    0  501    0  0.00000000000E+00 -0.00000000000E+00 -0.13955889477E+03  0.13955889477E+03  0.00000000000E+00 0. -1.
         23    2    1    2    0    0  0.51960580378E+02 -0.12789482684E+02  0.24044929070E+02  0.13815417879E+03  0.12507975745E+03 0.  0.
          5    1    3    3  502    0  0.62439631895E+02 -0.42570170829E+02 -0.24972929665E+02  0.79699728303E+02  0.41800000000E+01 0.  1.
         -5    1    3    3    0  502 -0.10479051516E+02  0.29780688145E+02  0.49017858735E+02  0.58454450490E+02  0.41800000000E+01 0.  1.
        -11    1    1    2    0    0 -0.23076670721E+02  0.44879898003E+02  0.14573760652E+01  0.50486254777E+02  0.00000000000E+00 0.  1.
         11    1    1    2    0    0 -0.28883909657E+02 -0.32090415320E+02 -0.49953615520E+02  0.66026045588E+02  0.00000000000E+00 0. -1.
</event>
<event>
 7    1  0.1312490E-005  0.1480874E+03  0.7561462E-02  0.1202843E+00
          2   -1    0    0  501    0  0.00000000000E+00  0.00000000000E+00  0.39272919695E+03  0.39272919695E+03  0.00000000000E+00 0. -1.
         -2   -1    0    0    0  501 -0.00000000000E+00 -0.00000000000E+00 -0.87031716165E+02  0.87031716165E+02  0.00000000000E+00 0.  1.
         23    2    1    2    0    0 -0.12525786382E+02  0.12502449838E+03  0.55100262372E+02  0.18566559830E+03  0.12509058702E+03 0.  0.
          5    1    3    3  502    0 -0.16687353598E+02  0.13249622965E+03  0.82249790372E+02  0.15689556736E+03  0.41800000000E+01 0. -1.
         -5    1    3    3    0  502  0.41615672163E+01 -0.74717312722E+01 -0.27149528001E+02  0.28770030945E+02  0.41800000000E+01 0. -1.
        -11    1    1    2    0    0  0.27501553009E+02 -0.37804287334E+00  0.58043393051E+02  0.64230162784E+02  0.00000000000E+00 0.  1.
         11    1    1    2    0    0 -0.14975766627E+02 -0.12464645550E+03  0.19255382536E+03  0.22986515203E+03  0.00000000000E+00 0. -1.
</event>
<event>
 7    1  0.1312490E-005  0.1382377E+03  0.7561462E-02  0.1215720E+00
          1   -1    0    0  501    0  0.00000000000E+00  0.00000000000E+00  0.26978205522E+03  0.26978205522E+03  0.00000000000E+00 0. -1.
         -1   -1    0    0    0  501 -0.00000000000E+00 -0.00000000000E+00 -0.81644833976E+02  0.81644833976E+02  0.00000000000E+00 0.  1.
         23    2    1    2    0    0 -0.70260213397E+02 -0.71131675600E+02  0.10068459469E+03  0.18916378419E+03  0.12509730925E+03 0.  0.
          5    1    3    3  502    0 -0.38471564016E+02 -0.96539295406E+02  0.10528836941E+03  0.14799665513E+03  0.41800000000E+01 0.  1.
         -5    1    3    3    0  502 -0.31788649381E+02  0.25407619806E+02 -0.46037747195E+01  0.41167129064E+02  0.41800000000E+01 0.  1.
        -11    1    1    2    0    0  0.89458341559E+02  0.48078320830E+02  0.47019888899E+02  0.11191599421E+03  0.00000000000E+00 0.  1.
         11    1    1    2    0    0 -0.19198128162E+02  0.23053354770E+02  0.40432737657E+02  0.50347110796E+02  0.00000000000E+00 0. -1.
</event>
<event>
 7    1  0.1312490E-005  0.1340670E+03  0.7561462E-02  0.1221543E+00
          3   -1    0    0  501    0  0.00000000000E+00  0.00000000000E+00  0.17948967000E+02  0.17948967000E+02  0.00000000000E+00 0. -1.
         -3   -1    0    0    0  501 -0.00000000000E+00 -0.00000000000E+00 -0.13286092411E+04  0.13286092411E+04  0.00000000000E+00 0.  1.
         23    2    1    2    0    0  0.62655035752E+02  0.85510624918E+02 -0.82158747031E+03  0.83778973168E+03  0.12509173704E+03 0.  0.
          5    1    3    3  502    0  0.89419383284E+02  0.97400750825E+02 -0.61275880225E+03  0.62687602802E+03  0.41800000000E+01 0.  1.
         -5    1    3    3    0  502 -0.26764347532E+02 -0.11890125906E+02 -0.20882866805E+03  0.21091370367E+03  0.41800000000E+01 0.  1.
        -11    1    1    2    0    0 -0.48256038205E+02 -0.60326974316E+02 -0.46411494199E+03  0.47050044467E+03  0.00000000000E+00 0.  1.
         11    1    1    2    0    0 -0.14398997547E+02 -0.25183650602E+02 -0.24957861803E+02  0.38268031747E+02  0.00000000000E+00 0. -1.
</event>
<event>
 7    1  0.1312490E-005  0.1042682E+03  0.7561462E-02  0.1271568E+00
         -3   -1    0    0    0  501 -0.00000000000E+00  0.00000000000E+00  0.55799604121E+03  0.55799604121E+03  0.00000000000E+00 0.  1.
          3   -1    0    0  501    0  0.00000000000E+00 -0.00000000000E+00 -0.25565880500E+02  0.25565880500E+02  0.00000000000E+00 0. -1.
         23    2    1    2    0    0 -0.29969618104E+02  0.68365445073E+02  0.34276907705E+03  0.37244165526E+03  0.12510049679E+03 0.  0.
          5    1    3    3  502    0 -0.62014821336E+02  0.55942593433E+02  0.11574546985E+03  0.14279320017E+03  0.41800000000E+01 0.  1.
         -5    1    3    3    0  502  0.32045203233E+02  0.12422851640E+02  0.22702360720E+03  0.22964845508E+03  0.41800000000E+01 0.  1.
        -11    1    1    2    0    0 -0.11987378197E+02 -0.34016396612E+02  0.10037999124E+03  0.10666281037E+03  0.00000000000E+00 0.  1.
         11    1    1    2    0    0  0.41956996301E+02 -0.34349048461E+02  0.89281092420E+02  0.10445745609E+03  0.00000000000E+00 0. -1.
</event>
<event>
 7    1  0.1312490E-005  0.1286136E+03  0.7561462E-02  0.1229528E+00
          1   -1    0    0  501    0  0.00000000000E+00  0.00000000000E+00  0.65332988614E+02  0.65332988614E+02  0.00000000000E+00 0. -1.
         -1   -1    0    0    0  501 -0.00000000000E+00 -0.00000000000E+00 -0.55275319979E+03  0.55275319979E+03  0.00000000000E+00 0.  1.
         23    2    1    2    0    0 -0.85751356562E+02  0.71776386933E+02 -0.43569128846E+03  0.46688324861E+03  0.12509166289E+03 0.  0.
          5    1    3    3  502    0 -0.88166138322E+02  0.78338927849E+02 -0.44142007445E+03  0.45692385590E+03  0.41800000000E+01 0. -1.
         -5    1    3    3    0  502  0.24147817604E+01 -0.65625409166E+01  0.57287859934E+01  0.99593927119E+01  0.41800000000E+01 0. -1.
        -11    1    1    2    0    0  0.36896005152E+02 -0.73433116465E+02 -0.59829493573E+02  0.10165287055E+03  0.00000000000E+00 0.  1.
         11    1    1    2    0    0  0.48855351409E+02  0.16567295326E+01  0.81005708491E+01  0.49550069245E+02  0.00000000000E+00 0. -1.
</event>
<event>
 7    1  0.1312490E-005  0.1055724E+03  0.7561462E-02  0.1268996E+00
          1   -1    0    0  501    0  0.00000000000E+00  0.00000000000E+00  0.27801666831E+03  0.27801666831E+03  0.00000000000E+00 0. -1.
         -1   -1    0    0    0  501 -0.00000000000E+00 -0.00000000000E+00 -0.73835558883E+02  0.73835558883E+02  0.00000000000E+00 0.  1.
         23    2    1    2    0    0 -0.26047058235E+02  0.70160574426E+02  0.41538969876E+02  0.15157264864E+03  0.12509127208E+03 0.  0.
          5    1    3    3  502    0  0.25651697081E+02  0.19818498248E+02  0.67317299278E+02  0.74832303306E+02  0.41800000000E+01 0.  1.
         -5    1    3    3    0  502 -0.51698755316E+02  0.50342076178E+02 -0.25778329402E+02  0.76740345334E+02  0.41800000000E+01 0.  1.
        -11    1    1    2    0    0 -0.52134541983E+01  0.14778244999E+02  0.18706137056E+01  0.15782136280E+02  0.00000000000E+00 0.  1.
         11    1    1    2    0    0  0.31260512433E+02 -0.84938819425E+02  0.16077152584E+03  0.18449744227E+03  0.00000000000E+00 0. -1.
</event>
<event>
 7    1  0.1312490E-005  0.1064563E+03  0.7561462E-02  0.1267277E+00
         -1   -1    0    0    0  501 -0.00000000000E+00  0.00000000000E+00  0.21160770156E+02  0.21160770156E+02  0.00000000000E+00 0.  1.
          1   -1    0    0  501    0  0.00000000000E+00 -0.00000000000E+00 -0.72352627086E+03  0.72352627086E+03  0.00000000000E+00 0. -1.
         23    2    1    2    0    0  0.34744684531E+02  0.44766369689E+02 -0.40018938237E+03  0.42309656199E+03  0.12509171856E+03 0.  0.
          5    1    3    3  502    0  0.12803631569E+02 -0.25865633470E+02 -0.28271682486E+03  0.28421688802E+03  0.41800000000E+01 0. -1.
         -5    1    3    3    0  502  0.21941052962E+02  0.70632003159E+02 -0.11747255750E+03  0.13887967397E+03  0.41800000000E+01 0. -1.
        -11    1    1    2    0    0  0.27443022239E+02 -0.38343628353E+02 -0.11693606866E+03  0.12608488196E+03  0.00000000000E+00 0. -1.
         11    1    1    2    0    0 -0.62187706770E+02 -0.64227413360E+01 -0.18524004968E+03  0.19550559707E+03  0.00000000000E+00 0.  1.
</event>
<event>
 7    1  0.1312490E-005  0.1781468E+03  0.7561462E-02  0.1169609E+00
         -1   -1    0    0    0  501 -0.00000000000E+00  0.00000000000E+00  0.35990561778E+03  0.35990561778E+03  0.00000000000E+00 0.  1.
          1   -1    0    0  501    0  0.00000000000E+00 -0.00000000000E+00 -0.13798217843E+03  0.13798217843E+03  0.00000000000E+00 0. -1.
         23    2    1    2    0    0 -0.16368434488E+03 -0.12255601776E+02  0.22823432678E+03  0.30770515026E+03  0.12509511199E+03 0.  0.
          5    1    3    3  502    0 -0.45401714207E+01 -0.41098028054E+01  0.10745193709E+03  0.10770745016E+03  0.41800000000E+01 0.  1.
         -5    1    3    3    0  502 -0.15914417346E+03 -0.81457989709E+01  0.12078238969E+03  0.19999770010E+03  0.41800000000E+01 0.  1.
        -11    1    1    2    0    0  0.33523141913E+02  0.44174063768E+02  0.50547792026E+01  0.55683927181E+02  0.00000000000E+00 0.  1.
         11    1    1    2    0    0  0.13016120296E+03 -0.31918461992E+02 -0.11365666632E+02  0.13449871877E+03  0.00000000000E+00 0. -1.
</event>
<event>
 7    1  0.1312490E-005  0.1076899E+03  0.7561462E-02  0.1264909E+00
         -1   -1    0    0    0  501 -0.00000000000E+00  0.00000000000E+00  0.22009246296E+03  0.22009246296E+03  0.00000000000E+00 0.  1.
          1   -1    0    0  501    0  0.00000000000E+00 -0.00000000000E+00 -0.97447723345E+02  0.97447723345E+02  0.00000000000E+00 0. -1.
         23    2    1    2    0    0  0.52057441178E+02  0.46127701639E+02  0.13914122364E+03  0.19961347169E+03  0.12509003126E+03 0.  0.
          5    1    3    3  502    0  0.25024078524E+02 -0.35151474343E+02  0.92117920027E+02  0.10180871399E+03  0.41800000000E+01 0.  1.
         -5    1    3    3    0  502  0.27033362654E+02  0.81279175982E+02  0.47023303616E+02  0.97804757694E+02  0.41800000000E+01 0.  1.
        -11    1    1    2    0    0  0.90252634658E+01 -0.15506547068E+02  0.30227056872E+02  0.35150865562E+02  0.00000000000E+00 0.  1.
         11    1    1    2    0    0 -0.61082704644E+02 -0.30621154571E+02 -0.46723540896E+02  0.82775849061E+02  0.00000000000E+00 0. -1.
</event>
<event>
 7    1  0.1312490E-005  0.2507861E+03  0.7561462E-02  0.1112809E+00
          2   -1    0    0  501    0  0.00000000000E+00  0.00000000000E+00  0.80974065844E+03  0.80974065844E+03  0.00000000000E+00 0. -1.
         -2   -1    0    0    0  501 -0.00000000000E+00 -0.00000000000E+00 -0.88548480004E+02  0.88548480004E+02  0.00000000000E+00 0.  1.
         23    2    1    2    0    0  0.62838473346E+02 -0.22946019057E+03  0.44954378170E+03  0.52377279429E+03  0.12509066944E+03 0.  0.
          5    1    3    3  502    0 -0.27065985121E+02 -0.16281879818E+02  0.96757018538E+02  0.10186785655E+03  0.41800000000E+01 0. -1.
         -5    1    3    3    0  502  0.89904458468E+02 -0.21317831075E+03  0.35278676316E+03  0.42190493774E+03  0.41800000000E+01 0. -1.
        -11    1    1    2    0    0 -0.46282089633E+02  0.14371838400E+03  0.23606160888E+03  0.28021793110E+03  0.00000000000E+00 0.  1.
         11    1    1    2    0    0 -0.16556383713E+02  0.85741806570E+02  0.35586787859E+02  0.94298413060E+02  0.00000000000E+00 0. -1.
</event>
<event>
 7    1  0.1312490E-005  0.8552838E+02  0.7561462E-02  0.1314057E+00
          1   -1    0    0  501    0  0.00000000000E+00  0.00000000000E+00  0.36077583671E+03  0.36077583671E+03  0.00000000000E+00 0. -1.
         -1   -1    0    0    0  501 -0.00000000000E+00 -0.00000000000E+00 -0.92801424457E+02  0.92801424457E+02  0.00000000000E+00 0.  1.
         23    2    1    2    0    0 -0.41219011011E+02  0.40211233104E+00 -0.41720907496E+02  0.12819792028E+03  0.11399519323E+03 0.  0.
          5    1    3    3  502    0  0.15991439281E+02  0.53860740669E+01  0.30939768561E+02  0.35489119498E+02  0.41800000000E+01 0. -1.
         -5    1    3    3    0  502 -0.57210450292E+02 -0.49839617359E+01 -0.72660676057E+02  0.92708800781E+02  0.41800000000E+01 0.  1.
        -11    1    1    2    0    0  0.18508447979E+02 -0.43557769150E+02  0.19663167819E+03  0.20224702412E+03  0.00000000000E+00 0.  1.
         11    1    1    2    0    0  0.22710563033E+02  0.43155656819E+02  0.11306364156E+03  0.12313231676E+03  0.00000000000E+00 0. -1.
</event>
<event>
 7    1  0.1312490E-005  0.9738522E+02  0.7561462E-02  0.1285893E+00
         -2   -1    0    0    0  501 -0.00000000000E+00  0.00000000000E+00  0.23003693432E+02  0.23003693432E+02  0.00000000000E+00 0.  1.
          2   -1    0    0  501    0  0.00000000000E+00 -0.00000000000E+00 -0.51748744165E+03  0.51748744165E+03  0.00000000000E+00 0. -1.
         23    2    1    2    0    0 -0.11411115291E+02 -0.32448183510E+01 -0.25616040996E+03  0.28531798329E+03  0.12508978200E+03 0.  0.
          5    1    3    3  502    0  0.50619184385E+02  0.11444608306E+02 -0.62235694564E+02  0.81142066556E+02  0.41800000000E+01 0.  1.
         -5    1    3    3    0  502 -0.62030299676E+02 -0.14689426657E+02 -0.19392471540E+03  0.20417591674E+03  0.41800000000E+01 0.  1.
        -11    1    1    2    0    0  0.38272618926E+02 -0.20104369195E+02 -0.63865487856E+02  0.77121848780E+02  0.00000000000E+00 0.  1.
         11    1    1    2    0    0 -0.26861503635E+02  0.23349187546E+02 -0.17445785040E+03  0.17805130301E+03  0.00000000000E+00 0. -1.
</event>
<event>
 7    1  0.1312490E-005  0.8674306E+02  0.7561462E-02  0.1310936E+00
          2   -1    0    0  501    0  0.00000000000E+00  0.00000000000E+00  0.21670202450E+02  0.21670202450E+02  0.00000000000E+00 0. -1.
         -2   -1    0    0    0  501 -0.00000000000E+00 -0.00000000000E+00 -0.87526107367E+03  0.87526107367E+03  0.00000000000E+00 0.  1.
         23    2    1    2    0    0  0.82082322950E+02  0.17377902015E+01 -0.53243053728E+03  0.55305527025E+03  0.12508927720E+03 0.  0.
          5    1    3    3  502    0  0.38875430922E+02 -0.92210264874E+01 -0.48911019413E+03  0.49075715060E+03  0.41800000000E+01 0. -1.
         -5    1    3    3    0  502  0.43206892027E+02  0.10958816689E+02 -0.43320343146E+02  0.62298119652E+02  0.41800000000E+01 0. -1.
        -11    1    1    2    0    0 -0.26308139259E+02  0.15035660931E+02 -0.18155253243E+02  0.35324248204E+02  0.00000000000E+00 0. -1.
         11    1    1    2    0    0 -0.55774183691E+02 -0.16773451133E+02 -0.30300508070E+03  0.30855175766E+03  0.00000000000E+00 0.  1.
</event>
<event>
 7    1  0.1312490E-005  0.1857891E+03  0.7561462E-02  0.1162315E+00
          2   -1    0    0  501    0  0.00000000000E+00  0.00000000000E+00  0.13537926756E+04  0.13537926756E+04  0.00000000000E+00 0. -1.
         -2   -1    0    0    0  501 -0.00000000000E+00 -0.00000000000E+00 -0.33228828886E+02  0.33228828886E+02  0.00000000000E+00 0.  1.
         23    2    1    2    0    0  0.12341232370E+03  0.13235592526E+03  0.63438295042E+03  0.67144220472E+03  0.12507683195E+03 0.  0.
          5    1    3    3  502    0  0.59334475650E+02  0.47660917430E+02  0.46690198307E+03  0.47308252689E+03  0.41800000000E+01 0.  1.
         -5    1    3    3    0  502  0.64077848048E+02  0.84695007834E+02  0.16748096735E+03  0.19835967783E+03  0.41800000000E+01 0.  1.
        -11    1    1    2    0    0 -0.11769302176E+02 -0.47237712795E+02  0.82528587739E+02  0.95816938888E+02  0.00000000000E+00 0.  1.
         11    1    1    2    0    0 -0.11164302152E+03 -0.85118212470E+02  0.60365230857E+03  0.61976236090E+03  0.00000000000E+00 0. -1.
</event>
<event>
 6    1  0.1312490E-005  0.9168225E+02  0.7561462E-02  0.1298828E+00
          2   -1    0    0  501    0  0.00000000000E+00  0.00000000000E+00  0.26966632712E+03  0.26966632712E+03  0.00000000000E+00 0. -1.
         -2   -1    0    0    0  501 -0.00000000000E+00 -0.00000000000E+00 -0.13026038732E+03  0.13026038732E+03  0.00000000000E+00 0.  1.
          5    1    1    2  502    0  0.32302016127E+02 -0.35393183129E+02  0.85291085066E+02  0.97919044367E+02  0.41800000000E+01 0. -1.
         -5    1    1    2    0  502 -0.54866656829E+01  0.40344757088E+02 -0.10613898672E+03  0.11375746053E+03  0.41800000000E+01 0.  1.
        -11    1    1    2    0    0  0.31261574524E+02  0.12537090927E+02  0.32383672818E+02  0.46724372183E+02  0.00000000000E+00 0.  1.
         11    1    1    2    0    0 -0.58076924968E+02 -0.17488664886E+02  0.12787016863E+03  0.14152583735E+03  0.00000000000E+00 0. -1.
</event>
<event>
 7    1  0.1312490E-005  0.1013941E+03  0.7561462E-02  0.1277391E+00
          2   -1    0    0  501    0  0.00000000000E+00  0.00000000000E+00  0.95579059342E+02  0.95579059342E+02  0.00000000000E+00 0. -1.
         -2   -1    0    0    0  501 -0.00000000000E+00 -0.00000000000E+00 -0.21317818779E+03  0.21317818779E+03  0.00000000000E+00 0.  1.
         23    2    1    2    0    0 -0.22549363083E+02  0.32089843466E+02 -0.15429605619E+03  0.20246781829E+03  0.12509081764E+03 0.  0.
          5    1    3    3  502    0  0.30434369032E+02  0.59492953974E+02 -0.10702144038E+03  0.12624073627E+03  0.41800000000E+01 0.  1.
         -5    1    3    3    0  502 -0.52983732115E+02 -0.27403110508E+02 -0.47274615802E+02  0.76227082022E+02  0.41800000000E+01 0.  1.
        -11    1    1    2    0    0  0.45224537149E+02 -0.15022137011E+02 -0.12702160972E+02  0.49318031734E+02  0.00000000000E+00 0.  1.
         11    1    1    2    0    0 -0.22675174066E+02 -0.17067706455E+02  0.49399088715E+02  0.56971397107E+02  0.00000000000E+00 0. -1.
</event>
<event>
 6    1  0.1312490E-005  0.1835719E+03  0.7561462E-02  0.1164390E+00
         -2   -1    0    0    0  501 -0.00000000000E+00  0.00000000000E+00  0.75367079130E+02  0.75367079130E+02  0.00000000000E+00 0.  1.
          2   -1    0    0  501    0  0.00000000000E+00 -0.00000000000E+00 -0.88853921885E+03  0.88853921885E+03  0.00000000000E+00 0. -1.
          5    1    1    2  502    0  0.42444782375E+02  0.70599544842E+02 -0.29121037832E+03  0.30266617274E+03  0.41800000000E+01 0. -1.
         -5    1    1    2    0  502 -0.75240039498E+02  0.81414545205E+02 -0.19813689724E+01  0.11095399920E+03  0.41800000000E+01 0.  1.
        -11    1    1    2    0    0  0.51954769915E+02 -0.58378339566E+02 -0.30792675091E+03  0.31768886127E+03  0.00000000000E+00 0.  1.
         11    1    1    2    0    0 -0.19159512792E+02 -0.93635750481E+02 -0.21205364152E+03  0.23259726477E+03  0.00000000000E+00 0. -1.
</event>
<event>
 7    1  0.1312490E-005  0.1169899E+03  0.7561462E-02  0.1248147E+00
         -3   -1    0    0    0  501 -0.00000000000E+00  0.00000000000E+00  0.65412840996E+02  0.65412840996E+02  0.00000000000E+00 0.  1.
          3   -1    0    0  501    0  0.00000000000E+00 -0.00000000000E+00 -0.25038400368E+03  0.25038400368E+03  0.00000000000E+00 0. -1.
         23    2    1    2    0    0  0.26399140226E+02  0.88018497663E+01 -0.36863644123E+02  0.13334610480E+03  0.12509143953E+03 0.  0.
          5    1    3    3  502    0  0.55699574005E+02  0.51306935902E+02 -0.16035623667E+02  0.77520692995E+02  0.41800000000E+01 0. -1.
         -5    1    3    3    0  502 -0.29300433780E+02 -0.42505086136E+02 -0.20828020456E+02  0.55825411805E+02  0.41800000000E+01 0. -1.
        -11    1    1    2    0    0  0.19857962130E+02  0.36527539457E+02 -0.63510911188E+02  0.75909390978E+02  0.00000000000E+00 0.  1.
         11    1    1    2    0    0 -0.46257102356E+02 -0.45329389223E+02 -0.84596607371E+02  0.10654134890E+03  0.00000000000E+00 0. -1.
</event>
<event>
 7    1  0.1312490E-005  0.9898338E+02  0.7561462E-02  0.1282448E+00
         -2   -1    0    0    0  501 -0.00000000000E+00  0.00000000000E+00  0.62463570693E+02  0.62463570693E+02  0.00000000000E+00 0. -1.
          2   -1    0    0  501    0  0.00000000000E+00 -0.00000000000E+00 -0.26023422683E+03  0.26023422683E+03  0.00000000000E+00 0.  1.
         23    2    1    2    0    0  0.49806237676E+02  0.37025330049E+02 -0.10693327931E+03  0.17587653757E+03  0.12508514647E+03 0.  0.
          5    1    3    3  502    0  0.36719294947E+02  0.80681027105E+02 -0.46856211475E+02  0.10035293573E+03  0.41800000000E+01 0.  1.
         -5    1    3    3    0  502  0.13086942729E+02 -0.43655697056E+02 -0.60077067831E+02  0.75523601838E+02  0.41800000000E+01 0.  1.
        -11    1    1    2    0    0 -0.17230343007E+02 -0.20968961699E+02  0.17677985863E+02  0.32389709154E+02  0.00000000000E+00 0. -1.
         11    1    1    2    0    0 -0.32575894668E+02 -0.16056368350E+02 -0.10851536270E+03  0.11443155080E+03  0.00000000000E+00 0.  1.
</event>
<event>
 7    1  0.1312490E-005  0.1376884E+03  0.7561462E-02  0.1216474E+00
          1   -1    0    0  501    0  0.00000000000E+00  0.00000000000E+00  0.23805152682E+03  0.23805152682E+03  0.00000000000E+00 0. -1.
         -1   -1    0    0    0  501 -0.00000000000E+00 -0.00000000000E+00 -0.17620541244E+03  0.17620541244E+03  0.00000000000E+00 0.  1.
         23    2    1    2    0    0  0.59582078031E+02  0.91036544744E+02 -0.10506149626E+03  0.19627283176E+03  0.12508968778E+03 0.  0.
          5    1    3    3  502    0  0.71870997092E+02  0.17202161793E+02 -0.95307039740E+02  0.12067418455E+03  0.41800000000E+01 0. -1.
         -5    1    3    3    0  502 -0.12288919060E+02  0.73834382951E+02 -0.97544565153E+01  0.75598647206E+02  0.41800000000E+01 0. -1.
        -11    1    1    2    0    0 -0.19952714969E+02 -0.83754263217E+02  0.63435746875E+02  0.10694382368E+03  0.00000000000E+00 0.  1.
         11    1    1    2    0    0 -0.39629363063E+02 -0.72822815271E+01  0.10347186376E+03  0.11104028382E+03  0.00000000000E+00 0. -1.
</event>
<event>
 7    1  0.1312490E-005  0.8896588E+02  0.7561462E-02  0.1305375E+00
          2   -1    0    0  501    0  0.00000000000E+00  0.00000000000E+00  0.17588430758E+03  0.17588430758E+03  0.00000000000E+00 0. -1.
         -2   -1    0    0    0  501 -0.00000000000E+00 -0.00000000000E+00 -0.82288856416E+02  0.82288856416E+02  0.00000000000E+00 0.  1.
         23    2    1    2    0    0 -0.21612029695E+02  0.92561834745E+01 -0.67340363290E+01  0.12745755956E+03  0.12508927006E+03 0.  0.
          5    1    3    3  502    0 -0.12072478925E+02 -0.42361286892E+02 -0.44425647024E+02  0.62700349983E+02  0.41800000000E+01 0.  1.
         -5    1    3    3    0  502 -0.95395507701E+01  0.51617470366E+02  0.37691610695E+02  0.64757209581E+02  0.41800000000E+01 0.  1.
        -11    1    1    2    0    0  0.46222111002E+01 -0.43000436317E+02  0.69933865840E+02  0.82226199902E+02  0.00000000000E+00 0. -1.
         11    1    1    2    0    0  0.16989818595E+02  0.33744252843E+02  0.30395621649E+02  0.48489404525E+02  0.00000000000E+00 0.  1.
</event>
<event>
 7    1  0.1312490E-005  0.1763439E+03  0.7561462E-02  0.1171389E+00
          1   -1    0    0  501    0  0.00000000000E+00  0.00000000000E+00  0.27581681069E+03  0.27581681069E+03  0.00000000000E+00 0. -1.
         -1   -1    0    0    0  501 -0.00000000000E+00 -0.00000000000E+00 -0.12961042668E+03  0.12961042668E+03  0.00000000000E+00 0.  1.
         23    2    1    2    0    0 -0.60100237626E+02 -0.13581540115E+03  0.38503409086E+02  0.19795918052E+03  0.12508981929E+03 0.  0.
          5    1    3    3  502    0  0.25434719157E+02 -0.30739248428E+01 -0.16419146807E+02  0.30715382700E+02  0.41800000000E+01 0. -1.
         -5    1    3    3    0  502 -0.85534956783E+02 -0.13274147631E+03  0.54922555893E+02  0.16724379782E+03  0.41800000000E+01 0. -1.
        -11    1    1    2    0    0  0.64604499747E+02  0.47148259700E+02  0.83111075699E+02  0.11534362004E+03  0.00000000000E+00 0.  1.
         11    1    1    2    0    0 -0.45042621218E+01  0.88667141449E+02  0.24591899227E+02  0.92124436810E+02  0.00000000000E+00 0. -1.
</event>
<event>
 7    1  0.1312490E-005  0.1060656E+03  0.7561462E-02  0.1268034E+00
         -2   -1    0    0    0  501 -0.00000000000E+00  0.00000000000E+00  0.67506821633E+02  0.67506821633E+02  0.00000000000E+00 0.  1.
          2   -1    0    0  501    0  0.00000000000E+00 -0.00000000000E+00 -0.36260526152E+03  0.36260526152E+03  0.00000000000E+00 0. -1.
         23    2    1    2    0    0 -0.72094378240E+02 -0.64713538945E+01 -0.40217496922E+02  0.15004293779E+03  0.12512377202E+03 0.  0.
          5    1    3    3  502    0  0.27251411791E+02 -0.20268966315E+02  0.12777557306E+02  0.36526823168E+02  0.41800000000E+01 0. -1.
         -5    1    3    3    0  502 -0.99345790030E+02  0.13797612420E+02 -0.52995054227E+02  0.11351611462E+03  0.41800000000E+01 0. -1.
        -11    1    1    2    0    0  0.20049851479E+02 -0.10694110237E+02 -0.37533080568E+01  0.23031453698E+02  0.00000000000E+00 0.  1.
         11    1    1    2    0    0  0.52044526761E+02  0.17165464131E+02 -0.25112763491E+03  0.25703769167E+03  0.00000000000E+00 0. -1.
</event>
<event>
 7    1  0.1312490E-005  0.1024791E+03  0.7561462E-02  0.1275168E+00
          1   -1    0    0  501    0  0.00000000000E+00  0.00000000000E+00  0.41172042381E+03  0.41172042381E+03  0.00000000000E+00 0. -1.
         -1   -1    0    0    0  501 -0.00000000000E+00 -0.00000000000E+00 -0.33220360135E+02  0.33220360135E+02  0.00000000000E+00 0.  1.
         23    2    1    2    0    0 -0.35140678036E+02  0.25898103630E+01  0.15691082718E+03  0.20374267754E+03  0.12509395107E+03 0.  0.
          5    1    3    3  502    0 -0.69402505435E+02 -0.35789674995E+02  0.99204419003E+02  0.12631942743E+03  0.41800000000E+01 0. -1.
         -5    1    3    3    0  502  0.34261827399E+02  0.38379485358E+02  0.57706408175E+02  0.77423250109E+02  0.41800000000E+01 0. -1.
        -11    1    1    2    0    0 -0.19191956186E+02 -0.74614785913E+01  0.10383276956E+02  0.23061164007E+02  0.00000000000E+00 0.  1.
         11    1    1    2    0    0  0.54332634222E+02  0.48716682283E+01  0.21120595954E+03  0.21813694240E+03  0.00000000000E+00 0. -1.
</event>
<event>
 7    1  0.1312490E-005  0.2002336E+03  0.7561462E-02  0.1149542E+00
         -2   -1    0    0    0  501 -0.00000000000E+00  0.00000000000E+00  0.12010304126E+03  0.12010304126E+03  0.00000000000E+00 0.  1.
          2   -1    0    0  501    0  0.00000000000E+00 -0.00000000000E+00 -0.40543262011E+03  0.40543262011E+03  0.00000000000E+00 0. -1.
         23    2    1    2    0    0  0.15570316242E+03 -0.10949935170E+03 -0.11815189105E+03  0.25660511617E+03  0.12511088473E+03 0.  0.
          5    1    3    3  502    0  0.13720256295E+03 -0.10814917953E+03 -0.44210182376E+02  0.18025759606E+03  0.41800000000E+01 0. -1.
         -5    1    3    3    0  502  0.18500599467E+02 -0.13501721719E+01 -0.73941708672E+02  0.76347520110E+02  0.41800000000E+01 0. -1.
        -11    1    1    2    0    0  0.19194894711E+01  0.30187363354E+02 -0.79950172827E+01  0.31287084355E+02  0.00000000000E+00 0.  1.
         11    1    1    2    0    0 -0.15762265189E+03  0.79311988348E+02 -0.15918267052E+03  0.23764346083E+03  0.00000000000E+00 0. -1.
</event>
<event>
 7    1  0.1312490E-005  0.7225235E+02  0.7561462E-02  0.1352597E+00
         -1   -1    0    0    0  501 -0.00000000000E+00  0.00000000000E+00  0.40752017076E+03  0.40752017076E+03  0.00000000000E+00 0.  1.
          1   -1    0    0  501    0  0.00000000000E+00 -0.00000000000E+00 -0.40448199279E+02  0.40448199279E+02  0.00000000000E+00 0. -1.
         23    2    1    2    0    0 -0.45484455955E+02  0.42795605833E+02  0.25877588535E+03  0.29412763305E+03  0.12508319658E+03 0.  0.
          5    1    3    3  502    0 -0.16009375849E+02  0.64053175311E+01  0.24428593651E+03  0.24492941715E+03  0.41800000000E+01 0. -1.
         -5    1    3    3    0  502 -0.29475080106E+02  0.36390288302E+02  0.14489948844E+02  0.49198215897E+02  0.41800000000E+01 0. -1.
        -11    1    1    2    0    0  0.51880926433E+02 -0.19233818913E+02  0.14894705458E+02  0.57301156778E+02  0.00000000000E+00 0.  1.
         11    1    1    2    0    0 -0.63964704770E+01 -0.23561786920E+02  0.93401380666E+02  0.96539580213E+02  0.00000000000E+00 0. -1.
</event>
<event>
 7    1  0.1312490E-005  0.1075858E+03  0.7561462E-02  0.1265107E+00
         -4   -1    0    0    0  501 -0.00000000000E+00  0.00000000000E+00  0.11532201417E+03  0.11532201417E+03  0.00000000000E+00 0.  1.
          4   -1    0    0  501    0  0.00000000000E+00 -0.00000000000E+00 -0.14021639008E+03  0.14021639008E+03  0.00000000000E+00 0. -1.
         23    2    1    2    0    0 -0.16505324731E+02  0.59336649414E+02  0.88523018526E+01  0.13971221772E+03  0.12509147383E+03 0.  0.
          5    1    3    3  502    0  0.23884679296E+02 -0.11155832396E+02 -0.37540860690E+02  0.46062122432E+02  0.41800000000E+01 0.  1.
         -5    1    3    3    0  502 -0.40390004027E+02  0.70492481810E+02  0.46393162543E+02  0.93650095290E+02  0.41800000000E+01 0.  1.
        -11    1    1    2    0    0  0.47964408222E+02 -0.10600484400E+02 -0.82780316141E+00  0.49128810119E+02  0.00000000000E+00 0.  1.
         11    1    1    2    0    0 -0.31459083492E+02 -0.48736165014E+02 -0.32918874603E+02  0.66697376407E+02  0.00000000000E+00 0. -1.
</event>
<event>
 7    1  0.1312490E-005  0.1022096E+03  0.7561462E-02  0.1275717E+00
          1   -1    0    0  501    0  0.00000000000E+00  0.00000000000E+00  0.23222184265E+02  0.23222184265E+02  0.00000000000E+00 0. -1.
         -1   -1    0    0    0  501 -0.00000000000E+00 -0.00000000000E+00 -0.58172417327E+03  0.58172417327E+03  0.00000000000E+00 0.  1.
         23    2    1    2    0    0  0.17798341796E+02 -0.21448348968E+02 -0.38407285606E+03  0.40489117924E+03  0.12509234837E+03 0.  0.
          5    1    3    3  502    0 -0.49914680262E+02  0.13450329799E+02 -0.15386113190E+03  0.16236719801E+03  0.41800000000E+01 0.  1.
         -5    1    3    3    0  502  0.67713022058E+02 -0.34898678767E+02 -0.23021172415E+03  0.24252398124E+03  0.41800000000E+01 0.  1.
        -11    1    1    2    0    0 -0.11063992733E+02 -0.26043639719E+02 -0.13508401006E+03  0.13801584286E+03  0.00000000000E+00 0.  1.
         11    1    1    2    0    0 -0.67343490632E+01  0.47491988687E+02 -0.39345122885E+02  0.62039335438E+02  0.00000000000E+00 0. -1.
</event>
<event>
 7    1  0.1312490E-005  0.9906997E+02  0.7561462E-02  0.1282264E+00
         -2   -1    0    0    0  501 -0.00000000000E+00  0.00000000000E+00  0.14165958348E+03  0.14165958348E+03  0.00000000000E+00 0.  1.
          2   -1    0    0  501    0  0.00000000000E+00 -0.00000000000E+00 -0.11581697658E+03  0.11581697658E+03  0.00000000000E+00 0. -1.
         23    2    1    2    0    0  0.21684985307E+02 -0.26687595696E+02  0.73763392066E+02  0.14923555404E+03  0.12509095183E+03 0.  0.
          5    1    3    3  502    0 -0.21069960599E+02  0.41609951004E+02  0.14154433452E+02  0.48919849229E+02  0.41800000000E+01 0.  1.
         -5    1    3    3    0  502  0.42754945905E+02 -0.68297546701E+02  0.59608958613E+02  0.10031570481E+03  0.41800000000E+01 0.  1.
        -11    1    1    2    0    0  0.49953210126E+01  0.40346469519E+02 -0.62774325324E+02  0.74789081787E+02  0.00000000000E+00 0. -1.
         11    1    1    2    0    0 -0.26680306319E+02 -0.13658873823E+02  0.14853540163E+02  0.33451924231E+02  0.00000000000E+00 0.  1.
</event>
<event>
 7    1  0.1312490E-005  0.2008236E+03  0.7561462E-02  0.1149046E+00
         -2   -1    0    0    0  501 -0.00000000000E+00  0.00000000000E+00  0.10599652887E+03  0.10599652887E+03  0.00000000000E+00 0.  1.
          2   -1    0    0  501    0  0.00000000000E+00 -0.00000000000E+00 -0.41171490660E+03  0.41171490660E+03  0.00000000000E+00 0. -1.
         23    2    1    2    0    0  0.77575384550E+02  0.15953775048E+03 -0.15367939966E+03  0.26596211764E+03  0.12509298951E+03 0.  0.
          5    1    3    3  502    0  0.10151096498E+03  0.16321839837E+03 -0.13218360211E+03  0.23331244855E+03  0.41800000000E+01 0. -1.
         -5    1    3    3    0  502 -0.23935580434E+02 -0.36806478949E+01 -0.21495797547E+02  0.32649669092E+02  0.41800000000E+01 0. -1.
        -11    1    1    2    0    0 -0.76629484159E+02 -0.10354706002E+03 -0.14710297309E+03  0.19553351675E+03  0.00000000000E+00 0. -1.
         11    1    1    2    0    0 -0.94590039133E+00 -0.55990690458E+02 -0.49360049821E+01  0.56215801077E+02  0.00000000000E+00 0.  1.
</event>
<event>
 7    1  0.1312490E-005  0.1077576E+03  0.7561462E-02  0.1264780E+00
         -3   -1    0    0    0  501 -0.00000000000E+00  0.00000000000E+00  0.36266576085E+03  0.36266576085E+03  0.00000000000E+00 0.  1.
          3   -1    0    0  501    0  0.00000000000E+00 -0.00000000000E+00 -0.37430710278E+02  0.37430710278E+02  0.00000000000E+00 0. -1.
         23    2    1    2    0    0 -0.14194219795E+02  0.29564622454E+02  0.23267809408E+03  0.26618922076E+03  0.12506823341E+03 0.  0.
          5    1    3    3  502    0  0.39044465316E+02  0.49481682574E+02  0.17057523097E+03  0.18189636885E+03  0.41800000000E+01 0. -1.
         -5    1    3    3    0  502 -0.53238685112E+02 -0.19917060120E+02  0.62102863112E+02  0.84292851909E+02  0.41800000000E+01 0. -1.
        -11    1    1    2    0    0  0.13273423383E+01  0.32216170099E+02  0.42565205087E+02  0.53398877682E+02  0.00000000000E+00 0.  1.
         11    1    1    2    0    0  0.12866877457E+02 -0.61780792553E+02  0.49991751405E+02  0.80508372685E+02  0.00000000000E+00 0. -1.
</event>
<event>
 7    1  0.1312490E-005  0.6567985E+02  0.7561462E-02  0.1375432E+00
         -1   -1    0    0    0  501 -0.00000000000E+00  0.00000000000E+00  0.32708384907E+03  0.32708384907E+03  0.00000000000E+00 0.  1.
          1   -1    0    0  501    0  0.00000000000E+00 -0.00000000000E+00 -0.36228087469E+02  0.36228087469E+02  0.00000000000E+00 0. -1.
         23    2    1    2    0    0 -0.24857957263E+02  0.12055680077E+02  0.18225699628E+03  0.22277442528E+03  0.12509026503E+03 0.  0.
          5    1    3    3  502    0  0.18772318005E+02 -0.96558623851E+01 -0.10474018089E+02  0.23933513252E+02  0.41800000000E+01 0. -1.
         -5    1    3    3    0  502 -0.43630275268E+02  0.21711542462E+02  0.19273101437E+03  0.19884091203E+03  0.41800000000E+01 0. -1.
        -11    1    1    2    0    0  0.23967927932E+02 -0.32544992094E+02  0.11260685623E+03  0.11964088828E+03  0.00000000000E+00 0.  1.
         11    1    1    2    0    0  0.89002933136E+00  0.20489312017E+02 -0.40080909057E+01  0.20896622978E+02  0.00000000000E+00 0. -1.
</event>
<event>
 7    1  0.1312490E-005  0.1038770E+03  0.7561462E-02  0.1272348E+00
          3   -1    0    0  501    0  0.00000000000E+00  0.00000000000E+00  0.33727028317E+02  0.33727028317E+02  0.00000000000E+00 0. -1.
         -3   -1    0    0    0  501 -0.00000000000E+00 -0.00000000000E+00 -0.38898003495E+03  0.38898003495E+03  0.00000000000E+00 0.  1.
         23    2    1    2    0    0 -0.32206501974E+02 -0.28104054618E+02 -0.22321286337E+03  0.25578759934E+03  0.11737213019E+03 0.  0.
          5    1    3    3  502    0  0.33899312125E+02  0.14285193973E+01 -0.19069867321E+02  0.39145066993E+02  0.41800000000E+01 0. -1.
         -5    1    3    3    0  502 -0.66105814099E+02 -0.29532574015E+02 -0.20414299605E+03  0.21664253234E+03  0.41800000000E+01 0.  1.
        -11    1    1    2    0    0  0.30230650206E+02 -0.30186122222E+02 -0.44127376798E+02  0.61419211731E+02  0.00000000000E+00 0.  1.
         11    1    1    2    0    0  0.19758517682E+01  0.58290176840E+02 -0.87912766468E+02  0.10550025220E+03  0.00000000000E+00 0. -1.
</event>
<event>
 7    1  0.1312490E-005  0.9317265E+02  0.7561462E-02  0.1295346E+00
          1   -1    0    0  501    0  0.00000000000E+00  0.00000000000E+00  0.12928395281E+03  0.12928395281E+03  0.00000000000E+00 0. -1.
         -1   -1    0    0    0  501 -0.00000000000E+00 -0.00000000000E+00 -0.13213551504E+03  0.13213551504E+03  0.00000000000E+00 0.  1.
         23    2    1    2    0    0 -0.57597917620E+02  0.35984524997E+02 -0.25495128463E+02  0.14460191108E+03  0.12508918801E+03 0.  0.
          5    1    3    3  502    0 -0.72371940015E+02  0.36705565028E+01 -0.60542046841E+02  0.94519746732E+02  0.41800000000E+01 0. -1.
         -5    1    3    3    0  502  0.14774022395E+02  0.32313968494E+02  0.35046918377E+02  0.50082164343E+02  0.41800000000E+01 0. -1.
        -11    1    1    2    0    0  0.44021769084E+02 -0.51866239896E+01 -0.30575444677E+02  0.53848630798E+02  0.00000000000E+00 0.  1.
         11    1    1    2    0    0  0.13576148536E+02 -0.30797901007E+02  0.53219010919E+02  0.62968925977E+02  0.00000000000E+00 0. -1.
</event>
<event>
 7    1  0.1312490E-005  0.8206698E+02  0.7561462E-02  0.1323286E+00
          1   -1    0    0  501    0  0.00000000000E+00  0.00000000000E+00  0.43521209706E+03  0.43521209706E+03  0.00000000000E+00 0. -1.
         -1   -1    0    0    0  501 -0.00000000000E+00 -0.00000000000E+00 -0.73155923703E+02  0.73155923703E+02  0.00000000000E+00 0.  1.
         23    2    1    2    0    0  0.64318784506E+02 -0.18283705075E+01  0.66562850361E+01  0.13581655977E+03  0.11942186901E+03 0.  0.
          5    1    3    3  502    0  0.50123485947E+02  0.14768099938E+02  0.59013300063E+02  0.78933532821E+02  0.41800000000E+01 0. -1.
         -5    1    3    3    0  502  0.14195298559E+02 -0.16596470446E+02 -0.52357015027E+02  0.56883026950E+02  0.41800000000E+01 0.  1.
        -11    1    1    2    0    0  0.11328484736E+02  0.75507091695E+01  0.57713053027E+01  0.14787012554E+02  0.00000000000E+00 0.  1.
         11    1    1    2    0    0 -0.75647269242E+02 -0.57223386621E+01  0.34962858302E+03  0.35776444844E+03  0.00000000000E+00 0. -1.
</event>
<event>
 7    1  0.1312490E-005  0.3562710E+03  0.7561462E-02  0.1060070E+00
         -2   -1    0    0    0  501 -0.00000000000E+00  0.00000000000E+00  0.96850680122E+02  0.96850680122E+02  0.00000000000E+00 0.  1.
          2   -1    0    0  501    0  0.00000000000E+00 -0.00000000000E+00 -0.14193863045E+04  0.14193863045E+04  0.00000000000E+00 0. -1.
         23    2    1    2    0    0 -0.35113802266E+03 -0.21765214068E+01 -0.55986951585E+03  0.67261045552E+03  0.12509317284E+03 0.  0.
          5    1    3    3  502    0 -0.38662422226E+02 -0.23634199742E+02 -0.22871608265E+02  0.50930748615E+02  0.41800000000E+01 0. -1.
         -5    1    3    3    0  502 -0.31247560043E+03  0.21457678335E+02 -0.53699790758E+03  0.62167970690E+03  0.41800000000E+01 0. -1.
        -11    1    1    2    0    0  0.69587302697E+02 -0.16866775464E+02 -0.96565616831E+02  0.12021563611E+03  0.00000000000E+00 0.  1.
         11    1    1    2    0    0  0.28155071996E+03  0.19043296871E+02 -0.66610049173E+03  0.72341089303E+03  0.00000000000E+00 0. -1.
</event>
<event>
 7    1  0.1312490E-005  0.5391259E+02  0.7561462E-02  0.1425312E+00
          2   -1    0    0  501    0  0.00000000000E+00  0.00000000000E+00  0.29850362466E+03  0.29850362466E+03  0.00000000000E+00 0.  1.
         -2   -1    0    0    0  501 -0.00000000000E+00 -0.00000000000E+00 -0.40797476735E+02  0.40797476735E+02  0.00000000000E+00 0. -1.
         23    2    1    2    0    0  0.77868245799E+01  0.15063919431E+01  0.12149737277E+03  0.17456208113E+03  0.12508958679E+03 0.  0.
          5    1    3    3  502    0  0.92672585110E+01 -0.16878942113E+02  0.14390057839E+03  0.14524334625E+03  0.41800000000E+01 0. -1.
         -5    1    3    3    0  502 -0.14804339311E+01  0.18385334056E+02 -0.22403205618E+02  0.29318734879E+02  0.41800000000E+01 0. -1.
        -11    1    1    2    0    0 -0.13658260137E+02 -0.33763464027E+02  0.12482804257E+03  0.13003291808E+03  0.00000000000E+00 0.  1.
         11    1    1    2    0    0  0.58714355568E+01  0.32257072084E+02  0.11380732579E+02  0.34706102186E+02  0.00000000000E+00 0. -1.
</event>
<event>
 7    1  0.1312490E-005  0.2059975E+03  0.7561462E-02  0.1144775E+00
          2   -1    0    0  501    0  0.00000000000E+00  0.00000000000E+00  0.24745340133E+02  0.24745340133E+02  0.00000000000E+00 0. -1.
         -2   -1    0    0    0  501 -0.00000000000E+00 -0.00000000000E+00 -0.19665847716E+04  0.19665847716E+04  0.00000000000E+00 0.  1.
         23    2    1    2    0    0 -0.93053703769E+02 -0.15578438491E+03 -0.12885848356E+04  0.13072957538E+04  0.12507414952E+03 0.  0.
          5    1    3    3  502    0 -0.11399451860E+03 -0.10769824230E+03 -0.11128611171E+04  0.11238643156E+04  0.41800000000E+01 0. -1.
         -5    1    3    3    0  502  0.20940814832E+02 -0.48086142616E+02 -0.17572371853E+03  0.18343143812E+03  0.41800000000E+01 0. -1.
        -11    1    1    2    0    0  0.29568169600E+01  0.92151899243E+02 -0.31841711630E+03  0.33149687065E+03  0.00000000000E+00 0.  1.
         11    1    1    2    0    0  0.90096886809E+02  0.63632485670E+02 -0.33483747953E+03  0.35253748729E+03  0.00000000000E+00 0. -1.
</event>
<event>
 7    1  0.1312490E-005  0.1355467E+03  0.7561462E-02  0.1219450E+00
         -4   -1    0    0    0  501 -0.00000000000E+00  0.00000000000E+00  0.40806787128E+03  0.40806787128E+03  0.00000000000E+00 0.  1.
          4   -1    0    0  501    0  0.00000000000E+00 -0.00000000000E+00 -0.55734966768E+02  0.55734966768E+02  0.00000000000E+00 0. -1.
         23    2    1    2    0    0 -0.36399487350E+01 -0.10071811935E+03  0.21225054039E+03  0.26618550316E+03  0.12508813454E+03 0.  0.
          5    1    3    3  502    0  0.17401199718E+02 -0.11439816950E+03  0.10616997579E+03  0.15709640064E+03  0.41800000000E+01 0.  1.
         -5    1    3    3    0  502 -0.21041148453E+02  0.13680050148E+02  0.10608056460E+03  0.10908910251E+03  0.41800000000E+01 0.  1.
        -11    1    1    2    0    0  0.11048391867E+02  0.11406332820E+03  0.91352959040E+02  0.14655331088E+03  0.00000000000E+00 0. -1.
         11    1    1    2    0    0 -0.74084431322E+01 -0.13345208848E+02  0.48729405080E+02  0.51064024012E+02  0.00000000000E+00 0.  1.
</event>
<event>
 7    1  0.1312490E-005  0.1043547E+03  0.7561462E-02  0.1271396E+00
         -1   -1    0    0    0  501 -0.00000000000E+00  0.00000000000E+00  0.17561011936E+03  0.17561011936E+03  0.00000000000E+00 0.  1.
          1   -1    0    0  501    0  0.00000000000E+00 -0.00000000000E+00 -0.13864261154E+03  0.13864261154E+03  0.00000000000E+00 0. -1.
         23    2    1    2    0    0 -0.69033482277E+02 -0.54261422294E+02  0.90350473809E+02  0.17755150565E+03  0.12510557708E+03 0.  0.
          5    1    3    3  502    0 -0.50450595523E+02 -0.76364913264E+02  0.10117333262E+02  0.92177521114E+02  0.41800000000E+01 0. -1.
         -5    1    3    3    0  502 -0.18582886754E+02  0.22103490969E+02  0.80233140548E+02  0.85373984534E+02  0.41800000000E+01 0. -1.
        -11    1    1    2    0    0  0.25481411868E+02  0.22684706249E+02  0.24531390253E+02  0.42020082772E+02  0.00000000000E+00 0.  1.
         11    1    1    2    0    0  0.43552070408E+02  0.31576716045E+02 -0.77914356241E+02  0.94681142481E+02  0.00000000000E+00 0. -1.
</event>
<event>
 7    1  0.1312490E-005  0.1272345E+03  0.7561462E-02  0.1231618E+00
         -2   -1    0    0    0  501 -0.00000000000E+00  0.00000000000E+00  0.11008762443E+03  0.11008762443E+03  0.00000000000E+00 0.  1.
          2   -1    0    0  501    0  0.00000000000E+00 -0.00000000000E+00 -0.24123186115E+03  0.24123186115E+03  0.00000000000E+00 0. -1.
         23    2    1    2    0    0 -0.40691363411E+01  0.95350299930E+02  0.10072807834E+02  0.15766100697E+03  0.12508914458E+03 0.  0.
          5    1    3    3  502    0 -0.52386849400E+02  0.85734752746E+02 -0.15904403507E+02  0.10180988297E+03  0.41800000000E+01 0.  1.
         -5    1    3    3    0  502  0.48317713059E+02  0.96155471836E+01  0.25977211341E+02  0.55851123999E+02  0.41800000000E+01 0.  1.
        -11    1    1    2    0    0  0.23350120433E+02 -0.49709393170E+02 -0.13239310914E+03  0.14333243611E+03  0.00000000000E+00 0. -1.
         11    1    1    2    0    0 -0.19280984092E+02 -0.45640906760E+02 -0.88239354147E+01  0.50326042499E+02  0.00000000000E+00 0.  1.
</event>
<event>
 7    1  0.1312490E-005  0.9569448E+02  0.7561462E-02  0.1289620E+00
          1   -1    0    0  501    0  0.00000000000E+00  0.00000000000E+00  0.41954400195E+03  0.41954400195E+03  0.00000000000E+00 0. -1.
         -1   -1    0    0    0  501 -0.00000000000E+00 -0.00000000000E+00 -0.41950566581E+02  0.41950566581E+02  0.00000000000E+00 0.  1.
         23    2    1    2    0    0 -0.98094074157E+01 -0.67156410057E+02  0.20089934031E+03  0.24619626599E+03  0.12508336646E+03 0.  0.
          5    1    3    3  502    0 -0.39129322433E+02 -0.40409384581E+02  0.18318039955E+02  0.59304681300E+02  0.41800000000E+01 0. -1.
         -5    1    3    3    0  502  0.29319915018E+02 -0.26747025476E+02  0.18258130035E+03  0.18689158469E+03  0.41800000000E+01 0. -1.
        -11    1    1    2    0    0 -0.18647827060E+02  0.63745081968E+02  0.17431440772E+03  0.18653870823E+03  0.00000000000E+00 0. -1.
         11    1    1    2    0    0  0.28457234476E+02  0.34113280881E+01  0.23796873431E+01  0.28759594315E+02  0.00000000000E+00 0.  1.
</event>
<event>
 7    1  0.1876199E-005  0.3924199E+03  0.7561462E-02  0.1046436E+00
          2   -1    0    0  501    0  0.00000000000E+00  0.00000000000E+00  0.76281176170E+03  0.76281176170E+03  0.00000000000E+00 0. -1.
         -2   -1    0    0    0  501 -0.00000000000E+00 -0.00000000000E+00 -0.20945526489E+03  0.20945526489E+03  0.00000000000E+00 0.  1.
         23    2    1    2    0    0 -0.33056698568E+03 -0.19355241319E+03  0.24843488424E+03  0.47339644230E+03  0.12508889318E+03 0.  0.
          5    1    3    3  502    0 -0.23879716585E+03 -0.90471796967E+02  0.20840622434E+03  0.32963594951E+03  0.41800000000E+01 0.  1.
         -5    1    3    3    0  502 -0.91769819829E+02 -0.10308061622E+03  0.40028659896E+02  0.14376049278E+03  0.41800000000E+01 0.  1.
        -11    1    1    2    0    0  0.22249034229E+03  0.17186139509E+03  0.24760168309E+03  0.37462632716E+03  0.00000000000E+00 0. -1.
         11    1    1    2    0    0  0.10807664340E+03  0.21691018100E+02  0.57319929477E+02  0.12424425713E+03  0.00000000000E+00 0.  1.
</event>
<event>
 7    1  0.1312490E-005  0.1781215E+03  0.7561462E-02  0.1169634E+00
          2   -1    0    0  501    0  0.00000000000E+00  0.00000000000E+00  0.27070614450E+03  0.27070614450E+03  0.00000000000E+00 0.  1.
         -2   -1    0    0    0  501 -0.00000000000E+00 -0.00000000000E+00 -0.19107483673E+03  0.19107483673E+03  0.00000000000E+00 0. -1.
         23    2    1    2    0    0  0.11395140157E+03 -0.10494692294E+03 -0.86051471912E+02  0.21691153358E+03  0.12508788521E+03 0.  0.
          5    1    3    3  502    0  0.12938606965E+03 -0.84156291050E+02 -0.10307052892E+03  0.18564493711E+03  0.41800000000E+01 0.  1.
         -5    1    3    3    0  502 -0.15434668085E+02 -0.20790631889E+02  0.17019057005E+02  0.31266596467E+02  0.41800000000E+01 0.  1.
        -11    1    1    2    0    0 -0.52279417805E+02 -0.18205160854E+01  0.76592995395E+02  0.92752028271E+02  0.00000000000E+00 0. -1.
         11    1    1    2    0    0 -0.61671983763E+02  0.10676743902E+03  0.89089784286E+02  0.15211741939E+03  0.00000000000E+00 0.  1.
</event>
<event>
 7    1  0.1312490E-005  0.1116786E+03  0.7561462E-02  0.1257493E+00
         -1   -1    0    0    0  501 -0.00000000000E+00  0.00000000000E+00  0.43766571187E+02  0.43766571187E+02  0.00000000000E+00 0.  1.
          1   -1    0    0  501    0  0.00000000000E+00 -0.00000000000E+00 -0.42733155501E+03  0.42733155501E+03  0.00000000000E+00 0. -1.
         23    2    1    2    0    0  0.73396660450E+02 -0.36008503820E+02 -0.22417838405E+03  0.26944854611E+03  0.12515146428E+03 0.  0.
          5    1    3    3  502    0 -0.17244541085E+02 -0.23673946884E+02 -0.26070625211E+01  0.29700153758E+02  0.41800000000E+01 0.  1.
         -5    1    3    3    0  502  0.90641201535E+02 -0.12334556937E+02 -0.22157132153E+03  0.23974839235E+03  0.41800000000E+01 0.  1.
        -11    1    1    2    0    0 -0.26580752537E+02  0.47104503712E+02 -0.26317556937E+02  0.60149683944E+02  0.00000000000E+00 0. -1.
         11    1    1    2    0    0 -0.46815907914E+02 -0.11095999892E+02 -0.13306904284E+03  0.14149989615E+03  0.00000000000E+00 0.  1.
</event>
<event>
 7    1  0.1312490E-005  0.1780040E+03  0.7561462E-02  0.1169749E+00
          1   -1    0    0  501    0  0.00000000000E+00  0.00000000000E+00  0.92051072834E+03  0.92051072834E+03  0.00000000000E+00 0. -1.
         -1   -1    0    0    0  501 -0.00000000000E+00 -0.00000000000E+00 -0.40883575015E+02  0.40883575015E+02  0.00000000000E+00 0.  1.
         23    2    1    2    0    0 -0.75164157052E+02 -0.14124825540E+03  0.43189676903E+03  0.47726594713E+03  0.12508894849E+03 0.  0.
          5    1    3    3  502    0  0.22225644101E+02 -0.33658667089E+02  0.19695351250E+03  0.20108466777E+03  0.41800000000E+01 0. -1.
         -5    1    3    3    0  502 -0.97389801152E+02 -0.10758958831E+03  0.23494325653E+03  0.27618127936E+03  0.41800000000E+01 0. -1.
        -11    1    1    2    0    0  0.21703680166E+02  0.10113918492E+03  0.17461676447E+03  0.20295615017E+03  0.00000000000E+00 0.  1.
         11    1    1    2    0    0  0.53460476886E+02  0.40109070480E+02  0.27311361983E+03  0.28117220606E+03  0.00000000000E+00 0. -1.
</event>
<event>
 7    1  0.1312490E-005  0.9168570E+02  0.7561462E-02  0.1298820E+00
          1   -1    0    0  501    0  0.00000000000E+00  0.00000000000E+00  0.54138167999E+03  0.54138167999E+03  0.00000000000E+00 0. -1.
         -1   -1    0    0    0  501 -0.00000000000E+00 -0.00000000000E+00 -0.21924586550E+02  0.21924586550E+02  0.00000000000E+00 0.  1.
         23    2    1    2    0    0 -0.17013209366E+02 -0.20727729306E+00  0.27083843059E+03  0.29881502512E+03  0.12508985368E+03 0.  0.
          5    1    3    3  502    0 -0.28434814694E+02 -0.49266105208E+02  0.63280025360E+02  0.85191090019E+02  0.41800000000E+01 0.  1.
         -5    1    3    3    0  502  0.11421605328E+02  0.49058827915E+02  0.20755840523E+03  0.21362393510E+03  0.41800000000E+01 0.  1.
        -11    1    1    2    0    0  0.33109506552E+02 -0.27968583728E+02  0.65643411693E+02  0.78660908961E+02  0.00000000000E+00 0.  1.
         11    1    1    2    0    0 -0.16096297186E+02  0.28175861021E+02  0.18297525116E+03  0.18583033246E+03  0.00000000000E+00 0. -1.
</event>
<event>
 7    1  0.1312490E-005  0.1067538E+03  0.7561462E-02  0.1266702E+00
          2   -1    0    0  501    0  0.00000000000E+00  0.00000000000E+00  0.47554120359E+03  0.47554120359E+03  0.00000000000E+00 0. -1.
         -2   -1    0    0    0  501 -0.00000000000E+00 -0.00000000000E+00 -0.40374895216E+02  0.40374895216E+02  0.00000000000E+00 0.  1.
         23    2    1    2    0    0  0.84688355048E+02  0.15940476183E+02  0.23354197334E+03  0.27859440764E+03  0.12508706727E+03 0.  0.
          5    1    3    3  502    0  0.14523577466E+02 -0.37289566864E+01 -0.13741483049E+02  0.20763915256E+02  0.41800000000E+01 0.  1.
         -5    1    3    3    0  502  0.70164777582E+02  0.19669432869E+02  0.24728345639E+03  0.25783049239E+03  0.41800000000E+01 0.  1.
        -11    1    1    2    0    0 -0.47665024679E+02 -0.53882424044E+02  0.12305643625E+03  0.14254177177E+03  0.00000000000E+00 0. -1.
         11    1    1    2    0    0 -0.37023330369E+02  0.37941947861E+02  0.78567898786E+02  0.94779919385E+02  0.00000000000E+00 0.  1.
</event>
<event>
 7    1  0.1312490E-005  0.1287220E+03  0.7561462E-02  0.1229365E+00
          1   -1    0    0  501    0  0.00000000000E+00  0.00000000000E+00  0.27851491910E+03  0.27851491910E+03  0.00000000000E+00 0. -1.
         -1   -1    0    0    0  501 -0.00000000000E+00 -0.00000000000E+00 -0.79625387956E+02  0.79625387956E+02  0.00000000000E+00 0.  1.
         23    2    1    2    0    0  0.72288029377E+02 -0.65730912554E+02  0.65851029908E+02  0.17184553406E+03  0.12509363445E+03 0.  0.
          5    1    3    3  502    0 -0.86542204286E+01  0.30989627579E+02  0.15849552669E+02  0.36110016180E+02  0.41800000000E+01 0.  1.
         -5    1    3    3    0  502  0.80942249805E+02 -0.96720540132E+02  0.50001477238E+02  0.13573551788E+03  0.41800000000E+01 0.  1.
        -11    1    1    2    0    0 -0.49627780052E+02  0.53817565347E+02  0.28322426039E+02  0.78494628540E+02  0.00000000000E+00 0.  1.
         11    1    1    2    0    0 -0.22660249324E+02  0.11913347206E+02  0.10471607520E+03  0.10780014446E+03  0.00000000000E+00 0. -1.
</event>
<event>
 7    1  0.1312490E-005  0.1265822E+03  0.7561462E-02  0.1232617E+00
          1   -1    0    0  501    0  0.00000000000E+00  0.00000000000E+00  0.72716502630E+03  0.72716502630E+03  0.00000000000E+00 0. -1.
         -1   -1    0    0    0  501 -0.00000000000E+00 -0.00000000000E+00 -0.26455932843E+02  0.26455932843E+02  0.00000000000E+00 0.  1.
         23    2    1    2    0    0 -0.26590539365E+02 -0.65216762445E+02  0.25745801750E+03  0.29477772021E+03  0.12509592586E+03 0.  0.
          5    1    3    3  502    0 -0.70139868791E+02 -0.63110513384E+02  0.13528866270E+03  0.16499403853E+03  0.41800000000E+01 0.  1.
         -5    1    3    3    0  502  0.43549329426E+02 -0.21062490608E+01  0.12216935480E+03  0.12978368168E+03  0.41800000000E+01 0.  1.
        -11    1    1    2    0    0  0.55431152355E+02  0.65845183027E+02  0.27557055306E+03  0.28869937737E+03  0.00000000000E+00 0.  1.
         11    1    1    2    0    0 -0.28840612990E+02 -0.62842058209E+00  0.16768052289E+03  0.17014386156E+03  0.00000000000E+00 0. -1.
</event>
<event>
 7    1  0.1312490E-005  0.1247231E+03  0.7561462E-02  0.1235503E+00
          3   -1    0    0  501    0  0.00000000000E+00  0.00000000000E+00  0.11284290738E+03  0.11284290738E+03  0.00000000000E+00 0.  1.
         -3   -1    0    0    0  501 -0.00000000000E+00 -0.00000000000E+00 -0.26509475719E+03  0.26509475719E+03  0.00000000000E+00 0. -1.
         23    2    1    2    0    0 -0.40677195609E+02 -0.76537315901E+02 -0.19401680409E+03  0.24658012201E+03  0.12508653539E+03 0.  0.
          5    1    3    3  502    0 -0.81203455059E+02 -0.69148695673E+02 -0.16302925612E+03  0.19486291073E+03  0.41800000000E+01 0.  1.
         -5    1    3    3    0  502  0.40526259449E+02 -0.73886202276E+01 -0.30987547965E+02  0.51717211281E+02  0.41800000000E+01 0.  1.
        -11    1    1    2    0    0  0.12855252763E+02  0.71968577644E+02  0.62642506292E+02  0.96274697020E+02  0.00000000000E+00 0.  1.
         11    1    1    2    0    0  0.27821942847E+02  0.45687382566E+01 -0.20877552009E+02  0.35082845536E+02  0.00000000000E+00 0. -1.
</event>
<event>
 7    1  0.1312490E-005  0.1019223E+03  0.7561462E-02  0.1276305E+00
          2   -1    0    0  501    0  0.00000000000E+00  0.00000000000E+00  0.65060850633E+03  0.65060850633E+03  0.00000000000E+00 0. -1.
         -2   -1    0    0    0  501 -0.00000000000E+00 -0.00000000000E+00 -0.21366610393E+02  0.21366610393E+02  0.00000000000E+00 0.  1.
         23    2    1    2    0    0 -0.14994615943E+02 -0.40206970022E+02  0.31489332958E+03  0.34153623209E+03  0.12509096638E+03 0.  0.
          5    1    3    3  502    0  0.59980722955E+01  0.28812409049E+02  0.22132580970E+03  0.22331304983E+03  0.41800000000E+01 0. -1.
         -5    1    3    3    0  502 -0.20992688239E+02 -0.69019379071E+02  0.93567519887E+02  0.11822318226E+03  0.41800000000E+01 0. -1.
        -11    1    1    2    0    0  0.17765428417E+02 -0.28234912120E+02  0.10305329397E+03  0.10831805993E+03  0.00000000000E+00 0. -1.
         11    1    1    2    0    0 -0.27708124740E+01  0.68441882141E+02  0.21129527239E+03  0.22212082470E+03  0.00000000000E+00 0.  1.
</event>
<event>
 7    1  0.1312490E-005  0.9413307E+02  0.7561462E-02  0.1293141E+00
         -2   -1    0    0    0  501 -0.00000000000E+00  0.00000000000E+00  0.26045518236E+02  0.26045518236E+02  0.00000000000E+00 0.  1.
          2   -1    0    0  501    0  0.00000000000E+00 -0.00000000000E+00 -0.59388918076E+03  0.59388918076E+03  0.00000000000E+00 0. -1.
         23    2    1    2    0    0 -0.17726530063E+02  0.52842315008E+02 -0.34212394572E+03  0.36851217582E+03  0.12508352958E+03 0.  0.
          5    1    3    3  502    0 -0.24737397686E+02  0.70181341245E+02 -0.34128638413E+03  0.34932968367E+03  0.41800000000E+01 0.  1.
         -5    1    3    3    0  502  0.70108676227E+01 -0.17339026237E+02 -0.83756158775E+00  0.19182492150E+02  0.41800000000E+01 0.  1.
        -11    1    1    2    0    0  0.47868688423E+02 -0.27600098057E+02 -0.19146081886E+03  0.19927473975E+03  0.00000000000E+00 0.  1.
         11    1    1    2    0    0 -0.30142158360E+02 -0.25242216951E+02 -0.34258897943E+02  0.52147783419E+02  0.00000000000E+00 0. -1.
</event>
<event>
 7    1  0.1312490E-005  0.1451757E+03  0.7561462E-02  0.1206530E+00
          1   -1    0    0  501    0  0.00000000000E+00  0.00000000000E+00  0.82308962786E+03  0.82308962786E+03  0.00000000000E+00 0. -1.
         -1   -1    0    0    0  501 -0.00000000000E+00 -0.00000000000E+00 -0.37364850700E+02  0.37364850700E+02  0.00000000000E+00 0.  1.
         23    2    1    2    0    0 -0.76518205908E+02 -0.11370726445E+03  0.39832304956E+03  0.43942329711E+03  0.12508878613E+03 0.  0.
          5    1    3    3  502    0 -0.75888766726E+02 -0.54490665783E+02  0.35174500407E+03  0.36396477558E+03  0.41800000000E+01 0.  1.
         -5    1    3    3    0  502 -0.62943918198E+00 -0.59216598664E+02  0.46578045482E+02  0.75458521533E+02  0.41800000000E+01 0.  1.
        -11    1    1    2    0    0  0.25930627684E+02  0.47812845725E+02  0.51132456653E+02  0.74652486843E+02  0.00000000000E+00 0.  1.
         11    1    1    2    0    0  0.50587578225E+02  0.65894418722E+02  0.33626927095E+03  0.34637869460E+03  0.00000000000E+00 0. -1.
</event>
<event>
 6    1  0.1312490E-005  0.2257803E+03  0.7561462E-02  0.1129646E+00
          2   -1    0    0  501    0  0.00000000000E+00  0.00000000000E+00  0.99235049412E+02  0.99235049412E+02  0.00000000000E+00 0. -1.
         -2   -1    0    0    0  501 -0.00000000000E+00 -0.00000000000E+00 -0.11612369593E+04  0.11612369593E+04  0.00000000000E+00 0.  1.
          5    1    1    2  502    0 -0.11604761819E+03 -0.12270254179E+03 -0.41190992062E+02  0.17388827930E+03  0.41800000000E+01 0. -1.
         -5    1    1    2    0  502 -0.26993190160E+02  0.11180905543E+03 -0.80490730561E+03  0.81309479166E+03  0.41800000000E+01 0.  1.
        -11    1    1    2    0    0  0.15474573812E+03  0.60709197106E+01 -0.19451479440E+03  0.24863448026E+03  0.00000000000E+00 0.  1.
         11    1    1    2    0    0 -0.11704929773E+02  0.48225666576E+01 -0.21388817811E+02  0.24854457497E+02  0.00000000000E+00 0. -1.
</event>
<event>
 7    1  0.1312490E-005  0.9684011E+02  0.7561462E-02  0.1287085E+00
          2   -1    0    0  501    0  0.00000000000E+00  0.00000000000E+00  0.87526380364E+03  0.87526380364E+03  0.00000000000E+00 0. -1.
         -2   -1    0    0    0  501 -0.00000000000E+00 -0.00000000000E+00 -0.16842872499E+02  0.16842872499E+02  0.00000000000E+00 0.  1.
         23    2    1    2    0    0  0.77151027366E+01  0.63806229961E+02  0.52287187837E+03  0.53876031147E+03  0.11285793828E+03 0.  0.
          5    1    3    3  502    0 -0.28042236407E+02  0.17698560773E+02  0.41243640367E+03  0.41378843090E+03  0.41800000000E+01 0. -1.
         -5    1    3    3    0  502  0.35757339144E+02  0.46107669187E+02  0.11043547470E+03  0.12497188057E+03  0.41800000000E+01 0.  1.
        -11    1    1    2    0    0  0.35740610613E+02 -0.30992674571E+02  0.88320108202E+02  0.10019170942E+03  0.00000000000E+00 0.  1.
         11    1    1    2    0    0 -0.43455713350E+02 -0.32813555389E+02  0.24722894457E+03  0.25315465525E+03  0.00000000000E+00 0. -1.
</event>
<event>
 7    1  0.1312490E-005  0.8043437E+02  0.7561462E-02  0.1327823E+00
         -1   -1    0    0    0  501 -0.00000000000E+00  0.00000000000E+00  0.67984205367E+02  0.67984205367E+02  0.00000000000E+00 0.  1.
          1   -1    0    0  501    0  0.00000000000E+00 -0.00000000000E+00 -0.19264028196E+03  0.19264028196E+03  0.00000000000E+00 0. -1.
         23    2    1    2    0    0  0.10695380927E+02  0.13380018374E+02 -0.33446664316E+02  0.13061248770E+03  0.12509007365E+03 0.  0.
          5    1    3    3  502    0 -0.27717799045E+02 -0.30679877709E+02  0.24464033101E+02  0.48223361514E+02  0.41800000000E+01 0. -1.
         -5    1    3    3    0  502  0.38413179972E+02  0.44059896083E+02 -0.57910697417E+02  0.82389126186E+02  0.41800000000E+01 0. -1.
        -11    1    1    2    0    0  0.23780079601E+02 -0.14701545292E+00 -0.89973824810E+02  0.93063435087E+02  0.00000000000E+00 0. -1.
         11    1    1    2    0    0 -0.34475460527E+02 -0.13233002921E+02 -0.12355874645E+01  0.36948564536E+02  0.00000000000E+00 0.  1.
</event>
<event>
 7    1  0.1312490E-005  0.9714996E+02  0.7561462E-02  0.1286406E+00
         -1   -1    0    0    0  501 -0.00000000000E+00  0.00000000000E+00  0.41284337694E+02  0.41284337694E+02  0.00000000000E+00 0.  1.
          1   -1    0    0  501    0  0.00000000000E+00 -0.00000000000E+00 -0.37130187961E+03  0.37130187961E+03  0.00000000000E+00 0. -1.
         23    2    1    2    0    0 -0.12967776060E+01 -0.20492826170E+02 -0.93746573227E+02  0.15799445818E+03  0.12550773389E+03 0.  0.
          5    1    3    3  502    0  0.61058883173E+02 -0.14664097057E+02 -0.58932710940E+02  0.86219254089E+02  0.41800000000E+01 0.  1.
         -5    1    3    3    0  502 -0.62355660779E+02 -0.58287291128E+01 -0.34813862286E+02  0.71775204086E+02  0.41800000000E+01 0.  1.
        -11    1    1    2    0    0 -0.27620115884E+02 -0.72184560354E+01 -0.20526688992E+02  0.35161369000E+02  0.00000000000E+00 0.  1.
         11    1    1    2    0    0  0.28916893490E+02  0.27711282205E+02 -0.21574427970E+03  0.21943039013E+03  0.00000000000E+00 0. -1.
</event>
<event>
 6    1  0.1312490E-005  0.1867013E+03  0.7561462E-02  0.1161471E+00
         -2   -1    0    0    0  501 -0.00000000000E+00  0.00000000000E+00  0.57316251389E+02  0.57316251389E+02  0.00000000000E+00 0.  1.
          2   -1    0    0  501    0  0.00000000000E+00 -0.00000000000E+00 -0.99814303100E+03  0.99814303100E+03  0.00000000000E+00 0. -1.
          5    1    1    2  502    0  0.79519654619E+02  0.42498247706E+02 -0.25141575619E+03  0.26712699487E+03  0.41800000000E+01 0. -1.
         -5    1    1    2    0  502 -0.12018391316E+03  0.64960163100E+02 -0.73413791162E+02  0.15514848663E+03  0.41800000000E+01 0.  1.
        -11    1    1    2    0    0 -0.28747648356E+02 -0.43079663450E+02 -0.22667172771E+03  0.23251313260E+03  0.00000000000E+00 0.  1.
         11    1    1    2    0    0  0.69411906893E+02 -0.64378747357E+02 -0.38932550455E+03  0.40067066828E+03  0.00000000000E+00 0. -1.
</event>
<event>
 7    1  0.1312490E-005  0.9605246E+02  0.7561462E-02  0.1288823E+00
          2   -1    0    0  501    0  0.00000000000E+00  0.00000000000E+00  0.14703412354E+03  0.14703412354E+03  0.00000000000E+00 0. -1.
         -2   -1    0    0    0  501 -0.00000000000E+00 -0.00000000000E+00 -0.10699869089E+03  0.10699869089E+03  0.00000000000E+00 0.  1.
         23    2    1    2    0    0  0.45014771534E+02  0.25559917704E+02 -0.16764782160E+02  0.13641120625E+03  0.12508924902E+03 0.  0.
          5    1    3    3  502    0  0.17291237532E+02 -0.30861988502E+02  0.38609095545E+02  0.52531741723E+02  0.41800000000E+01 0.  1.
         -5    1    3    3    0  502  0.27723534002E+02  0.56421906205E+02 -0.55373877705E+02  0.83879464528E+02  0.41800000000E+01 0.  1.
        -11    1    1    2    0    0  0.80587584845E+01 -0.38100990405E+02  0.48907086483E+02  0.62518254665E+02  0.00000000000E+00 0.  1.
         11    1    1    2    0    0 -0.53073530019E+02  0.12541072701E+02  0.78931283232E+01  0.55103353508E+02  0.00000000000E+00 0. -1.
</event>
<event>
 6    1  0.1312490E-005  0.2668981E+03  0.7561462E-02  0.1103068E+00
         -2   -1    0    0    0  501 -0.00000000000E+00  0.00000000000E+00  0.50184094434E+03  0.50184094434E+03  0.00000000000E+00 0.  1.
          2   -1    0    0  501    0  0.00000000000E+00 -0.00000000000E+00 -0.40285074422E+03  0.40285074422E+03  0.00000000000E+00 0. -1.
          5    1    1    2  502    0  0.60933682904E+02 -0.26866581748E+02  0.20179414444E+03  0.21253958703E+03  0.41800000000E+01 0. -1.
         -5    1    1    2    0  502 -0.43110973064E+02 -0.11290710949E+03  0.94645549927E+02  0.15356374537E+03  0.41800000000E+01 0.  1.
        -11    1    1    2    0    0  0.75525373379E+02 -0.78385292464E+02  0.10696831439E+03  0.15261243849E+03  0.00000000000E+00 0.  1.
         11    1    1    2    0    0 -0.93348083219E+02  0.21815898370E+03 -0.30441780863E+03  0.38597591767E+03  0.00000000000E+00 0. -1.
</event>
<event>
 7    1  0.1312490E-005  0.9859672E+02  0.7561462E-02  0.1283275E+00
          1   -1    0    0  501    0  0.00000000000E+00  0.00000000000E+00  0.11491514620E+03  0.11491514620E+03  0.00000000000E+00 0. -1.
         -1   -1    0    0    0  501 -0.00000000000E+00 -0.00000000000E+00 -0.14483354582E+03  0.14483354582E+03  0.00000000000E+00 0.  1.
         23    2    1    2    0    0 -0.37752534779E+02 -0.12696511425E+02 -0.70542679989E+02  0.14942288983E+03  0.12555666060E+03 0.  0.
          5    1    3    3  502    0 -0.69985023661E+02  0.27135071163E+02 -0.21068659041E+02  0.78074172539E+02  0.41800000000E+01 0. -1.
         -5    1    3    3    0  502  0.32232488882E+02 -0.39831582588E+02 -0.49474020947E+02  0.71348717296E+02  0.41800000000E+01 0.  1.
        -11    1    1    2    0    0 -0.15216584960E+02  0.86000387040E+01  0.52973114512E+02  0.55782219252E+02  0.00000000000E+00 0. -1.
         11    1    1    2    0    0  0.52969119738E+02  0.40964727207E+01 -0.12348834151E+02  0.54543582936E+02  0.00000000000E+00 0.  1.
</event>
<event>
 7    1  0.1312490E-005  0.2194878E+03  0.7561462E-02  0.1134266E+00
          3   -1    0    0  501    0  0.00000000000E+00  0.00000000000E+00  0.12885780856E+04  0.12885780856E+04  0.00000000000E+00 0. -1.
         -3   -1    0    0    0  501 -0.00000000000E+00 -0.00000000000E+00 -0.47005817925E+02  0.47005817925E+02  0.00000000000E+00 0.  1.
         23    2    1    2    0    0  0.59097094942E+02  0.20745934967E+03  0.51956987271E+03  0.57630901112E+03  0.12508946909E+03 0.  0.
          5    1    3    3  502    0 -0.47111190562E+01  0.68584260319E+02  0.57885178361E+02  0.89967559043E+02  0.41800000000E+01 0.  1.
         -5    1    3    3    0  502  0.63808213998E+02  0.13887508935E+03  0.46168469435E+03  0.48634145208E+03  0.41800000000E+01 0.  1.
        -11    1    1    2    0    0 -0.32866933210E+02 -0.15633391224E+03  0.37594199044E+03  0.40847632439E+03  0.00000000000E+00 0.  1.
         11    1    1    2    0    0 -0.26230161731E+02 -0.51125437432E+02  0.34606040454E+03  0.35079856802E+03  0.00000000000E+00 0. -1.
</event>
<event>
 7    1  0.1312490E-005  0.9363447E+02  0.7561462E-02  0.1294282E+00
         -4   -1    0    0    0  501 -0.00000000000E+00  0.00000000000E+00  0.11535973626E+03  0.11535973626E+03  0.00000000000E+00 0.  1.
          4   -1    0    0  501    0  0.00000000000E+00 -0.00000000000E+00 -0.33108683323E+03  0.33108683323E+03  0.00000000000E+00 0. -1.
         23    2    1    2    0    0 -0.44130545934E+02 -0.74008937272E+02  0.43679578849E+02  0.15805419671E+03  0.12509354742E+03 0.  0.
          5    1    3    3  502    0  0.32818933827E+01 -0.40176298239E+02  0.79721859744E+02  0.89431275768E+02  0.41800000000E+01 0. -1.
         -5    1    3    3    0  502 -0.47412439316E+02 -0.33832639033E+02 -0.36042280896E+02  0.68622920938E+02  0.41800000000E+01 0. -1.
        -11    1    1    2    0    0  0.30204179596E+01  0.21244023666E+02 -0.10131853595E+01  0.21481573749E+02  0.00000000000E+00 0.  1.
         11    1    1    2    0    0  0.41110127974E+02  0.52764913606E+02 -0.25839349046E+03  0.26691079903E+03  0.00000000000E+00 0. -1.
</event>
<event>
 7    1  0.1312490E-005  0.1095546E+03  0.7561462E-02  0.1261397E+00
         -2   -1    0    0    0  501 -0.00000000000E+00  0.00000000000E+00  0.42310200313E+03  0.42310200313E+03  0.00000000000E+00 0.  1.
          2   -1    0    0  501    0  0.00000000000E+00 -0.00000000000E+00 -0.31575618793E+02  0.31575618793E+02  0.00000000000E+00 0. -1.
         23    2    1    2    0    0  0.69620872594E+01 -0.29340399966E+02  0.27845205948E+03  0.30674651631E+03  0.12509414898E+03 0.  0.
          5    1    3    3  502    0  0.64541615900E+02 -0.23024132810E+02  0.17700065240E+03  0.18984845068E+03  0.41800000000E+01 0.  1.
         -5    1    3    3    0  502 -0.57579528640E+02 -0.63162671561E+01  0.10145140708E+03  0.11689806563E+03  0.41800000000E+01 0.  1.
        -11    1    1    2    0    0 -0.45557110335E+02  0.30035486972E+01  0.74332083958E+02  0.87233768188E+02  0.00000000000E+00 0.  1.
         11    1    1    2    0    0  0.38595023076E+02  0.26336851268E+02  0.38742240895E+02  0.60697337425E+02  0.00000000000E+00 0. -1.
</event>
<event>
 7    1  0.1312490E-005  0.9820974E+02  0.7561462E-02  0.1284106E+00
          2   -1    0    0  501    0  0.00000000000E+00  0.00000000000E+00  0.28956113129E+03  0.28956113129E+03  0.00000000000E+00 0. -1.
         -2   -1    0    0    0  501 -0.00000000000E+00 -0.00000000000E+00 -0.54967584126E+02  0.54967584126E+02  0.00000000000E+00 0.  1.
         23    2    1    2    0    0 -0.48653455482E+02  0.39098317834E+02  0.14646124869E+03  0.20217080976E+03  0.12460458163E+03 0.  0.
          5    1    3    3  502    0 -0.24581101573E+01  0.37916644771E+02  0.15079991326E+03  0.15556927876E+03  0.41800000000E+01 0. -1.
         -5    1    3    3    0  502 -0.46195345325E+02  0.11816730629E+01 -0.43386645671E+01  0.46601530996E+02  0.41800000000E+01 0.  1.
        -11    1    1    2    0    0 -0.26834806856E+02 -0.21238829024E+02  0.26619343360E+02  0.43356477697E+02  0.00000000000E+00 0.  1.
         11    1    1    2    0    0  0.75488262338E+02 -0.17859488810E+02  0.61512955113E+02  0.99001427960E+02  0.00000000000E+00 0. -1.
</event>
<event>
 7    1  0.1312490E-005  0.8082741E+02  0.7561462E-02  0.1326720E+00
         -1   -1    0    0    0  501 -0.00000000000E+00  0.00000000000E+00  0.51207840442E+03  0.51207840442E+03  0.00000000000E+00 0.  1.
          1   -1    0    0  501    0  0.00000000000E+00 -0.00000000000E+00 -0.26773836404E+02  0.26773836404E+02  0.00000000000E+00 0. -1.
         23    2    1    2    0    0 -0.68692051451E+01 -0.33833709681E+02  0.33968113512E+03  0.36362541874E+03  0.12509302820E+03 0.  0.
          5    1    3    3  502    0  0.46561790365E+01 -0.50062445251E+02  0.43121543216E+02  0.66369181983E+02  0.41800000000E+01 0.  1.
         -5    1    3    3    0  502 -0.11525384182E+02  0.16228735570E+02  0.29655959190E+03  0.29725623675E+03  0.41800000000E+01 0.  1.
        -11    1    1    2    0    0  0.42462466147E+02  0.10535320927E+01  0.10031709778E+03  0.10893893275E+03  0.00000000000E+00 0.  1.
         11    1    1    2    0    0 -0.35593261002E+02  0.32780177588E+02  0.45306335117E+02  0.66287889340E+02  0.00000000000E+00 0. -1.
</event>
<event>
 7    1  0.1312490E-005  0.1356956E+03  0.7561462E-02  0.1219241E+00
         -2   -1    0    0    0  501 -0.00000000000E+00  0.00000000000E+00  0.27352775479E+03  0.27352775479E+03  0.00000000000E+00 0. -1.
          2   -1    0    0  501    0  0.00000000000E+00 -0.00000000000E+00 -0.11000261225E+03  0.11000261225E+03  0.00000000000E+00 0.  1.
         23    2    1    2    0    0 -0.57047311090E+02 -0.41999261152E+02  0.18934583545E+03  0.23773416551E+03  0.12508938568E+03 0.  0.
          5    1    3    3  502    0 -0.72612058601E+02 -0.66711403857E+02  0.18245485754E+03  0.20743714687E+03  0.41800000000E+01 0. -1.
         -5    1    3    3    0  502  0.15564747512E+02  0.24712142705E+02  0.68909779013E+01  0.30297018642E+02  0.41800000000E+01 0. -1.
        -11    1    1    2    0    0 -0.31503182973E+02 -0.17951626922E+02 -0.10641745620E+02  0.37788334131E+02  0.00000000000E+00 0.  1.
         11    1    1    2    0    0  0.88550494063E+02  0.59950888074E+02 -0.15178947289E+02  0.10800786740E+03  0.00000000000E+00 0. -1.
</event>
<event>
 7    1  0.1312490E-005  0.1091538E+03  0.7561462E-02  0.1262145E+00
         -3   -1    0    0    0  501 -0.00000000000E+00  0.00000000000E+00  0.40631090389E+02  0.40631090389E+02  0.00000000000E+00 0.  1.
          3   -1    0    0  501    0  0.00000000000E+00 -0.00000000000E+00 -0.41110256800E+03  0.41110256800E+03  0.00000000000E+00 0. -1.
         23    2    1    2    0    0 -0.54285190546E+02  0.40839231495E+01 -0.12476576168E+03  0.18487209176E+03  0.12509050597E+03 0.  0.
          5    1    3    3  502    0 -0.46785931174E+02  0.56549283809E+02 -0.37096591069E+02  0.82343028387E+02  0.41800000000E+01 0.  1.
         -5    1    3    3    0  502 -0.74992593723E+01 -0.52465360659E+02 -0.87669170608E+02  0.10252906337E+03  0.41800000000E+01 0.  1.
        -11    1    1    2    0    0  0.46676811511E+02 -0.35920256355E+02 -0.21137338785E+03  0.21942583859E+03  0.00000000000E+00 0.  1.
         11    1    1    2    0    0  0.76083790352E+01  0.31836333205E+02 -0.34332328088E+02  0.47435728048E+02  0.00000000000E+00 0. -1.
</event>
<event>
 7    1  0.1312490E-005  0.1406409E+03  0.7561462E-02  0.1212469E+00
         -1   -1    0    0    0  501 -0.00000000000E+00  0.00000000000E+00  0.28169611114E+03  0.28169611114E+03  0.00000000000E+00 0. -1.
          1   -1    0    0  501    0  0.00000000000E+00 -0.00000000000E+00 -0.12096257941E+03  0.12096257941E+03  0.00000000000E+00 0.  1.
         23    2    1    2    0    0  0.40510742490E+02  0.13336214624E+03  0.14473476206E+03  0.23668747923E+03  0.12508488785E+03 0.  0.
          5    1    3    3  502    0  0.10697214659E+02  0.24525863335E+02  0.11742683407E+03  0.12050926161E+03  0.41800000000E+01 0. -1.
         -5    1    3    3    0  502  0.29813527831E+02  0.10883628291E+03  0.27307927990E+02  0.11617821762E+03  0.41800000000E+01 0. -1.
        -11    1    1    2    0    0 -0.40881443989E+02 -0.10165377171E+03 -0.26712142364E+02  0.11277553066E+03  0.00000000000E+00 0.  1.
         11    1    1    2    0    0  0.37070149864E+00 -0.31708374533E+02  0.42710912027E+02  0.53195680664E+02  0.00000000000E+00 0. -1.
</event>
<event>
 7    1  0.1312490E-005  0.1143348E+03  0.7561462E-02  0.1252747E+00
         -1   -1    0    0    0  501 -0.00000000000E+00  0.00000000000E+00  0.74732087238E+02  0.74732087238E+02  0.00000000000E+00 0.  1.
          1   -1    0    0  501    0  0.00000000000E+00 -0.00000000000E+00 -0.19724079097E+03  0.19724079097E+03  0.00000000000E+00 0. -1.
         23    2    1    2    0    0 -0.18004663469E+02 -0.48261914868E+02 -0.49009688524E+02  0.14388606299E+03  0.12509144344E+03 0.  0.
          5    1    3    3  502    0  0.52163678277E+02 -0.15613334124E+02 -0.35707026206E+02  0.65247909196E+02  0.41800000000E+01 0.  1.
         -5    1    3    3    0  502 -0.70168341746E+02 -0.32648580745E+02 -0.13302662318E+02  0.78638153798E+02  0.41800000000E+01 0.  1.
        -11    1    1    2    0    0  0.47310166630E+02  0.99939324021E+01 -0.61833190561E+02  0.78495057210E+02  0.00000000000E+00 0. -1.
         11    1    1    2    0    0 -0.29305503161E+02  0.38267982466E+02 -0.11665824650E+02  0.49591758008E+02  0.00000000000E+00 0.  1.
</event>
<event>
 7    1  0.1312490E-005  0.1101909E+03  0.7561462E-02  0.1260217E+00
          1   -1    0    0  501    0  0.00000000000E+00  0.00000000000E+00  0.70103187719E+03  0.70103187719E+03  0.00000000000E+00 0. -1.
         -1   -1    0    0    0  501 -0.00000000000E+00 -0.00000000000E+00 -0.24656377126E+02  0.24656377126E+02  0.00000000000E+00 0.  1.
         23    2    1    2    0    0 -0.69627907894E+02  0.10196225408E+02  0.32607158518E+03  0.35626142568E+03  0.12509003236E+03 0.  0.
          5    1    3    3  502    0 -0.78971792302E+02  0.28396072665E+02  0.10629593073E+03  0.13549604500E+03  0.41800000000E+01 0.  1.
         -5    1    3    3    0  502  0.93438844083E+01 -0.18199847257E+02  0.21977565445E+03  0.22076538068E+03  0.41800000000E+01 0.  1.
        -11    1    1    2    0    0  0.76512818595E+02 -0.38986520069E+02  0.28645441181E+03  0.29904897626E+03  0.00000000000E+00 0. -1.
         11    1    1    2    0    0 -0.68849107018E+01  0.28790294661E+02  0.63849503068E+02  0.70377852369E+02  0.00000000000E+00 0.  1.
</event>
<event>
 7    1  0.1312490E-005  0.1235222E+03  0.7561462E-02  0.1237397E+00
         -3   -1    0    0    0  501 -0.00000000000E+00  0.00000000000E+00  0.15673367836E+03  0.15673367836E+03  0.00000000000E+00 0.  1.
          3   -1    0    0  501    0  0.00000000000E+00 -0.00000000000E+00 -0.10746704446E+03  0.10746704446E+03  0.00000000000E+00 0. -1.
         23    2    1    2    0    0 -0.64754288626E+02 -0.22340605661E+02  0.49719090030E+02  0.15103457215E+03  0.12508890244E+03 0.  0.
          5    1    3    3  502    0 -0.75176892768E+02  0.35536044641E+02  0.34671971573E+02  0.90188656092E+02  0.41800000000E+01 0. -1.
         -5    1    3    3    0  502  0.10422604142E+02 -0.57876650302E+02  0.15047118457E+02  0.60845916059E+02  0.41800000000E+01 0. -1.
        -11    1    1    2    0    0  0.58349041847E+01 -0.27220321173E+02  0.19062033185E+02  0.33739488745E+02  0.00000000000E+00 0.  1.
         11    1    1    2    0    0  0.58919384441E+02  0.49560926834E+02 -0.19514489309E+02  0.79426661925E+02  0.00000000000E+00 0. -1.
</event>
<event>
 7    1  0.1312490E-005  0.1596515E+03  0.7561462E-02  0.1189091E+00
         -2   -1    0    0    0  501 -0.00000000000E+00  0.00000000000E+00  0.15695453720E+03  0.15695453720E+03  0.00000000000E+00 0.  1.
          2   -1    0    0  501    0  0.00000000000E+00 -0.00000000000E+00 -0.21053283053E+03  0.21053283053E+03  0.00000000000E+00 0. -1.
         23    2    1    2    0    0 -0.95407981867E+02  0.61608963505E+02  0.59576933429E+02  0.17915127500E+03  0.12508965164E+03 0.  0.
          5    1    3    3  502    0 -0.50505971140E+02  0.98354315904E+02  0.42505821658E+02  0.11852696677E+03  0.41800000000E+01 0. -1.
         -5    1    3    3    0  502 -0.44902010728E+02 -0.36745352399E+02  0.17071111771E+02  0.60624308222E+02  0.41800000000E+01 0. -1.
        -11    1    1    2    0    0  0.23329513145E+02 -0.73788300502E+02 -0.55425750525E+02  0.95189249896E+02  0.00000000000E+00 0.  1.
         11    1    1    2    0    0  0.72078468723E+02  0.12179336997E+02 -0.57729476234E+02  0.93146842831E+02  0.00000000000E+00 0. -1.
</event>
<event>
 7    1  0.1312490E-005  0.2125504E+03  0.7561462E-02  0.1139562E+00
          4   -1    0    0  501    0  0.00000000000E+00  0.00000000000E+00  0.35527045176E+02  0.35527045176E+02  0.00000000000E+00 0. -1.
         -4   -1    0    0    0  501 -0.00000000000E+00 -0.00000000000E+00 -0.15612577818E+04  0.15612577818E+04  0.00000000000E+00 0.  1.
         23    2    1    2    0    0 -0.73906382821E+02  0.18359292075E+03 -0.10133107860E+04  0.10400074966E+04  0.12509328473E+03 0.  0.
          5    1    3    3  502    0  0.26966409647E+02  0.66028308464E+02 -0.20816145393E+03  0.22008086711E+03  0.41800000000E+01 0.  1.
         -5    1    3    3    0  502 -0.10087279247E+03  0.11756461228E+03 -0.80514933209E+03  0.81992662945E+03  0.41800000000E+01 0.  1.
        -11    1    1    2    0    0  0.13248645288E+02 -0.18094424155E+02 -0.10415275161E+02  0.24726761699E+02  0.00000000000E+00 0. -1.
         11    1    1    2    0    0  0.60657737533E+02 -0.16549849659E+03 -0.50200467548E+03  0.53205056874E+03  0.00000000000E+00 0.  1.
</event>
<event>
 7    1  0.1312490E-005  0.9087153E+02  0.7561462E-02  0.1300755E+00
         -2   -1    0    0    0  501 -0.00000000000E+00  0.00000000000E+00  0.11913019273E+03  0.11913019273E+03  0.00000000000E+00 0.  1.
          2   -1    0    0  501    0  0.00000000000E+00 -0.00000000000E+00 -0.22531036114E+03  0.22531036114E+03  0.00000000000E+00 0. -1.
         23    2    1    2    0    0  0.46650186238E+02  0.41854112275E+02  0.54841081900E+02  0.15027635283E+03  0.12508969329E+03 0.  0.
          5    1    3    3  502    0  0.73088933829E+02  0.52408854175E+02  0.73293235157E+02  0.11609500835E+03  0.41800000000E+01 0. -1.
         -5    1    3    3    0  502 -0.26438747591E+02 -0.10554741900E+02 -0.18452153258E+02  0.34181344482E+02  0.41800000000E+01 0. -1.
        -11    1    1    2    0    0 -0.18062767350E+02 -0.12531902526E+02  0.55160335756E+01  0.22665806221E+02  0.00000000000E+00 0.  1.
         11    1    1    2    0    0 -0.28587418888E+02 -0.29322209750E+02 -0.16653728388E+03  0.17149839482E+03  0.00000000000E+00 0. -1.
</event>
<event>
 7    1  0.1312490E-005  0.5345821E+02  0.7561462E-02  0.1427534E+00
          1   -1    0    0  501    0  0.00000000000E+00  0.00000000000E+00  0.30537351543E+02  0.30537351543E+02  0.00000000000E+00 0. -1.
         -1   -1    0    0    0  501 -0.00000000000E+00 -0.00000000000E+00 -0.53367850407E+03  0.53367850407E+03  0.00000000000E+00 0.  1.
         23    2    1    2    0    0 -0.36719531036E+01  0.32704895469E+02 -0.40715965817E+03  0.42721104375E+03  0.12508874944E+03 0.  0.
          5    1    3    3  502    0 -0.24801452163E+01  0.53198540833E+01  0.82060992241E+01  0.10920825621E+02  0.41800000000E+01 0. -1.
         -5    1    3    3    0  502 -0.11918078873E+01  0.27385041385E+02 -0.41536575739E+03  0.41629021813E+03  0.41800000000E+01 0. -1.
        -11    1    1    2    0    0  0.10735570498E+02  0.17907945365E+02  0.70158221402E+01  0.22026546289E+02  0.00000000000E+00 0. -1.
         11    1    1    2    0    0 -0.70636173942E+01 -0.50612840834E+02 -0.10299731650E+03  0.11497826557E+03  0.00000000000E+00 0.  1.
</event>
<event>
 7    1  0.1312490E-005  0.2033154E+03  0.7561462E-02  0.1146972E+00
          2   -1    0    0  501    0  0.00000000000E+00  0.00000000000E+00  0.34719188162E+03  0.34719188162E+03  0.00000000000E+00 0. -1.
         -2   -1    0    0    0  501 -0.00000000000E+00 -0.00000000000E+00 -0.15874018055E+03  0.15874018055E+03  0.00000000000E+00 0.  1.
         23    2    1    2    0    0 -0.18115207352E+03  0.67727119879E+02  0.15597060812E+02  0.23085324879E+03  0.12508763992E+03 0.  0.
          5    1    3    3  502    0 -0.34959443434E+01  0.29264320313E+01 -0.34604728370E+02  0.35153168518E+02  0.41800000000E+01 0.  1.
         -5    1    3    3    0  502 -0.17765612918E+03  0.64800687848E+02  0.50201789182E+02  0.19570008027E+03  0.41800000000E+01 0.  1.
        -11    1    1    2    0    0  0.70119145483E+02  0.16373676567E+02  0.80235861871E+02  0.10780809514E+03  0.00000000000E+00 0. -1.
         11    1    1    2    0    0  0.11103292804E+03 -0.84100796446E+02  0.92618778391E+02  0.16727071825E+03  0.00000000000E+00 0.  1.
</event>
<event>
 7    1  0.1312490E-005  0.9093515E+02  0.7561462E-02  0.1300603E+00
         -1   -1    0    0    0  501 -0.00000000000E+00  0.00000000000E+00  0.58206189926E+03  0.58206189926E+03  0.00000000000E+00 0.  1.
          1   -1    0    0  501    0  0.00000000000E+00 -0.00000000000E+00 -0.48145935543E+02  0.48145935543E+02  0.00000000000E+00 0. -1.
         23    2    1    2    0    0  0.56049471691E+02 -0.39023040935E+02  0.48760593459E+03  0.50800729896E+03  0.12509007693E+03 0.  0.
          5    1    3    3  502    0  0.19754201879E+02 -0.13544455051E+02  0.69437684306E+01  0.25285748447E+02  0.41800000000E+01 0. -1.
         -5    1    3    3    0  502  0.36295269812E+02 -0.25478585884E+02  0.48066216616E+03  0.48272155051E+03  0.41800000000E+01 0. -1.
        -11    1    1    2    0    0 -0.43689420867E+02 -0.23275018105E+02  0.22433264958E+02  0.54348351770E+02  0.00000000000E+00 0.  1.
         11    1    1    2    0    0 -0.12360050824E+02  0.62298059039E+02  0.23876764164E+02  0.67852184073E+02  0.00000000000E+00 0. -1.
</event>
<event>
 7    1  0.1312490E-005  0.1394350E+03  0.7561462E-02  0.1214091E+00
          2   -1    0    0  501    0  0.00000000000E+00  0.00000000000E+00  0.73161225321E+03  0.73161225321E+03  0.00000000000E+00 0. -1.
         -2   -1    0    0    0  501 -0.00000000000E+00 -0.00000000000E+00 -0.29739998779E+02  0.29739998779E+02  0.00000000000E+00 0.  1.
         23    2    1    2    0    0  0.44815845484E+02  0.82981995450E+02  0.44172671620E+03  0.46868701141E+03  0.12510216339E+03 0.  0.
          5    1    3    3  502    0 -0.24691591487E+02 -0.19370579264E+02  0.11554471470E+03  0.11980378761E+03  0.41800000000E+01 0.  1.
         -5    1    3    3    0  502  0.69507436970E+02  0.10235257471E+03  0.32618200150E+03  0.34888322380E+03  0.41800000000E+01 0.  1.
        -11    1    1    2    0    0  0.13406350063E+02 -0.58906453344E+02  0.18493609104E+03  0.19455348426E+03  0.00000000000E+00 0. -1.
         11    1    1    2    0    0 -0.58222195547E+02 -0.24075542106E+02  0.75209447195E+02  0.98111756326E+02  0.00000000000E+00 0.  1.
</event>
<event>
 7    1  0.1312490E-005  0.1479310E+03  0.7561462E-02  0.1203039E+00
         -2   -1    0    0    0  501 -0.00000000000E+00  0.00000000000E+00  0.69763927979E+02  0.69763927979E+02  0.00000000000E+00 0. -1.
          2   -1    0    0  501    0  0.00000000000E+00 -0.00000000000E+00 -0.36160529418E+03  0.36160529418E+03  0.00000000000E+00 0.  1.
         23    2    1    2    0    0 -0.33474580563E+02 -0.95732746263E+02 -0.80444097277E+02  0.18001127153E+03  0.12508996299E+03 0.  0.
          5    1    3    3  502    0  0.37669217435E+02  0.34556825215E+01 -0.27175036358E+02  0.46763946422E+02  0.41800000000E+01 0.  1.
         -5    1    3    3    0  502 -0.71143797998E+02 -0.99188428784E+02 -0.53269060919E+02  0.13324732511E+03  0.41800000000E+01 0.  1.
        -11    1    1    2    0    0  0.59900197146E+02  0.90812147744E+02 -0.16236671847E+03  0.19544265415E+03  0.00000000000E+00 0.  1.
         11    1    1    2    0    0 -0.26425616583E+02  0.49205985190E+01 -0.49030550456E+02  0.55915296473E+02  0.00000000000E+00 0. -1.
</event>
<event>
 7    1  0.1312490E-005  0.1292562E+03  0.7561462E-02  0.1228564E+00
          1   -1    0    0  501    0  0.00000000000E+00  0.00000000000E+00  0.51331803888E+03  0.51331803888E+03  0.00000000000E+00 0. -1.
         -1   -1    0    0    0  501 -0.00000000000E+00 -0.00000000000E+00 -0.35296331032E+02  0.35296331032E+02  0.00000000000E+00 0.  1.
         23    2    1    2    0    0 -0.56585132615E+02 -0.53065590418E+02  0.22237162839E+03  0.26667549023E+03  0.12509533108E+03 0.  0.
          5    1    3    3  502    0  0.23764510790E+02  0.22943141539E+02  0.30425756296E+02  0.45103644675E+02  0.41800000000E+01 0.  1.
         -5    1    3    3    0  502 -0.80349643405E+02 -0.76008731957E+02  0.19194587209E+03  0.22157184555E+03  0.41800000000E+01 0.  1.
        -11    1    1    2    0    0 -0.90542745402E+01  0.47836238414E+02  0.14742557547E+03  0.15525651643E+03  0.00000000000E+00 0. -1.
         11    1    1    2    0    0  0.65639407155E+02  0.52293520038E+01  0.10822450400E+03  0.12668236325E+03  0.00000000000E+00 0.  1.
</event>
<event>
 7    1  0.1312490E-005  0.8956312E+02  0.7561462E-02  0.1303913E+00
          1   -1    0    0  501    0  0.00000000000E+00  0.00000000000E+00  0.36811875603E+02  0.36811875603E+02  0.00000000000E+00 0. -1.
         -1   -1    0    0    0  501 -0.00000000000E+00 -0.00000000000E+00 -0.31362185362E+03  0.31362185362E+03  0.00000000000E+00 0.  1.
         23    2    1    2    0    0 -0.16326514769E+02  0.14889938181E+01 -0.19156421725E+03  0.22937506588E+03  0.12508916551E+03 0.  0.
          5    1    3    3  502    0 -0.63149757559E+02  0.27902877795E+02 -0.13204018191E+03  0.14905886256E+03  0.41800000000E+01 0. -1.
         -5    1    3    3    0  502  0.46823242790E+02 -0.26413883977E+02 -0.59524035335E+02  0.80316203314E+02  0.41800000000E+01 0. -1.
        -11    1    1    2    0    0 -0.10038053825E+02  0.19768640950E+02 -0.84312348666E+02  0.87178746419E+02  0.00000000000E+00 0.  1.
         11    1    1    2    0    0  0.26364568594E+02 -0.21257634768E+02 -0.93341210667E+00  0.33879916931E+02  0.00000000000E+00 0. -1.
</event>
<event>
 7    1  0.1312490E-005  0.1134161E+03  0.7561462E-02  0.1254371E+00
         -2   -1    0    0    0  501 -0.00000000000E+00  0.00000000000E+00  0.35519092597E+02  0.35519092597E+02  0.00000000000E+00 0.  1.
          2   -1    0    0  501    0  0.00000000000E+00 -0.00000000000E+00 -0.38812276335E+03  0.38812276335E+03  0.00000000000E+00 0. -1.
         23    2    1    2    0    0  0.89617041029E+01  0.43058753759E+02 -0.17379516669E+03  0.21860463643E+03  0.12509539835E+03 0.  0.
          5    1    3    3  502    0  0.63485139730E+02  0.11295172753E+01 -0.86752901673E+02  0.10758799712E+03  0.41800000000E+01 0. -1.
         -5    1    3    3    0  502 -0.54523435627E+02  0.41929236484E+02 -0.87042265015E+02  0.11101663931E+03  0.41800000000E+01 0. -1.
        -11    1    1    2    0    0 -0.45959213533E+02 -0.16846803918E+02 -0.57396333509E+02  0.75434761292E+02  0.00000000000E+00 0.  1.
         11    1    1    2    0    0  0.36997509430E+02 -0.26211949842E+02 -0.12141217055E+03  0.12960245822E+03  0.00000000000E+00 0. -1.
</event>
<event>
 7    1  0.1312490E-005  0.9220878E+02  0.7561462E-02  0.1297589E+00
         -2   -1    0    0    0  501 -0.00000000000E+00  0.00000000000E+00  0.99627772521E+02  0.99627772521E+02  0.00000000000E+00 0.  1.
          2   -1    0    0  501    0  0.00000000000E+00 -0.00000000000E+00 -0.12648497547E+03  0.12648497547E+03  0.00000000000E+00 0. -1.
         23    2    1    2    0    0 -0.24033852284E+02  0.13685923737E+02 -0.28936527447E+02  0.13132795151E+03  0.12507908564E+03 0.  0.
          5    1    3    3  502    0 -0.18646971756E+02  0.69388415081E+02 -0.15429593145E+02  0.73607108677E+02  0.41800000000E+01 0.  1.
         -5    1    3    3    0  502 -0.53868805280E+01 -0.55702491344E+02 -0.13506934303E+02  0.57720842838E+02  0.41800000000E+01 0.  1.
        -11    1    1    2    0    0 -0.68440008504E+01 -0.23063153895E+02  0.38953834589E+02  0.45783737773E+02  0.00000000000E+00 0.  1.
         11    1    1    2    0    0  0.30877853134E+02  0.93772301580E+01 -0.36874510095E+02  0.49001058707E+02  0.00000000000E+00 0. -1.
</event>
<event>
 7    1  0.1312490E-005  0.9772099E+02  0.7561462E-02  0.1285163E+00
          1   -1    0    0  501    0  0.00000000000E+00  0.00000000000E+00  0.12788591232E+04  0.12788591232E+04  0.00000000000E+00 0. -1.
         -1   -1    0    0    0  501 -0.00000000000E+00 -0.00000000000E+00 -0.93484282462E+01  0.93484282462E+01  0.00000000000E+00 0.  1.
         23    2    1    2    0    0 -0.11999078286E+02  0.20917239323E+01  0.74972641073E+03  0.76018986646E+03  0.12510231388E+03 0.  0.
          5    1    3    3  502    0 -0.38891429516E+02 -0.37738750892E+02  0.60908150361E+03  0.61150184550E+03  0.41800000000E+01 0. -1.
         -5    1    3    3    0  502  0.26892351230E+02  0.39830474824E+02  0.14064490712E+03  0.14868802096E+03  0.41800000000E+01 0. -1.
        -11    1    1    2    0    0  0.41590440729E+02 -0.30696632318E+02  0.29632552551E+03  0.30080037411E+03  0.00000000000E+00 0. -1.
         11    1    1    2    0    0 -0.29591362443E+02  0.28604908386E+02  0.22345875875E+03  0.22721731091E+03  0.00000000000E+00 0.  1.
</event>
<event>
 7    1  0.1312490E-005  0.1106321E+03  0.7561462E-02  0.1259404E+00
         -2   -1    0    0    0  501 -0.00000000000E+00  0.00000000000E+00  0.11127302348E+03  0.11127302348E+03  0.00000000000E+00 0.  1.
          2   -1    0    0  501    0  0.00000000000E+00 -0.00000000000E+00 -0.16680755927E+03  0.16680755927E+03  0.00000000000E+00 0. -1.
         23    2    1    2    0    0 -0.68004071469E+01  0.80615988248E+02 -0.16324863946E+02  0.14986422956E+03  0.12509037940E+03 0.  0.
          5    1    3    3  502    0  0.33183307213E+02  0.71336249902E+02  0.33120555235E+02  0.85465993277E+02  0.41800000000E+01 0. -1.
         -5    1    3    3    0  502 -0.39983714360E+02  0.92797383460E+01 -0.49445419182E+02  0.64398236279E+02  0.41800000000E+01 0. -1.
        -11    1    1    2    0    0  0.32229721035E+02 -0.61399301395E+02 -0.58702234899E+02  0.90854727515E+02  0.00000000000E+00 0. -1.
         11    1    1    2    0    0 -0.25429313888E+02 -0.19216686853E+02  0.19492563055E+02  0.37361625672E+02  0.00000000000E+00 0.  1.
</event>
<event>
 6    1  0.1312490E-005  0.1140854E+03  0.7561462E-02  0.1253186E+00
          2   -1    0    0  501    0  0.00000000000E+00  0.00000000000E+00  0.32334975825E+03  0.32334975825E+03  0.00000000000E+00 0. -1.
         -2   -1    0    0    0  501 -0.00000000000E+00 -0.00000000000E+00 -0.50049917373E+02  0.50049917373E+02  0.00000000000E+00 0.  1.
          5    1    1    2  502    0  0.14325085034E+02  0.71955571927E+02  0.95308998965E+02  0.12034986529E+03  0.41800000000E+01 0. -1.
         -5    1    1    2    0  502 -0.30499317030E+00 -0.70892071253E+02  0.26767638534E+02  0.75893067272E+02  0.41800000000E+01 0.  1.
        -11    1    1    2    0    0  0.71474186268E+01 -0.39310198169E+02  0.11015735938E+03  0.11717943974E+03  0.00000000000E+00 0. -1.
         11    1    1    2    0    0 -0.21167510491E+02  0.38246697495E+02  0.41065844003E+02  0.59977303318E+02  0.00000000000E+00 0.  1.
</event>
<event>
 7    1  0.1312490E-005  0.1044434E+03  0.7561462E-02  0.1271220E+00
         -1   -1    0    0    0  501 -0.00000000000E+00  0.00000000000E+00  0.39628555031E+03  0.39628555031E+03  0.00000000000E+00 0.  1.
          1   -1    0    0  501    0  0.00000000000E+00 -0.00000000000E+00 -0.32574175477E+02  0.32574175477E+02  0.00000000000E+00 0. -1.
         23    2    1    2    0    0 -0.58862948674E+01 -0.26994030480E+02  0.24397996158E+03  0.27556528135E+03  0.12508667589E+03 0.  0.
          5    1    3    3  502    0  0.51236393114E+01 -0.71031478272E+02  0.89234721785E+02  0.11424548375E+03  0.41800000000E+01 0. -1.
         -5    1    3    3    0  502 -0.11009934179E+02  0.44037447792E+02  0.15474523980E+03  0.16131979760E+03  0.41800000000E+01 0. -1.
        -11    1    1    2    0    0  0.24236222187E+02  0.54070980026E+02  0.55368698462E+02  0.81097213985E+02  0.00000000000E+00 0.  1.
         11    1    1    2    0    0 -0.18349927320E+02 -0.27076949546E+02  0.64362714789E+02  0.72197230448E+02  0.00000000000E+00 0. -1.
</event>
<event>
 7    1  0.1312490E-005  0.1090619E+03  0.7561462E-02  0.1262317E+00
          4   -1    0    0  501    0  0.00000000000E+00  0.00000000000E+00  0.10441868325E+03  0.10441868325E+03  0.00000000000E+00 0. -1.
         -4   -1    0    0    0  501 -0.00000000000E+00 -0.00000000000E+00 -0.13148541254E+03  0.13148541254E+03  0.00000000000E+00 0.  1.
         23    2    1    2    0    0 -0.31970892646E+01  0.39888401567E+02 -0.34879184056E+02  0.13588654510E+03  0.12508912702E+03 0.  0.
          5    1    3    3  502    0 -0.25104738561E+02 -0.35047385917E+02 -0.38028823829E+02  0.57638797694E+02  0.41800000000E+01 0. -1.
         -5    1    3    3    0  502  0.21907649297E+02  0.74935787484E+02  0.31496397726E+01  0.78247747407E+02  0.41800000000E+01 0. -1.
        -11    1    1    2    0    0 -0.37009312091E+02 -0.42475078044E+02 -0.76684235071E+01  0.56856188364E+02  0.00000000000E+00 0.  1.
         11    1    1    2    0    0  0.40206401356E+02  0.25866764768E+01  0.15480878279E+02  0.43161362322E+02  0.00000000000E+00 0. -1.
</event>
<event>
 7    1  0.1312490E-005  0.1190721E+03  0.7561462E-02  0.1244636E+00
         -3   -1    0    0    0  501 -0.00000000000E+00  0.00000000000E+00  0.29440582613E+03  0.29440582613E+03  0.00000000000E+00 0.  1.
          3   -1    0    0  501    0  0.00000000000E+00 -0.00000000000E+00 -0.69831026916E+02  0.69831026916E+02  0.00000000000E+00 0. -1.
         23    2    1    2    0    0  0.35640571408E+01 -0.92106137803E+02  0.14049519926E+03  0.20948303716E+03  0.12509196104E+03 0.  0.
          5    1    3    3  502    0  0.48979320132E+01 -0.11695964181E+03  0.14214573765E+03  0.18419128829E+03  0.41800000000E+01 0. -1.
         -5    1    3    3    0  502 -0.13338748724E+01  0.24853504010E+02 -0.16505383881E+01  0.25291748866E+02  0.41800000000E+01 0. -1.
        -11    1    1    2    0    0 -0.14852644508E+02  0.56294340045E+02 -0.46500891846E+01  0.58406139227E+02  0.00000000000E+00 0. -1.
         11    1    1    2    0    0  0.11288587367E+02  0.35811797758E+02  0.88729689141E+02  0.96347676664E+02  0.00000000000E+00 0.  1.
</event>
<event>
 7    1  0.1312490E-005  0.1541097E+03  0.7561462E-02  0.1195512E+00
          2   -1    0    0  501    0  0.00000000000E+00  0.00000000000E+00  0.11672583016E+03  0.11672583016E+03  0.00000000000E+00 0. -1.
         -2   -1    0    0    0  501 -0.00000000000E+00 -0.00000000000E+00 -0.33829681148E+03  0.33829681148E+03  0.00000000000E+00 0.  1.
         23    2    1    2    0    0 -0.83229135087E+02  0.79850669556E+02 -0.25107096735E+03  0.30329400186E+03  0.12508957813E+03 0.  0.
          5    1    3    3  502    0 -0.88260046327E+02  0.10794814303E+03 -0.18959441078E+03  0.23538511074E+03  0.41800000000E+01 0.  1.
         -5    1    3    3    0  502  0.50309112406E+01 -0.28097473475E+02 -0.61476556579E+02  0.67908891115E+02  0.41800000000E+01 0.  1.
        -11    1    1    2    0    0  0.18771387616E+01  0.14882910815E+02 -0.12973269785E+02  0.19832559420E+02  0.00000000000E+00 0.  1.
         11    1    1    2    0    0  0.81351996325E+02 -0.94733580371E+02  0.42473255814E+02  0.13189608036E+03  0.00000000000E+00 0. -1.
</event>
<event>
 7    1  0.1312490E-005  0.1140470E+03  0.7561462E-02  0.1253254E+00
          2   -1    0    0  501    0  0.00000000000E+00  0.00000000000E+00  0.23771677145E+03  0.23771677145E+03  0.00000000000E+00 0. -1.
         -2   -1    0    0    0  501 -0.00000000000E+00 -0.00000000000E+00 -0.11345520184E+03  0.11345520184E+03  0.00000000000E+00 0.  1.
         23    2    1    2    0    0  0.17649863675E+01 -0.86337052302E+02 -0.26823009968E+02  0.15434908412E+03  0.12508782565E+03 0.  0.
          5    1    3    3  502    0  0.45997492495E+02 -0.19188202863E+02 -0.49839233686E+02  0.70607209684E+02  0.41800000000E+01 0.  1.
         -5    1    3    3    0  502 -0.44232506127E+02 -0.67148849438E+02  0.23016223718E+02  0.83741874432E+02  0.41800000000E+01 0.  1.
        -11    1    1    2    0    0 -0.23426154635E+02  0.50859949999E+02  0.20251432331E+02  0.59545274761E+02  0.00000000000E+00 0. -1.
         11    1    1    2    0    0  0.21661168268E+02  0.35477102303E+02  0.13083314725E+03  0.13727761441E+03  0.00000000000E+00 0.  1.
</event>
<event>
 7    1  0.9059315E-005  0.4667556E+03  0.7561462E-02  0.1022840E+00
         -2   -1    0    0    0  501 -0.00000000000E+00  0.00000000000E+00  0.14067330098E+03  0.14067330098E+03  0.00000000000E+00 0.  1.
          2   -1    0    0  501    0  0.00000000000E+00 -0.00000000000E+00 -0.17331132326E+04  0.17331132326E+04  0.00000000000E+00 0. -1.
         23    2    1    2    0    0  0.15538248624E+03  0.43751444606E+03 -0.56018273629E+03  0.73825104810E+03  0.12508918593E+03 0.  0.
          5    1    3    3  502    0  0.11309728504E+03  0.32329955825E+03 -0.48927098387E+03  0.59725804164E+03  0.41800000000E+01 0.  1.
         -5    1    3    3    0  502  0.42285201199E+02  0.11421488781E+03 -0.70911752423E+02  0.14099300646E+03  0.41800000000E+01 0.  1.
        -11    1    1    2    0    0 -0.15091680914E+03 -0.34590478486E+03 -0.88419179608E+03  0.96136420556E+03  0.00000000000E+00 0. -1.
         11    1    1    2    0    0 -0.44656770969E+01 -0.91609661204E+02 -0.14806539929E+03  0.17417127996E+03  0.00000000000E+00 0.  1.
</event>
<event>
 7    1  0.1312490E-005  0.1122091E+03  0.7561462E-02  0.1256533E+00
         -2   -1    0    0    0  501 -0.00000000000E+00  0.00000000000E+00  0.21023969433E+02  0.21023969433E+02  0.00000000000E+00 0.  1.
          2   -1    0    0  501    0  0.00000000000E+00 -0.00000000000E+00 -0.71157880143E+03  0.71157880143E+03  0.00000000000E+00 0. -1.
         23    2    1    2    0    0  0.26392678332E+02 -0.48327854281E+02 -0.35664031407E+03  0.38193627153E+03  0.12510334498E+03 0.  0.
          5    1    3    3  502    0  0.20319626543E+01 -0.81005803093E+02 -0.14311824906E+03  0.16451861482E+03  0.41800000000E+01 0.  1.
         -5    1    3    3    0  502  0.24360715677E+02  0.32677948812E+02 -0.21352206501E+03  0.21741765672E+03  0.41800000000E+01 0.  1.
        -11    1    1    2    0    0 -0.99257190244E+01  0.72435027988E+02 -0.18511284382E+03  0.19902793302E+03  0.00000000000E+00 0.  1.
         11    1    1    2    0    0 -0.16466959307E+02 -0.24107173707E+02 -0.14880167412E+03  0.15163856631E+03  0.00000000000E+00 0. -1.
</event>
<event>
 7    1  0.1312490E-005  0.1830205E+03  0.7561462E-02  0.1164911E+00
          4   -1    0    0  501    0  0.00000000000E+00  0.00000000000E+00  0.85866357768E+02  0.85866357768E+02  0.00000000000E+00 0. -1.
         -4   -1    0    0    0  501 -0.00000000000E+00 -0.00000000000E+00 -0.61502790419E+03  0.61502790419E+03  0.00000000000E+00 0.  1.
         23    2    1    2    0    0  0.12268530882E+03  0.95594278821E+02 -0.46850199847E+03  0.50924604684E+03  0.12508981775E+03 0.  0.
          5    1    3    3  502    0  0.13655859695E+03  0.60380236341E+02 -0.28431727713E+03  0.32116632734E+03  0.41800000000E+01 0.  1.
         -5    1    3    3    0  502 -0.13873288133E+02  0.35214042480E+02 -0.18418472134E+03  0.18807971950E+03  0.41800000000E+01 0.  1.
        -11    1    1    2    0    0 -0.61100603411E+01 -0.54718021768E+02 -0.25175731141E+01  0.55115632247E+02  0.00000000000E+00 0. -1.
         11    1    1    2    0    0 -0.11657524848E+03 -0.40876257053E+02 -0.58141974841E+02  0.13653258288E+03  0.00000000000E+00 0.  1.
</event>
<event>
 7    1  0.1312490E-005  0.1214158E+03  0.7561462E-02  0.1240780E+00
         -1   -1    0    0    0  501 -0.00000000000E+00  0.00000000000E+00  0.54403097079E+02  0.54403097079E+02  0.00000000000E+00 0.  1.
          1   -1    0    0  501    0  0.00000000000E+00 -0.00000000000E+00 -0.31969263009E+03  0.31969263009E+03  0.00000000000E+00 0. -1.
         23    2    1    2    0    0  0.30440328649E+02 -0.67369255580E+02 -0.13541964222E+03  0.19862180792E+03  0.12508762080E+03 0.  0.
          5    1    3    3  502    0 -0.37417615312E+02  0.44232737693E+01 -0.71371788800E+02  0.80814899140E+02  0.41800000000E+01 0. -1.
         -5    1    3    3    0  502  0.67857943962E+02 -0.71792529349E+02 -0.64047853417E+02  0.11780690878E+03  0.41800000000E+01 0. -1.
        -11    1    1    2    0    0  0.18718737824E+02 -0.42350445353E+01  0.54219892331E-01  0.19191917250E+02  0.00000000000E+00 0.  1.
         11    1    1    2    0    0 -0.49159066473E+02  0.71604300115E+02 -0.12992411069E+03  0.15628200200E+03  0.00000000000E+00 0. -1.
</event>
<event>
 6    1  0.1312490E-005  0.8628035E+02  0.7561462E-02  0.1312118E+00
          1   -1    0    0  501    0  0.00000000000E+00  0.00000000000E+00  0.23053486103E+03  0.23053486103E+03  0.00000000000E+00 0. -1.
         -1   -1    0    0    0  501 -0.00000000000E+00 -0.00000000000E+00 -0.22937111717E+03  0.22937111717E+03  0.00000000000E+00 0.  1.
          5    1    1    2  502    0  0.10525047582E+02  0.48204389083E+02 -0.12956371511E+02  0.51183783723E+02  0.41800000000E+01 0. -1.
         -5    1    1    2    0  502  0.21625643563E+02 -0.28285570321E+02 -0.18408497766E+03  0.18754331059E+03  0.41800000000E+01 0.  1.
        -11    1    1    2    0    0 -0.89406624283E+01  0.30449676145E+02  0.28543627426E+02  0.42683215538E+02  0.00000000000E+00 0.  1.
         11    1    1    2    0    0 -0.23210028717E+02 -0.50368494906E+02  0.16966146560E+03  0.17849566835E+03  0.00000000000E+00 0. -1.
</event>
<event>
 7    1  0.1312490E-005  0.9582389E+02  0.7561462E-02  0.1289331E+00
          2   -1    0    0  501    0  0.00000000000E+00  0.00000000000E+00  0.87303024093E+02  0.87303024093E+02  0.00000000000E+00 0. -1.
         -2   -1    0    0    0  501 -0.00000000000E+00 -0.00000000000E+00 -0.19654738283E+03  0.19654738283E+03  0.00000000000E+00 0.  1.
         23    2    1    2    0    0  0.39603539581E+02 -0.52771498589E+01 -0.12612137473E+03  0.18207306396E+03  0.12509081021E+03 0.  0.
          5    1    3    3  502    0 -0.33047186326E+02  0.13315400284E+02 -0.69759555247E+00  0.35880014609E+02  0.41800000000E+01 0.  1.
         -5    1    3    3    0  502  0.72650725907E+02 -0.18592550143E+02 -0.12542377917E+03  0.14619304935E+03  0.41800000000E+01 0.  1.
        -11    1    1    2    0    0 -0.41027415869E+02  0.33156502207E+02  0.39455509745E+02  0.65873665001E+02  0.00000000000E+00 0. -1.
         11    1    1    2    0    0  0.14238762880E+01 -0.27879352348E+02 -0.22578493755E+02  0.35903677963E+02  0.00000000000E+00 0.  1.
</event>
<event>
 7    1  0.1312490E-005  0.1130184E+03  0.7561462E-02  0.1255080E+00
         -1   -1    0    0    0  501 -0.00000000000E+00  0.00000000000E+00  0.14873523766E+03  0.14873523766E+03  0.00000000000E+00 0.  1.
          1   -1    0    0  501    0  0.00000000000E+00 -0.00000000000E+00 -0.12499715581E+03  0.12499715581E+03  0.00000000000E+00 0. -1.
         23    2    1    2    0    0 -0.39600124425E+02  0.52053001745E+02  0.73504669508E+02  0.14884160583E+03  0.11168349180E+03 0.  0.
          5    1    3    3  502    0  0.22088036404E+02  0.44131643672E+02  0.70857041069E+02  0.86450425068E+02  0.41800000000E+01 0. -1.
         -5    1    3    3    0  502 -0.61688160828E+02  0.79213580728E+01  0.26476284388E+01  0.62391180759E+02  0.41800000000E+01 0.  1.
        -11    1    1    2    0    0 -0.29990617307E+01  0.25508654658E+02 -0.70764112614E+01  0.26641348128E+02  0.00000000000E+00 0.  1.
         11    1    1    2    0    0  0.42599186156E+02 -0.77561656403E+02 -0.42690176398E+02  0.98249439520E+02  0.00000000000E+00 0. -1.
</event>
<event>
 6    1  0.1312490E-005  0.1692643E+03  0.7561462E-02  0.1178617E+00
          2   -1    0    0  501    0  0.00000000000E+00  0.00000000000E+00  0.81543696525E+03  0.81543696525E+03  0.00000000000E+00 0. -1.
         -2   -1    0    0    0  501 -0.00000000000E+00 -0.00000000000E+00 -0.39320781996E+02  0.39320781996E+02  0.00000000000E+00 0.  1.
          5    1    1    2  502    0  0.16088486141E+03  0.16796998623E+02  0.36272537308E+03  0.39718162907E+03  0.41800000000E+01 0. -1.
         -5    1    1    2    0  502 -0.74725165221E+02 -0.43255619836E+02  0.10535063260E+03  0.13627592287E+03  0.41800000000E+01 0.  1.
        -11    1    1    2    0    0 -0.15308116202E+02  0.27066234977E+01  0.36664715574E+02  0.39824183614E+02  0.00000000000E+00 0.  1.
         11    1    1    2    0    0 -0.70851579989E+02  0.23751997716E+02  0.27137546200E+03  0.28147601169E+03  0.00000000000E+00 0. -1.
</event>
<event>
 7    1  0.1312490E-005  0.6276530E+02  0.7561462E-02  0.1386580E+00
          4   -1    0    0  501    0  0.00000000000E+00  0.00000000000E+00  0.94845601297E+02  0.94845601297E+02  0.00000000000E+00 0.  1.
         -4   -1    0    0    0  501 -0.00000000000E+00 -0.00000000000E+00 -0.13577316429E+03  0.13577316429E+03  0.00000000000E+00 0. -1.
         23    2    1    2    0    0  0.20168223263E+02 -0.41824779255E+02 -0.14845592081E+02  0.13421585302E+03  0.12504972694E+03 0.  0.
          5    1    3    3  502    0  0.27340914255E+02  0.61660422200E+01  0.47373217184E+02  0.55201809529E+02  0.41800000000E+01 0. -1.
         -5    1    3    3    0  502 -0.71726909920E+01 -0.47990821475E+02 -0.62218809265E+02  0.79014043488E+02  0.41800000000E+01 0. -1.
        -11    1    1    2    0    0  0.76043814865E+00  0.12167202351E+02  0.28417368560E+02  0.30921932590E+02  0.00000000000E+00 0.  1.
         11    1    1    2    0    0 -0.20928661411E+02  0.29657576904E+02 -0.54499339469E+02  0.65480979977E+02  0.00000000000E+00 0. -1.
</event>
<event>
 7    1  0.1312490E-005  0.1145839E+03  0.7561462E-02  0.1252309E+00
         -2   -1    0    0    0  501 -0.00000000000E+00  0.00000000000E+00  0.19236761069E+04  0.19236761069E+04  0.00000000000E+00 0. -1.
          2   -1    0    0  501    0  0.00000000000E+00 -0.00000000000E+00 -0.83195677595E+01  0.83195677595E+01  0.00000000000E+00 0.  1.
         23    2    1    2    0    0 -0.42922699779E+02  0.21568803267E+02  0.14730229050E+04  0.14791028869E+04  0.12506518291E+03 0.  0.
          5    1    3    3  502    0 -0.69124324297E+02 -0.29248532392E+02  0.94191108294E+03  0.94490613789E+03  0.41800000000E+01 0. -1.
         -5    1    3    3    0  502  0.26201624517E+02  0.50817335659E+02  0.53111182208E+03  0.53419674904E+03  0.41800000000E+01 0. -1.
        -11    1    1    2    0    0 -0.25604537644E+02 -0.78395378962E+01  0.10193115421E+03  0.10538980454E+03  0.00000000000E+00 0.  1.
         11    1    1    2    0    0  0.68527237424E+02 -0.13729265371E+02  0.34040247987E+03  0.34750298315E+03  0.00000000000E+00 0. -1.
</event>
<event>
 7    1  0.1332857E-005  0.3175445E+03  0.7561462E-02  0.1076785E+00
         -1   -1    0    0    0  501 -0.00000000000E+00  0.00000000000E+00  0.35697569176E+03  0.35697569176E+03  0.00000000000E+00 0.  1.
          1   -1    0    0  501    0  0.00000000000E+00 -0.00000000000E+00 -0.31542416828E+03  0.31542416828E+03  0.00000000000E+00 0. -1.
         23    2    1    2    0    0 -0.15829486006E+03  0.25686063529E+03  0.12006655498E+03  0.34799096538E+03  0.12508831153E+03 0.  0.
          5    1    3    3  502    0 -0.11989574464E+03  0.84233732759E+02  0.78477338267E+02  0.16627229576E+03  0.41800000000E+01 0.  1.
         -5    1    3    3    0  502 -0.38399115424E+02  0.17262690253E+03  0.41589216718E+02  0.18171866962E+03  0.41800000000E+01 0.  1.
        -11    1    1    2    0    0  0.81633051294E+02 -0.20042476163E+03 -0.33073443702E+02  0.21892439978E+03  0.00000000000E+00 0.  1.
         11    1    1    2    0    0  0.76661808766E+02 -0.56435873651E+02 -0.45441587809E+02  0.10548449488E+03  0.00000000000E+00 0. -1.
</event>
<event>
 7    1  0.1312490E-005  0.1268740E+03  0.7561462E-02  0.1232169E+00
          2   -1    0    0  501    0  0.00000000000E+00  0.00000000000E+00  0.46474932885E+02  0.46474932885E+02  0.00000000000E+00 0.  1.
         -2   -1    0    0    0  501 -0.00000000000E+00 -0.00000000000E+00 -0.43712778305E+03  0.43712778305E+03  0.00000000000E+00 0. -1.
         23    2    1    2    0    0 -0.38919877155E+02 -0.74570110827E+02 -0.27995894859E+03  0.31796142845E+03  0.12508796434E+03 0.  0.
          5    1    3    3  502    0  0.34846858321E+01  0.25854393324E+02 -0.12919423350E+03  0.13186817304E+03  0.41800000000E+01 0. -1.
         -5    1    3    3    0  502 -0.42404562988E+02 -0.10042450415E+03 -0.15076471508E+03  0.18609325541E+03  0.41800000000E+01 0. -1.
        -11    1    1    2    0    0 -0.17310571714E+02  0.56625560764E+02 -0.78749411416E+02  0.98527051226E+02  0.00000000000E+00 0. -1.
         11    1    1    2    0    0  0.56230448870E+02  0.17944550062E+02 -0.31944490162E+02  0.67114236260E+02  0.00000000000E+00 0.  1.
</event>
<event>
 7    1  0.1312490E-005  0.7934623E+02  0.7561462E-02  0.1330917E+00
          4   -1    0    0  501    0  0.00000000000E+00  0.00000000000E+00  0.47511770160E+03  0.47511770160E+03  0.00000000000E+00 0. -1.
         -4   -1    0    0    0  501 -0.00000000000E+00 -0.00000000000E+00 -0.51491426450E+02  0.51491426450E+02  0.00000000000E+00 0.  1.
         23    2    1    2    0    0 -0.36478300491E+02 -0.36977142131E+02  0.60193251283E+02  0.14821954100E+03  0.12509128422E+03 0.  0.
          5    1    3    3  502    0 -0.24683086342E+02 -0.18798466766E+02 -0.37048609635E+02  0.48504731521E+02  0.41800000000E+01 0. -1.
         -5    1    3    3    0  502 -0.11795214149E+02 -0.18178675365E+02  0.97241860918E+02  0.99714809481E+02  0.41800000000E+01 0. -1.
        -11    1    1    2    0    0  0.67532357298E+02  0.24225565629E+02  0.24438645977E+03  0.25470029256E+03  0.00000000000E+00 0.  1.
         11    1    1    2    0    0 -0.31054056807E+02  0.12751576502E+02  0.11904656410E+03  0.12368929449E+03  0.00000000000E+00 0. -1.
</event>
<event>
 7    1  0.1312490E-005  0.1028464E+03  0.7561462E-02  0.1274422E+00
         -2   -1    0    0    0  501 -0.00000000000E+00  0.00000000000E+00  0.13427381000E+03  0.13427381000E+03  0.00000000000E+00 0.  1.
          2   -1    0    0  501    0  0.00000000000E+00 -0.00000000000E+00 -0.11064574518E+03  0.11064574518E+03  0.00000000000E+00 0. -1.
         23    2    1    2    0    0  0.52141255882E+01 -0.14052736020E+02  0.66318162663E+02  0.14237717998E+03  0.12509394944E+03 0.  0.
          5    1    3    3  502    0  0.50145842323E+02 -0.43527582968E+02  0.15535606769E+02  0.68323374178E+02  0.41800000000E+01 0. -1.
         -5    1    3    3    0  502 -0.44931716735E+02  0.29474846948E+02  0.50782555894E+02  0.74053805807E+02  0.41800000000E+01 0. -1.
        -11    1    1    2    0    0  0.32045371757E+02  0.30766344981E+02 -0.13655838267E+01  0.44444782076E+02  0.00000000000E+00 0.  1.
         11    1    1    2    0    0 -0.37259497346E+02 -0.16713608961E+02 -0.41324514014E+02  0.58097593112E+02  0.00000000000E+00 0. -1.
</event>
<event>
 7    1  0.1312490E-005  0.1261668E+03  0.7561462E-02  0.1233257E+00
         -2   -1    0    0    0  501 -0.00000000000E+00  0.00000000000E+00  0.22034850679E+02  0.22034850679E+02  0.00000000000E+00 0.  1.
          2   -1    0    0  501    0  0.00000000000E+00 -0.00000000000E+00 -0.88096524443E+03  0.88096524443E+03  0.00000000000E+00 0. -1.
         23    2    1    2    0    0  0.86525429352E+02  0.11917922312E+02 -0.49682502913E+03  0.51973057173E+03  0.12512422160E+03 0.  0.
          5    1    3    3  502    0  0.11033760274E+03 -0.18436816770E+02 -0.40137239556E+03  0.41669122274E+03  0.41800000000E+01 0.  1.
         -5    1    3    3    0  502 -0.23812173389E+02  0.30354739083E+02 -0.95452633570E+02  0.10303934900E+03  0.41800000000E+01 0.  1.
        -11    1    1    2    0    0 -0.37263989689E+02  0.20577722051E+02 -0.50146467420E+02  0.65777775631E+02  0.00000000000E+00 0.  1.
         11    1    1    2    0    0 -0.49261439663E+02 -0.32495644363E+02 -0.31195889721E+03  0.31749174774E+03  0.00000000000E+00 0. -1.
</event>
<event>
 7    1  0.1312490E-005  0.1275147E+03  0.7561462E-02  0.1231191E+00
          2   -1    0    0  501    0  0.00000000000E+00  0.00000000000E+00  0.38150480324E+02  0.38150480324E+02  0.00000000000E+00 0. -1.
         -2   -1    0    0    0  501 -0.00000000000E+00 -0.00000000000E+00 -0.49471738061E+03  0.49471738061E+03  0.00000000000E+00 0.  1.
         23    2    1    2    0    0  0.70671809703E+02  0.36700989231E+02 -0.26122838853E+03  0.30038189727E+03  0.12509015123E+03 0.  0.
          5    1    3    3  502    0  0.92582108347E+02  0.61966962047E+02 -0.17168778091E+03  0.20470837229E+03  0.41800000000E+01 0.  1.
         -5    1    3    3    0  502 -0.21910298644E+02 -0.25265972816E+02 -0.89540607624E+02  0.95673524983E+02  0.41800000000E+01 0.  1.
        -11    1    1    2    0    0 -0.45261480769E+02  0.18637092638E+02 -0.14639487001E+03  0.15436126726E+03  0.00000000000E+00 0.  1.
         11    1    1    2    0    0 -0.25410328934E+02 -0.55338081869E+02 -0.48943641739E+02  0.78124696403E+02  0.00000000000E+00 0. -1.
</event>
<event>
 7    1  0.1312490E-005  0.7328800E+02  0.7561462E-02  0.1349256E+00
          1   -1    0    0  501    0  0.00000000000E+00  0.00000000000E+00  0.24079283168E+02  0.24079283168E+02  0.00000000000E+00 0. -1.
         -1   -1    0    0    0  501 -0.00000000000E+00 -0.00000000000E+00 -0.10278640047E+04  0.10278640047E+04  0.00000000000E+00 0.  1.
         23    2    1    2    0    0 -0.36505047975E+02 -0.39620894089E+02 -0.78066798061E+03  0.79245961501E+03  0.12508921495E+03 0.  0.
          5    1    3    3  502    0 -0.25905920375E+02 -0.36436846447E+02 -0.80378982794E+02  0.92070699815E+02  0.41800000000E+01 0. -1.
         -5    1    3    3    0  502 -0.10599127600E+02 -0.31840476420E+01 -0.70028899782E+03  0.70038891519E+03  0.41800000000E+01 0. -1.
        -11    1    1    2    0    0 -0.15961706238E+02 -0.89895098823E+01  0.61463798804E+01  0.19322663885E+02  0.00000000000E+00 0. -1.
         11    1    1    2    0    0  0.52466754213E+02  0.48610403971E+02 -0.22926312082E+03  0.24016100899E+03  0.00000000000E+00 0.  1.
</event>
<event>
 7    1  0.1312490E-005  0.1195086E+03  0.7561462E-02  0.1243910E+00
          1   -1    0    0  501    0  0.00000000000E+00  0.00000000000E+00  0.20098612790E+03  0.20098612790E+03  0.00000000000E+00 0. -1.
         -1   -1    0    0    0  501 -0.00000000000E+00 -0.00000000000E+00 -0.85022266377E+02  0.85022266377E+02  0.00000000000E+00 0.  1.
         23    2    1    2    0    0 -0.54337411952E+02  0.47221838555E+02  0.37291136674E+02  0.14906579217E+03  0.12509006814E+03 0.  0.
          5    1    3    3  502    0 -0.53774780561E+02 -0.32136754209E+02  0.29015333192E+02  0.69165453485E+02  0.41800000000E+01 0. -1.
         -5    1    3    3    0  502 -0.56263139084E+00  0.79358592763E+02  0.82758034820E+01  0.79900338690E+02  0.41800000000E+01 0. -1.
        -11    1    1    2    0    0  0.50695293925E+02 -0.62831234586E+02  0.30716663841E+02  0.86378760719E+02  0.00000000000E+00 0.  1.
         11    1    1    2    0    0  0.36421180271E+01  0.15609396031E+02  0.47956061002E+02  0.50563841380E+02  0.00000000000E+00 0. -1.
</event>
<event>
 7    1  0.1312490E-005  0.1047663E+03  0.7561462E-02  0.1270581E+00
          1   -1    0    0  501    0  0.00000000000E+00  0.00000000000E+00  0.21109205735E+03  0.21109205735E+03  0.00000000000E+00 0. -1.
         -1   -1    0    0    0  501 -0.00000000000E+00 -0.00000000000E+00 -0.94570705316E+02  0.94570705316E+02  0.00000000000E+00 0.  1.
         23    2    1    2    0    0 -0.33619668865E+02  0.65910416406E+02  0.13263660194E+02  0.14593655381E+03  0.12508832052E+03 0.  0.
          5    1    3    3  502    0 -0.67350567933E+02  0.12967503208E+02  0.37778137919E+02  0.78415019257E+02  0.41800000000E+01 0. -1.
         -5    1    3    3    0  502  0.33730899068E+02  0.52942913198E+02 -0.24514477726E+02  0.67521534550E+02  0.41800000000E+01 0. -1.
        -11    1    1    2    0    0  0.14946967164E+02 -0.53338005190E+02  0.11966952930E+03  0.13186792964E+03  0.00000000000E+00 0. -1.
         11    1    1    2    0    0  0.18672701701E+02 -0.12572411216E+02 -0.16411837455E+02  0.27858279222E+02  0.00000000000E+00 0.  1.
</event>
<event>
 7    1  0.1312490E-005  0.7584616E+02  0.7561462E-02  0.1341271E+00
          2   -1    0    0  501    0  0.00000000000E+00  0.00000000000E+00  0.32046970139E+03  0.32046970139E+03  0.00000000000E+00 0. -1.
         -2   -1    0    0    0  501 -0.00000000000E+00 -0.00000000000E+00 -0.43463807972E+02  0.43463807972E+02  0.00000000000E+00 0.  1.
         23    2    1    2    0    0  0.12623874523E+02 -0.37329989674E+02  0.11590500041E+03  0.17504707555E+03  0.12511842072E+03 0.  0.
          5    1    3    3  502    0 -0.28886539659E+02 -0.40843444336E+02 -0.16819880450E+01  0.50228683065E+02  0.41800000000E+01 0. -1.
         -5    1    3    3    0  502  0.41510414182E+02  0.35134546618E+01  0.11758698845E+03  0.12481839249E+03  0.41800000000E+01 0. -1.
        -11    1    1    2    0    0  0.13834204497E+02  0.28587155571E+02  0.73067852166E+01  0.32588338219E+02  0.00000000000E+00 0.  1.
         11    1    1    2    0    0 -0.26458079021E+02  0.87428341031E+01  0.15379410779E+03  0.15629809559E+03  0.00000000000E+00 0. -1.
</event>
<event>
 7    1  0.1312490E-005  0.1084321E+03  0.7561462E-02  0.1263501E+00
         -1   -1    0    0    0  501 -0.00000000000E+00  0.00000000000E+00  0.35373064875E+03  0.35373064875E+03  0.00000000000E+00 0.  1.
          1   -1    0    0  501    0  0.00000000000E+00 -0.00000000000E+00 -0.59616808035E+02  0.59616808035E+02  0.00000000000E+00 0. -1.
         23    2    1    2    0    0  0.41119781555E+02  0.81548744297E+02  0.20313304301E+03  0.25542505780E+03  0.12505156079E+03 0.  0.
          5    1    3    3  502    0  0.25281425622E+02  0.56396609413E+01  0.16826759603E+03  0.17030094695E+03  0.41800000000E+01 0. -1.
         -5    1    3    3    0  502  0.15838355934E+02  0.75909083355E+02  0.34865446982E+02  0.85124110849E+02  0.41800000000E+01 0. -1.
        -11    1    1    2    0    0 -0.38185610620E+02 -0.93324249678E+02  0.45094467193E+02  0.11045844199E+03  0.00000000000E+00 0.  1.
         11    1    1    2    0    0 -0.29341709356E+01  0.11775505381E+02  0.45886330512E+02  0.47463956999E+02  0.00000000000E+00 0. -1.
</event>
<event>
 7    1  0.1312490E-005  0.1385424E+03  0.7561462E-02  0.1215304E+00
          2   -1    0    0  501    0  0.00000000000E+00  0.00000000000E+00  0.26637948302E+03  0.26637948302E+03  0.00000000000E+00 0. -1.
         -2   -1    0    0    0  501 -0.00000000000E+00 -0.00000000000E+00 -0.89449603096E+02  0.89449603096E+02  0.00000000000E+00 0.  1.
         23    2    1    2    0    0 -0.82918362681E+02 -0.50862419356E+02  0.33006572912E+02  0.16186152739E+03  0.12508908673E+03 0.  0.
          5    1    3    3  502    0 -0.25267971664E+02 -0.80987905539E+02  0.44157641832E+02  0.95733384813E+02  0.41800000000E+01 0. -1.
         -5    1    3    3    0  502 -0.57650391017E+02  0.30125486183E+02 -0.11151068920E+02  0.66128142574E+02  0.41800000000E+01 0. -1.
        -11    1    1    2    0    0  0.48408605190E+02  0.71802356411E+02  0.77347272661E+02  0.11611017195E+03  0.00000000000E+00 0.  1.
         11    1    1    2    0    0  0.34509757491E+02 -0.20939937056E+02  0.66576034355E+02  0.77857386782E+02  0.00000000000E+00 0. -1.
</event>
<event>
 7    1  0.1312490E-005  0.9274491E+02  0.7561462E-02  0.1296337E+00
          2   -1    0    0  501    0  0.00000000000E+00  0.00000000000E+00  0.32655485115E+03  0.32655485115E+03  0.00000000000E+00 0. -1.
         -2   -1    0    0    0  501 -0.00000000000E+00 -0.00000000000E+00 -0.32662196989E+02  0.32662196989E+02  0.00000000000E+00 0.  1.
         23    2    1    2    0    0 -0.35993043668E+02 -0.45627884639E+01  0.15898713478E+03  0.20552471849E+03  0.12508869915E+03 0.  0.
          5    1    3    3  502    0 -0.17614417306E+02  0.56651771605E+02  0.44283793371E+02  0.74149967487E+02  0.41800000000E+01 0.  1.
         -5    1    3    3    0  502 -0.18378626361E+02 -0.61214560069E+02  0.11470334141E+03  0.13137475101E+03  0.41800000000E+01 0.  1.
        -11    1    1    2    0    0  0.10713189031E+02 -0.22507117104E+02  0.17169344757E+02  0.30267625261E+02  0.00000000000E+00 0.  1.
         11    1    1    2    0    0  0.25279854637E+02  0.27069905567E+02  0.11773617462E+03  0.12342470439E+03  0.00000000000E+00 0. -1.
</event>
<event>
 6    1  0.1312490E-005  0.9286066E+02  0.7561462E-02  0.1296068E+00
          2   -1    0    0  501    0  0.00000000000E+00  0.00000000000E+00  0.26324413534E+03  0.26324413534E+03  0.00000000000E+00 0. -1.
         -2   -1    0    0    0  501 -0.00000000000E+00 -0.00000000000E+00 -0.77981824062E+02  0.77981824062E+02  0.00000000000E+00 0.  1.
          5    1    1    2  502    0  0.20628325110E+01 -0.16671726163E+02  0.10937471362E+03  0.11073618248E+03  0.41800000000E+01 0. -1.
         -5    1    1    2    0  502 -0.54554563702E+02  0.30888819048E+02 -0.39374330713E+02  0.74149375466E+02  0.41800000000E+01 0.  1.
        -11    1    1    2    0    0  0.24886237443E+02  0.38632202183E+02  0.47839640358E+02  0.66335533835E+02  0.00000000000E+00 0. -1.
         11    1    1    2    0    0  0.27605493748E+02 -0.52849295068E+02  0.67422288010E+02  0.90004867617E+02  0.00000000000E+00 0.  1.
</event>
<event>
 7    1  0.1312490E-005  0.1223287E+03  0.7561462E-02  0.1239304E+00
          2   -1    0    0  501    0  0.00000000000E+00  0.00000000000E+00  0.43271911826E+03  0.43271911826E+03  0.00000000000E+00 0. -1.
         -2   -1    0    0    0  501 -0.00000000000E+00 -0.00000000000E+00 -0.51817532985E+02  0.51817532985E+02  0.00000000000E+00 0.  1.
         23    2    1    2    0    0 -0.88870928483E+02  0.55990894476E+02  0.21811804627E+03  0.26997597734E+03  0.11949277819E+03 0.  0.
          5    1    3    3  502    0 -0.89613750838E+02  0.11119826865E+02  0.20336522768E+03  0.22255148419E+03  0.41800000000E+01 0. -1.
         -5    1    3    3    0  502  0.74282235487E+00  0.44871067612E+02  0.14752818589E+02  0.47424493145E+02  0.41800000000E+01 0.  1.
        -11    1    1    2    0    0  0.44765585831E+02 -0.10817529207E+02  0.14009975679E+03  0.14747514525E+03  0.00000000000E+00 0. -1.
         11    1    1    2    0    0  0.44105342652E+02 -0.45173365269E+02  0.22683782223E+02  0.67085528664E+02  0.00000000000E+00 0.  1.
</event>
<event>
 7    1  0.1312490E-005  0.6788714E+02  0.7561462E-02  0.1367429E+00
          1   -1    0    0  501    0  0.00000000000E+00  0.00000000000E+00  0.70038902555E+02  0.70038902555E+02  0.00000000000E+00 0. -1.
         -1   -1    0    0    0  501 -0.00000000000E+00 -0.00000000000E+00 -0.19437593172E+03  0.19437593172E+03  0.00000000000E+00 0.  1.
         23    2    1    2    0    0  0.15655589700E+02  0.37287747478E+02 -0.84399125169E+02  0.15622516601E+03  0.12509043355E+03 0.  0.
          5    1    3    3  502    0 -0.25791965790E+02 -0.46899882922E+01 -0.92772398412E+02  0.96495656879E+02  0.41800000000E+01 0.  1.
         -5    1    3    3    0  502  0.41447555490E+02  0.41977735770E+02  0.83732732426E+01  0.59729509133E+02  0.41800000000E+01 0.  1.
        -11    1    1    2    0    0  0.33925847106E+01 -0.29196723844E+02 -0.67558659029E+02  0.73675848988E+02  0.00000000000E+00 0.  1.
         11    1    1    2    0    0 -0.19048174411E+02 -0.80910236341E+01  0.27620755037E+02  0.34513819271E+02  0.00000000000E+00 0. -1.
</event>
<event>
 7    1  0.1312490E-005  0.9077814E+02  0.7561462E-02  0.1300978E+00
         -2   -1    0    0    0  501 -0.00000000000E+00  0.00000000000E+00  0.21602497526E+02  0.21602497526E+02  0.00000000000E+00 0.  1.
          2   -1    0    0  501    0  0.00000000000E+00 -0.00000000000E+00 -0.67552152469E+03  0.67552152469E+03  0.00000000000E+00 0. -1.
         23    2    1    2    0    0  0.35062761680E+02  0.40236651785E+02 -0.35745354185E+03  0.38245169027E+03  0.12509146814E+03 0.  0.
          5    1    3    3  502    0 -0.21077308385E+01  0.42997686930E+02 -0.29485694099E+02  0.52346176242E+02  0.41800000000E+01 0. -1.
         -5    1    3    3    0  502  0.37170492518E+02 -0.27610351459E+01 -0.32796784775E+03  0.33010551402E+03  0.41800000000E+01 0. -1.
        -11    1    1    2    0    0 -0.63684753612E+02 -0.25445838410E+02 -0.15352929528E+03  0.16815018003E+03  0.00000000000E+00 0.  1.
         11    1    1    2    0    0  0.28621991933E+02 -0.14790813375E+02 -0.14293619004E+03  0.14652215193E+03  0.00000000000E+00 0. -1.
</event>
<event>
 7    1  0.1312490E-005  0.1188683E+03  0.7561462E-02  0.1244976E+00
          1   -1    0    0  501    0  0.00000000000E+00  0.00000000000E+00  0.16683848158E+02  0.16683848158E+02  0.00000000000E+00 0. -1.
         -1   -1    0    0    0  501 -0.00000000000E+00 -0.00000000000E+00 -0.10526820666E+04  0.10526820666E+04  0.00000000000E+00 0.  1.
         23    2    1    2    0    0  0.64836984942E+02  0.26586296592E+02 -0.72466485376E+03  0.73723607709E+03  0.11604834043E+03 0.  0.
          5    1    3    3  502    0  0.14228658068E+02 -0.37585388197E+02 -0.11073573250E+03  0.11787701629E+03  0.41800000000E+01 0. -1.
         -5    1    3    3    0  502  0.50608326873E+02  0.64171684789E+02 -0.61392912126E+03  0.61935906081E+03  0.41800000000E+01 0.  1.
        -11    1    1    2    0    0 -0.15881253229E+02  0.34046646003E+02 -0.92723032850E+02  0.10004473564E+03  0.00000000000E+00 0.  1.
         11    1    1    2    0    0 -0.48955731713E+02 -0.60632942595E+02 -0.21861033181E+03  0.23208510200E+03  0.00000000000E+00 0. -1.
</event>
<event>
 7    1  0.1312490E-005  0.6664129E+02  0.7561462E-02  0.1371902E+00
         -2   -1    0    0    0  501 -0.00000000000E+00  0.00000000000E+00  0.37960593275E+02  0.37960593275E+02  0.00000000000E+00 0.  1.
          2   -1    0    0  501    0  0.00000000000E+00 -0.00000000000E+00 -0.31859707032E+03  0.31859707032E+03  0.00000000000E+00 0. -1.
         23    2    1    2    0    0  0.18952040957E+01 -0.36627054734E+01 -0.11676505708E+03  0.17116804931E+03  0.12508962922E+03 0.  0.
          5    1    3    3  502    0 -0.21501703087E+01 -0.41124589364E+02  0.67739538546E+01  0.41942984318E+02  0.41800000000E+01 0.  1.
         -5    1    3    3    0  502  0.40453744044E+01  0.37461883890E+02 -0.12353901094E+03  0.12922506499E+03  0.41800000000E+01 0.  1.
        -11    1    1    2    0    0 -0.83573858714E+01 -0.24082580953E+02 -0.76825876793E+01  0.26624025943E+02  0.00000000000E+00 0.  1.
         11    1    1    2    0    0  0.64621817756E+01  0.27745286426E+02 -0.15618883229E+03  0.15876558835E+03  0.00000000000E+00 0. -1.
</event>
<event>
 7    1  0.1312490E-005  0.1068451E+03  0.7561462E-02  0.1266526E+00
          2   -1    0    0  501    0  0.00000000000E+00  0.00000000000E+00  0.20151071724E+03  0.20151071724E+03  0.00000000000E+00 0. -1.
         -2   -1    0    0    0  501 -0.00000000000E+00 -0.00000000000E+00 -0.73127812632E+02  0.73127812632E+02  0.00000000000E+00 0.  1.
         23    2    1    2    0    0  0.40401922317E+02  0.25619212457E+02  0.37394040418E+02  0.13904819737E+03  0.12508967806E+03 0.  0.
          5    1    3    3  502    0 -0.43342131747E+02  0.24663213587E+02  0.15379298774E+02  0.52352743191E+02  0.41800000000E+01 0.  1.
         -5    1    3    3    0  502  0.83744054064E+02  0.95599886967E+00  0.22014741644E+02  0.86695454175E+02  0.41800000000E+01 0.  1.
        -11    1    1    2    0    0 -0.57928949177E+02 -0.17803825031E+02  0.22796113846E+02  0.64748761726E+02  0.00000000000E+00 0.  1.
         11    1    1    2    0    0  0.17527026860E+02 -0.78153874257E+01  0.68192750344E+02  0.70841570781E+02  0.00000000000E+00 0. -1.
</event>
<event>
 7    1  0.1312490E-005  0.1994220E+03  0.7561462E-02  0.1150228E+00
         -1   -1    0    0    0  501 -0.00000000000E+00  0.00000000000E+00  0.36904155625E+03  0.36904155625E+03  0.00000000000E+00 0.  1.
          1   -1    0    0  501    0  0.00000000000E+00 -0.00000000000E+00 -0.19142326282E+03  0.19142326282E+03  0.00000000000E+00 0. -1.
         23    2    1    2    0    0 -0.18037418155E+03 -0.12162430111E+02  0.26273914220E+03  0.34258228652E+03  0.12509195065E+03 0.  0.
          5    1    3    3  502    0 -0.67232803296E+02 -0.64319190340E+02  0.89615394282E+02  0.12925014266E+03  0.41800000000E+01 0. -1.
         -5    1    3    3    0  502 -0.11314137825E+03  0.52156760229E+02  0.17312374792E+03  0.21333214386E+03  0.41800000000E+01 0. -1.
        -11    1    1    2    0    0  0.13757400405E+03  0.13465888853E+02 -0.10206805348E+03  0.17183080136E+03  0.00000000000E+00 0.  1.
         11    1    1    2    0    0  0.42800177499E+02 -0.13034587424E+01  0.16947204707E+02  0.46051731195E+02  0.00000000000E+00 0. -1.
</event>
<event>
 7    1  0.1312490E-005  0.1378624E+03  0.7561462E-02  0.1216235E+00
         -1   -1    0    0    0  501 -0.00000000000E+00  0.00000000000E+00  0.21275703048E+03  0.21275703048E+03  0.00000000000E+00 0.  1.
          1   -1    0    0  501    0  0.00000000000E+00 -0.00000000000E+00 -0.12955031157E+03  0.12955031157E+03  0.00000000000E+00 0. -1.
         23    2    1    2    0    0 -0.10093650775E+03 -0.56810623605E+02  0.10492302225E+03  0.19278325488E+03  0.11287567148E+03 0.  0.
          5    1    3    3  502    0  0.14345157344E+02  0.17242121757E+02  0.55738680538E+01  0.23486479238E+02  0.41800000000E+01 0. -1.
         -5    1    3    3    0  502 -0.11528166509E+03 -0.74052745362E+02  0.99349154193E+02  0.16929677564E+03  0.41800000000E+01 0.  1.
        -11    1    1    2    0    0  0.53099980687E+02  0.29442035060E+02  0.35294869428E+02  0.70229403994E+02  0.00000000000E+00 0.  1.
         11    1    1    2    0    0  0.47836527062E+02  0.27368588545E+02 -0.57011172763E+02  0.79294683177E+02  0.00000000000E+00 0. -1.
</event>
<event>
 7    1  0.1312490E-005  0.1506425E+03  0.7561462E-02  0.1199686E+00
         -2   -1    0    0    0  501 -0.00000000000E+00  0.00000000000E+00  0.48965932632E+02  0.48965932632E+02  0.00000000000E+00 0.  1.
          2   -1    0    0  501    0  0.00000000000E+00 -0.00000000000E+00 -0.53532791892E+03  0.53532791892E+03  0.00000000000E+00 0. -1.
         23    2    1    2    0    0  0.27881667735E+02  0.10551303019E+03 -0.17050936199E+03  0.23797117514E+03  0.12508577351E+03 0.  0.
          5    1    3    3  502    0  0.73852725759E+02  0.89682722082E+02 -0.10808300005E+03  0.15873444189E+03  0.41800000000E+01 0.  1.
         -5    1    3    3    0  502 -0.45971058023E+02  0.15830308108E+02 -0.62426361946E+02  0.79236733252E+02  0.41800000000E+01 0.  1.
        -11    1    1    2    0    0  0.18729079053E+02 -0.81838200009E+02 -0.23949187240E+03  0.25378066579E+03  0.00000000000E+00 0. -1.
         11    1    1    2    0    0 -0.46610746789E+02 -0.23674830182E+02 -0.76360751901E+02  0.92542010629E+02  0.00000000000E+00 0.  1.
</event>
<event>
 7    1  0.1312490E-005  0.1053134E+03  0.7561462E-02  0.1269503E+00
         -3   -1    0    0    0  501 -0.00000000000E+00  0.00000000000E+00  0.55968637149E+02  0.55968637149E+02  0.00000000000E+00 0.  1.
          3   -1    0    0  501    0  0.00000000000E+00 -0.00000000000E+00 -0.35908333473E+03  0.35908333473E+03  0.00000000000E+00 0. -1.
         23    2    1    2    0    0  0.17774695498E+02  0.33632095040E+02 -0.42862099763E+02  0.13758618169E+03  0.12508293321E+03 0.  0.
          5    1    3    3  502    0 -0.33522078951E+02  0.59286548966E+02 -0.43478612522E+01  0.68373978698E+02  0.41800000000E+01 0.  1.
         -5    1    3    3    0  502  0.51296774449E+02 -0.25654453926E+02 -0.38514238511E+02  0.69212202993E+02  0.41800000000E+01 0.  1.
        -11    1    1    2    0    0 -0.31235869867E+02  0.14837513178E+02 -0.17578099400E+03  0.17915018620E+03  0.00000000000E+00 0. -1.
         11    1    1    2    0    0  0.13461174370E+02 -0.48469608218E+02 -0.84471603824E+02  0.98315603995E+02  0.00000000000E+00 0.  1.
</event>
<event>
 7    1  0.1312490E-005  0.1046481E+03  0.7561462E-02  0.1270814E+00
          3   -1    0    0  501    0  0.00000000000E+00  0.00000000000E+00  0.17076837721E+03  0.17076837721E+03  0.00000000000E+00 0. -1.
         -3   -1    0    0    0  501 -0.00000000000E+00 -0.00000000000E+00 -0.74165643924E+02  0.74165643924E+02  0.00000000000E+00 0.  1.
         23    2    1    2    0    0  0.31477913072E+02  0.44140931556E+01  0.43112977798E+02  0.13607924612E+03  0.12509392128E+03 0.  0.
          5    1    3    3  502    0  0.79995805207E+02  0.11482531590E+01  0.23609084086E+02  0.83519510220E+02  0.41800000000E+01 0. -1.
         -5    1    3    3    0  502 -0.48517892135E+02  0.32658399967E+01  0.19503893712E+02  0.52559735902E+02  0.41800000000E+01 0. -1.
        -11    1    1    2    0    0  0.21662231530E+02 -0.14793607860E+02 -0.75157099515E+01  0.27287158233E+02  0.00000000000E+00 0.  1.
         11    1    1    2    0    0 -0.53140144601E+02  0.10379514704E+02  0.61005465444E+02  0.81567616784E+02  0.00000000000E+00 0. -1.
</event>
<event>
 7    1  0.1312490E-005  0.1043799E+03  0.7561462E-02  0.1271346E+00
         -2   -1    0    0    0  501 -0.00000000000E+00  0.00000000000E+00  0.43313847264E+02  0.43313847264E+02  0.00000000000E+00 0.  1.
          2   -1    0    0  501    0  0.00000000000E+00 -0.00000000000E+00 -0.33980587449E+03  0.33980587449E+03  0.00000000000E+00 0. -1.
         23    2    1    2    0    0 -0.17132664309E+02  0.20754190342E+02 -0.90967034279E+02  0.15699285834E+03  0.12508993422E+03 0.  0.
          5    1    3    3  502    0 -0.52498110267E+02 -0.23492475949E+02 -0.10680602160E+02  0.58647213662E+02  0.41800000000E+01 0.  1.
         -5    1    3    3    0  502  0.35365445958E+02  0.44246666291E+02 -0.80286432118E+02  0.98345644683E+02  0.41800000000E+01 0.  1.
        -11    1    1    2    0    0 -0.36499362414E+02  0.76590456588E+00 -0.78336029008E+02  0.86425248089E+02  0.00000000000E+00 0.  1.
         11    1    1    2    0    0  0.53632026723E+02 -0.21520094908E+02 -0.12718896394E+03  0.13970161532E+03  0.00000000000E+00 0. -1.
</event>
<event>
 7    1  0.1312490E-005  0.1266718E+03  0.7561462E-02  0.1232479E+00
          2   -1    0    0  501    0  0.00000000000E+00  0.00000000000E+00  0.20730506206E+03  0.20730506206E+03  0.00000000000E+00 0. -1.
         -2   -1    0    0    0  501 -0.00000000000E+00 -0.00000000000E+00 -0.10177830322E+03  0.10177830322E+03  0.00000000000E+00 0.  1.
         23    2    1    2    0    0 -0.78799900969E+02 -0.53459023336E+02  0.72077524747E+02  0.17294425407E+03  0.12508898382E+03 0.  0.
          5    1    3    3  502    0 -0.11067342872E+03 -0.57531419811E+02  0.57536963949E+02  0.13742796917E+03  0.41800000000E+01 0. -1.
         -5    1    3    3    0  502  0.31873527753E+02  0.40723964753E+01  0.14540560798E+02  0.35516284896E+02  0.41800000000E+01 0. -1.
        -11    1    1    2    0    0  0.20375590244E+02  0.21173889809E+02  0.57997554533E+02  0.65017033301E+02  0.00000000000E+00 0. -1.
         11    1    1    2    0    0  0.58424310725E+02  0.32285133526E+02 -0.24548320435E+02  0.71122077913E+02  0.00000000000E+00 0.  1.
</event>
<event>
 6    1  0.1312490E-005  0.1166808E+03  0.7561462E-02  0.1248675E+00
          1   -1    0    0  501    0  0.00000000000E+00  0.00000000000E+00  0.22636428884E+03  0.22636428884E+03  0.00000000000E+00 0. -1.
         -1   -1    0    0    0  501 -0.00000000000E+00 -0.00000000000E+00 -0.93439121063E+02  0.93439121063E+02  0.00000000000E+00 0.  1.
          5    1    1    2  502    0  0.63637544969E+02 -0.32328526339E+02 -0.32608224955E+02  0.78585237033E+02  0.41800000000E+01 0. -1.
         -5    1    1    2    0  502 -0.62040780105E+02  0.50421288012E+02  0.56659456175E+02  0.98077168877E+02  0.41800000000E+01 0.  1.
        -11    1    1    2    0    0 -0.40521495421E+02 -0.12962578258E+02  0.22197117802E+02  0.47986790525E+02  0.00000000000E+00 0.  1.
         11    1    1    2    0    0  0.38924730558E+02 -0.51301834156E+01  0.86676818754E+02  0.95154213465E+02  0.00000000000E+00 0. -1.
</event>
<event>
 7    1  0.1312490E-005  0.8325647E+02  0.7561462E-02  0.1320056E+00
         -2   -1    0    0    0  501 -0.00000000000E+00  0.00000000000E+00  0.46663083097E+02  0.46663083097E+02  0.00000000000E+00 0. -1.
          2   -1    0    0  501    0  0.00000000000E+00 -0.00000000000E+00 -0.31424780885E+03  0.31424780885E+03  0.00000000000E+00 0.  1.
         23    2    1    2    0    0  0.11913600652E+02 -0.30267586441E+02 -0.89918726449E+02  0.15745019603E+03  0.12508847347E+03 0.  0.
          5    1    3    3  502    0 -0.21171814455E+02 -0.27959328948E+02 -0.11196705159E+03  0.11740554861E+03  0.41800000000E+01 0. -1.
         -5    1    3    3    0  502  0.33085415107E+02 -0.23082574933E+01  0.22048325141E+02  0.40044647420E+02  0.41800000000E+01 0. -1.
        -11    1    1    2    0    0 -0.45557618769E+02 -0.85968548440E+01 -0.67450052041E+02  0.81846881806E+02  0.00000000000E+00 0. -1.
         11    1    1    2    0    0  0.33644018117E+02  0.38864441285E+02 -0.11021594727E+03  0.12161381411E+03  0.00000000000E+00 0.  1.
</event>
<event>
 7    1  0.1312490E-005  0.1067877E+03  0.7561462E-02  0.1266637E+00
         -1   -1    0    0    0  501 -0.00000000000E+00  0.00000000000E+00  0.16257459790E+03  0.16257459790E+03  0.00000000000E+00 0.  1.
          1   -1    0    0  501    0  0.00000000000E+00 -0.00000000000E+00 -0.70599824213E+02  0.70599824213E+02  0.00000000000E+00 0. -1.
         23    2    1    2    0    0 -0.42160288017E+01 -0.50039237329E+01  0.51416654038E+02  0.13540367378E+03  0.12509064078E+03 0.  0.
          5    1    3    3  502    0 -0.94359701956E+01 -0.64477515234E+02  0.23927659956E+02  0.69544178874E+02  0.41800000000E+01 0. -1.
         -5    1    3    3    0  502  0.52199413940E+01  0.59473591501E+02  0.27488994083E+02  0.65859494911E+02  0.41800000000E+01 0. -1.
        -11    1    1    2    0    0  0.35063735222E+02  0.31974394603E+02  0.16419414520E+02  0.50213789053E+02  0.00000000000E+00 0.  1.
         11    1    1    2    0    0 -0.30847706420E+02 -0.26970470870E+02  0.24138705131E+02  0.47556959277E+02  0.00000000000E+00 0. -1.
</event>
<event>
 7    1  0.1312490E-005  0.1040467E+03  0.7561462E-02  0.1272009E+00
         -1   -1    0    0    0  501 -0.00000000000E+00  0.00000000000E+00  0.77740163804E+02  0.77740163804E+02  0.00000000000E+00 0.  1.
          1   -1    0    0  501    0  0.00000000000E+00 -0.00000000000E+00 -0.16628309616E+03  0.16628309616E+03  0.00000000000E+00 0. -1.
         23    2    1    2    0    0  0.24473865319E+02 -0.14110135394E+02 -0.28925295883E+02  0.13101466618E+03  0.12461983794E+03 0.  0.
          5    1    3    3  502    0 -0.24775980184E+02  0.44190378202E+02 -0.58218605537E+01  0.51166445841E+02  0.41800000000E+01 0. -1.
         -5    1    3    3    0  502  0.49249845503E+02 -0.58300513596E+02 -0.23103435330E+02  0.79848220341E+02  0.41800000000E+01 0. -1.
        -11    1    1    2    0    0  0.13996144639E+02  0.34540194616E+02  0.22605541930E+01  0.37336673849E+02  0.00000000000E+00 0.  1.
         11    1    1    2    0    0 -0.38470009958E+02 -0.20430059222E+02 -0.61878190662E+02  0.75671919928E+02  0.00000000000E+00 0. -1.
</event>
<event>
 7    1  0.1312490E-005  0.2059418E+03  0.7561462E-02  0.1144821E+00
         -2   -1    0    0    0  501 -0.00000000000E+00  0.00000000000E+00  0.61657192001E+03  0.61657192001E+03  0.00000000000E+00 0.  1.
          2   -1    0    0  501    0  0.00000000000E+00 -0.00000000000E+00 -0.12528482425E+03  0.12528482425E+03  0.00000000000E+00 0. -1.
         23    2    1    2    0    0 -0.10588200951E+03  0.15477396245E+03  0.49080776613E+03  0.54009794478E+03  0.12509015659E+03 0.  0.
          5    1    3    3  502    0  0.80648808299E+01 -0.12037367012E+02  0.89833257572E+02  0.91090213928E+02  0.41800000000E+01 0. -1.
         -5    1    3    3    0  502 -0.11394689034E+03  0.16681132946E+03  0.40097450856E+03  0.44900773086E+03  0.41800000000E+01 0. -1.
        -11    1    1    2    0    0  0.42863749572E+02 -0.22922157489E+02  0.23208348199E+02  0.53864215927E+02  0.00000000000E+00 0.  1.
         11    1    1    2    0    0  0.63018259938E+02 -0.13185180496E+03 -0.22729018569E+02  0.14789458354E+03  0.00000000000E+00 0. -1.
</event>
<event>
 7    1  0.1312490E-005  0.7511883E+02  0.7561462E-02  0.1343503E+00
          3   -1    0    0  501    0  0.00000000000E+00  0.00000000000E+00  0.23844903463E+02  0.23844903463E+02  0.00000000000E+00 0. -1.
         -3   -1    0    0    0  501 -0.00000000000E+00 -0.00000000000E+00 -0.60809967757E+03  0.60809967757E+03  0.00000000000E+00 0.  1.
         23    2    1    2    0    0  0.17122522603E+01  0.51048317288E+02 -0.34814279817E+03  0.37344322130E+03  0.12509024385E+03 0.  0.
          5    1    3    3  502    0 -0.16059993776E+02  0.51338648137E+02 -0.46438790610E+02  0.71187174870E+02  0.41800000000E+01 0. -1.
         -5    1    3    3    0  502  0.17772246036E+02 -0.29033084808E+00 -0.30170400756E+03  0.30225604643E+03  0.41800000000E+01 0. -1.
        -11    1    1    2    0    0  0.27353304072E+02 -0.36238141189E+02 -0.21477535370E+03  0.21952188656E+03  0.00000000000E+00 0.  1.
         11    1    1    2    0    0 -0.29065556333E+02 -0.14810176099E+02 -0.21336622229E+02  0.38979473177E+02  0.00000000000E+00 0. -1.
</event>
<event>
 7    1  0.1312490E-005  0.1097642E+03  0.7561462E-02  0.1261007E+00
          4   -1    0    0  501    0  0.00000000000E+00  0.00000000000E+00  0.42101627271E+03  0.42101627271E+03  0.00000000000E+00 0. -1.
         -4   -1    0    0    0  501 -0.00000000000E+00 -0.00000000000E+00 -0.42759710676E+02  0.42759710676E+02  0.00000000000E+00 0.  1.
         23    2    1    2    0    0  0.28664343645E+02 -0.70046225745E+02  0.17057447004E+03  0.22465835940E+03  0.12509040843E+03 0.  0.
          5    1    3    3  502    0  0.40052487508E+02 -0.77410323700E+02  0.18492367383E+03  0.20447688748E+03  0.41800000000E+01 0.  1.
         -5    1    3    3    0  502 -0.11388143863E+02  0.73640979557E+01 -0.14349203793E+02  0.20181471920E+02  0.41800000000E+01 0.  1.
        -11    1    1    2    0    0 -0.61861207958E+02  0.45764663827E+02  0.12536214981E+03  0.14709480654E+03  0.00000000000E+00 0. -1.
         11    1    1    2    0    0  0.33196864313E+02  0.24281561918E+02  0.82319942184E+02  0.92022817445E+02  0.00000000000E+00 0.  1.
</event>
<event>
 7    1  0.1312490E-005  0.7918924E+02  0.7561462E-02  0.1331368E+00
         -2   -1    0    0    0  501 -0.00000000000E+00  0.00000000000E+00  0.46950250583E+02  0.46950250583E+02  0.00000000000E+00 0.  1.
          2   -1    0    0  501    0  0.00000000000E+00 -0.00000000000E+00 -0.41312238838E+03  0.41312238838E+03  0.00000000000E+00 0. -1.
         23    2    1    2    0    0  0.18702848515E+02 -0.70335296797E+02 -0.14051263460E+03  0.20171402340E+03  0.12509155142E+03 0.  0.
          5    1    3    3  502    0  0.19422305528E+02 -0.58432078547E+02 -0.10969988000E+01  0.61726894963E+02  0.41800000000E+01 0. -1.
         -5    1    3    3    0  502 -0.71945701289E+00 -0.11903218249E+02 -0.13941563580E+03  0.13998712843E+03  0.41800000000E+01 0. -1.
        -11    1    1    2    0    0 -0.51987177981E+01  0.70329006002E+02 -0.23268463845E+03  0.24313645700E+03  0.00000000000E+00 0. -1.
         11    1    1    2    0    0 -0.13504130717E+02  0.62907949458E-02  0.70251352513E+01  0.15222158562E+02  0.00000000000E+00 0.  1.
</event>
<event>
 7    1  0.1312490E-005  0.1409386E+03  0.7561462E-02  0.1212072E+00
         -2   -1    0    0    0  501 -0.00000000000E+00  0.00000000000E+00  0.12215348387E+03  0.12215348387E+03  0.00000000000E+00 0.  1.
          2   -1    0    0  501    0  0.00000000000E+00 -0.00000000000E+00 -0.45527410425E+03  0.45527410425E+03  0.00000000000E+00 0. -1.
         23    2    1    2    0    0 -0.61462964735E+02 -0.10583857111E+03  0.35471693675E+02  0.17856611270E+03  0.12509243136E+03 0.  0.
          5    1    3    3  502    0  0.10946220924E+02 -0.98196118956E-01  0.48300203349E+02  0.49701221701E+02  0.41800000000E+01 0.  1.
         -5    1    3    3    0  502 -0.72409185658E+02 -0.10574037500E+03 -0.12828509674E+02  0.12886489100E+03  0.41800000000E+01 0.  1.
        -11    1    1    2    0    0 -0.14412257346E+02  0.36132811203E+02 -0.46154242431E+02  0.60361471997E+02  0.00000000000E+00 0.  1.
         11    1    1    2    0    0  0.75875222081E+02  0.69705759911E+02 -0.32243807162E+03  0.33850000343E+03  0.00000000000E+00 0. -1.
</event>
<event>
 6    1  0.1312490E-005  0.2139936E+03  0.7561462E-02  0.1138442E+00
         -2   -1    0    0    0  501 -0.00000000000E+00  0.00000000000E+00  0.42670393701E+02  0.42670393701E+02  0.00000000000E+00 0.  1.
          2   -1    0    0  501    0  0.00000000000E+00 -0.00000000000E+00 -0.13249773243E+04  0.13249773243E+04  0.00000000000E+00 0. -1.
          5    1    1    2  502    0  0.88484128843E+02 -0.13390583001E+03 -0.28649157457E+03  0.32841301294E+03  0.41800000000E+01 0. -1.
         -5    1    1    2    0  502  0.42590200862E+02  0.31515192178E+02 -0.11225170194E+03  0.12419762291E+03  0.41800000000E+01 0.  1.
        -11    1    1    2    0    0 -0.15732282185E+03  0.10298090372E+03 -0.85810914872E+03  0.87846846723E+03  0.00000000000E+00 0.  1.
         11    1    1    2    0    0  0.26248492144E+02 -0.59026589078E+00 -0.25454505361E+02  0.36568614915E+02  0.00000000000E+00 0. -1.
</event>
<event>
 7    1  0.1312490E-005  0.1358148E+03  0.7561462E-02  0.1219074E+00
          4   -1    0    0  501    0  0.00000000000E+00  0.00000000000E+00  0.87072980417E+03  0.87072980417E+03  0.00000000000E+00 0. -1.
         -4   -1    0    0    0  501 -0.00000000000E+00 -0.00000000000E+00 -0.23534117714E+02  0.23534117714E+02  0.00000000000E+00 0.  1.
         23    2    1    2    0    0 -0.73076502038E+02  0.53782784808E+02  0.33180382296E+03  0.36355808266E+03  0.11767726817E+03 0.  0.
          5    1    3    3  502    0 -0.36077010218E+02  0.88385228808E+02  0.24487250748E+03  0.26285645637E+03  0.41800000000E+01 0. -1.
         -5    1    3    3    0  502 -0.36999491820E+02 -0.34602444000E+02  0.86931315486E+02  0.10070162629E+03  0.41800000000E+01 0.  1.
        -11    1    1    2    0    0  0.13105764158E+02 -0.63193410905E+02  0.22711178756E+03  0.23610364734E+03  0.00000000000E+00 0.  1.
         11    1    1    2    0    0  0.59970737879E+02  0.94106260963E+01  0.28828007593E+03  0.29460219188E+03  0.00000000000E+00 0. -1.
</event>
<event>
 7    1  0.1312490E-005  0.1403062E+03  0.7561462E-02  0.1212918E+00
         -1   -1    0    0    0  501 -0.00000000000E+00  0.00000000000E+00  0.33826885713E+03  0.33826885713E+03  0.00000000000E+00 0.  1.
          1   -1    0    0  501    0  0.00000000000E+00 -0.00000000000E+00 -0.74529976363E+02  0.74529976363E+02  0.00000000000E+00 0. -1.
         23    2    1    2    0    0 -0.31712446746E+02 -0.10761631908E+03  0.18092479852E+03  0.24691754537E+03  0.12509012783E+03 0.  0.
          5    1    3    3  502    0 -0.41584393564E+02  0.80497620538E+00  0.80417492501E+01  0.42568202990E+02  0.41800000000E+01 0.  1.
         -5    1    3    3    0  502  0.98719468177E+01 -0.10842129529E+03  0.17288304927E+03  0.20434934238E+03  0.41800000000E+01 0.  1.
        -11    1    1    2    0    0 -0.20377630248E+02  0.34872393226E+02 -0.47784599001E+01  0.40671431040E+02  0.00000000000E+00 0. -1.
         11    1    1    2    0    0  0.52090076995E+02  0.72743925858E+02  0.87592542141E+02  0.12520985708E+03  0.00000000000E+00 0.  1.
</event>
<event>
 7    1  0.1312490E-005  0.1666551E+03  0.7561462E-02  0.1181382E+00
          2   -1    0    0  501    0  0.00000000000E+00  0.00000000000E+00  0.72164130031E+03  0.72164130031E+03  0.00000000000E+00 0. -1.
         -2   -1    0    0    0  501 -0.00000000000E+00 -0.00000000000E+00 -0.11712696087E+03  0.11712696087E+03  0.00000000000E+00 0.  1.
         23    2    1    2    0    0 -0.12170041574E+03  0.47253559055E+02 -0.31043217809E+02  0.18345304489E+03  0.12508976086E+03 0.  0.
          5    1    3    3  502    0  0.21039085522E+02 -0.41386201031E+01  0.13004109055E+02  0.25423425187E+02  0.41800000000E+01 0.  1.
         -5    1    3    3    0  502 -0.14273950126E+03  0.51392179158E+02 -0.44047326864E+02  0.15802961970E+03  0.41800000000E+01 0.  1.
        -11    1    1    2    0    0  0.57500614074E+02  0.25297784198E+02  0.24766648308E+03  0.25550926665E+03  0.00000000000E+00 0.  1.
         11    1    1    2    0    0  0.64199801667E+02 -0.72551343253E+02  0.38789107417E+03  0.39980594963E+03  0.00000000000E+00 0. -1.
</event>
<event>
 7    1  0.1312490E-005  0.1054425E+03  0.7561462E-02  0.1269250E+00
         -2   -1    0    0    0  501 -0.00000000000E+00  0.00000000000E+00  0.94510497940E+02  0.94510497940E+02  0.00000000000E+00 0.  1.
          2   -1    0    0  501    0  0.00000000000E+00 -0.00000000000E+00 -0.15690125681E+03  0.15690125681E+03  0.00000000000E+00 0. -1.
         23    2    1    2    0    0  0.31392131772E+02  0.32742228318E+01  0.12000647096E+02  0.12956476118E+03  0.12508727088E+03 0.  0.
          5    1    3    3  502    0 -0.35900077488E+02 -0.35929951361E+02  0.29275323357E+01  0.51047231208E+02  0.41800000000E+01 0. -1.
         -5    1    3    3    0  502  0.67292209260E+02  0.39204174193E+02  0.90731147602E+01  0.78517529971E+02  0.41800000000E+01 0. -1.
        -11    1    1    2    0    0  0.22306445961E+01  0.32650035956E+02 -0.84862351855E-01  0.32726255894E+02  0.00000000000E+00 0.  1.
         11    1    1    2    0    0 -0.33622776368E+02 -0.35924258787E+02 -0.74306543610E+02  0.89120737674E+02  0.00000000000E+00 0. -1.
</event>
<event>
 7    1  0.1312490E-005  0.1573999E+03  0.7561462E-02  0.1191664E+00
         -1   -1    0    0    0  501 -0.00000000000E+00  0.00000000000E+00  0.10241915802E+03  0.10241915802E+03  0.00000000000E+00 0.  1.
          1   -1    0    0  501    0  0.00000000000E+00 -0.00000000000E+00 -0.29970184007E+03  0.29970184007E+03  0.00000000000E+00 0. -1.
         23    2    1    2    0    0 -0.13024235139E+03 -0.40881914676E+02 -0.90840607805E+02  0.20623844952E+03  0.12509149049E+03 0.  0.
          5    1    3    3  502    0 -0.46048011199E+02  0.16448526702E+02 -0.92016863238E+02  0.10428589975E+03  0.41800000000E+01 0.  1.
         -5    1    3    3    0  502 -0.84194340192E+02 -0.57330441379E+02  0.11762554330E+01  0.10195254978E+03  0.41800000000E+01 0.  1.
        -11    1    1    2    0    0  0.13202510451E+03  0.95224212792E+01 -0.78843358516E+02  0.15407004871E+03  0.00000000000E+00 0. -1.
         11    1    1    2    0    0 -0.17827531181E+01  0.31359493397E+02 -0.27598715730E+02  0.41812499862E+02  0.00000000000E+00 0.  1.
</event>
<event>
 7    1  0.1312490E-005  0.1206369E+03  0.7561462E-02  0.1242050E+00
          2   -1    0    0  501    0  0.00000000000E+00  0.00000000000E+00  0.35016945440E+03  0.35016945440E+03  0.00000000000E+00 0. -1.
         -2   -1    0    0    0  501 -0.00000000000E+00 -0.00000000000E+00 -0.48306077563E+02  0.48306077563E+02  0.00000000000E+00 0.  1.
         23    2    1    2    0    0  0.56251785895E+02  0.28741293148E+02  0.11426151232E+03  0.18081157840E+03  0.12508720294E+03 0.  0.
          5    1    3    3  502    0 -0.39289602377E+02  0.53830728390E+01  0.20396403558E+02  0.44789909647E+02  0.41800000000E+01 0.  1.
         -5    1    3    3    0  502  0.95541388271E+02  0.23358220309E+02  0.93865108759E+02  0.13602166876E+03  0.41800000000E+01 0.  1.
        -11    1    1    2    0    0  0.20307320772E+02  0.20998801328E+01  0.12124614789E+02  0.23744537420E+02  0.00000000000E+00 0.  1.
         11    1    1    2    0    0 -0.76559106667E+02 -0.30841173281E+02  0.17547724973E+03  0.19391941614E+03  0.00000000000E+00 0. -1.
</event>
<event>
 7    1  0.1312490E-005  0.1066781E+03  0.7561462E-02  0.1266848E+00
          2   -1    0    0  501    0  0.00000000000E+00  0.00000000000E+00  0.24631775673E+03  0.24631775673E+03  0.00000000000E+00 0. -1.
         -2   -1    0    0    0  501 -0.00000000000E+00 -0.00000000000E+00 -0.81957485162E+02  0.81957485162E+02  0.00000000000E+00 0.  1.
         23    2    1    2    0    0  0.73212491867E+02  0.83528012614E+01  0.28989549547E+02  0.14804693803E+03  0.12509062164E+03 0.  0.
          5    1    3    3  502    0  0.46283080108E+02 -0.46401365235E+02 -0.21115694985E+02  0.68982281600E+02  0.41800000000E+01 0.  1.
         -5    1    3    3    0  502  0.26929411758E+02  0.54754166497E+02  0.50105244532E+02  0.79064656428E+02  0.41800000000E+01 0.  1.
        -11    1    1    2    0    0 -0.89947214593E+01 -0.19380673221E+02  0.10708506099E+03  0.10919581400E+03  0.00000000000E+00 0. -1.
         11    1    1    2    0    0 -0.64217770407E+02  0.11027871959E+02  0.28285661033E+02  0.71032489863E+02  0.00000000000E+00 0.  1.
</event>
<event>
 7    1  0.1312490E-005  0.2091690E+03  0.7561462E-02  0.1142226E+00
         -2   -1    0    0    0  501 -0.00000000000E+00  0.00000000000E+00  0.19142671562E+03  0.19142671562E+03  0.00000000000E+00 0.  1.
          2   -1    0    0  501    0  0.00000000000E+00 -0.00000000000E+00 -0.26324082532E+03  0.26324082532E+03  0.00000000000E+00 0. -1.
         23    2    1    2    0    0  0.14152091465E+02 -0.19186823268E+03  0.28560665285E+01  0.22949845768E+03  0.12509070533E+03 0.  0.
          5    1    3    3  502    0 -0.29311575705E+02 -0.16129480662E+03  0.34402040507E+02  0.16755941007E+03  0.41800000000E+01 0.  1.
         -5    1    3    3    0  502  0.43463667170E+02 -0.30573426061E+02 -0.31545973978E+02  0.61939047613E+02  0.41800000000E+01 0.  1.
        -11    1    1    2    0    0 -0.34286355875E+02  0.15770821016E+03 -0.27788130482E+02  0.16376695011E+03  0.00000000000E+00 0.  1.
         11    1    1    2    0    0  0.20134264411E+02  0.34160022515E+02 -0.46882045745E+02  0.61402133145E+02  0.00000000000E+00 0. -1.
</event>
<event>
 6    1  0.1312490E-005  0.1055015E+03  0.7561462E-02  0.1269135E+00
         -3   -1    0    0    0  501 -0.00000000000E+00  0.00000000000E+00  0.78320463036E+03  0.78320463036E+03  0.00000000000E+00 0.  1.
          3   -1    0    0  501    0  0.00000000000E+00 -0.00000000000E+00 -0.22431686972E+02  0.22431686972E+02  0.00000000000E+00 0. -1.
          5    1    1    2  502    0 -0.59351303878E+02  0.36771270112E+02  0.22073659873E+03  0.23155306519E+03  0.41800000000E+01 0. -1.
         -5    1    1    2    0  502  0.53469469863E+02 -0.11755626573E+02  0.41852879462E+03  0.42211491716E+03  0.41800000000E+01 0.  1.
        -11    1    1    2    0    0  0.43952379043E+02 -0.17719265641E+02  0.91146848416E+02  0.10273038487E+03  0.00000000000E+00 0.  1.
         11    1    1    2    0    0 -0.38070545029E+02 -0.72963778978E+01  0.30360701623E+02  0.49237950122E+02  0.00000000000E+00 0. -1.
</event>
<event>
 7    1  0.1312490E-005  0.1784231E+03  0.7561462E-02  0.1169338E+00
         -1   -1    0    0    0  501 -0.00000000000E+00  0.00000000000E+00  0.32378446733E+02  0.32378446733E+02  0.00000000000E+00 0.  1.
          1   -1    0    0  501    0  0.00000000000E+00 -0.00000000000E+00 -0.10536498819E+04  0.10536498819E+04  0.00000000000E+00 0. -1.
         23    2    1    2    0    0  0.91587866113E+01  0.14307006106E+03 -0.42517411974E+03  0.46580418750E+03  0.12509030040E+03 0.  0.
          5    1    3    3  502    0 -0.38723432367E+02  0.48002592782E+01 -0.53564638403E+02  0.66401728823E+02  0.41800000000E+01 0. -1.
         -5    1    3    3    0  502  0.47882218978E+02  0.13826980179E+03 -0.37160948133E+03  0.39940245868E+03  0.41800000000E+01 0. -1.
        -11    1    1    2    0    0 -0.39532887458E+01 -0.15663674950E+03 -0.53967390392E+03  0.56195962698E+03  0.00000000000E+00 0.  1.
         11    1    1    2    0    0 -0.52054978654E+01  0.13566688434E+02 -0.56423411561E+02  0.58264514203E+02  0.00000000000E+00 0. -1.
</event>
<event>
 7    1  0.1312490E-005  0.9712139E+02  0.7561462E-02  0.1286468E+00
         -2   -1    0    0    0  501 -0.00000000000E+00  0.00000000000E+00  0.21654894102E+02  0.21654894102E+02  0.00000000000E+00 0. -1.
          2   -1    0    0  501    0  0.00000000000E+00 -0.00000000000E+00 -0.64338859820E+03  0.64338859820E+03  0.00000000000E+00 0.  1.
         23    2    1    2    0    0  0.23335592987E+02 -0.99020193404E+01 -0.23954594414E+03  0.27142400129E+03  0.12508448839E+03 0.  0.
          5    1    3    3  502    0 -0.16073658801E+02 -0.46325594777E+02 -0.36248418099E+02  0.61121546555E+02  0.41800000000E+01 0. -1.
         -5    1    3    3    0  502  0.39409251788E+02  0.36423575436E+02 -0.20329752604E+03  0.21030245474E+03  0.41800000000E+01 0. -1.
        -11    1    1    2    0    0  0.26841653569E+01  0.46346545359E+02 -0.14529284356E+03  0.15252939848E+03  0.00000000000E+00 0.  1.
         11    1    1    2    0    0 -0.26019758344E+02 -0.36444526018E+02 -0.23689491640E+03  0.24109009253E+03  0.00000000000E+00 0. -1.
</event>
<event>
 7    1  0.1312490E-005  0.1362749E+03  0.7561462E-02  0.1218431E+00
          1   -1    0    0  501    0  0.00000000000E+00  0.00000000000E+00  0.22463273516E+03  0.22463273516E+03  0.00000000000E+00 0. -1.
         -1   -1    0    0    0  501 -0.00000000000E+00 -0.00000000000E+00 -0.84705633260E+02  0.84705633260E+02  0.00000000000E+00 0.  1.
         23    2    1    2    0    0  0.46251486157E+02  0.67873343507E+02  0.79540792597E+02  0.16946942080E+03  0.12508859328E+03 0.  0.
          5    1    3    3  502    0  0.18791164668E+02 -0.34994947863E+02  0.37927795117E+02  0.55079436162E+02  0.41800000000E+01 0.  1.
         -5    1    3    3    0  502  0.27460321489E+02  0.10286829137E+03  0.41612997480E+02  0.11438998464E+03  0.41800000000E+01 0.  1.
        -11    1    1    2    0    0  0.14524105869E+02 -0.63482774941E+02  0.34043629004E+02  0.73484563285E+02  0.00000000000E+00 0.  1.
         11    1    1    2    0    0 -0.60775592027E+02 -0.43905685661E+01  0.26342680299E+02  0.66384384337E+02  0.00000000000E+00 0. -1.
</event>
<event>
 7    1  0.1312490E-005  0.3196167E+03  0.7561462E-02  0.1075826E+00
         -2   -1    0    0    0  501 -0.00000000000E+00  0.00000000000E+00  0.13962547452E+03  0.13962547452E+03  0.00000000000E+00 0.  1.
          2   -1    0    0  501    0  0.00000000000E+00 -0.00000000000E+00 -0.13439385993E+04  0.13439385993E+04  0.00000000000E+00 0. -1.
         23    2    1    2    0    0  0.20428218303E+03  0.23904614705E+03 -0.13318777148E+03  0.36367698252E+03  0.12509074473E+03 0.  0.
          5    1    3    3  502    0  0.18070248622E+03  0.15742563421E+03 -0.14127774912E+03  0.27823208591E+03  0.41800000000E+01 0. -1.
         -5    1    3    3    0  502  0.23579696813E+02  0.81620512837E+02  0.80899776420E+01  0.85444896605E+02  0.41800000000E+01 0. -1.
        -11    1    1    2    0    0 -0.73572441042E+02 -0.82668721090E+02 -0.24239215000E+03  0.26646008315E+03  0.00000000000E+00 0.  1.
         11    1    1    2    0    0 -0.13070974199E+03 -0.15637742596E+03 -0.82873320330E+03  0.85342700816E+03  0.00000000000E+00 0. -1.
</event>
<event>
 7    1  0.1312490E-005  0.1606957E+03  0.7561462E-02  0.1187914E+00
         -2   -1    0    0    0  501 -0.00000000000E+00  0.00000000000E+00  0.38792217580E+03  0.38792217580E+03  0.00000000000E+00 0.  1.
          2   -1    0    0  501    0  0.00000000000E+00 -0.00000000000E+00 -0.84418591115E+02  0.84418591115E+02  0.00000000000E+00 0. -1.
         23    2    1    2    0    0 -0.10355176493E+03 -0.75826484309E+02  0.24794335099E+03  0.30594147981E+03  0.12510659466E+03 0.  0.
          5    1    3    3  502    0  0.20460908516E+02  0.14738919458E+02  0.32821835651E+02  0.41600839169E+02  0.41800000000E+01 0. -1.
         -5    1    3    3    0  502 -0.12401267344E+03 -0.90565403767E+02  0.21512151534E+03  0.26434064064E+03  0.41800000000E+01 0. -1.
        -11    1    1    2    0    0  0.91219300028E+02  0.31977942575E+02  0.28078442549E+01  0.96702810188E+02  0.00000000000E+00 0. -1.
         11    1    1    2    0    0  0.12332464898E+02  0.43848541733E+02  0.52752389443E+02  0.69696476916E+02  0.00000000000E+00 0.  1.
</event>
<event>
 7    1  0.1312490E-005  0.1359773E+03  0.7561462E-02  0.1218847E+00
          3   -1    0    0  501    0  0.00000000000E+00  0.00000000000E+00  0.22358804571E+03  0.22358804571E+03  0.00000000000E+00 0. -1.
         -3   -1    0    0    0  501 -0.00000000000E+00 -0.00000000000E+00 -0.12622208171E+03  0.12622208171E+03  0.00000000000E+00 0.  1.
         23    2    1    2    0    0  0.43142508217E+02  0.81876746751E+02 -0.39906909687E+02  0.16065145220E+03  0.12510495585E+03 0.  0.
          5    1    3    3  502    0  0.74215456627E+02  0.12145205814E+02 -0.20742403342E+01  0.75347295237E+02  0.41800000000E+01 0. -1.
         -5    1    3    3    0  502 -0.31072948410E+02  0.69731540937E+02 -0.37832669353E+02  0.85304156960E+02  0.41800000000E+01 0. -1.
        -11    1    1    2    0    0  0.16213336360E+02  0.31188167514E+01 -0.76305390698E+00  0.16528204534E+02  0.00000000000E+00 0.  1.
         11    1    1    2    0    0 -0.59355844577E+02 -0.84995563503E+02  0.13803592759E+03  0.17263047068E+03  0.00000000000E+00 0. -1.
</event>
<event>
 6    1  0.1312490E-005  0.1026375E+03  0.7561462E-02  0.1274845E+00
          2   -1    0    0  501    0  0.00000000000E+00  0.00000000000E+00  0.21316630613E+03  0.21316630613E+03  0.00000000000E+00 0. -1.
         -2   -1    0    0    0  501 -0.00000000000E+00 -0.00000000000E+00 -0.97384014678E+02  0.97384014678E+02  0.00000000000E+00 0.  1.
          5    1    1    2  502    0  0.44647859135E+02  0.38800590443E+02  0.58488416321E+02  0.83290361915E+02  0.41800000000E+01 0. -1.
         -5    1    1    2    0  502  0.94284489966E+01 -0.38834698812E+02 -0.57806129753E+02  0.70399222434E+02  0.41800000000E+01 0.  1.
        -11    1    1    2    0    0 -0.77711674743E+02 -0.13018977955E+02  0.77061600194E+02  0.11021383036E+03  0.00000000000E+00 0.  1.
         11    1    1    2    0    0  0.23635366611E+02  0.13053086323E+02  0.38038404690E+02  0.46646906101E+02  0.00000000000E+00 0. -1.
</event>
<event>
 7    1  0.1312490E-005  0.1232862E+03  0.7561462E-02  0.1237772E+00
         -1   -1    0    0    0  501 -0.00000000000E+00  0.00000000000E+00  0.15216805986E+03  0.15216805986E+03  0.00000000000E+00 0.  1.
          1   -1    0    0  501    0  0.00000000000E+00 -0.00000000000E+00 -0.14210078599E+03  0.14210078599E+03  0.00000000000E+00 0. -1.
         23    2    1    2    0    0 -0.94970286485E+02 -0.10513841135E+01  0.32804363845E+02  0.16044914014E+03  0.12508932632E+03 0.  0.
          5    1    3    3  502    0 -0.99502884057E+02  0.41391191228E+02  0.43427994669E+02  0.11626486042E+03  0.41800000000E+01 0.  1.
         -5    1    3    3    0  502  0.45325975716E+01 -0.42442575341E+02 -0.10623630824E+02  0.44184279718E+02  0.41800000000E+01 0.  1.
        -11    1    1    2    0    0  0.46714712255E+02  0.69166122421E+01  0.34678831387E+02  0.58589463322E+02  0.00000000000E+00 0.  1.
         11    1    1    2    0    0  0.48255574230E+02 -0.58652281286E+01 -0.57415921356E+02  0.75230242393E+02  0.00000000000E+00 0. -1.
</event>
<event>
 7    1  0.1312490E-005  0.1492314E+03  0.7561462E-02  0.1201421E+00
          1   -1    0    0  501    0  0.00000000000E+00  0.00000000000E+00  0.20053267080E+03  0.20053267080E+03  0.00000000000E+00 0. -1.
         -1   -1    0    0    0  501 -0.00000000000E+00 -0.00000000000E+00 -0.63352095555E+03  0.63352095555E+03  0.00000000000E+00 0.  1.
         23    2    1    2    0    0  0.11089870942E+03 -0.17384224369E+02 -0.59314890142E+03  0.61650120342E+03  0.12508948620E+03 0.  0.
          5    1    3    3  502    0 -0.98341396238E+01 -0.39087350076E+02 -0.91783786935E+02  0.10033078880E+03  0.41800000000E+01 0.  1.
         -5    1    3    3    0  502  0.12073284904E+03  0.21703125707E+02 -0.50136511449E+03  0.51617041462E+03  0.41800000000E+01 0.  1.
        -11    1    1    2    0    0 -0.70269933273E+02 -0.26772782991E+02  0.44831303722E+02  0.87547080046E+02  0.00000000000E+00 0.  1.
         11    1    1    2    0    0 -0.40628776147E+02  0.44157007359E+02  0.11532931296E+03  0.13000534288E+03  0.00000000000E+00 0. -1.
</event>
<event>
 7    1  0.1312490E-005  0.9697281E+02  0.7561462E-02  0.1286794E+00
          1   -1    0    0  501    0  0.00000000000E+00  0.00000000000E+00  0.19741711928E+03  0.19741711928E+03  0.00000000000E+00 0. -1.
         -1   -1    0    0    0  501 -0.00000000000E+00 -0.00000000000E+00 -0.76595555132E+02  0.76595555132E+02  0.00000000000E+00 0.  1.
         23    2    1    2    0    0 -0.39901200945E+02  0.29261199142E+02  0.38923396346E+02  0.14005055296E+03  0.12510316938E+03 0.  0.
          5    1    3    3  502    0 -0.61433178528E+02  0.26131190636E+02  0.73248894535E+02  0.99195501403E+02  0.41800000000E+01 0.  1.
         -5    1    3    3    0  502  0.21531977583E+02  0.31300085061E+01 -0.34325498189E+02  0.40855051558E+02  0.41800000000E+01 0.  1.
        -11    1    1    2    0    0 -0.20110404269E+02 -0.39211677590E+02  0.24983070151E+02  0.50657060845E+02  0.00000000000E+00 0.  1.
         11    1    1    2    0    0  0.60011605214E+02  0.99504784476E+01  0.56915097647E+02  0.83305060602E+02  0.00000000000E+00 0. -1.
</event>
<event>
 7    1  0.1312490E-005  0.1451815E+03  0.7561462E-02  0.1206522E+00
          2   -1    0    0  501    0  0.00000000000E+00  0.00000000000E+00  0.26510171387E+03  0.26510171387E+03  0.00000000000E+00 0. -1.
         -2   -1    0    0    0  501 -0.00000000000E+00 -0.00000000000E+00 -0.94707795022E+02  0.94707795022E+02  0.00000000000E+00 0.  1.
         23    2    1    2    0    0 -0.21556183446E+02 -0.10845800416E+03  0.52121666706E+02  0.17490448812E+03  0.12508838520E+03 0.  0.
          5    1    3    3  502    0 -0.72659189336E+02 -0.79714507913E+02  0.29279724331E+02  0.11184156304E+03  0.41800000000E+01 0. -1.
         -5    1    3    3    0  502  0.51103005890E+02 -0.28743496247E+02  0.22841942374E+02  0.63062925074E+02  0.41800000000E+01 0. -1.
        -11    1    1    2    0    0  0.40329230631E+02  0.68433863768E+02  0.11606223203E+03  0.14064168037E+03  0.00000000000E+00 0. -1.
         11    1    1    2    0    0 -0.18773047185E+02  0.40024140392E+02  0.22100201104E+01  0.44263340403E+02  0.00000000000E+00 0.  1.
</event>
<event>
 7    1  0.1312490E-005  0.1767676E+03  0.7561462E-02  0.1170969E+00
         -2   -1    0    0    0  501 -0.00000000000E+00  0.00000000000E+00  0.40712806231E+03  0.40712806231E+03  0.00000000000E+00 0.  1.
          2   -1    0    0  501    0  0.00000000000E+00 -0.00000000000E+00 -0.26016212087E+03  0.26016212087E+03  0.00000000000E+00 0. -1.
         23    2    1    2    0    0 -0.12003086046E+03 -0.10898204812E+03  0.32551137854E+03  0.38456202098E+03  0.12508315693E+03 0.  0.
          5    1    3    3  502    0 -0.13380279035E+02  0.19703238146E+02  0.10549487257E+03  0.10823072576E+03  0.41800000000E+01 0.  1.
         -5    1    3    3    0  502 -0.10665058142E+03 -0.12868528626E+03  0.22001650597E+03  0.27633129522E+03  0.41800000000E+01 0.  1.
        -11    1    1    2    0    0  0.98878998093E+02  0.91633624055E+02 -0.20455372353E+03  0.24498163835E+03  0.00000000000E+00 0. -1.
         11    1    1    2    0    0  0.21151862364E+02  0.17348424063E+02  0.26008286430E+02  0.37746523839E+02  0.00000000000E+00 0.  1.
</event>
<event>
 7    1  0.1312490E-005  0.1149615E+03  0.7561462E-02  0.1251648E+00
         -1   -1    0    0    0  501 -0.00000000000E+00  0.00000000000E+00  0.35817694803E+02  0.35817694803E+02  0.00000000000E+00 0.  1.
          1   -1    0    0  501    0  0.00000000000E+00 -0.00000000000E+00 -0.60114920922E+03  0.60114920922E+03  0.00000000000E+00 0. -1.
         23    2    1    2    0    0  0.25026726282E+02 -0.47010253785E+02 -0.12519467591E+03  0.18481766872E+03  0.12509021866E+03 0.  0.
          5    1    3    3  502    0  0.39514175419E+02  0.28838198686E+02 -0.17267188455E+02  0.52044595873E+02  0.41800000000E+01 0.  1.
         -5    1    3    3    0  502 -0.14487449137E+02 -0.75848452471E+02 -0.10792748746E+03  0.13277307285E+03  0.41800000000E+01 0.  1.
        -11    1    1    2    0    0 -0.58312179953E+02  0.35530402299E+02 -0.28465596502E+03  0.29273151221E+03  0.00000000000E+00 0. -1.
         11    1    1    2    0    0  0.33285453670E+02  0.11479851487E+02 -0.15548087348E+03  0.15941772309E+03  0.00000000000E+00 0.  1.
</event>
<event>
 7    1  0.1312490E-005  0.9734511E+02  0.7561462E-02  0.1285980E+00
         -1   -1    0    0    0  501 -0.00000000000E+00  0.00000000000E+00  0.17884355620E+03  0.17884355620E+03  0.00000000000E+00 0.  1.
          1   -1    0    0  501    0  0.00000000000E+00 -0.00000000000E+00 -0.71115618639E+02  0.71115618639E+02  0.00000000000E+00 0. -1.
         23    2    1    2    0    0  0.15788384177E+02  0.11895571026E+02  0.86638091260E+02  0.15344169916E+03  0.12508964186E+03 0.  0.
          5    1    3    3  502    0  0.69536991599E+02  0.67910134318E+01  0.63672244514E+02  0.94621024014E+02  0.41800000000E+01 0.  1.
         -5    1    3    3    0  502 -0.53748607422E+02  0.51045575942E+01  0.22965846746E+02  0.58820675148E+02  0.41800000000E+01 0.  1.
        -11    1    1    2    0    0  0.21246334640E+02 -0.23552505267E+02  0.41832178116E+02  0.52498174882E+02  0.00000000000E+00 0.  1.
         11    1    1    2    0    0 -0.37034718817E+02  0.11656934241E+02 -0.20742331812E+02  0.44019300798E+02  0.00000000000E+00 0. -1.
</event>
<event>
 7    1  0.1312490E-005  0.1121356E+03  0.7561462E-02  0.1256665E+00
          1   -1    0    0  501    0  0.00000000000E+00  0.00000000000E+00  0.18008350901E+03  0.18008350901E+03  0.00000000000E+00 0. -1.
         -1   -1    0    0    0  501 -0.00000000000E+00 -0.00000000000E+00 -0.96640208937E+02  0.96640208937E+02  0.00000000000E+00 0.  1.
         23    2    1    2    0    0  0.44348337408E+02  0.59469973497E+02  0.38438378934E+02  0.15042442519E+03  0.12508615407E+03 0.  0.
          5    1    3    3  502    0  0.27433151971E+02  0.89793727327E+02  0.57913397356E+02  0.11039440786E+03  0.41800000000E+01 0.  1.
         -5    1    3    3    0  502  0.16915185437E+02 -0.30323753831E+02 -0.19475018421E+02  0.40030017328E+02  0.41800000000E+01 0.  1.
        -11    1    1    2    0    0 -0.19336429328E+02  0.97919661244E+01  0.47928505282E+02  0.52601537224E+02  0.00000000000E+00 0. -1.
         11    1    1    2    0    0 -0.25011908079E+02 -0.69261939621E+02 -0.29235841438E+01  0.73697755529E+02  0.00000000000E+00 0.  1.
</event>
<event>
 7    1  0.1312490E-005  0.1209676E+03  0.7561462E-02  0.1241509E+00
          2   -1    0    0  501    0  0.00000000000E+00  0.00000000000E+00  0.15531437604E+03  0.15531437604E+03  0.00000000000E+00 0. -1.
         -2   -1    0    0    0  501 -0.00000000000E+00 -0.00000000000E+00 -0.11693291898E+03  0.11693291898E+03  0.00000000000E+00 0.  1.
         23    2    1    2    0    0 -0.73095203774E+01 -0.72662412286E+02 -0.30982442027E+01  0.14487933880E+03  0.12508864235E+03 0.  0.
          5    1    3    3  502    0  0.51333941731E+02 -0.68556592353E+02 -0.52135014805E+01  0.85905953963E+02  0.41800000000E+01 0. -1.
         -5    1    3    3    0  502 -0.58643462108E+02 -0.41058199331E+01  0.21152572778E+01  0.58973384833E+02  0.41800000000E+01 0. -1.
        -11    1    1    2    0    0 -0.11483074558E+02 -0.82799673203E+01 -0.19643493679E+02  0.24213337317E+02  0.00000000000E+00 0.  1.
         11    1    1    2    0    0  0.18792594935E+02  0.80942379606E+02  0.61123194947E+02  0.10315461890E+03  0.00000000000E+00 0. -1.
</event>
<event>
 7    1  0.1312490E-005  0.1778336E+03  0.7561462E-02  0.1169916E+00
         -1   -1    0    0    0  501 -0.00000000000E+00  0.00000000000E+00  0.48062608351E+02  0.48062608351E+02  0.00000000000E+00 0.  1.
          1   -1    0    0  501    0  0.00000000000E+00 -0.00000000000E+00 -0.79029061324E+03  0.79029061324E+03  0.00000000000E+00 0. -1.
         23    2    1    2    0    0 -0.12791790130E+03  0.85033848446E+02 -0.28107024860E+03  0.34385951661E+03  0.12508052470E+03 0.  0.
          5    1    3    3  502    0 -0.11133715700E+03  0.23552307747E+02 -0.98877996328E+02  0.15081446975E+03  0.41800000000E+01 0.  1.
         -5    1    3    3    0  502 -0.16580744302E+02  0.61481540699E+02 -0.18219225227E+03  0.19304504686E+03  0.41800000000E+01 0.  1.
        -11    1    1    2    0    0  0.91901961707E+02 -0.71662683616E+01 -0.22009612647E+03  0.23862026497E+03  0.00000000000E+00 0.  1.
         11    1    1    2    0    0  0.36015939591E+02 -0.77867580084E+02 -0.24106162981E+03  0.25587344001E+03  0.00000000000E+00 0. -1.
</event>
<event>
 7    1  0.1312490E-005  0.2660164E+03  0.7561462E-02  0.1103581E+00
         -1   -1    0    0    0  501 -0.00000000000E+00  0.00000000000E+00  0.19645696509E+03  0.19645696509E+03  0.00000000000E+00 0.  1.
          1   -1    0    0  501    0  0.00000000000E+00 -0.00000000000E+00 -0.36339399088E+03  0.36339399088E+03  0.00000000000E+00 0. -1.
         23    2    1    2    0    0 -0.64739565708E+02  0.23380920198E+03 -0.60157337730E+02  0.27950831490E+03  0.12509212013E+03 0.  0.
          5    1    3    3  502    0  0.29725747417E+02  0.12573193196E+03 -0.24934639571E+02  0.13164857547E+03  0.41800000000E+01 0. -1.
         -5    1    3    3    0  502 -0.94465313124E+02  0.10807727002E+03 -0.35222698160E+02  0.14785973943E+03  0.41800000000E+01 0. -1.
        -11    1    1    2    0    0  0.75607327857E+02 -0.10230581924E+03 -0.55071601217E+02  0.13862117420E+03  0.00000000000E+00 0.  1.
         11    1    1    2    0    0 -0.10867762149E+02 -0.13150338274E+03 -0.51708086846E+02  0.14172146687E+03  0.00000000000E+00 0. -1.
</event>
<event>
 7    1  0.1312490E-005  0.1567872E+03  0.7561462E-02  0.1192373E+00
          2   -1    0    0  501    0  0.00000000000E+00  0.00000000000E+00  0.82504946844E+02  0.82504946844E+02  0.00000000000E+00 0. -1.
         -2   -1    0    0    0  501 -0.00000000000E+00 -0.00000000000E+00 -0.35735388154E+03  0.35735388154E+03  0.00000000000E+00 0.  1.
         23    2    1    2    0    0  0.11124687593E+03 -0.41794046587E+02 -0.22168743767E+03  0.28091935938E+03  0.12509099376E+03 0.  0.
          5    1    3    3  502    0  0.66299511999E+02 -0.83243906072E+02 -0.17069246992E+03  0.20119285493E+03  0.41800000000E+01 0.  1.
         -5    1    3    3    0  502  0.44947363929E+02  0.41449859485E+02 -0.50994967755E+02  0.79726504450E+02  0.41800000000E+01 0.  1.
        -11    1    1    2    0    0 -0.12545589827E+03  0.37857224028E+02 -0.58161350417E+02  0.14337047989E+03  0.00000000000E+00 0.  1.
         11    1    1    2    0    0  0.14209022346E+02  0.39368225595E+01  0.49998533932E+01  0.15568989108E+02  0.00000000000E+00 0. -1.
</event>
<event>
 7    1  0.1312490E-005  0.1869765E+03  0.7561462E-02  0.1161217E+00
         -1   -1    0    0    0  501 -0.00000000000E+00  0.00000000000E+00  0.27577539099E+02  0.27577539099E+02  0.00000000000E+00 0.  1.
          1   -1    0    0  501    0  0.00000000000E+00 -0.00000000000E+00 -0.14654217269E+04  0.14654217269E+04  0.00000000000E+00 0. -1.
         23    2    1    2    0    0  0.77763948983E+02 -0.14536511241E+03 -0.62997277622E+03  0.66310182657E+03  0.12514026514E+03 0.  0.
          5    1    3    3  502    0 -0.13300625878E+02 -0.96845941334E+02 -0.38528505423E+03  0.39751489081E+03  0.41800000000E+01 0. -1.
         -5    1    3    3    0  502  0.91064574861E+02 -0.48519171078E+02 -0.24468772199E+03  0.26558693576E+03  0.41800000000E+01 0. -1.
        -11    1    1    2    0    0 -0.99998782529E+01 -0.23950149326E+01 -0.64107816099E+01  0.12117416492E+02  0.00000000000E+00 0.  1.
         11    1    1    2    0    0 -0.67764070730E+02  0.14776012734E+03 -0.80146063002E+03  0.81778002298E+03  0.00000000000E+00 0. -1.
</event>
<event>
 7    1  0.1312490E-005  0.1096771E+03  0.7561462E-02  0.1261169E+00
          2   -1    0    0  501    0  0.00000000000E+00  0.00000000000E+00  0.53409066047E+03  0.53409066047E+03  0.00000000000E+00 0. -1.
         -2   -1    0    0    0  501 -0.00000000000E+00 -0.00000000000E+00 -0.27870141677E+02  0.27870141677E+02  0.00000000000E+00 0.  1.
         23    2    1    2    0    0 -0.37363539581E+02  0.14589266930E+02  0.19562300925E+03  0.23563918259E+03  0.12509429173E+03 0.  0.
          5    1    3    3  502    0 -0.80051115219E+02  0.10868834108E+02  0.87010032026E+02  0.11880459030E+03  0.41800000000E+01 0.  1.
         -5    1    3    3    0  502  0.42687575638E+02  0.37204328217E+01  0.10861297723E+03  0.11683459229E+03  0.41800000000E+01 0.  1.
        -11    1    1    2    0    0  0.49998486117E+02 -0.41952914295E+02  0.16115651613E+03  0.17387155697E+03  0.00000000000E+00 0.  1.
         11    1    1    2    0    0 -0.12634946536E+02  0.27363647365E+02  0.14944099341E+03  0.15245006258E+03  0.00000000000E+00 0. -1.
</event>
<event>
 7    1  0.1312490E-005  0.1026590E+03  0.7561462E-02  0.1274802E+00
          2   -1    0    0  501    0  0.00000000000E+00  0.00000000000E+00  0.48009010416E+03  0.48009010416E+03  0.00000000000E+00 0.  1.
         -2   -1    0    0    0  501 -0.00000000000E+00 -0.00000000000E+00 -0.37107060546E+02  0.37107060546E+02  0.00000000000E+00 0. -1.
         23    2    1    2    0    0  0.74827063116E+02 -0.10515768821E+01  0.20265356894E+03  0.24963129663E+03  0.12508844895E+03 0.  0.
          5    1    3    3  502    0  0.80320983608E+02  0.13478754343E+01  0.21814429845E+03  0.23250308497E+03  0.41800000000E+01 0.  1.
         -5    1    3    3    0  502 -0.54939204919E+01 -0.23994523164E+01 -0.15490729506E+02  0.17128211653E+02  0.41800000000E+01 0.  1.
        -11    1    1    2    0    0  0.13123208321E+02  0.23395282270E+02  0.51740691455E+02  0.58280845751E+02  0.00000000000E+00 0. -1.
         11    1    1    2    0    0 -0.87950271437E+02 -0.22343705388E+02  0.18858878321E+03  0.20928502233E+03  0.00000000000E+00 0.  1.
</event>
<event>
 7    1  0.1312490E-005  0.1474547E+03  0.7561462E-02  0.1203636E+00
         -1   -1    0    0    0  501 -0.00000000000E+00  0.00000000000E+00  0.78910144927E+02  0.78910144927E+02  0.00000000000E+00 0.  1.
          1   -1    0    0  501    0  0.00000000000E+00 -0.00000000000E+00 -0.41175149141E+03  0.41175149141E+03  0.00000000000E+00 0. -1.
         23    2    1    2    0    0  0.34005156389E+02  0.10388240241E+03 -0.34261794527E+02  0.15898806074E+03  0.11025166077E+03 0.  0.
          5    1    3    3  502    0  0.66892774858E+02  0.98156426915E+02 -0.38825538893E+02  0.12503688393E+03  0.41800000000E+01 0. -1.
         -5    1    3    3    0  502 -0.32887618469E+02  0.57259754921E+01  0.45637443658E+01  0.33951176807E+02  0.41800000000E+01 0.  1.
        -11    1    1    2    0    0 -0.56859330346E+02 -0.28426727965E+02 -0.10629632694E+03  0.12385463831E+03  0.00000000000E+00 0.  1.
         11    1    1    2    0    0  0.22854173958E+02 -0.75455674443E+02 -0.19228322501E+03  0.20781893728E+03  0.00000000000E+00 0. -1.
</event>
<event>
 7    1  0.1312490E-005  0.7843672E+02  0.7561462E-02  0.1333547E+00
          1   -1    0    0  501    0  0.00000000000E+00  0.00000000000E+00  0.36955575834E+03  0.36955575834E+03  0.00000000000E+00 0. -1.
         -1   -1    0    0    0  501 -0.00000000000E+00 -0.00000000000E+00 -0.37639001017E+02  0.37639001017E+02  0.00000000000E+00 0.  1.
         23    2    1    2    0    0  0.83399447286E+01 -0.84577346148E+01  0.11206128669E+03  0.16836726794E+03  0.12509483196E+03 0.  0.
          5    1    3    3  502    0  0.17733657394E+02 -0.36663082403E+02 -0.10432001318E+02  0.42248825633E+02  0.41800000000E+01 0. -1.
         -5    1    3    3    0  502 -0.93937126652E+01  0.28205347788E+02  0.12249328801E+03  0.12611844230E+03  0.41800000000E+01 0. -1.
        -11    1    1    2    0    0  0.12713880516E+02  0.43341093986E+02  0.68249238212E+02  0.81841625730E+02  0.00000000000E+00 0.  1.
         11    1    1    2    0    0 -0.21053825244E+02 -0.34883359371E+02  0.15160623242E+03  0.15698586569E+03  0.00000000000E+00 0. -1.
</event>
<event>
 7    1  0.1312490E-005  0.1079961E+03  0.7561462E-02  0.1264327E+00
          1   -1    0    0  501    0  0.00000000000E+00  0.00000000000E+00  0.79576988104E+02  0.79576988104E+02  0.00000000000E+00 0. -1.
         -1   -1    0    0    0  501 -0.00000000000E+00 -0.00000000000E+00 -0.29441855747E+03  0.29441855747E+03  0.00000000000E+00 0.  1.
         23    2    1    2    0    0 -0.10269360384E+03 -0.17583705709E+02 -0.11129148771E+03  0.19720124061E+03  0.12508945233E+03 0.  0.
          5    1    3    3  502    0 -0.19017162815E+02 -0.44304919321E+01  0.27839461778E+02  0.34260615470E+02  0.41800000000E+01 0.  1.
         -5    1    3    3    0  502 -0.83676441028E+02 -0.13153213777E+02 -0.13913094949E+03  0.16294062514E+03  0.41800000000E+01 0.  1.
        -11    1    1    2    0    0  0.89431863051E+02  0.28686940284E+02 -0.26160506847E+02  0.97495491127E+02  0.00000000000E+00 0. -1.
         11    1    1    2    0    0  0.13261740791E+02 -0.11103234575E+02 -0.77389574807E+02  0.79298813835E+02  0.00000000000E+00 0.  1.
</event>
<event>
 7    1  0.1312490E-005  0.1192293E+03  0.7561462E-02  0.1244374E+00
         -1   -1    0    0    0  501 -0.00000000000E+00  0.00000000000E+00  0.68516766747E+02  0.68516766747E+02  0.00000000000E+00 0.  1.
          1   -1    0    0  501    0  0.00000000000E+00 -0.00000000000E+00 -0.35259947308E+03  0.35259947308E+03  0.00000000000E+00 0. -1.
         23    2    1    2    0    0  0.62008721984E+02  0.57096066090E+02 -0.53305134627E+02  0.15998209702E+03  0.12509113328E+03 0.  0.
          5    1    3    3  502    0 -0.19698799383E+02  0.61741739413E+02 -0.41800299391E+02  0.77232263414E+02  0.41800000000E+01 0.  1.
         -5    1    3    3    0  502  0.81707521367E+02 -0.46456733225E+01 -0.11504835236E+02  0.82749833610E+02  0.41800000000E+01 0.  1.
        -11    1    1    2    0    0 -0.27354955531E+02 -0.48788474003E+02 -0.44493614296E+02  0.71472305831E+02  0.00000000000E+00 0. -1.
         11    1    1    2    0    0 -0.34653766453E+02 -0.83075920870E+01 -0.18628395741E+03  0.18966183698E+03  0.00000000000E+00 0.  1.
</event>
<event>
 7    1  0.1312490E-005  0.7639462E+02  0.7561462E-02  0.1339606E+00
         -1   -1    0    0    0  501 -0.00000000000E+00  0.00000000000E+00  0.13867453349E+02  0.13867453349E+02  0.00000000000E+00 0.  1.
          1   -1    0    0  501    0  0.00000000000E+00 -0.00000000000E+00 -0.74249828661E+03  0.74249828661E+03  0.00000000000E+00 0. -1.
         23    2    1    2    0    0  0.12930436726E+02 -0.21139034952E+01 -0.40567451346E+03  0.42088074809E+03  0.11134239293E+03 0.  0.
          5    1    3    3  502    0  0.37657707139E+02  0.35253682274E+01 -0.38758666407E+03  0.38945015817E+03  0.41800000000E+01 0. -1.
         -5    1    3    3    0  502 -0.24727270414E+02 -0.56392717226E+01 -0.18087849383E+02  0.31430589924E+02  0.41800000000E+01 0.  1.
        -11    1    1    2    0    0 -0.30689695066E+01 -0.42870221847E+02 -0.12296881977E+03  0.13026359864E+03  0.00000000000E+00 0.  1.
         11    1    1    2    0    0 -0.98614672189E+01  0.44984125342E+02 -0.19998750004E+03  0.20522139323E+03  0.00000000000E+00 0. -1.
</event>
<event>
 6    1  0.1312490E-005  0.1315493E+03  0.7561462E-02  0.1225175E+00
         -4   -1    0    0    0  501 -0.00000000000E+00  0.00000000000E+00  0.96827322865E+02  0.96827322865E+02  0.00000000000E+00 0.  1.
          4   -1    0    0  501    0  0.00000000000E+00 -0.00000000000E+00 -0.32176680963E+03  0.32176680963E+03  0.00000000000E+00 0. -1.
          5    1    1    2  502    0 -0.82895416746E+02  0.64450496096E+01  0.36477709938E+02  0.90891608547E+02  0.41800000000E+01 0. -1.
         -5    1    1    2    0  502  0.31696104083E+02  0.42239975850E+02 -0.34568784246E+02  0.63256081274E+02  0.41800000000E+01 0.  1.
        -11    1    1    2    0    0  0.30120852183E+02  0.31724992299E+02 -0.12812166524E+03  0.13538427522E+03  0.00000000000E+00 0.  1.
         11    1    1    2    0    0  0.21078460480E+02 -0.80410017759E+02 -0.98726747221E+02  0.12906216746E+03  0.00000000000E+00 0. -1.
</event>
<event>
 7    1  0.1312490E-005  0.9864315E+02  0.7561462E-02  0.1283175E+00
          2   -1    0    0  501    0  0.00000000000E+00  0.00000000000E+00  0.14707554446E+03  0.14707554446E+03  0.00000000000E+00 0.  1.
         -2   -1    0    0    0  501 -0.00000000000E+00 -0.00000000000E+00 -0.10884548078E+03  0.10884548078E+03  0.00000000000E+00 0. -1.
         23    2    1    2    0    0  0.58439616238E+02 -0.22576251773E+02 -0.23298726353E+01  0.13991620768E+03  0.12508493505E+03 0.  0.
          5    1    3    3  502    0  0.73430957140E+02 -0.58136231328E+02 -0.22149079520E+02  0.96332657926E+02  0.41800000000E+01 0.  1.
         -5    1    3    3    0  502 -0.14991340902E+02  0.35559979556E+02  0.19819206885E+02  0.43583549759E+02  0.41800000000E+01 0.  1.
        -11    1    1    2    0    0 -0.40641698274E+02  0.73613014530E+01  0.68229746422E+02  0.79757348843E+02  0.00000000000E+00 0.  1.
         11    1    1    2    0    0 -0.17797917965E+02  0.15214950320E+02 -0.27669810102E+02  0.36247468714E+02  0.00000000000E+00 0. -1.
</event>
<event>
 7    1  0.1312490E-005  0.1602411E+03  0.7561462E-02  0.1188425E+00
         -3   -1    0    0    0  501 -0.00000000000E+00  0.00000000000E+00  0.17181867321E+03  0.17181867321E+03  0.00000000000E+00 0.  1.
          3   -1    0    0  501    0  0.00000000000E+00 -0.00000000000E+00 -0.21005496208E+03  0.21005496208E+03  0.00000000000E+00 0. -1.
         23    2    1    2    0    0  0.90573997862E+02  0.93579924511E+02  0.57690602254E+02  0.18927332975E+03  0.12464082961E+03 0.  0.
          5    1    3    3  502    0 -0.10261915272E+02  0.36638023016E+02  0.62506497173E+02  0.73295199191E+02  0.41800000000E+01 0. -1.
         -5    1    3    3    0  502  0.10083591313E+03  0.56941901495E+02 -0.48158949187E+01  0.11597813056E+03  0.41800000000E+01 0.  1.
        -11    1    1    2    0    0 -0.30316380619E+02  0.20992645443E+02 -0.28734605334E+02  0.46748814319E+02  0.00000000000E+00 0.  1.
         11    1    1    2    0    0 -0.60257617243E+02 -0.11457256995E+03 -0.67192285798E+02  0.14585149122E+03  0.00000000000E+00 0. -1.
</event>
<event>
 7    1  0.1312490E-005  0.1043183E+03  0.7561462E-02  0.1271469E+00
         -1   -1    0    0    0  501 -0.00000000000E+00  0.00000000000E+00  0.38954415786E+02  0.38954415786E+02  0.00000000000E+00 0.  1.
          1   -1    0    0  501    0  0.00000000000E+00 -0.00000000000E+00 -0.30894355540E+03  0.30894355540E+03  0.00000000000E+00 0. -1.
         23    2    1    2    0    0  0.12258307391E+02  0.12417040423E+02 -0.13350858191E+03  0.18377458639E+03  0.12507640931E+03 0.  0.
          5    1    3    3  502    0  0.84115814678E+01 -0.53621027990E+02 -0.87634456815E+02  0.10316607857E+03  0.41800000000E+01 0.  1.
         -5    1    3    3    0  502  0.38467259232E+01  0.66038068413E+02 -0.45874125094E+02  0.80608507821E+02  0.41800000000E+01 0.  1.
        -11    1    1    2    0    0 -0.22434348119E+02 -0.46886316985E+02 -0.10116342344E+03  0.11373506468E+03  0.00000000000E+00 0. -1.
         11    1    1    2    0    0  0.10176040728E+02  0.34469276562E+02 -0.35317134265E+02  0.50388320118E+02  0.00000000000E+00 0.  1.
</event>
<event>
 7    1  0.1312490E-005  0.1050153E+03  0.7561462E-02  0.1270089E+00
          2   -1    0    0  501    0  0.00000000000E+00  0.00000000000E+00  0.11047584977E+03  0.11047584977E+03  0.00000000000E+00 0. -1.
         -2   -1    0    0    0  501 -0.00000000000E+00 -0.00000000000E+00 -0.12143210339E+03  0.12143210339E+03  0.00000000000E+00 0.  1.
         23    2    1    2    0    0  0.72942222867E+01 -0.34904467427E+02 -0.27046329540E+02  0.13285561849E+03  0.12509030298E+03 0.  0.
          5    1    3    3  502    0 -0.44783340748E+02 -0.43578787451E+02  0.15964984043E+02  0.64629803030E+02  0.41800000000E+01 0.  1.
         -5    1    3    3    0  502  0.52077563034E+02  0.86743200237E+01 -0.43011313583E+02  0.68225815463E+02  0.41800000000E+01 0.  1.
        -11    1    1    2    0    0 -0.27936717312E+02 -0.20935183464E+02 -0.62503302253E+01  0.35465598949E+02  0.00000000000E+00 0.  1.
         11    1    1    2    0    0  0.20642495026E+02  0.55839650891E+02  0.22340406146E+02  0.63586735718E+02  0.00000000000E+00 0. -1.
</event>
<event>
 7    1  0.1312490E-005  0.2040347E+03  0.7561462E-02  0.1146379E+00
          1   -1    0    0  501    0  0.00000000000E+00  0.00000000000E+00  0.29439709549E+03  0.29439709549E+03  0.00000000000E+00 0. -1.
         -1   -1    0    0    0  501 -0.00000000000E+00 -0.00000000000E+00 -0.22342798091E+03  0.22342798091E+03  0.00000000000E+00 0.  1.
         23    2    1    2    0    0  0.16512234384E+03 -0.63029754258E+02 -0.11531834887E+03  0.24532740137E+03  0.12509625863E+03 0.  0.
          5    1    3    3  502    0  0.13067133333E+03  0.13958126631E+02 -0.79094727345E+02  0.15343817956E+03  0.41800000000E+01 0. -1.
         -5    1    3    3    0  502  0.34451010504E+02 -0.76987880889E+02 -0.36223621520E+02  0.91889221808E+02  0.41800000000E+01 0. -1.
        -11    1    1    2    0    0 -0.91243989871E+01  0.31752571329E+02  0.89063640290E+01  0.34217009850E+02  0.00000000000E+00 0.  1.
         11    1    1    2    0    0 -0.15599794485E+03  0.31277182930E+02  0.17738109941E+03  0.23828066518E+03  0.00000000000E+00 0. -1.
</event>
<event>
 6    1  0.1312490E-005  0.1474810E+03  0.7561462E-02  0.1203603E+00
          2   -1    0    0  501    0  0.00000000000E+00  0.00000000000E+00  0.15208918435E+04  0.15208918435E+04  0.00000000000E+00 0. -1.
         -2   -1    0    0    0  501 -0.00000000000E+00 -0.00000000000E+00 -0.20253033139E+02  0.20253033139E+02  0.00000000000E+00 0.  1.
          5    1    1    2  502    0 -0.90495534432E+01  0.18974395685E+02  0.46181701736E+03  0.46231412701E+03  0.41800000000E+01 0. -1.
         -5    1    1    2    0  502  0.92818802395E+02  0.80303975681E+02  0.31980367715E+03  0.34257250752E+03  0.41800000000E+01 0.  1.
        -11    1    1    2    0    0  0.14817094771E+02 -0.12663298757E+02  0.37953684667E+02  0.42666000664E+02  0.00000000000E+00 0.  1.
         11    1    1    2    0    0 -0.98586343724E+02 -0.86615072610E+02  0.68106443116E+03  0.69359224142E+03  0.00000000000E+00 0. -1.
</event>
<event>
 7    1  0.1312490E-005  0.9186074E+02  0.7561462E-02  0.1298407E+00
          2   -1    0    0  501    0  0.00000000000E+00  0.00000000000E+00  0.27581372565E+03  0.27581372565E+03  0.00000000000E+00 0. -1.
         -2   -1    0    0    0  501 -0.00000000000E+00 -0.00000000000E+00 -0.44756442407E+02  0.44756442407E+02  0.00000000000E+00 0.  1.
         23    2    1    2    0    0  0.13270488750E+02  0.16330311196E+02  0.11822936706E+03  0.17340690484E+03  0.12509590911E+03 0.  0.
          5    1    3    3  502    0  0.44923441070E+02  0.40723000425E+02  0.11855489445E+03  0.13322617505E+03  0.41800000000E+01 0. -1.
         -5    1    3    3    0  502 -0.31652952319E+02 -0.24392689228E+02 -0.32552738663E+00  0.40180729789E+02  0.41800000000E+01 0. -1.
        -11    1    1    2    0    0  0.26002594338E+02  0.17156675213E+02  0.80363561862E+02  0.86190419954E+02  0.00000000000E+00 0. -1.
         11    1    1    2    0    0 -0.39273083089E+02 -0.33486986409E+02  0.32464354319E+02  0.60972843262E+02  0.00000000000E+00 0.  1.
</event>
<event>
 7    1  0.1312490E-005  0.8335492E+02  0.7561462E-02  0.1319792E+00
         -1   -1    0    0    0  501 -0.00000000000E+00  0.00000000000E+00  0.11490024001E+03  0.11490024001E+03  0.00000000000E+00 0.  1.
          1   -1    0    0  501    0  0.00000000000E+00 -0.00000000000E+00 -0.52672958241E+03  0.52672958241E+03  0.00000000000E+00 0. -1.
         23    2    1    2    0    0  0.40382594266E+02  0.16715770874E+02  0.69608517369E+02  0.14968465410E+03  0.12509987637E+03 0.  0.
          5    1    3    3  502    0  0.17024306646E+02  0.32653904675E+02  0.10078723971E+03  0.10738549528E+03  0.41800000000E+01 0. -1.
         -5    1    3    3    0  502  0.23358287621E+02 -0.15938133801E+02 -0.31178722346E+02  0.42299158818E+02  0.41800000000E+01 0. -1.
        -11    1    1    2    0    0 -0.30888452545E+02 -0.54206146536E+02 -0.30594709338E+03  0.31224353760E+03  0.00000000000E+00 0.  1.
         11    1    1    2    0    0 -0.94941417207E+01  0.37490375662E+02 -0.17549076639E+03  0.17970163072E+03  0.00000000000E+00 0. -1.
</event>
<event>
 7    1  0.1312490E-005  0.1205029E+03  0.7561462E-02  0.1242270E+00
         -4   -1    0    0    0  501 -0.00000000000E+00  0.00000000000E+00  0.35412809805E+02  0.35412809805E+02  0.00000000000E+00 0.  1.
          4   -1    0    0  501    0  0.00000000000E+00 -0.00000000000E+00 -0.61653443317E+03  0.61653443317E+03  0.00000000000E+00 0. -1.
         23    2    1    2    0    0  0.78257186891E+02 -0.62450831229E+02 -0.28312580702E+03  0.32532000953E+03  0.12509433391E+03 0.  0.
          5    1    3    3  502    0  0.73338063883E+02  0.11507509062E+01 -0.65249969255E+02  0.98258977857E+02  0.41800000000E+01 0.  1.
         -5    1    3    3    0  502  0.49191230083E+01 -0.63601582135E+02 -0.21787583776E+03  0.22706103167E+03  0.41800000000E+01 0.  1.
        -11    1    1    2    0    0 -0.34840595093E+02  0.44778123839E+02 -0.26048081584E+03  0.26658807712E+03  0.00000000000E+00 0. -1.
         11    1    1    2    0    0 -0.43416591798E+02  0.17672707390E+02 -0.37515000508E+02  0.60039156332E+02  0.00000000000E+00 0.  1.
</event>
<event>
 7    1  0.1312490E-005  0.8993923E+02  0.7561462E-02  0.1302999E+00
          1   -1    0    0  501    0  0.00000000000E+00  0.00000000000E+00  0.11384030520E+03  0.11384030520E+03  0.00000000000E+00 0. -1.
         -1   -1    0    0    0  501 -0.00000000000E+00 -0.00000000000E+00 -0.18118973309E+03  0.18118973309E+03  0.00000000000E+00 0.  1.
         23    2    1    2    0    0  0.90439951339E+01  0.21595551766E+02 -0.12934412430E+03  0.18145315558E+03  0.12508870243E+03 0.  0.
          5    1    3    3  502    0  0.45668096874E+02 -0.23911379408E+02 -0.16447359113E+02  0.54270776290E+02  0.41800000000E+01 0. -1.
         -5    1    3    3    0  502 -0.36624101740E+02  0.45506931175E+02 -0.11289676519E+03  0.12718237929E+03  0.41800000000E+01 0. -1.
        -11    1    1    2    0    0  0.24310398066E+02 -0.26411133870E+02  0.70241517059E+02  0.78882280426E+02  0.00000000000E+00 0. -1.
         11    1    1    2    0    0 -0.33354393200E+02  0.48155821031E+01 -0.82468206505E+01  0.34694602283E+02  0.00000000000E+00 0.  1.
</event>
<event>
 7    1  0.1312490E-005  0.1149796E+03  0.7561462E-02  0.1251617E+00
         -1   -1    0    0    0  501 -0.00000000000E+00  0.00000000000E+00  0.24436701181E+02  0.24436701181E+02  0.00000000000E+00 0.  1.
          1   -1    0    0  501    0  0.00000000000E+00 -0.00000000000E+00 -0.57180535912E+03  0.57180535912E+03  0.00000000000E+00 0. -1.
         23    2    1    2    0    0 -0.31161575050E+02  0.31778973058E+02 -0.26601364030E+03  0.29731033467E+03  0.12509688800E+03 0.  0.
          5    1    3    3  502    0 -0.77864875907E+02  0.35732281204E+01 -0.15609588006E+03  0.17452536501E+03  0.41800000000E+01 0. -1.
         -5    1    3    3    0  502  0.46703300856E+02  0.28205744938E+02 -0.10991776024E+03  0.12278496966E+03  0.41800000000E+01 0. -1.
        -11    1    1    2    0    0 -0.28182800610E+02 -0.24590136889E+02 -0.71019284719E+02  0.80266330952E+02  0.00000000000E+00 0.  1.
         11    1    1    2    0    0  0.59344375660E+02 -0.71888361693E+01 -0.21033573292E+03  0.21866539468E+03  0.00000000000E+00 0. -1.
</event>
<event>
 7    1  0.1312490E-005  0.8049352E+02  0.7561462E-02  0.1327657E+00
         -2   -1    0    0    0  501 -0.00000000000E+00  0.00000000000E+00  0.20500795520E+03  0.20500795520E+03  0.00000000000E+00 0.  1.
          2   -1    0    0  501    0  0.00000000000E+00 -0.00000000000E+00 -0.10342320435E+03  0.10342320435E+03  0.00000000000E+00 0. -1.
         23    2    1    2    0    0 -0.16161962061E+02  0.37006753674E+02  0.17111189414E+03  0.21577288471E+03  0.12509176082E+03 0.  0.
          5    1    3    3  502    0 -0.54605241119E+02  0.13405027525E+02  0.23008966408E+02  0.60895911651E+02  0.41800000000E+01 0.  1.
         -5    1    3    3    0  502  0.38443279058E+02  0.23601726148E+02  0.14810292773E+03  0.15487697306E+03  0.41800000000E+01 0.  1.
        -11    1    1    2    0    0  0.28140054456E+02 -0.10184067602E+02 -0.23475724177E+02  0.38035345711E+02  0.00000000000E+00 0. -1.
         11    1    1    2    0    0 -0.11978092395E+02 -0.26822686071E+02 -0.46051419107E+02  0.54622929135E+02  0.00000000000E+00 0.  1.
</event>
<event>
 7    1  0.1312490E-005  0.1036692E+03  0.7561462E-02  0.1272764E+00
         -1   -1    0    0    0  501 -0.00000000000E+00  0.00000000000E+00  0.69222313316E+02  0.69222313316E+02  0.00000000000E+00 0.  1.
          1   -1    0    0  501    0  0.00000000000E+00 -0.00000000000E+00 -0.21029932750E+03  0.21029932750E+03  0.00000000000E+00 0. -1.
         23    2    1    2    0    0  0.68069067473E+01  0.31871987666E+02 -0.30407661953E+02  0.13279849195E+03  0.12509458814E+03 0.  0.
          5    1    3    3  502    0 -0.48397839885E+02  0.26745567478E+01 -0.47419028637E+02  0.67937771793E+02  0.41800000000E+01 0.  1.
         -5    1    3    3    0  502  0.55204746632E+02  0.29197430919E+02  0.17011366684E+02  0.64860720158E+02  0.41800000000E+01 0.  1.
        -11    1    1    2    0    0  0.39432769264E+02  0.86352345820E+00 -0.50521542990E+02  0.64094580666E+02  0.00000000000E+00 0. -1.
         11    1    1    2    0    0 -0.46239676011E+02 -0.32735511125E+02 -0.60147809244E+02  0.82628568202E+02  0.00000000000E+00 0.  1.
</event>
<event>
 7    1  0.1312490E-005  0.8615488E+02  0.7561462E-02  0.1312440E+00
         -2   -1    0    0    0  501 -0.00000000000E+00  0.00000000000E+00  0.12633889775E+03  0.12633889775E+03  0.00000000000E+00 0.  1.
          2   -1    0    0  501    0  0.00000000000E+00 -0.00000000000E+00 -0.11145176478E+03  0.11145176478E+03  0.00000000000E+00 0. -1.
         23    2    1    2    0    0  0.10239008974E+02 -0.50388289586E+02 -0.56735902604E+01  0.13209752827E+03  0.12154731719E+03 0.  0.
          5    1    3    3  502    0  0.21926209185E+02 -0.53484224070E+02 -0.55747711546E+02  0.80415176529E+02  0.41800000000E+01 0. -1.
         -5    1    3    3    0  502 -0.11687200211E+02  0.30959344840E+01  0.50074121286E+02  0.51682351743E+02  0.41800000000E+01 0.  1.
        -11    1    1    2    0    0 -0.98742968789E+01 -0.24633832587E+02 -0.38095284648E+01  0.26811190833E+02  0.00000000000E+00 0.  1.
         11    1    1    2    0    0 -0.36471209494E+00  0.75022122173E+02  0.24370251692E+02  0.78881943420E+02  0.00000000000E+00 0. -1.
</event>
<event>
 7    1  0.1312490E-005  0.9656536E+02  0.7561462E-02  0.1287689E+00
         -3   -1    0    0    0  501 -0.00000000000E+00  0.00000000000E+00  0.77665276677E+02  0.77665276677E+02  0.00000000000E+00 0.  1.
          3   -1    0    0  501    0  0.00000000000E+00 -0.00000000000E+00 -0.20699960435E+03  0.20699960435E+03  0.00000000000E+00 0. -1.
         23    2    1    2    0    0  0.11944430344E+02 -0.16706988486E+02 -0.15809398341E+02  0.12775085795E+03  0.12509417153E+03 0.  0.
          5    1    3    3  502    0  0.30988724540E+02 -0.42744392826E+02  0.37784512344E+02  0.65057866087E+02  0.41800000000E+01 0.  1.
         -5    1    3    3    0  502 -0.19044294196E+02  0.26037404341E+02 -0.53593910685E+02  0.62692991863E+02  0.41800000000E+01 0.  1.
        -11    1    1    2    0    0  0.40042459469E+02  0.34334580875E+02 -0.46851394586E+02  0.70550089857E+02  0.00000000000E+00 0.  1.
         11    1    1    2    0    0 -0.51986889812E+02 -0.17627592389E+02 -0.66673534748E+02  0.86363933222E+02  0.00000000000E+00 0. -1.
</event>
<event>
 7    1  0.1312490E-005  0.1169553E+03  0.7561462E-02  0.1248206E+00
         -2   -1    0    0    0  501 -0.00000000000E+00  0.00000000000E+00  0.36944509097E+03  0.36944509097E+03  0.00000000000E+00 0.  1.
          2   -1    0    0  501    0  0.00000000000E+00 -0.00000000000E+00 -0.52442075629E+02  0.52442075629E+02  0.00000000000E+00 0. -1.
         23    2    1    2    0    0  0.84621822151E+02  0.10501624853E+02  0.14863589753E+03  0.21215867604E+03  0.12509011502E+03 0.  0.
          5    1    3    3  502    0  0.10587067527E+03 -0.15988337943E+02  0.14101080288E+03  0.17710377117E+03  0.41800000000E+01 0. -1.
         -5    1    3    3    0  502 -0.21248853114E+02  0.26489962796E+02  0.76250946508E+01  0.35054904878E+02  0.41800000000E+01 0. -1.
        -11    1    1    2    0    0 -0.60125577294E+02 -0.23805311108E+02  0.16992038709E+03  0.18180955924E+03  0.00000000000E+00 0.  1.
         11    1    1    2    0    0 -0.24496244858E+02  0.13303686255E+02 -0.15532692873E+01  0.27918931312E+02  0.00000000000E+00 0. -1.
</event>
<event>
 7    1  0.1312490E-005  0.9900346E+02  0.7561462E-02  0.1282406E+00
         -2   -1    0    0    0  501 -0.00000000000E+00  0.00000000000E+00  0.12800071331E+02  0.12800071331E+02  0.00000000000E+00 0.  1.
          2   -1    0    0  501    0  0.00000000000E+00 -0.00000000000E+00 -0.10371060495E+04  0.10371060495E+04  0.00000000000E+00 0. -1.
         23    2    1    2    0    0  0.13727896624E+02  0.27788123833E+02 -0.58863016200E+03  0.60257849319E+03  0.12511889492E+03 0.  0.
          5    1    3    3  502    0  0.40864368274E+02 -0.16700190348E+02 -0.47978140942E+03  0.48182617838E+03  0.41800000000E+01 0. -1.
         -5    1    3    3    0  502 -0.27136471651E+02  0.44488314181E+02 -0.10884875258E+03  0.12075231481E+03  0.41800000000E+01 0. -1.
        -11    1    1    2    0    0 -0.38934493620E+02  0.22618571306E+02 -0.20029086289E+03  0.20528985440E+03  0.00000000000E+00 0. -1.
         11    1    1    2    0    0  0.25206596996E+02 -0.50406695139E+02 -0.23538495325E+03  0.24203777322E+03  0.00000000000E+00 0.  1.
</event>
<event>
 6    1  0.1312490E-005  0.1604733E+03  0.7561462E-02  0.1188163E+00
         -2   -1    0    0    0  501 -0.00000000000E+00  0.00000000000E+00  0.49195698707E+03  0.49195698707E+03  0.00000000000E+00 0.  1.
          2   -1    0    0  501    0  0.00000000000E+00 -0.00000000000E+00 -0.11886115642E+03  0.11886115642E+03  0.00000000000E+00 0. -1.
          5    1    1    2  502    0 -0.10869119308E+03  0.70504371039E+02  0.26421076319E+03  0.29429482084E+03  0.41800000000E+01 0. -1.
         -5    1    1    2    0  502  0.12473824011E+03 -0.48557023024E+02  0.16536248553E+03  0.21279012442E+03  0.41800000000E+01 0.  1.
        -11    1    1    2    0    0  0.41254388714E+01 -0.33769759055E+02  0.81694171675E+01  0.34987930052E+02  0.00000000000E+00 0.  1.
         11    1    1    2    0    0 -0.20172485904E+02  0.11822411039E+02 -0.64646835236E+02  0.68745268174E+02  0.00000000000E+00 0. -1.
</event>
<event>
 7    1  0.1312490E-005  0.1206679E+03  0.7561462E-02  0.1241999E+00
         -1   -1    0    0    0  501 -0.00000000000E+00  0.00000000000E+00  0.10064553637E+03  0.10064553637E+03  0.00000000000E+00 0.  1.
          1   -1    0    0  501    0  0.00000000000E+00 -0.00000000000E+00 -0.17663762510E+03  0.17663762510E+03  0.00000000000E+00 0. -1.
         23    2    1    2    0    0  0.71221630113E+02  0.24415912059E+02 -0.32179303471E+02  0.14950478178E+03  0.12509002697E+03 0.  0.
          5    1    3    3  502    0  0.70541882559E+02  0.67975551630E+02 -0.54092851337E+01  0.98201657726E+02  0.41800000000E+01 0. -1.
         -5    1    3    3    0  502  0.67974755376E+00 -0.43559639571E+02 -0.26770018337E+02  0.51303124058E+02  0.41800000000E+01 0. -1.
        -11    1    1    2    0    0 -0.23586143148E+02  0.22544134917E+02 -0.50956553930E+02  0.60507144670E+02  0.00000000000E+00 0. -1.
         11    1    1    2    0    0 -0.47635486965E+02 -0.46960046976E+02  0.71437686716E+01  0.67271235021E+02  0.00000000000E+00 0.  1.
</event>
<event>
 7    1  0.1312490E-005  0.1413818E+03  0.7561462E-02  0.1211482E+00
         -2   -1    0    0    0  501 -0.00000000000E+00  0.00000000000E+00  0.25168472433E+02  0.25168472433E+02  0.00000000000E+00 0.  1.
          2   -1    0    0  501    0  0.00000000000E+00 -0.00000000000E+00 -0.11899876559E+04  0.11899876559E+04  0.00000000000E+00 0. -1.
         23    2    1    2    0    0  0.87700496551E+02 -0.75763688260E+02 -0.37695576962E+03  0.41373251630E+03  0.12508968479E+03 0.  0.
          5    1    3    3  502    0  0.50326880019E+02 -0.85447250920E+02 -0.12905593960E+03  0.16280950675E+03  0.41800000000E+01 0. -1.
         -5    1    3    3    0  502  0.37373616533E+02  0.96835626601E+01 -0.24789983002E+03  0.25092300955E+03  0.41800000000E+01 0. -1.
        -11    1    1    2    0    0 -0.10334972430E+02 -0.19430327581E+02 -0.78259897090E+02  0.81295515113E+02  0.00000000000E+00 0.  1.
         11    1    1    2    0    0 -0.77365524121E+02  0.95194015841E+02 -0.70960351674E+03  0.72012809690E+03  0.00000000000E+00 0. -1.
</event>
<event>
 7    1  0.1312490E-005  0.8012317E+02  0.7561462E-02  0.1328702E+00
          3   -1    0    0  501    0  0.00000000000E+00  0.00000000000E+00  0.21321929462E+03  0.21321929462E+03  0.00000000000E+00 0. -1.
         -3   -1    0    0    0  501 -0.00000000000E+00 -0.00000000000E+00 -0.15322999494E+03  0.15322999494E+03  0.00000000000E+00 0.  1.
         23    2    1    2    0    0 -0.15108506739E+02 -0.16108313503E+02 -0.11498975964E+03  0.16838844201E+03  0.12101354404E+03 0.  0.
          5    1    3    3  502    0 -0.11868820009E+02  0.30901832230E+02  0.99294493261E+01  0.34811757891E+02  0.41800000000E+01 0. -1.
         -5    1    3    3    0  502 -0.32396867295E+01 -0.47010145732E+02 -0.12491920897E+03  0.13357668412E+03  0.41800000000E+01 0.  1.
        -11    1    1    2    0    0  0.46338643197E+02  0.13344581993E+02  0.15122189625E+03  0.15872431958E+03  0.00000000000E+00 0. -1.
         11    1    1    2    0    0 -0.31230136458E+02  0.27637315091E+01  0.23757163068E+02  0.39336527962E+02  0.00000000000E+00 0.  1.
</event>
<event>
 7    1  0.1312490E-005  0.7889674E+02  0.7561462E-02  0.1332212E+00
         -1   -1    0    0    0  501 -0.00000000000E+00  0.00000000000E+00  0.45537117119E+03  0.45537117119E+03  0.00000000000E+00 0.  1.
          1   -1    0    0  501    0  0.00000000000E+00 -0.00000000000E+00 -0.42973750204E+02  0.42973750204E+02  0.00000000000E+00 0. -1.
         23    2    1    2    0    0 -0.54781530561E+02 -0.24375401212E+02  0.34322521244E+03  0.37019745506E+03  0.12508969983E+03 0.  0.
          5    1    3    3  502    0 -0.13744276605E+02 -0.46374222820E+02  0.30763591072E+03  0.31144309214E+03  0.41800000000E+01 0.  1.
         -5    1    3    3    0  502 -0.41037253955E+02  0.21998821609E+02  0.35589301723E+02  0.58754362915E+02  0.41800000000E+01 0.  1.
        -11    1    1    2    0    0  0.28909669044E+02  0.22356261836E+02 -0.15419141031E+02  0.39665114618E+02  0.00000000000E+00 0. -1.
         11    1    1    2    0    0  0.25871861516E+02  0.20191393754E+01  0.84591349581E+02  0.88482351721E+02  0.00000000000E+00 0.  1.
</event>
<event>
 7    1  0.1312490E-005  0.9620071E+02  0.7561462E-02  0.1288494E+00
         -3   -1    0    0    0  501 -0.00000000000E+00  0.00000000000E+00  0.13749468162E+03  0.13749468162E+03  0.00000000000E+00 0.  1.
          3   -1    0    0  501    0  0.00000000000E+00 -0.00000000000E+00 -0.12927728362E+03  0.12927728362E+03  0.00000000000E+00 0. -1.
         23    2    1    2    0    0  0.42462814450E+02 -0.46840952277E+02  0.48584391120E+02  0.14834149996E+03  0.12509033587E+03 0.  0.
          5    1    3    3  502    0  0.47352012007E+02 -0.29825244052E+01 -0.31292248058E+02  0.56989347087E+02  0.41800000000E+01 0. -1.
         -5    1    3    3    0  502 -0.48891975573E+01 -0.43858427872E+02  0.79876639178E+02  0.91352152873E+02  0.41800000000E+01 0. -1.
        -11    1    1    2    0    0  0.19347541047E+02  0.31156324329E+02  0.90263213818E+01  0.37769278097E+02  0.00000000000E+00 0.  1.
         11    1    1    2    0    0 -0.61810355497E+02  0.15684627948E+02 -0.49393314504E+02  0.80661187185E+02  0.00000000000E+00 0. -1.
</event>
<event>
 7    1  0.1312490E-005  0.1002649E+03  0.7561462E-02  0.1279740E+00
         -1   -1    0    0    0  501 -0.00000000000E+00  0.00000000000E+00  0.33878937228E+02  0.33878937228E+02  0.00000000000E+00 0.  1.
          1   -1    0    0  501    0  0.00000000000E+00 -0.00000000000E+00 -0.52073771968E+03  0.52073771968E+03  0.00000000000E+00 0. -1.
         23    2    1    2    0    0  0.52660986333E+02 -0.17372794638E+02 -0.28480351554E+03  0.31596740937E+03  0.12508943936E+03 0.  0.
          5    1    3    3  502    0  0.67343477265E+01  0.31090686265E+02 -0.10706178867E+02  0.33824205499E+02  0.41800000000E+01 0. -1.
         -5    1    3    3    0  502  0.45926638606E+02 -0.48463480903E+02 -0.27409733668E+03  0.28214320387E+03  0.41800000000E+01 0. -1.
        -11    1    1    2    0    0  0.12477821236E+02  0.32379744808E+02 -0.14990132425E+03  0.15386536618E+03  0.00000000000E+00 0. -1.
         11    1    1    2    0    0 -0.65138807569E+02 -0.15006950170E+02 -0.52153942659E+02  0.84783881368E+02  0.00000000000E+00 0.  1.
</event>
<event>
 7    1  0.1312490E-005  0.1170119E+03  0.7561462E-02  0.1248109E+00
         -3   -1    0    0    0  501 -0.00000000000E+00  0.00000000000E+00  0.60704000190E+03  0.60704000190E+03  0.00000000000E+00 0.  1.
          3   -1    0    0  501    0  0.00000000000E+00 -0.00000000000E+00 -0.24710181447E+02  0.24710181447E+02  0.00000000000E+00 0. -1.
         23    2    1    2    0    0  0.47285984605E+02  0.98572381986E+01  0.39012682910E+03  0.41252808593E+03  0.12508936569E+03 0.  0.
          5    1    3    3  502    0  0.83924492930E+02  0.28069393851E+02  0.21301125676E+03  0.23069997679E+03  0.41800000000E+01 0. -1.
         -5    1    3    3    0  502 -0.36638508325E+02 -0.18212155653E+02  0.17711557235E+03  0.18182810914E+03  0.41800000000E+01 0. -1.
        -11    1    1    2    0    0  0.16451092339E+02 -0.32692672328E+02  0.52752308329E+02  0.64204791855E+02  0.00000000000E+00 0.  1.
         11    1    1    2    0    0 -0.63737076945E+02  0.22835434129E+02  0.13945068302E+03  0.15501730556E+03  0.00000000000E+00 0. -1.
</event>
<event>
 7    1  0.1312490E-005  0.1048676E+03  0.7561462E-02  0.1270381E+00
         -4   -1    0    0    0  501 -0.00000000000E+00  0.00000000000E+00  0.83307873878E+03  0.83307873878E+03  0.00000000000E+00 0.  1.
          4   -1    0    0  501    0  0.00000000000E+00 -0.00000000000E+00 -0.18320994509E+02  0.18320994509E+02  0.00000000000E+00 0. -1.
         23    2    1    2    0    0  0.24917836553E+02 -0.20199913520E+01  0.60825242386E+03  0.62148466645E+03  0.12508877073E+03 0.  0.
          5    1    3    3  502    0 -0.19045870779E+01 -0.53316813533E+02  0.14406446500E+03  0.15368263575E+03  0.41800000000E+01 0. -1.
         -5    1    3    3    0  502  0.26822423631E+02  0.51296822181E+02  0.46418795886E+03  0.46780203070E+03  0.41800000000E+01 0. -1.
        -11    1    1    2    0    0  0.90049217764E+01 -0.41805081720E+02  0.63603908749E+02  0.76643399468E+02  0.00000000000E+00 0.  1.
         11    1    1    2    0    0 -0.33922758330E+02  0.43825073072E+02  0.14290141166E+03  0.15327166737E+03  0.00000000000E+00 0. -1.
</event>
<event>
 7    1  0.1312490E-005  0.1213116E+03  0.7561462E-02  0.1240949E+00
          2   -1    0    0  501    0  0.00000000000E+00  0.00000000000E+00  0.50539320841E+03  0.50539320841E+03  0.00000000000E+00 0. -1.
         -2   -1    0    0    0  501 -0.00000000000E+00 -0.00000000000E+00 -0.39813879581E+02  0.39813879581E+02  0.00000000000E+00 0.  1.
         23    2    1    2    0    0 -0.19164049745E+02 -0.58206890921E+02  0.12368180079E+03  0.18627926484E+03  0.12508986253E+03 0.  0.
          5    1    3    3  502    0 -0.10030858053E+02  0.36866112225E+02  0.60532802931E+02  0.71703702656E+02  0.41800000000E+01 0. -1.
         -5    1    3    3    0  502 -0.91331916919E+01 -0.95073003146E+02  0.63148997862E+02  0.11457556218E+03  0.41800000000E+01 0. -1.
        -11    1    1    2    0    0  0.47121660831E+02  0.64548934912E+02  0.23323864181E+03  0.24655076546E+03  0.00000000000E+00 0.  1.
         11    1    1    2    0    0 -0.27957611086E+02 -0.63420439909E+01  0.10865888623E+03  0.11237705769E+03  0.00000000000E+00 0. -1.
</event>
<event>
 7    1  0.1312490E-005  0.1392653E+03  0.7561462E-02  0.1214321E+00
          2   -1    0    0  501    0  0.00000000000E+00  0.00000000000E+00  0.88592361059E+03  0.88592361059E+03  0.00000000000E+00 0. -1.
         -2   -1    0    0    0  501 -0.00000000000E+00 -0.00000000000E+00 -0.29974481594E+02  0.29974481594E+02  0.00000000000E+00 0.  1.
         23    2    1    2    0    0  0.19765676334E+02 -0.11461789324E+03  0.40885737710E+03  0.44310236093E+03  0.12508958408E+03 0.  0.
          5    1    3    3  502    0 -0.23527450606E+02 -0.41259753824E+02  0.33734383031E+02  0.58407099022E+02  0.41800000000E+01 0. -1.
         -5    1    3    3    0  502  0.43293126940E+02 -0.73358139416E+02  0.37512299406E+03  0.38469526191E+03  0.41800000000E+01 0. -1.
        -11    1    1    2    0    0 -0.49918385977E+02  0.36520268598E+02  0.11805728895E+03  0.13327827562E+03  0.00000000000E+00 0.  1.
         11    1    1    2    0    0  0.30152709643E+02  0.78097624642E+02  0.32903446295E+03  0.33951745563E+03  0.00000000000E+00 0. -1.
</event>
<event>
 6    1  0.1312490E-005  0.1037954E+03  0.7561462E-02  0.1272511E+00
          2   -1    0    0  501    0  0.00000000000E+00  0.00000000000E+00  0.10199350807E+04  0.10199350807E+04  0.00000000000E+00 0. -1.
         -2   -1    0    0    0  501 -0.00000000000E+00 -0.00000000000E+00 -0.19086865429E+02  0.19086865429E+02  0.00000000000E+00 0.  1.
          5    1    1    2  502    0  0.21534556104E+02  0.50726992317E+02  0.57340279235E+03  0.57606006591E+03  0.41800000000E+01 0. -1.
         -5    1    1    2    0  502 -0.33240584602E+02  0.27103359909E+02  0.46655711267E+02  0.63511860128E+02  0.41800000000E+01 0.  1.
        -11    1    1    2    0    0  0.47553746038E+01 -0.92697449810E+02  0.36521160875E+03  0.37682217286E+03  0.00000000000E+00 0.  1.
         11    1    1    2    0    0  0.69506538940E+01  0.14867097584E+02  0.15578102861E+02  0.22627847199E+02  0.00000000000E+00 0. -1.
</event>
<event>
 7    1  0.1312490E-005  0.1658945E+03  0.7561462E-02  0.1182198E+00
         -2   -1    0    0    0  501 -0.00000000000E+00  0.00000000000E+00  0.92830118411E+02  0.92830118411E+02  0.00000000000E+00 0.  1.
          2   -1    0    0  501    0  0.00000000000E+00 -0.00000000000E+00 -0.85990365742E+03  0.85990365742E+03  0.00000000000E+00 0. -1.
         23    2    1    2    0    0  0.12347627887E+03 -0.78585246746E+02 -0.29250617791E+02  0.19474275077E+03  0.12508840029E+03 0.  0.
          5    1    3    3  502    0  0.78758350369E+02  0.11842421882E+02  0.20265105646E+02  0.82287712423E+02  0.41800000000E+01 0. -1.
         -5    1    3    3    0  502  0.44717928498E+02 -0.90427668629E+02 -0.49515723437E+02  0.11245503835E+03  0.41800000000E+01 0. -1.
        -11    1    1    2    0    0 -0.12149102619E+03  0.65869038343E+02 -0.72992098729E+03  0.74288858339E+03  0.00000000000E+00 0. -1.
         11    1    1    2    0    0 -0.19852526726E+01  0.12716208403E+02 -0.79019339322E+01  0.15102441663E+02  0.00000000000E+00 0.  1.
</event>
<event>
 6    1  0.1312490E-005  0.1301170E+03  0.7561462E-02  0.1227282E+00
          1   -1    0    0  501    0  0.00000000000E+00  0.00000000000E+00  0.24828138182E+03  0.24828138182E+03  0.00000000000E+00 0. -1.
         -1   -1    0    0    0  501 -0.00000000000E+00 -0.00000000000E+00 -0.10350021741E+03  0.10350021741E+03  0.00000000000E+00 0.  1.
          5    1    1    2  502    0  0.83610748066E+02  0.53242107520E+02 -0.15428972246E+02  0.10040420703E+03  0.41800000000E+01 0. -1.
         -5    1    1    2    0  502 -0.51468595702E+02  0.80161319750E+01 -0.16020196617E+01  0.52281101580E+02  0.41800000000E+01 0.  1.
        -11    1    1    2    0    0  0.16948231628E+01 -0.72947118430E+02  0.13799405643E+03  0.15609777104E+03  0.00000000000E+00 0. -1.
         11    1    1    2    0    0 -0.33836975526E+02  0.11688878935E+02  0.23818099898E+02  0.42998519582E+02  0.00000000000E+00 0.  1.
</event>
<event>
 7    1  0.1312490E-005  0.1071952E+03  0.7561462E-02  0.1265854E+00
          2   -1    0    0  501    0  0.00000000000E+00  0.00000000000E+00  0.48982075382E+02  0.48982075382E+02  0.00000000000E+00 0. -1.
         -2   -1    0    0    0  501 -0.00000000000E+00 -0.00000000000E+00 -0.26636825513E+03  0.26636825513E+03  0.00000000000E+00 0.  1.
         23    2    1    2    0    0 -0.17152767255E+02 -0.20689698231E+01 -0.17239589474E+03  0.21370848791E+03  0.12510985260E+03 0.  0.
          5    1    3    3  502    0  0.86642892253E+01 -0.60152097668E+02 -0.10169556989E+03  0.11854453213E+03  0.41800000000E+01 0.  1.
         -5    1    3    3    0  502 -0.25817056480E+02  0.58083127845E+02 -0.70700324853E+02  0.95163955781E+02  0.41800000000E+01 0.  1.
        -11    1    1    2    0    0 -0.71548074526E+01  0.42228982951E+02 -0.12731589411E+02  0.44683012876E+02  0.00000000000E+00 0. -1.
         11    1    1    2    0    0  0.24307574707E+02 -0.40160013128E+02 -0.32258695593E+02  0.56958829728E+02  0.00000000000E+00 0.  1.
</event>
<event>
 7    1  0.1312490E-005  0.8603022E+02  0.7561462E-02  0.1312760E+00
         -2   -1    0    0    0  501 -0.00000000000E+00  0.00000000000E+00  0.31697606840E+03  0.31697606840E+03  0.00000000000E+00 0.  1.
          2   -1    0    0  501    0  0.00000000000E+00 -0.00000000000E+00 -0.43881947176E+02  0.43881947176E+02  0.00000000000E+00 0. -1.
         23    2    1    2    0    0  0.35871439701E+02  0.17076055362E+02  0.19038382182E+03  0.23123944251E+03  0.12508928136E+03 0.  0.
          5    1    3    3  502    0  0.65957655323E+02 -0.26678947065E+02  0.71433690796E+02  0.10090799321E+03  0.41800000000E+01 0.  1.
         -5    1    3    3    0  502 -0.30086215622E+02  0.43755002427E+02  0.11895013102E+03  0.13033144931E+03  0.41800000000E+01 0.  1.
        -11    1    1    2    0    0 -0.33445660198E+02 -0.33815725105E+01  0.10111130602E+03  0.10655300758E+03  0.00000000000E+00 0.  1.
         11    1    1    2    0    0 -0.24257795029E+01 -0.13694482852E+02 -0.18401006615E+02  0.23065565487E+02  0.00000000000E+00 0. -1.
</event>
<event>
 6    1  0.1312490E-005  0.1331969E+03  0.7561462E-02  0.1222788E+00
         -1   -1    0    0    0  501 -0.00000000000E+00  0.00000000000E+00  0.39891997361E+02  0.39891997361E+02  0.00000000000E+00 0.  1.
          1   -1    0    0  501    0  0.00000000000E+00 -0.00000000000E+00 -0.59229253252E+03  0.59229253252E+03  0.00000000000E+00 0. -1.
          5    1    1    2  502    0  0.20549159483E+02  0.54356239532E+02 -0.56561367608E+02  0.81200550720E+02  0.41800000000E+01 0. -1.
         -5    1    1    2    0  502 -0.59984713042E+02 -0.10982224432E+03 -0.22338958529E+03  0.25608488898E+03  0.41800000000E+01 0.  1.
        -11    1    1    2    0    0 -0.10800209795E+02  0.56915513237E+01  0.11928612828E+01  0.12266262924E+02  0.00000000000E+00 0.  1.
         11    1    1    2    0    0  0.50235763354E+02  0.49774453460E+02 -0.27364244354E+03  0.28263282726E+03  0.00000000000E+00 0. -1.
</event>
<event>
 6    1  0.1312490E-005  0.2752438E+03  0.7561462E-02  0.1098315E+00
          1   -1    0    0  501    0  0.00000000000E+00  0.00000000000E+00  0.48835090511E+03  0.48835090511E+03  0.00000000000E+00 0. -1.
         -1   -1    0    0    0  501 -0.00000000000E+00 -0.00000000000E+00 -0.21893552847E+03  0.21893552847E+03  0.00000000000E+00 0.  1.
          5    1    1    2  502    0 -0.21104608984E+03  0.14751489983E+03 -0.44172203911E+02  0.26128481339E+03  0.41800000000E+01 0. -1.
         -5    1    1    2    0  502  0.69245863923E+02 -0.11982582430E+03  0.93230583939E+02  0.16692103528E+03  0.41800000000E+01 0.  1.
        -11    1    1    2    0    0  0.71168663430E+02 -0.41717100343E+02  0.56186017586E+02  0.99810639150E+02  0.00000000000E+00 0.  1.
         11    1    1    2    0    0  0.70631562486E+02  0.14028024811E+02  0.16417097902E+03  0.17926994576E+03  0.00000000000E+00 0. -1.
</event>
<event>
 7    1  0.1312490E-005  0.1288614E+03  0.7561462E-02  0.1229155E+00
         -1   -1    0    0    0  501 -0.00000000000E+00  0.00000000000E+00  0.28998444218E+03  0.28998444218E+03  0.00000000000E+00 0.  1.
          1   -1    0    0  501    0  0.00000000000E+00 -0.00000000000E+00 -0.66491413233E+02  0.66491413233E+02  0.00000000000E+00 0. -1.
         23    2    1    2    0    0 -0.54375718523E+02  0.54852641634E+02  0.17107679584E+03  0.22556627515E+03  0.12508934148E+03 0.  0.
          5    1    3    3  502    0  0.29865871657E+02  0.43728357352E+02  0.30505686071E+02  0.61255275766E+02  0.41800000000E+01 0.  1.
         -5    1    3    3    0  502 -0.84241590180E+02  0.11124284282E+02  0.14057110977E+03  0.16431099938E+03  0.41800000000E+01 0.  1.
        -11    1    1    2    0    0  0.72318324257E+02 -0.12312410088E+02  0.26737671188E+02  0.78079693430E+02  0.00000000000E+00 0. -1.
         11    1    1    2    0    0 -0.17942605734E+02 -0.42540231546E+02  0.25678561920E+02  0.52829886833E+02  0.00000000000E+00 0.  1.
</event>
<event>
 7    1  0.1312490E-005  0.1982006E+03  0.7561462E-02  0.1151266E+00
         -4   -1    0    0    0  501 -0.00000000000E+00  0.00000000000E+00  0.11337181323E+03  0.11337181323E+03  0.00000000000E+00 0.  1.
          4   -1    0    0  501    0  0.00000000000E+00 -0.00000000000E+00 -0.37572518060E+03  0.37572518060E+03  0.00000000000E+00 0. -1.
         23    2    1    2    0    0 -0.36757362209E+02  0.17108910838E+03 -0.13592248547E+03  0.25444868341E+03  0.12508646509E+03 0.  0.
          5    1    3    3  502    0  0.29672594822E+02  0.10321753235E+03 -0.28888171792E+02  0.11129384860E+03  0.41800000000E+01 0.  1.
         -5    1    3    3    0  502 -0.66429957031E+02  0.67871576034E+02 -0.10703431367E+03  0.14315483481E+03  0.41800000000E+01 0.  1.
        -11    1    1    2    0    0  0.46096218386E+02 -0.36106735579E+02 -0.60284045206E+02  0.84040013149E+02  0.00000000000E+00 0. -1.
         11    1    1    2    0    0 -0.93388561773E+01 -0.13498237280E+03 -0.66146836695E+02  0.15060829727E+03  0.00000000000E+00 0.  1.
</event>
<event>
 7    1  0.1312490E-005  0.1132323E+03  0.7561462E-02  0.1254699E+00
          3   -1    0    0  501    0  0.00000000000E+00  0.00000000000E+00  0.14288436294E+03  0.14288436294E+03  0.00000000000E+00 0. -1.
         -3   -1    0    0    0  501 -0.00000000000E+00 -0.00000000000E+00 -0.10426731126E+03  0.10426731126E+03  0.00000000000E+00 0.  1.
         23    2    1    2    0    0 -0.38260886437E+02 -0.40672056301E+02  0.24545634723E+02  0.13916583186E+03  0.12508608627E+03 0.  0.
          5    1    3    3  502    0  0.32402716126E+02  0.90763791115E+01  0.38745882400E+02  0.51488177993E+02  0.41800000000E+01 0.  1.
         -5    1    3    3    0  502 -0.70663602563E+02 -0.49748435413E+02 -0.14200247677E+02  0.87677653865E+02  0.41800000000E+01 0.  1.
        -11    1    1    2    0    0  0.47857871375E+02 -0.14522852015E+02  0.14101199827E+02  0.51962803232E+02  0.00000000000E+00 0. -1.
         11    1    1    2    0    0 -0.95969849378E+01  0.55194908316E+02 -0.29782874328E-01  0.56023039108E+02  0.00000000000E+00 0.  1.
</event>
<event>
 7    1  0.1312490E-005  0.1077639E+03  0.7561462E-02  0.1264768E+00
          1   -1    0    0  501    0  0.00000000000E+00  0.00000000000E+00  0.32258805503E+03  0.32258805503E+03  0.00000000000E+00 0. -1.
         -1   -1    0    0    0  501 -0.00000000000E+00 -0.00000000000E+00 -0.48010581664E+02  0.48010581664E+02  0.00000000000E+00 0.  1.
         23    2    1    2    0    0  0.33768335760E+02 -0.10503009092E+02  0.78866045826E+02  0.15204615540E+03  0.12509023338E+03 0.  0.
          5    1    3    3  502    0 -0.29955908974E+02  0.34684493019E+02  0.84460264281E+01  0.46788655685E+02  0.41800000000E+01 0. -1.
         -5    1    3    3    0  502  0.63724244734E+02 -0.45187502111E+02  0.70420019398E+02  0.10525749971E+03  0.41800000000E+01 0. -1.
        -11    1    1    2    0    0 -0.36005638444E+02 -0.32326687814E+02  0.65330546185E+02  0.81298837690E+02  0.00000000000E+00 0.  1.
         11    1    1    2    0    0  0.22373026839E+01  0.42829696906E+02  0.13038088136E+03  0.13725364361E+03  0.00000000000E+00 0. -1.
</event>
<event>
 7    1  0.1312490E-005  0.1070454E+03  0.7561462E-02  0.1266141E+00
          1   -1    0    0  501    0  0.00000000000E+00  0.00000000000E+00  0.45718892580E+03  0.45718892580E+03  0.00000000000E+00 0. -1.
         -1   -1    0    0    0  501 -0.00000000000E+00 -0.00000000000E+00 -0.31304376990E+02  0.31304376990E+02  0.00000000000E+00 0.  1.
         23    2    1    2    0    0 -0.43325226864E+02  0.29094232165E+02  0.22291384401E+03  0.26088485885E+03  0.12508708205E+03 0.  0.
          5    1    3    3  502    0  0.23829159788E+02  0.42889947876E+02  0.16118066598E+03  0.16853502892E+03  0.41800000000E+01 0. -1.
         -5    1    3    3    0  502 -0.67154386652E+02 -0.13795715711E+02  0.61733178030E+02  0.92349829930E+02  0.41800000000E+01 0. -1.
        -11    1    1    2    0    0  0.33388252061E+02 -0.57267324079E+02  0.17311544517E+03  0.18537335067E+03  0.00000000000E+00 0. -1.
         11    1    1    2    0    0  0.99369748030E+01  0.28173091914E+02  0.29855259631E+02  0.42235093274E+02  0.00000000000E+00 0.  1.
</event>
<event>
 7    1  0.1312490E-005  0.1097748E+03  0.7561462E-02  0.1260988E+00
         -1   -1    0    0    0  501 -0.00000000000E+00  0.00000000000E+00  0.10156367710E+03  0.10156367710E+03  0.00000000000E+00 0.  1.
          1   -1    0    0  501    0  0.00000000000E+00 -0.00000000000E+00 -0.33109435915E+03  0.33109435915E+03  0.00000000000E+00 0. -1.
         23    2    1    2    0    0  0.46443531287E+02  0.29774810941E+02  0.40766863627E+02  0.14267110589E+03  0.12509822669E+03 0.  0.
          5    1    3    3  502    0 -0.25173818090E+02 -0.17949238244E+02  0.46856461128E+02  0.56292953557E+02  0.41800000000E+01 0. -1.
         -5    1    3    3    0  502  0.71617349377E+02  0.47724049185E+02 -0.60895975009E+01  0.86378152331E+02  0.41800000000E+01 0. -1.
        -11    1    1    2    0    0 -0.61379704772E+02 -0.48504530935E+02 -0.17440365951E+03  0.19114600213E+03  0.00000000000E+00 0.  1.
         11    1    1    2    0    0  0.14936173485E+02  0.18729719994E+02 -0.95893886167E+02  0.98840928232E+02  0.00000000000E+00 0. -1.
</event>
<event>
 7    1  0.1312490E-005  0.1931395E+03  0.7561462E-02  0.1155660E+00
          2   -1    0    0  501    0  0.00000000000E+00  0.00000000000E+00  0.69927526458E+03  0.69927526458E+03  0.00000000000E+00 0.  1.
         -2   -1    0    0    0  501 -0.00000000000E+00 -0.00000000000E+00 -0.58479485501E+02  0.58479485501E+02  0.00000000000E+00 0. -1.
         23    2    1    2    0    0 -0.19370895196E+02 -0.16741832441E+03  0.37980338277E+03  0.43393846110E+03  0.12509137274E+03 0.  0.
          5    1    3    3  502    0 -0.68263895457E+02 -0.63723593842E+02  0.19815844793E+03  0.21910020247E+03  0.41800000000E+01 0.  1.
         -5    1    3    3    0  502  0.48893000261E+02 -0.10369473057E+03  0.18164493484E+03  0.21483825863E+03  0.41800000000E+01 0.  1.
        -11    1    1    2    0    0 -0.20560464128E+02  0.64014279964E+02  0.16122989410E+03  0.17468726192E+03  0.00000000000E+00 0.  1.
         11    1    1    2    0    0  0.39931359323E+02  0.10340404444E+03  0.99762502210E+02  0.14912902706E+03  0.00000000000E+00 0. -1.
</event>
<event>
 7    1  0.1312490E-005  0.1161042E+03  0.7561462E-02  0.1249666E+00
         -1   -1    0    0    0  501 -0.00000000000E+00  0.00000000000E+00  0.19271227576E+02  0.19271227576E+02  0.00000000000E+00 0.  1.
          1   -1    0    0  501    0  0.00000000000E+00 -0.00000000000E+00 -0.10731718683E+04  0.10731718683E+04  0.00000000000E+00 0. -1.
         23    2    1    2    0    0 -0.77390747508E+02 -0.29801169028E+02 -0.48764867742E+03  0.51022203925E+03  0.12509140369E+03 0.  0.
          5    1    3    3  502    0 -0.34999758630E+02 -0.57375771196E+02 -0.42153862104E+03  0.42688317331E+03  0.41800000000E+01 0.  1.
         -5    1    3    3    0  502 -0.42390988878E+02  0.27574602169E+02 -0.66110056378E+02  0.83338865945E+02  0.41800000000E+01 0.  1.
        -11    1    1    2    0    0 -0.52942834411E+01 -0.17901992434E+02 -0.18747490022E+02  0.26457119125E+02  0.00000000000E+00 0.  1.
         11    1    1    2    0    0  0.82685030949E+02  0.47703161462E+02 -0.54750447326E+03  0.55576393747E+03  0.00000000000E+00 0. -1.
</event>
<event>
 7    1  0.1312490E-005  0.1259118E+03  0.7561462E-02  0.1233651E+00
         -2   -1    0    0    0  501 -0.00000000000E+00  0.00000000000E+00  0.43076882472E+02  0.43076882472E+02  0.00000000000E+00 0.  1.
          2   -1    0    0  501    0  0.00000000000E+00 -0.00000000000E+00 -0.49472135767E+03  0.49472135767E+03  0.00000000000E+00 0. -1.
         23    2    1    2    0    0  0.38997860369E+02  0.94068705857E+02 -0.21362493840E+03  0.26153828201E+03  0.11134138546E+03 0.  0.
          5    1    3    3  502    0 -0.16070581177E+02  0.19317506522E+02 -0.14182565101E+03  0.14409516758E+03  0.41800000000E+01 0. -1.
         -5    1    3    3    0  502  0.55068441546E+02  0.74751199336E+02 -0.71799287395E+02  0.11744311443E+03  0.41800000000E+01 0.  1.
        -11    1    1    2    0    0 -0.65436006315E+02 -0.80352631191E+02 -0.21481483100E+03  0.23850330790E+03  0.00000000000E+00 0. -1.
         11    1    1    2    0    0  0.26438145946E+02 -0.13716074666E+02 -0.23204705794E+02  0.37756650226E+02  0.00000000000E+00 0.  1.
</event>
<event>
 7    1  0.1312490E-005  0.9372489E+02  0.7561462E-02  0.1294074E+00
          1   -1    0    0  501    0  0.00000000000E+00  0.00000000000E+00  0.14572815799E+03  0.14572815799E+03  0.00000000000E+00 0. -1.
         -1   -1    0    0    0  501 -0.00000000000E+00 -0.00000000000E+00 -0.16088787020E+03  0.16088787020E+03  0.00000000000E+00 0.  1.
         23    2    1    2    0    0 -0.54530551050E+02 -0.36743600583E+02 -0.94222330541E+02  0.16985027865E+03  0.12509035296E+03 0.  0.
          5    1    3    3  502    0 -0.50431536101E+02  0.20696784426E+02  0.51568720106E+01  0.54915958045E+02  0.41800000000E+01 0.  1.
         -5    1    3    3    0  502 -0.40990149492E+01 -0.57440385009E+02 -0.99379202551E+02  0.11493432061E+03  0.41800000000E+01 0.  1.
        -11    1    1    2    0    0  0.11878040099E+02  0.29465455161E+02 -0.13554215439E+02  0.34540087444E+02  0.00000000000E+00 0.  1.
         11    1    1    2    0    0  0.42652510951E+02  0.72781454216E+01  0.92616833777E+02  0.10222566209E+03  0.00000000000E+00 0. -1.
</event>
<event>
 7    1  0.1312490E-005  0.8556468E+02  0.7561462E-02  0.1313962E+00
         -1   -1    0    0    0  501 -0.00000000000E+00  0.00000000000E+00  0.20111390003E+03  0.20111390003E+03  0.00000000000E+00 0.  1.
          1   -1    0    0  501    0  0.00000000000E+00 -0.00000000000E+00 -0.85563740952E+02  0.85563740952E+02  0.00000000000E+00 0. -1.
         23    2    1    2    0    0 -0.14991258604E+02 -0.61732378537E+02  0.94321420527E+02  0.16905501915E+03  0.12508974672E+03 0.  0.
          5    1    3    3  502    0 -0.10919713777E+02 -0.51831987385E+02  0.12525317155E+03  0.13605743070E+03  0.41800000000E+01 0. -1.
         -5    1    3    3    0  502 -0.40715448273E+01 -0.99003911526E+01 -0.30931751023E+02  0.32997588451E+02  0.41800000000E+01 0. -1.
        -11    1    1    2    0    0  0.41162362599E+02  0.68095147602E+02  0.35514113462E+02  0.87135190805E+02  0.00000000000E+00 0.  1.
         11    1    1    2    0    0 -0.26171103995E+02 -0.63627690648E+01 -0.14285374908E+02  0.30487431029E+02  0.00000000000E+00 0. -1.
</event>
<event>
 7    1  0.1312490E-005  0.9861178E+02  0.7561462E-02  0.1283243E+00
         -2   -1    0    0    0  501 -0.00000000000E+00  0.00000000000E+00  0.25128580200E+02  0.25128580200E+02  0.00000000000E+00 0.  1.
          2   -1    0    0  501    0  0.00000000000E+00 -0.00000000000E+00 -0.72950782058E+03  0.72950782058E+03  0.00000000000E+00 0. -1.
         23    2    1    2    0    0 -0.67388535172E+02  0.37282617305E+02 -0.32146107665E+03  0.35343547551E+03  0.12509277885E+03 0.  0.
          5    1    3    3  502    0 -0.74561318151E+02  0.37459341459E+02 -0.93758467300E+02  0.12558150747E+03  0.41800000000E+01 0. -1.
         -5    1    3    3    0  502  0.71727829789E+01 -0.17672415465E+00 -0.22770260935E+03  0.22785396804E+03  0.41800000000E+01 0. -1.
        -11    1    1    2    0    0 -0.10955930974E+02 -0.23359280071E+02 -0.30680135094E+02  0.40086894097E+02  0.00000000000E+00 0.  1.
         11    1    1    2    0    0  0.78344466146E+02 -0.13923337233E+02 -0.35223802863E+03  0.36111403118E+03  0.00000000000E+00 0. -1.
</event>
<event>
 7    1  0.1312490E-005  0.9779364E+02  0.7561462E-02  0.1285005E+00
         -1   -1    0    0    0  501 -0.00000000000E+00  0.00000000000E+00  0.16682286450E+02  0.16682286450E+02  0.00000000000E+00 0.  1.
          1   -1    0    0  501    0  0.00000000000E+00 -0.00000000000E+00 -0.69478089195E+03  0.69478089195E+03  0.00000000000E+00 0. -1.
         23    2    1    2    0    0  0.51166048309E+01 -0.44399188077E+01 -0.34882719650E+03  0.37063889449E+03  0.12508750765E+03 0.  0.
          5    1    3    3  502    0 -0.49180277279E+02  0.11964527810E+02 -0.26176196158E+03  0.26664329455E+03  0.41800000000E+01 0. -1.
         -5    1    3    3    0  502  0.54296882110E+02 -0.16404446618E+02 -0.87065234917E+02  0.10399559994E+03  0.41800000000E+01 0. -1.
        -11    1    1    2    0    0  0.39951530776E+02 -0.88875229782E+01 -0.14698813906E+03  0.15257990005E+03  0.00000000000E+00 0.  1.
         11    1    1    2    0    0 -0.45068135607E+02  0.13327441786E+02 -0.18228326994E+03  0.18824438385E+03  0.00000000000E+00 0. -1.
</event>
<event>
 7    1  0.1312490E-005  0.1776426E+03  0.7561462E-02  0.1170104E+00
         -3   -1    0    0    0  501 -0.00000000000E+00  0.00000000000E+00  0.22729153618E+03  0.22729153618E+03  0.00000000000E+00 0.  1.
          3   -1    0    0  501    0  0.00000000000E+00 -0.00000000000E+00 -0.17349714536E+03  0.17349714536E+03  0.00000000000E+00 0. -1.
         23    2    1    2    0    0 -0.14117555297E+03 -0.83878204013E+02  0.97281827344E+00  0.20642929231E+03  0.12508403769E+03 0.  0.
          5    1    3    3  502    0 -0.92532842186E+02 -0.93588351691E+02  0.45827833057E+02  0.13942298640E+03  0.41800000000E+01 0. -1.
         -5    1    3    3    0  502 -0.48642710784E+02  0.97101476773E+01 -0.44855014783E+02  0.67006305909E+02  0.41800000000E+01 0. -1.
        -11    1    1    2    0    0  0.12115955767E+03  0.43442542686E+02  0.69474734973E+02  0.14626562047E+03  0.00000000000E+00 0.  1.
         11    1    1    2    0    0  0.20015995295E+02  0.40435661327E+02 -0.16653162426E+02  0.48093768759E+02  0.00000000000E+00 0. -1.
</event>
<event>
 7    1  0.1312490E-005  0.1268962E+03  0.7561462E-02  0.1232135E+00
         -1   -1    0    0    0  501 -0.00000000000E+00  0.00000000000E+00  0.26756691330E+02  0.26756691330E+02  0.00000000000E+00 0.  1.
          1   -1    0    0  501    0  0.00000000000E+00 -0.00000000000E+00 -0.67266377725E+03  0.67266377725E+03  0.00000000000E+00 0. -1.
         23    2    1    2    0    0  0.74175368027E+02 -0.25456279681E+02 -0.33793641598E+03  0.36878056521E+03  0.12509227249E+03 0.  0.
          5    1    3    3  502    0 -0.25553295504E+02 -0.37784187106E+02 -0.84480239256E+02  0.96098901820E+02  0.41800000000E+01 0.  1.
         -5    1    3    3    0  502  0.99728663531E+02  0.12327907425E+02 -0.25345617672E+03  0.27268166339E+03  0.41800000000E+01 0.  1.
        -11    1    1    2    0    0 -0.58756373097E+02  0.50849764008E+02 -0.14051336895E+03  0.16056779482E+03  0.00000000000E+00 0.  1.
         11    1    1    2    0    0 -0.15418994930E+02 -0.25393484327E+02 -0.16745730099E+03  0.17007210855E+03  0.00000000000E+00 0. -1.
</event>
<event>
 7    1  0.1312490E-005  0.1072762E+03  0.7561462E-02  0.1265699E+00
          2   -1    0    0  501    0  0.00000000000E+00  0.00000000000E+00  0.36500015760E+03  0.36500015760E+03  0.00000000000E+00 0. -1.
         -2   -1    0    0    0  501 -0.00000000000E+00 -0.00000000000E+00 -0.35325955196E+02  0.35325955196E+02  0.00000000000E+00 0.  1.
         23    2    1    2    0    0  0.20485060791E+02  0.14480408543E+02  0.14221958773E+03  0.19105866692E+03  0.12509069959E+03 0.  0.
          5    1    3    3  502    0  0.63569611126E+02 -0.21109773148E+02  0.52210534857E+02  0.85030173063E+02  0.41800000000E+01 0.  1.
         -5    1    3    3    0  502 -0.43084550336E+02  0.35590181691E+02  0.90009052875E+02  0.10602849386E+03  0.41800000000E+01 0.  1.
        -11    1    1    2    0    0  0.29673506346E+02 -0.26541390058E+02  0.62753463185E+02  0.74316616626E+02  0.00000000000E+00 0.  1.
         11    1    1    2    0    0 -0.50158567137E+02  0.12060981515E+02  0.12470115149E+03  0.13495082925E+03  0.00000000000E+00 0. -1.
</event>
<event>
 7    1  0.1312490E-005  0.1234005E+03  0.7561462E-02  0.1237590E+00
          2   -1    0    0  501    0  0.00000000000E+00  0.00000000000E+00  0.32021491218E+03  0.32021491218E+03  0.00000000000E+00 0. -1.
         -2   -1    0    0    0  501 -0.00000000000E+00 -0.00000000000E+00 -0.62024983169E+02  0.62024983169E+02  0.00000000000E+00 0.  1.
         23    2    1    2    0    0 -0.27962664863E+02  0.56271029940E+02  0.54612576742E+02  0.15025880724E+03  0.12508731422E+03 0.  0.
          5    1    3    3  502    0 -0.75390354892E+02  0.30480543234E+02  0.50807403795E+02  0.95977256717E+02  0.41800000000E+01 0. -1.
         -5    1    3    3    0  502  0.47427690029E+02  0.25790486706E+02  0.38051729471E+01  0.54281550523E+02  0.41800000000E+01 0. -1.
        -11    1    1    2    0    0 -0.33029780112E+02 -0.30689498415E+02  0.82173106412E+02  0.93729563664E+02  0.00000000000E+00 0.  1.
         11    1    1    2    0    0  0.60992444975E+02 -0.25581531525E+02  0.12140424586E+03  0.13825152445E+03  0.00000000000E+00 0. -1.
</event>
<event>
 7    1  0.1312490E-005  0.8261936E+02  0.7561462E-02  0.1321778E+00
         -2   -1    0    0    0  501 -0.00000000000E+00  0.00000000000E+00  0.11214593153E+02  0.11214593153E+02  0.00000000000E+00 0.  1.
          2   -1    0    0  501    0  0.00000000000E+00 -0.00000000000E+00 -0.14798474264E+04  0.14798474264E+04  0.00000000000E+00 0. -1.
         23    2    1    2    0    0  0.21265632379E+02 -0.50300002187E+02 -0.10622896451E+04  0.10710221931E+04  0.12508769196E+03 0.  0.
          5    1    3    3  502    0  0.10688991870E+02 -0.51871397067E+01 -0.64361013773E+01  0.14144142479E+02  0.41800000000E+01 0. -1.
         -5    1    3    3    0  502  0.10576640509E+02 -0.45112862480E+02 -0.10558535437E+04  0.10568780506E+04  0.41800000000E+01 0. -1.
        -11    1    1    2    0    0  0.22013743176E+02 -0.15810006519E+02 -0.11732907897E+03  0.12041874425E+03  0.00000000000E+00 0.  1.
         11    1    1    2    0    0 -0.43279375555E+02  0.66110008705E+02 -0.28901410917E+03  0.29962108220E+03  0.00000000000E+00 0. -1.
</event>
<event>
 7    1  0.1312490E-005  0.2580343E+03  0.7561462E-02  0.1108330E+00
         -1   -1    0    0    0  501 -0.00000000000E+00  0.00000000000E+00  0.72161949915E+02  0.72161949915E+02  0.00000000000E+00 0.  1.
          1   -1    0    0  501    0  0.00000000000E+00 -0.00000000000E+00 -0.11452795568E+04  0.11452795568E+04  0.00000000000E+00 0. -1.
         23    2    1    2    0    0  0.63863109487E+02  0.23373971903E+03 -0.31442971386E+03  0.41620155838E+03  0.12507973152E+03 0.  0.
          5    1    3    3  502    0  0.93162231897E+02  0.16166930489E+03 -0.17175465060E+03  0.25364009541E+03  0.41800000000E+01 0.  1.
         -5    1    3    3    0  502 -0.29299122410E+02  0.72070414141E+02 -0.14267506326E+03  0.16256146297E+03  0.41800000000E+01 0.  1.
        -11    1    1    2    0    0 -0.46926890885E+02 -0.56381522757E+02 -0.30797767107E+03  0.31659320125E+03  0.00000000000E+00 0.  1.
         11    1    1    2    0    0 -0.16936218602E+02 -0.17735819628E+03 -0.45071022196E+03  0.48464674709E+03  0.00000000000E+00 0. -1.
</event>
<event>
 7    1  0.1312490E-005  0.1622438E+03  0.7561462E-02  0.1186187E+00
          1   -1    0    0  501    0  0.00000000000E+00  0.00000000000E+00  0.36142548002E+02  0.36142548002E+02  0.00000000000E+00 0. -1.
         -1   -1    0    0    0  501 -0.00000000000E+00 -0.00000000000E+00 -0.74647579855E+03  0.74647579855E+03  0.00000000000E+00 0.  1.
         23    2    1    2    0    0 -0.74978736316E+02  0.90936583841E+02 -0.42849664935E+03  0.46167931359E+03  0.12508851633E+03 0.  0.
          5    1    3    3  502    0 -0.44058975209E+02 -0.25204062598E+02 -0.10941811541E+03  0.12069065601E+03  0.41800000000E+01 0.  1.
         -5    1    3    3    0  502 -0.30919761108E+02  0.11614064644E+03 -0.31907853394E+03  0.34098865759E+03  0.41800000000E+01 0.  1.
        -11    1    1    2    0    0  0.54841887996E+02 -0.11166122924E+03 -0.23527813094E+03  0.26614218323E+03  0.00000000000E+00 0.  1.
         11    1    1    2    0    0  0.20136848320E+02  0.20724645400E+02 -0.46558470257E+02  0.54796849726E+02  0.00000000000E+00 0. -1.
</event>
<event>
 6    1  0.1312490E-005  0.1056422E+03  0.7561462E-02  0.1268860E+00
          1   -1    0    0  501    0  0.00000000000E+00  0.00000000000E+00  0.87564132314E+03  0.87564132314E+03  0.00000000000E+00 0. -1.
         -1   -1    0    0    0  501 -0.00000000000E+00 -0.00000000000E+00 -0.21075719297E+02  0.21075719297E+02  0.00000000000E+00 0.  1.
          5    1    1    2  502    0  0.29935470725E+02  0.70696812781E+01  0.42359832369E+03  0.42473418162E+03  0.41800000000E+01 0. -1.
         -5    1    1    2    0  502 -0.62166401782E+02 -0.45749943674E+02  0.11147341403E+03  0.13565217762E+03  0.41800000000E+01 0.  1.
        -11    1    1    2    0    0  0.63776834121E+02  0.27818117225E+02  0.24536299505E+03  0.25503790220E+03  0.00000000000E+00 0. -1.
         11    1    1    2    0    0 -0.31545903064E+02  0.10862145170E+02  0.74130871066E+02  0.81292781001E+02  0.00000000000E+00 0.  1.
</event>
<event>
 7    1  0.1312490E-005  0.8214791E+02  0.7561462E-02  0.1323064E+00
          1   -1    0    0  501    0  0.00000000000E+00  0.00000000000E+00  0.41043357465E+02  0.41043357465E+02  0.00000000000E+00 0. -1.
         -1   -1    0    0    0  501 -0.00000000000E+00 -0.00000000000E+00 -0.32754653533E+03  0.32754653533E+03  0.00000000000E+00 0.  1.
         23    2    1    2    0    0  0.23436073345E+02 -0.86326968244E+01 -0.21040690922E+03  0.24605506586E+03  0.12509298541E+03 0.  0.
          5    1    3    3  502    0 -0.11467842924E+02 -0.26597594685E+02 -0.20396674710E+03  0.20605545318E+03  0.41800000000E+01 0. -1.
         -5    1    3    3    0  502  0.34903916269E+02  0.17964897860E+02 -0.64401621194E+01  0.39999612675E+02  0.41800000000E+01 0. -1.
        -11    1    1    2    0    0  0.30974591640E+02 -0.17081746646E+02 -0.34234694263E+02  0.49226270294E+02  0.00000000000E+00 0.  1.
         11    1    1    2    0    0 -0.54410664985E+02  0.25714443470E+02 -0.41861574384E+02  0.73308556642E+02  0.00000000000E+00 0. -1.
</event>
<event>
 7    1  0.1556799E-005  0.3005213E+03  0.7561462E-02  0.1084980E+00
          1   -1    0    0  501    0  0.00000000000E+00  0.00000000000E+00  0.62185231342E+03  0.62185231342E+03  0.00000000000E+00 0. -1.
         -1   -1    0    0    0  501 -0.00000000000E+00 -0.00000000000E+00 -0.15772432373E+03  0.15772432373E+03  0.00000000000E+00 0.  1.
         23    2    1    2    0    0  0.40297215268E+02 -0.28817789277E+03  0.28616452204E+03  0.42685795381E+03  0.12508883089E+03 0.  0.
          5    1    3    3  502    0 -0.27931319215E+01 -0.17957062581E+03  0.96149694085E+02  0.20375388908E+03  0.41800000000E+01 0.  1.
         -5    1    3    3    0  502  0.43090347190E+02 -0.10860726696E+03  0.19001482796E+03  0.22310406473E+03  0.41800000000E+01 0.  1.
        -11    1    1    2    0    0  0.18195648777E+02  0.18489082945E+03  0.11162769771E+03  0.21674049770E+03  0.00000000000E+00 0. -1.
         11    1    1    2    0    0 -0.58492864045E+02  0.10328706333E+03  0.66335769939E+02  0.13597818563E+03  0.00000000000E+00 0.  1.
</event>
<event>
 7    1  0.1312490E-005  0.1153760E+03  0.7561462E-02  0.1250926E+00
         -2   -1    0    0    0  501 -0.00000000000E+00  0.00000000000E+00  0.80349181637E+02  0.80349181637E+02  0.00000000000E+00 0.  1.
          2   -1    0    0  501    0  0.00000000000E+00 -0.00000000000E+00 -0.17007085891E+03  0.17007085891E+03  0.00000000000E+00 0. -1.
         23    2    1    2    0    0  0.20286003956E+02 -0.40503345913E+02 -0.50903144596E+02  0.14242913808E+03  0.12507152457E+03 0.  0.
          5    1    3    3  502    0  0.73048435136E+02 -0.29444346719E+02 -0.32639021632E+02  0.85357024097E+02  0.41800000000E+01 0.  1.
         -5    1    3    3    0  502 -0.52762431180E+02 -0.11058999194E+02 -0.18264122964E+02  0.57072113986E+02  0.41800000000E+01 0.  1.
        -11    1    1    2    0    0 -0.20685959317E+02 -0.24919696031E+02 -0.25509567478E+02  0.41226668505E+02  0.00000000000E+00 0. -1.
         11    1    1    2    0    0  0.39995536100E+00  0.65423041943E+02 -0.13308965200E+02  0.66764233959E+02  0.00000000000E+00 0.  1.
</event>
<event>
 7    1  0.1312490E-005  0.1294495E+03  0.7561462E-02  0.1228275E+00
          3   -1    0    0  501    0  0.00000000000E+00  0.00000000000E+00  0.95519197435E+02  0.95519197435E+02  0.00000000000E+00 0. -1.
         -3   -1    0    0    0  501 -0.00000000000E+00 -0.00000000000E+00 -0.25673727609E+03  0.25673727609E+03  0.00000000000E+00 0.  1.
         23    2    1    2    0    0  0.80765667944E+02 -0.20115863688E+02 -0.17275599525E+03  0.22895399275E+03  0.12509019071E+03 0.  0.
          5    1    3    3  502    0  0.59713481209E+02  0.41179837570E+02 -0.13635271549E+03  0.15450247338E+03  0.41800000000E+01 0.  1.
         -5    1    3    3    0  502  0.21052186735E+02 -0.61295701258E+02 -0.36403279764E+02  0.74451519371E+02  0.41800000000E+01 0.  1.
        -11    1    1    2    0    0 -0.65526365659E+02 -0.27678835364E+02 -0.26096558744E+01  0.71180283979E+02  0.00000000000E+00 0.  1.
         11    1    1    2    0    0 -0.15239302285E+02  0.47794699053E+02  0.14147572471E+02  0.52122196793E+02  0.00000000000E+00 0. -1.
</event>
<event>
 7    1  0.1312490E-005  0.1040152E+03  0.7561462E-02  0.1272072E+00
         -2   -1    0    0    0  501 -0.00000000000E+00  0.00000000000E+00  0.35193203310E+02  0.35193203310E+02  0.00000000000E+00 0.  1.
          2   -1    0    0  501    0  0.00000000000E+00 -0.00000000000E+00 -0.56528661911E+03  0.56528661911E+03  0.00000000000E+00 0. -1.
         23    2    1    2    0    0  0.41172426049E+01  0.90078597381E+02 -0.32820242120E+03  0.36262307878E+03  0.12509021779E+03 0.  0.
          5    1    3    3  502    0 -0.88731729531E+01  0.71071853341E+02 -0.33133709079E+03  0.33901575430E+03  0.41800000000E+01 0.  1.
         -5    1    3    3    0  502  0.12990415558E+02  0.19006744040E+02  0.31346695868E+01  0.23607324473E+02  0.41800000000E+01 0.  1.
        -11    1    1    2    0    0 -0.20271424000E+02  0.10872347723E+01 -0.91757810793E+02  0.93976638331E+02  0.00000000000E+00 0. -1.
         11    1    1    2    0    0  0.16154181395E+02 -0.91165832153E+02 -0.11013318381E+03  0.14388010531E+03  0.00000000000E+00 0.  1.
</event>
<event>
 7    1  0.1312490E-005  0.1637147E+03  0.7561462E-02  0.1184566E+00
          2   -1    0    0  501    0  0.00000000000E+00  0.00000000000E+00  0.29356465610E+03  0.29356465610E+03  0.00000000000E+00 0.  1.
         -2   -1    0    0    0  501 -0.00000000000E+00 -0.00000000000E+00 -0.11967428536E+03  0.11967428536E+03  0.00000000000E+00 0. -1.
         23    2    1    2    0    0 -0.11169728364E+03  0.52412322216E+02 -0.75851686906E+01  0.17587149664E+03  0.12509961573E+03 0.  0.
          5    1    3    3  502    0 -0.75534859603E+01 -0.37238876476E+02 -0.19436574673E+01  0.38275831483E+02  0.41800000000E+01 0.  1.
         -5    1    3    3    0  502 -0.10414379768E+03  0.89651198692E+02 -0.56415112233E+01  0.13759566516E+03  0.41800000000E+01 0.  1.
        -11    1    1    2    0    0  0.10186730397E+03 -0.36001957413E+01  0.13580286195E+03  0.16980084317E+03  0.00000000000E+00 0.  1.
         11    1    1    2    0    0  0.98299796696E+01 -0.48812126475E+02  0.45672677473E+02  0.67566601652E+02  0.00000000000E+00 0. -1.
</event>
<event>
 7    1  0.1312490E-005  0.1058911E+03  0.7561462E-02  0.1268374E+00
          2   -1    0    0  501    0  0.00000000000E+00  0.00000000000E+00  0.67099750068E+03  0.67099750068E+03  0.00000000000E+00 0. -1.
         -2   -1    0    0    0  501 -0.00000000000E+00 -0.00000000000E+00 -0.23938671087E+02  0.23938671087E+02  0.00000000000E+00 0.  1.
         23    2    1    2    0    0 -0.90843766582E+01  0.51701302499E+02  0.25254323072E+03  0.28666917762E+03  0.12508230665E+03 0.  0.
          5    1    3    3  502    0 -0.27488111917E+02  0.83173667917E+02  0.11683480181E+03  0.14608661351E+03  0.41800000000E+01 0. -1.
         -5    1    3    3    0  502  0.18403735259E+02 -0.31472365418E+02  0.13570842891E+03  0.14058256411E+03  0.41800000000E+01 0. -1.
        -11    1    1    2    0    0 -0.71014689535E+01  0.16144518661E+02  0.17472824675E+02  0.24826919789E+02  0.00000000000E+00 0.  1.
         11    1    1    2    0    0  0.16185845612E+02 -0.67845821160E+02  0.37704277420E+03  0.38344007436E+03  0.00000000000E+00 0. -1.
</event>
<event>
 7    1  0.1312490E-005  0.1262571E+03  0.7561462E-02  0.1233118E+00
          1   -1    0    0  501    0  0.00000000000E+00  0.00000000000E+00  0.72405057222E+03  0.72405057222E+03  0.00000000000E+00 0. -1.
         -1   -1    0    0    0  501 -0.00000000000E+00 -0.00000000000E+00 -0.38131916000E+02  0.38131916000E+02  0.00000000000E+00 0.  1.
         23    2    1    2    0    0  0.41210916072E+02 -0.68814484244E+02  0.14570876734E+03  0.20811472139E+03  0.12508764740E+03 0.  0.
          5    1    3    3  502    0  0.77352853420E+02 -0.69841065439E+02  0.74604835098E+02  0.12823646975E+03  0.41800000000E+01 0.  1.
         -5    1    3    3    0  502 -0.36141937348E+02  0.10265811944E+01  0.71103932247E+02  0.79878251641E+02  0.41800000000E+01 0.  1.
        -11    1    1    2    0    0 -0.10141677713E+02  0.78592495656E+02  0.47046370485E+03  0.47709090495E+03  0.00000000000E+00 0. -1.
         11    1    1    2    0    0 -0.31069238359E+02 -0.97780114113E+01  0.69746184025E+02  0.76976861883E+02  0.00000000000E+00 0.  1.
</event>
<event>
 6    1  0.1312490E-005  0.2338730E+03  0.7561462E-02  0.1123943E+00
         -2   -1    0    0    0  501 -0.00000000000E+00  0.00000000000E+00  0.21572919740E+03  0.21572919740E+03  0.00000000000E+00 0.  1.
          2   -1    0    0  501    0  0.00000000000E+00 -0.00000000000E+00 -0.54175369959E+03  0.54175369959E+03  0.00000000000E+00 0. -1.
          5    1    1    2  502    0  0.79358010731E+02  0.19030388811E+03 -0.14607274619E+03  0.25272115716E+03  0.41800000000E+01 0. -1.
         -5    1    1    2    0  502 -0.57266146181E+02 -0.14978912504E+03  0.11190931823E+03  0.19559489100E+03  0.41800000000E+01 0.  1.
        -11    1    1    2    0    0  0.30696674161E+02  0.53616587809E+01 -0.10974973468E+03  0.11408784971E+03  0.00000000000E+00 0.  1.
         11    1    1    2    0    0 -0.52788538711E+02 -0.45876421851E+02 -0.18211133955E+03  0.19507899911E+03  0.00000000000E+00 0. -1.
</event>
<event>
 7    1  0.1312490E-005  0.1169873E+03  0.7561462E-02  0.1248152E+00
          1   -1    0    0  501    0  0.00000000000E+00  0.00000000000E+00  0.29424171269E+03  0.29424171269E+03  0.00000000000E+00 0. -1.
         -1   -1    0    0    0  501 -0.00000000000E+00 -0.00000000000E+00 -0.52825495519E+02  0.52825495519E+02  0.00000000000E+00 0.  1.
         23    2    1    2    0    0  0.55841166758E+02 -0.96093491496E+01  0.10720938380E+03  0.17421831841E+03  0.12509034735E+03 0.  0.
          5    1    3    3  502    0 -0.33071711513E+02  0.15503686769E+02  0.60031979356E+02  0.70394696897E+02  0.41800000000E+01 0. -1.
         -5    1    3    3    0  502  0.88912878270E+02 -0.25113035918E+02  0.47177404440E+02  0.10382362152E+03  0.41800000000E+01 0. -1.
        -11    1    1    2    0    0  0.50811318622E+01  0.37414054195E+02  0.72708019458E+02  0.81927318068E+02  0.00000000000E+00 0. -1.
         11    1    1    2    0    0 -0.60922298620E+02 -0.27804705046E+02  0.61498813916E+02  0.90921571725E+02  0.00000000000E+00 0.  1.
</event>
<event>
 7    1  0.1312490E-005  0.1121134E+03  0.7561462E-02  0.1256706E+00
         -4   -1    0    0    0  501 -0.00000000000E+00  0.00000000000E+00  0.10125588070E+03  0.10125588070E+03  0.00000000000E+00 0. -1.
          4   -1    0    0  501    0  0.00000000000E+00 -0.00000000000E+00 -0.23978783830E+03  0.23978783830E+03  0.00000000000E+00 0.  1.
         23    2    1    2    0    0  0.75269064432E+02  0.12753152124E+01  0.17316279969E+02  0.14701992413E+03  0.12509175053E+03 0.  0.
          5    1    3    3  502    0  0.97037195217E+02  0.12726655609E+02  0.46660802258E+02  0.10850293953E+03  0.41800000000E+01 0. -1.
         -5    1    3    3    0  502 -0.21768130785E+02 -0.11451340397E+02 -0.29344522289E+02  0.38516984606E+02  0.41800000000E+01 0. -1.
        -11    1    1    2    0    0 -0.75945915844E+02  0.21188448396E+02 -0.15198576505E+03  0.17122034124E+03  0.00000000000E+00 0.  1.
         11    1    1    2    0    0  0.67685141223E+00 -0.22463763609E+02 -0.38624725154E+01  0.22803453625E+02  0.00000000000E+00 0. -1.
</event>
<event>
 7    1  0.1513310E-005  0.2563913E+03  0.7561462E-02  0.1109331E+00
          2   -1    0    0  501    0  0.00000000000E+00  0.00000000000E+00  0.88330591647E+03  0.88330591647E+03  0.00000000000E+00 0. -1.
         -2   -1    0    0    0  501 -0.00000000000E+00 -0.00000000000E+00 -0.99959890006E+02  0.99959890006E+02  0.00000000000E+00 0.  1.
         23    2    1    2    0    0 -0.19229194395E+03  0.15920345184E+03  0.20525773332E+03  0.34655441436E+03  0.12508914516E+03 0.  0.
          5    1    3    3  502    0 -0.14165991706E+03  0.11467526107E+03  0.69848582389E+02  0.19522869785E+03  0.41800000000E+01 0.  1.
         -5    1    3    3    0  502 -0.50632026896E+02  0.44528190769E+02  0.13540915093E+03  0.15132571651E+03  0.41800000000E+01 0.  1.
        -11    1    1    2    0    0  0.17911638646E+03 -0.10604619009E+03  0.40812215584E+03  0.45813990049E+03  0.00000000000E+00 0.  1.
         11    1    1    2    0    0  0.13175557493E+02 -0.53157261752E+02  0.16996613731E+03  0.17857149163E+03  0.00000000000E+00 0. -1.
</event>
<event>
 7    1  0.1312490E-005  0.9831734E+02  0.7561462E-02  0.1283875E+00
          2   -1    0    0  501    0  0.00000000000E+00  0.00000000000E+00  0.18945218600E+03  0.18945218600E+03  0.00000000000E+00 0. -1.
         -2   -1    0    0    0  501 -0.00000000000E+00 -0.00000000000E+00 -0.10194517295E+03  0.10194517295E+03  0.00000000000E+00 0.  1.
         23    2    1    2    0    0  0.96149794776E+01  0.11698830516E+02 -0.42931083709E+02  0.13311755479E+03  0.12509154639E+03 0.  0.
          5    1    3    3  502    0 -0.52742506996E+02  0.11882041679E+02 -0.45177832794E+02  0.70579486642E+02  0.41800000000E+01 0. -1.
         -5    1    3    3    0  502  0.62357486474E+02 -0.18321116339E+00  0.22467490843E+01  0.62538068143E+02  0.41800000000E+01 0. -1.
        -11    1    1    2    0    0  0.28122512369E+02 -0.27190513525E+02  0.10000964447E+03  0.10738774937E+03  0.00000000000E+00 0.  1.
         11    1    1    2    0    0 -0.37737491847E+02  0.15491683009E+02  0.30428452286E+02  0.50892054801E+02  0.00000000000E+00 0. -1.
</event>
<event>
 7    1  0.1312490E-005  0.1253754E+03  0.7561462E-02  0.1234484E+00
          1   -1    0    0  501    0  0.00000000000E+00  0.00000000000E+00  0.14880812186E+03  0.14880812186E+03  0.00000000000E+00 0.  1.
         -1   -1    0    0    0  501 -0.00000000000E+00 -0.00000000000E+00 -0.13396803835E+03  0.13396803835E+03  0.00000000000E+00 0. -1.
         23    2    1    2    0    0  0.51743639759E+02 -0.57488395890E+02 -0.39453361575E+02  0.15228387291E+03  0.12510591629E+03 0.  0.
          5    1    3    3  502    0 -0.90690055273E+01 -0.71179554526E+02  0.10047453164E+02  0.72575474913E+02  0.41800000000E+01 0. -1.
         -5    1    3    3    0  502  0.60812645287E+02  0.13691158636E+02 -0.49500814738E+02  0.79708397998E+02  0.41800000000E+01 0. -1.
        -11    1    1    2    0    0 -0.10211399642E+02  0.71760398125E+02  0.45863093444E+02  0.85774417876E+02  0.00000000000E+00 0.  1.
         11    1    1    2    0    0 -0.41532240118E+02 -0.14272002236E+02  0.84303516326E+01  0.44717869422E+02  0.00000000000E+00 0. -1.
</event>
<event>
 7    1  0.1312490E-005  0.1047993E+03  0.7561462E-02  0.1270516E+00
         -1   -1    0    0    0  501 -0.00000000000E+00  0.00000000000E+00  0.21367412687E+03  0.21367412687E+03  0.00000000000E+00 0.  1.
          1   -1    0    0  501    0  0.00000000000E+00 -0.00000000000E+00 -0.72179781363E+02  0.72179781363E+02  0.00000000000E+00 0. -1.
         23    2    1    2    0    0 -0.22486146642E+02 -0.31861301699E+02  0.13487805097E+03  0.18804101246E+03  0.12508622786E+03 0.  0.
          5    1    3    3  502    0 -0.68899556670E+02 -0.22488173521E+02  0.42427042634E+02  0.84085630189E+02  0.41800000000E+01 0.  1.
         -5    1    3    3    0  502  0.46413410028E+02 -0.93731281787E+01  0.92451008332E+02  0.10395538227E+03  0.41800000000E+01 0.  1.
        -11    1    1    2    0    0  0.21829394637E+02  0.58696232369E+02  0.22593264798E+02  0.66574963603E+02  0.00000000000E+00 0.  1.
         11    1    1    2    0    0  0.65675200582E+00 -0.26834930669E+02 -0.15976970260E+02  0.31237932164E+02  0.00000000000E+00 0. -1.
</event>
<event>
 7    1  0.1312490E-005  0.1513564E+03  0.7561462E-02  0.1198816E+00
          2   -1    0    0  501    0  0.00000000000E+00  0.00000000000E+00  0.98134673550E+03  0.98134673550E+03  0.00000000000E+00 0. -1.
         -2   -1    0    0    0  501 -0.00000000000E+00 -0.00000000000E+00 -0.26502432496E+02  0.26502432496E+02  0.00000000000E+00 0.  1.
         23    2    1    2    0    0  0.89052055308E+02  0.68361367367E+02  0.39023518011E+03  0.42489592994E+03  0.12509800311E+03 0.  0.
          5    1    3    3  502    0  0.80151164747E+02 -0.16977093334E+02  0.18174220088E+03  0.19939942550E+03  0.41800000000E+01 0. -1.
         -5    1    3    3    0  502  0.89008905604E+01  0.85338460702E+02  0.20849297923E+03  0.22549650444E+03  0.41800000000E+01 0. -1.
        -11    1    1    2    0    0  0.33938473184E+01  0.11883335641E+02  0.13051525255E+02  0.17974264298E+02  0.00000000000E+00 0.  1.
         11    1    1    2    0    0 -0.92445902626E+02 -0.80244703009E+02  0.55155759764E+03  0.56497897375E+03  0.00000000000E+00 0. -1.
</event>
<event>
 7    1  0.1312490E-005  0.1177518E+03  0.7561462E-02  0.1246853E+00
         -1   -1    0    0    0  501 -0.00000000000E+00  0.00000000000E+00  0.92595137090E+02  0.92595137090E+02  0.00000000000E+00 0.  1.
          1   -1    0    0  501    0  0.00000000000E+00 -0.00000000000E+00 -0.15734589386E+03  0.15734589386E+03  0.00000000000E+00 0. -1.
         23    2    1    2    0    0  0.29900004217E+02 -0.50072626177E+02 -0.39895261056E+02  0.14138428864E+03  0.12246063479E+03 0.  0.
          5    1    3    3  502    0  0.68543743833E+02 -0.58614217476E+02 -0.84796729758E+01  0.90682129236E+02  0.41800000000E+01 0. -1.
         -5    1    3    3    0  502 -0.38643739616E+02  0.85415912986E+01 -0.31415588081E+02  0.50702159401E+02  0.41800000000E+01 0.  1.
        -11    1    1    2    0    0 -0.42365278637E+02  0.70055929979E+02 -0.22386810358E+02  0.84875317008E+02  0.00000000000E+00 0.  1.
         11    1    1    2    0    0  0.12465274420E+02 -0.19983303801E+02 -0.24686853578E+01  0.23681425307E+02  0.00000000000E+00 0. -1.
</event>
<event>
 7    1  0.1312490E-005  0.1842221E+03  0.7561462E-02  0.1163778E+00
         -1   -1    0    0    0  501 -0.00000000000E+00  0.00000000000E+00  0.23363710157E+03  0.23363710157E+03  0.00000000000E+00 0.  1.
          1   -1    0    0  501    0  0.00000000000E+00 -0.00000000000E+00 -0.25928623198E+03  0.25928623198E+03  0.00000000000E+00 0. -1.
         23    2    1    2    0    0 -0.95742540262E+02  0.15549563943E+03  0.11282848560E+03  0.24844272424E+03  0.12509193486E+03 0.  0.
          5    1    3    3  502    0 -0.93512315084E+02  0.13988396147E+03  0.38920124713E+02  0.17275509908E+03  0.41800000000E+01 0.  1.
         -5    1    3    3    0  502 -0.22302251787E+01  0.15611677955E+02  0.73908360891E+02  0.75687625161E+02  0.41800000000E+01 0.  1.
        -11    1    1    2    0    0  0.26067123709E+02 -0.61634130625E+02 -0.50802947283E+01  0.67112371370E+02  0.00000000000E+00 0.  1.
         11    1    1    2    0    0  0.69675416553E+02 -0.93861508801E+02 -0.13339732128E+03  0.17736823794E+03  0.00000000000E+00 0. -1.
</event>
<event>
 7    1  0.1312490E-005  0.1055494E+03  0.7561462E-02  0.1269041E+00
          1   -1    0    0  501    0  0.00000000000E+00  0.00000000000E+00  0.77691420739E+03  0.77691420739E+03  0.00000000000E+00 0. -1.
         -1   -1    0    0    0  501 -0.00000000000E+00 -0.00000000000E+00 -0.17742802193E+02  0.17742802193E+02  0.00000000000E+00 0.  1.
         23    2    1    2    0    0  0.36771549684E+02  0.20230886254E+02  0.35643849907E+03  0.38007575690E+03  0.12509093389E+03 0.  0.
          5    1    3    3  502    0 -0.17923547309E+02  0.52277562916E+02  0.86272843589E+02  0.10254107993E+03  0.41800000000E+01 0.  1.
         -5    1    3    3    0  502  0.54695096993E+02 -0.32046676662E+02  0.27016565548E+03  0.27753467697E+03  0.41800000000E+01 0.  1.
        -11    1    1    2    0    0 -0.13258539510E+01 -0.47442014309E+02  0.13395954056E+03  0.14211847564E+03  0.00000000000E+00 0.  1.
         11    1    1    2    0    0 -0.35445695733E+02  0.27211128055E+02  0.26877336556E+03  0.27246277704E+03  0.00000000000E+00 0. -1.
</event>
<event>
 7    1  0.1312490E-005  0.1130846E+03  0.7561462E-02  0.1254962E+00
         -2   -1    0    0    0  501 -0.00000000000E+00  0.00000000000E+00  0.19457188131E+02  0.19457188131E+02  0.00000000000E+00 0.  1.
          2   -1    0    0  501    0  0.00000000000E+00 -0.00000000000E+00 -0.85251565152E+03  0.85251565152E+03  0.00000000000E+00 0. -1.
         23    2    1    2    0    0 -0.14205495881E+02  0.30044359403E+02 -0.26077122335E+03  0.29112468377E+03  0.12508993136E+03 0.  0.
          5    1    3    3  502    0  0.47150448154E+02 -0.16022094703E+02 -0.75377730572E+02  0.90438636356E+02  0.41800000000E+01 0.  1.
         -5    1    3    3    0  502 -0.61355944035E+02  0.46066454106E+02 -0.18539349278E+03  0.20068604742E+03  0.41800000000E+01 0.  1.
        -11    1    1    2    0    0 -0.22880886976E+01 -0.62716415687E+02 -0.36115054589E+03  0.36656281991E+03  0.00000000000E+00 0.  1.
         11    1    1    2    0    0  0.16493584579E+02  0.32672056284E+02 -0.21113669414E+03  0.21428533596E+03  0.00000000000E+00 0. -1.
</event>
<event>
 7    1  0.1312490E-005  0.7389788E+02  0.7561462E-02  0.1347318E+00
          1   -1    0    0  501    0  0.00000000000E+00  0.00000000000E+00  0.23811708159E+03  0.23811708159E+03  0.00000000000E+00 0. -1.
         -1   -1    0    0    0  501 -0.00000000000E+00 -0.00000000000E+00 -0.85491040717E+02  0.85491040717E+02  0.00000000000E+00 0.  1.
         23    2    1    2    0    0  0.43669083368E+02  0.14155380865E+02 -0.95260905324E+01  0.13359191564E+03  0.12509472360E+03 0.  0.
          5    1    3    3  502    0  0.10973926071E+02  0.29649461070E+02  0.52637661254E+02  0.61544401674E+02  0.41800000000E+01 0. -1.
         -5    1    3    3    0  502  0.32695157297E+02 -0.15494080205E+02 -0.62163751786E+02  0.72047513963E+02  0.41800000000E+01 0. -1.
        -11    1    1    2    0    0 -0.60027753120E+02 -0.18022001403E+02  0.60939050976E+02  0.87416769633E+02  0.00000000000E+00 0.  1.
         11    1    1    2    0    0  0.16358669752E+02  0.38666205382E+01  0.10121308043E+03  0.10259943704E+03  0.00000000000E+00 0. -1.
</event>
<event>
 7    1  0.1312490E-005  0.1401769E+03  0.7561462E-02  0.1213091E+00
          2   -1    0    0  501    0  0.00000000000E+00  0.00000000000E+00  0.13286700334E+03  0.13286700334E+03  0.00000000000E+00 0. -1.
         -2   -1    0    0    0  501 -0.00000000000E+00 -0.00000000000E+00 -0.20230704812E+03  0.20230704812E+03  0.00000000000E+00 0.  1.
         23    2    1    2    0    0 -0.16030107713E+02  0.10962874747E+03 -0.91592013545E+02  0.19056336845E+03  0.12509945573E+03 0.  0.
          5    1    3    3  502    0 -0.14359196165E+02 -0.25340729309E+02 -0.30379603904E+02  0.42293401492E+02  0.41800000000E+01 0.  1.
         -5    1    3    3    0  502 -0.16709115485E+01  0.13496947678E+03 -0.61212409640E+02  0.14826996696E+03  0.41800000000E+01 0.  1.
        -11    1    1    2    0    0  0.26699569621E+02 -0.72803302680E+02 -0.27145844967E+02  0.82158899689E+02  0.00000000000E+00 0.  1.
         11    1    1    2    0    0 -0.10669461908E+02 -0.36825444791E+02  0.49297813732E+02  0.62451783323E+02  0.00000000000E+00 0. -1.
</event>
<event>
 7    1  0.1312490E-005  0.1112508E+03  0.7561462E-02  0.1258271E+00
         -2   -1    0    0    0  501 -0.00000000000E+00  0.00000000000E+00  0.10546404923E+03  0.10546404923E+03  0.00000000000E+00 0.  1.
          2   -1    0    0  501    0  0.00000000000E+00 -0.00000000000E+00 -0.23963897276E+03  0.23963897276E+03  0.00000000000E+00 0. -1.
         23    2    1    2    0    0  0.47580593406E+02 -0.54809508387E+02  0.25800230670E+02  0.14690848693E+03  0.12509379102E+03 0.  0.
          5    1    3    3  502    0  0.86762646185E+02 -0.49775687445E+02  0.35137379191E+02  0.10610128958E+03  0.41800000000E+01 0. -1.
         -5    1    3    3    0  502 -0.39182052779E+02 -0.50338209420E+01 -0.93371485210E+01  0.40807197353E+02  0.41800000000E+01 0. -1.
        -11    1    1    2    0    0 -0.10411165836E+02 -0.55338069346E+01  0.90819716594E+01  0.14882795519E+02  0.00000000000E+00 0.  1.
         11    1    1    2    0    0 -0.37169427570E+02  0.60343315321E+02 -0.16905712586E+03  0.18331173954E+03  0.00000000000E+00 0. -1.
</event>
<event>
 7    1  0.1312490E-005  0.1206197E+03  0.7561462E-02  0.1242078E+00
         -1   -1    0    0    0  501 -0.00000000000E+00  0.00000000000E+00  0.10937058008E+03  0.10937058008E+03  0.00000000000E+00 0.  1.
          1   -1    0    0  501    0  0.00000000000E+00 -0.00000000000E+00 -0.17908263470E+03  0.17908263470E+03  0.00000000000E+00 0. -1.
         23    2    1    2    0    0  0.17470417887E+02  0.85329321250E+02 -0.26501572037E+02  0.15471111882E+03  0.12508752296E+03 0.  0.
          5    1    3    3  502    0  0.46897430929E+02 -0.13064691773E+02 -0.15882488097E+02  0.51378799393E+02  0.41800000000E+01 0.  1.
         -5    1    3    3    0  502 -0.29427013043E+02  0.98394013023E+02 -0.10619083940E+02  0.10333231943E+03  0.41800000000E+01 0.  1.
        -11    1    1    2    0    0 -0.22163458330E+02 -0.63293404077E+02 -0.71201166860E+02  0.97810429133E+02  0.00000000000E+00 0. -1.
         11    1    1    2    0    0  0.46930404431E+01 -0.22035917172E+02  0.27990684275E+02  0.35931666820E+02  0.00000000000E+00 0.  1.
</event>
<event>
 7    1  0.1312490E-005  0.1028068E+03  0.7561462E-02  0.1274502E+00
         -1   -1    0    0    0  501 -0.00000000000E+00  0.00000000000E+00  0.15416609663E+02  0.15416609663E+02  0.00000000000E+00 0.  1.
          1   -1    0    0  501    0  0.00000000000E+00 -0.00000000000E+00 -0.11565283155E+04  0.11565283155E+04  0.00000000000E+00 0. -1.
         23    2    1    2    0    0 -0.57362441152E+02  0.52661043343E+02 -0.60949846595E+03  0.62705622537E+03  0.12508994617E+03 0.  0.
          5    1    3    3  502    0 -0.27687980359E+02  0.48362690936E+02 -0.58619255684E+03  0.58885037167E+03  0.41800000000E+01 0. -1.
         -5    1    3    3    0  502 -0.29674460793E+02  0.42983524076E+01 -0.23305909119E+02  0.38205853696E+02  0.41800000000E+01 0. -1.
        -11    1    1    2    0    0  0.68967055803E+02 -0.36222452357E+01 -0.29684887292E+03  0.30477668677E+03  0.00000000000E+00 0. -1.
         11    1    1    2    0    0 -0.11604614651E+02 -0.49038798108E+02 -0.23476436695E+03  0.24011201301E+03  0.00000000000E+00 0.  1.
</event>
<event>
 7    1  0.1312490E-005  0.2205857E+03  0.7561462E-02  0.1133447E+00
          2   -1    0    0  501    0  0.00000000000E+00  0.00000000000E+00  0.77566785122E+03  0.77566785122E+03  0.00000000000E+00 0. -1.
         -2   -1    0    0    0  501 -0.00000000000E+00 -0.00000000000E+00 -0.69461916714E+02  0.69461916714E+02  0.00000000000E+00 0.  1.
         23    2    1    2    0    0 -0.18462075202E+03  0.63963666641E+02  0.25592948793E+03  0.34543296452E+03  0.12509139640E+03 0.  0.
          5    1    3    3  502    0 -0.66126190897E+02 -0.30480851799E+02  0.45049965802E+02  0.85724717950E+02  0.41800000000E+01 0. -1.
         -5    1    3    3    0  502 -0.11849456112E+03  0.94444518440E+02  0.21087952213E+03  0.25970824656E+03  0.41800000000E+01 0. -1.
        -11    1    1    2    0    0  0.54414393241E+02 -0.67122396743E+02  0.17608800832E+03  0.19614619296E+03  0.00000000000E+00 0. -1.
         11    1    1    2    0    0  0.13020635878E+03  0.31587301020E+01  0.27418843824E+03  0.30355061046E+03  0.00000000000E+00 0.  1.
</event>
<event>
 7    1  0.1312490E-005  0.9524617E+02  0.7561462E-02  0.1290623E+00
         -2   -1    0    0    0  501 -0.00000000000E+00  0.00000000000E+00  0.14022976729E+03  0.14022976729E+03  0.00000000000E+00 0.  1.
          2   -1    0    0  501    0  0.00000000000E+00 -0.00000000000E+00 -0.11816278281E+03  0.11816278281E+03  0.00000000000E+00 0. -1.
         23    2    1    2    0    0 -0.43056203908E+01  0.37685383243E+01  0.81473530055E+02  0.14939207558E+03  0.12508923175E+03 0.  0.
          5    1    3    3  502    0  0.26874315715E+02 -0.53420116498E+02  0.38355037424E+02  0.71165433938E+02  0.41800000000E+01 0.  1.
         -5    1    3    3    0  502 -0.31179936106E+02  0.57188654822E+02  0.43118492630E+02  0.78226641642E+02  0.41800000000E+01 0.  1.
        -11    1    1    2    0    0 -0.17598960786E+02 -0.27710438558E+02  0.83517886376E+01  0.33872469637E+02  0.00000000000E+00 0.  1.
         11    1    1    2    0    0  0.21904581177E+02  0.23941900234E+02 -0.67758334213E+02  0.75128004890E+02  0.00000000000E+00 0. -1.
</event>
<event>
 7    1  0.1312490E-005  0.1161627E+03  0.7561462E-02  0.1249565E+00
          1   -1    0    0  501    0  0.00000000000E+00  0.00000000000E+00  0.52594007015E+02  0.52594007015E+02  0.00000000000E+00 0. -1.
         -1   -1    0    0    0  501 -0.00000000000E+00 -0.00000000000E+00 -0.29907129718E+03  0.29907129718E+03  0.00000000000E+00 0.  1.
         23    2    1    2    0    0 -0.47474663566E+02 -0.55885483521E+02 -0.15190379703E+03  0.21000067061E+03  0.12509391334E+03 0.  0.
          5    1    3    3  502    0 -0.77015389738E+02 -0.59455868964E+02 -0.62581104833E+02  0.11575939570E+03  0.41800000000E+01 0. -1.
         -5    1    3    3    0  502  0.29540726172E+02  0.35703854433E+01 -0.89322692197E+02  0.94241274908E+02  0.41800000000E+01 0. -1.
        -11    1    1    2    0    0  0.47100374640E+02 -0.18683898134E+01 -0.49941398689E+02  0.68673717496E+02  0.00000000000E+00 0.  1.
         11    1    1    2    0    0  0.37428892614E+00  0.57753873334E+02 -0.44632094447E+02  0.72990916093E+02  0.00000000000E+00 0. -1.
</event>
<event>
 7    1  0.1312490E-005  0.1003355E+03  0.7561462E-02  0.1279592E+00
         -2   -1    0    0    0  501 -0.00000000000E+00  0.00000000000E+00  0.11607917155E+03  0.11607917155E+03  0.00000000000E+00 0.  1.
          2   -1    0    0  501    0  0.00000000000E+00 -0.00000000000E+00 -0.11137462679E+03  0.11137462679E+03  0.00000000000E+00 0. -1.
         23    2    1    2    0    0  0.15894201799E+02 -0.23296006421E+02  0.21076322253E+02  0.12994984008E+03  0.12508964789E+03 0.  0.
          5    1    3    3  502    0  0.23546211486E+02  0.42603882659E+02 -0.18895317662E+02  0.52383397394E+02  0.41800000000E+01 0.  1.
         -5    1    3    3    0  502 -0.76520096876E+01 -0.65899889080E+02  0.39971639914E+02  0.77566442683E+02  0.41800000000E+01 0.  1.
        -11    1    1    2    0    0  0.29735640874E+02 -0.70253279764E+01  0.15354110271E+02  0.34195208343E+02  0.00000000000E+00 0.  1.
         11    1    1    2    0    0 -0.45629842673E+02  0.30321334397E+02 -0.31725887763E+02  0.63308749919E+02  0.00000000000E+00 0. -1.
</event>
<event>
 7    1  0.1312490E-005  0.1592824E+03  0.7561462E-02  0.1189509E+00
          1   -1    0    0  501    0  0.00000000000E+00  0.00000000000E+00  0.48286670745E+03  0.48286670745E+03  0.00000000000E+00 0. -1.
         -1   -1    0    0    0  501 -0.00000000000E+00 -0.00000000000E+00 -0.73109569001E+02  0.73109569001E+02  0.00000000000E+00 0.  1.
         23    2    1    2    0    0 -0.12218077214E+03  0.58155682632E+02  0.11066591928E+03  0.21495318112E+03  0.12509076657E+03 0.  0.
          5    1    3    3  502    0 -0.17959230501E-01  0.31837774813E+02 -0.16935047656E+02  0.36303064150E+02  0.41800000000E+01 0.  1.
         -5    1    3    3    0  502 -0.12216281291E+03  0.26317907819E+02  0.12760096694E+03  0.17865011697E+03  0.41800000000E+01 0.  1.
        -11    1    1    2    0    0  0.66295106785E+02  0.16350909509E+02  0.98364580302E+02  0.11974132154E+03  0.00000000000E+00 0.  1.
         11    1    1    2    0    0  0.55885665352E+02 -0.74506592141E+02  0.20072663887E+03  0.22128177380E+03  0.00000000000E+00 0. -1.
</event>
<event>
 7    1  0.1312490E-005  0.1177038E+03  0.7561462E-02  0.1246934E+00
         -2   -1    0    0    0  501 -0.00000000000E+00  0.00000000000E+00  0.14243733932E+03  0.14243733932E+03  0.00000000000E+00 0.  1.
          2   -1    0    0  501    0  0.00000000000E+00 -0.00000000000E+00 -0.20068177509E+03  0.20068177509E+03  0.00000000000E+00 0. -1.
         23    2    1    2    0    0  0.81711427108E+02 -0.20472831975E+02  0.69662089118E+02  0.16612251467E+03  0.12509192240E+03 0.  0.
          5    1    3    3  502    0 -0.30377332603E+02  0.92223239247E+01  0.26478182002E+01  0.32129689321E+02  0.41800000000E+01 0. -1.
         -5    1    3    3    0  502  0.11208875971E+03 -0.29695155899E+02  0.67014270917E+02  0.13399282535E+03  0.41800000000E+01 0. -1.
        -11    1    1    2    0    0 -0.56608404966E+02  0.28404445596E+01 -0.13115565921E+02  0.58177295464E+02  0.00000000000E+00 0.  1.
         11    1    1    2    0    0 -0.25103022142E+02  0.17632387415E+02 -0.11479095897E+03  0.11881930428E+03  0.00000000000E+00 0. -1.
</event>
<event>
 7    1  0.1312490E-005  0.8802854E+02  0.7561462E-02  0.1307697E+00
         -3   -1    0    0    0  501 -0.00000000000E+00  0.00000000000E+00  0.34391669803E+03  0.34391669803E+03  0.00000000000E+00 0.  1.
          3   -1    0    0  501    0  0.00000000000E+00 -0.00000000000E+00 -0.52064207733E+02  0.52064207733E+02  0.00000000000E+00 0. -1.
         23    2    1    2    0    0 -0.20748120786E+02  0.66096388496E+02  0.21615670508E+03  0.25917155270E+03  0.12508779114E+03 0.  0.
          5    1    3    3  502    0 -0.30334574762E+01  0.27688239965E+02 -0.93632989595E+01  0.29681379079E+02  0.41800000000E+01 0.  1.
         -5    1    3    3    0  502 -0.17714663310E+02  0.38408148531E+02  0.22552000404E+03  0.22949017362E+03  0.41800000000E+01 0.  1.
        -11    1    1    2    0    0  0.11190563818E+02  0.17758823892E+02  0.39999771341E+02  0.45172848614E+02  0.00000000000E+00 0.  1.
         11    1    1    2    0    0  0.95575569682E+01 -0.83855212388E+02  0.35696013878E+02  0.91636504443E+02  0.00000000000E+00 0. -1.
</event>
<event>
 7    1  0.1312490E-005  0.1057478E+03  0.7561462E-02  0.1268653E+00
         -3   -1    0    0    0  501 -0.00000000000E+00  0.00000000000E+00  0.20207907314E+03  0.20207907314E+03  0.00000000000E+00 0.  1.
          3   -1    0    0  501    0  0.00000000000E+00 -0.00000000000E+00 -0.70023392954E+02  0.70023392954E+02  0.00000000000E+00 0. -1.
         23    2    1    2    0    0 -0.23651187627E+02  0.39905429704E+02  0.98853952677E+02  0.16604129421E+03  0.12508311408E+03 0.  0.
          5    1    3    3  502    0  0.25460117953E+02 -0.34386343132E+02  0.21793092368E+02  0.48198023560E+02  0.41800000000E+01 0.  1.
         -5    1    3    3    0  502 -0.49111305580E+02  0.74291772836E+02  0.77060860309E+02  0.11784327065E+03  0.41800000000E+01 0.  1.
        -11    1    1    2    0    0  0.43650069965E+02 -0.12463281328E+02  0.50540882875E+02  0.67934106538E+02  0.00000000000E+00 0.  1.
         11    1    1    2    0    0 -0.19998882338E+02 -0.27442148376E+02 -0.17339155370E+02  0.38127065337E+02  0.00000000000E+00 0. -1.
</event>
<event>
 7    1  0.1312490E-005  0.1361765E+03  0.7561462E-02  0.1218568E+00
          1   -1    0    0  501    0  0.00000000000E+00  0.00000000000E+00  0.12863960093E+03  0.12863960093E+03  0.00000000000E+00 0. -1.
         -1   -1    0    0    0  501 -0.00000000000E+00 -0.00000000000E+00 -0.22741957590E+03  0.22741957590E+03  0.00000000000E+00 0.  1.
         23    2    1    2    0    0  0.27110260177E+02  0.11896423237E+03 -0.10715623060E+03  0.20498068136E+03  0.12508863730E+03 0.  0.
          5    1    3    3  502    0  0.22036027749E+02 -0.74151426557E+01  0.15891610015E+02  0.28470801331E+02  0.41800000000E+01 0. -1.
         -5    1    3    3    0  502  0.50742324278E+01  0.12637937503E+03 -0.12304784062E+03  0.17650988003E+03  0.41800000000E+01 0. -1.
        -11    1    1    2    0    0 -0.13004874832E+02 -0.43252907846E+02 -0.39831732598E+02  0.60220492594E+02  0.00000000000E+00 0.  1.
         11    1    1    2    0    0 -0.14105385345E+02 -0.75711324527E+02  0.48207988235E+02  0.90858002878E+02  0.00000000000E+00 0. -1.
</event>
<event>
 7    1  0.1312490E-005  0.1186960E+03  0.7561462E-02  0.1245264E+00
          1   -1    0    0  501    0  0.00000000000E+00  0.00000000000E+00  0.48909178795E+03  0.48909178795E+03  0.00000000000E+00 0. -1.
         -1   -1    0    0    0  501 -0.00000000000E+00 -0.00000000000E+00 -0.43006502972E+02  0.43006502972E+02  0.00000000000E+00 0.  1.
         23    2    1    2    0    0 -0.30706772577E+02 -0.47257445170E+02  0.10271631877E+03  0.17139480348E+03  0.12509742009E+03 0.  0.
          5    1    3    3  502    0  0.44906273122E+02 -0.41307000165E+02  0.42801573013E+02  0.74647764071E+02  0.41800000000E+01 0. -1.
         -5    1    3    3    0  502 -0.75613045699E+02 -0.59504450048E+01  0.59914745757E+02  0.96747039410E+02  0.41800000000E+01 0. -1.
        -11    1    1    2    0    0  0.29152204952E+02 -0.18480010498E+02  0.20023190275E+03  0.20318507997E+03  0.00000000000E+00 0. -1.
         11    1    1    2    0    0  0.15545676250E+01  0.65737455668E+02  0.14313706345E+03  0.15751840747E+03  0.00000000000E+00 0.  1.
</event>
<event>
 7    1  0.1312490E-005  0.8167961E+02  0.7561462E-02  0.1324351E+00
          1   -1    0    0  501    0  0.00000000000E+00  0.00000000000E+00  0.12548273908E+03  0.12548273908E+03  0.00000000000E+00 0. -1.
         -1   -1    0    0    0  501 -0.00000000000E+00 -0.00000000000E+00 -0.10804780675E+03  0.10804780675E+03  0.00000000000E+00 0.  1.
         23    2    1    2    0    0  0.36319968324E+02  0.18505032822E+02 -0.66975272670E+01  0.13173307834E+03  0.12508865144E+03 0.  0.
          5    1    3    3  502    0 -0.10491257984E+02  0.18752637670E+02  0.52069686601E+02  0.56484091357E+02  0.41800000000E+01 0. -1.
         -5    1    3    3    0  502  0.46811226309E+02 -0.24760484764E+00 -0.58767213868E+02  0.75248986987E+02  0.41800000000E+01 0. -1.
        -11    1    1    2    0    0  0.28105521315E+02 -0.77395200502E+01  0.21863269692E+02  0.36439306533E+02  0.00000000000E+00 0.  1.
         11    1    1    2    0    0 -0.64425489639E+02 -0.10765512772E+02  0.22691899093E+01  0.65358160954E+02  0.00000000000E+00 0. -1.
</event>
<event>
 7    1  0.1312490E-005  0.1386373E+03  0.7561462E-02  0.1215174E+00
         -2   -1    0    0    0  501 -0.00000000000E+00  0.00000000000E+00  0.20860321460E+02  0.20860321460E+02  0.00000000000E+00 0.  1.
          2   -1    0    0  501    0  0.00000000000E+00 -0.00000000000E+00 -0.10199050640E+04  0.10199050640E+04  0.00000000000E+00 0. -1.
         23    2    1    2    0    0 -0.21562028952E+01  0.93597885738E+02 -0.63351128791E+03  0.65249474479E+03  0.12509047383E+03 0.  0.
          5    1    3    3  502    0  0.39676071289E+02  0.96331093845E+02 -0.33017524593E+03  0.34624707320E+03  0.41800000000E+01 0. -1.
         -5    1    3    3    0  502 -0.41832274184E+02 -0.27332081075E+01 -0.30333604198E+03  0.30624767159E+03  0.41800000000E+01 0. -1.
        -11    1    1    2    0    0  0.45810645576E+02 -0.34217149958E+02 -0.16434367685E+03  0.17400653068E+03  0.00000000000E+00 0. -1.
         11    1    1    2    0    0 -0.43654442681E+02 -0.59380735780E+02 -0.20118977782E+03  0.21426411003E+03  0.00000000000E+00 0.  1.
</event>
<event>
 7    1  0.1312490E-005  0.1948163E+03  0.7561462E-02  0.1154188E+00
          1   -1    0    0  501    0  0.00000000000E+00  0.00000000000E+00  0.90129482248E+03  0.90129482248E+03  0.00000000000E+00 0. -1.
         -1   -1    0    0    0  501 -0.00000000000E+00 -0.00000000000E+00 -0.55113861570E+02  0.55113861570E+02  0.00000000000E+00 0.  1.
         23    2    1    2    0    0 -0.11177456263E+03 -0.15002206729E+03  0.32637750846E+03  0.39644556654E+03  0.12508651277E+03 0.  0.
          5    1    3    3  502    0 -0.59132526130E+02 -0.21682248819E+02  0.19643629345E+03  0.20632853740E+03  0.41800000000E+01 0. -1.
         -5    1    3    3    0  502 -0.52642036505E+02 -0.12833981847E+03  0.12994121501E+03  0.19011702914E+03  0.41800000000E+01 0. -1.
        -11    1    1    2    0    0  0.45887485386E+02  0.49080355838E+02  0.82760297936E+02  0.10660117053E+03  0.00000000000E+00 0.  1.
         11    1    1    2    0    0  0.65887077249E+02  0.10094171145E+03  0.43704315451E+03  0.45336194697E+03  0.00000000000E+00 0. -1.
</event>
<event>
 7    1  0.1312490E-005  0.1089611E+03  0.7561462E-02  0.1262506E+00
          1   -1    0    0  501    0  0.00000000000E+00  0.00000000000E+00  0.83479079877E+02  0.83479079877E+02  0.00000000000E+00 0. -1.
         -1   -1    0    0    0  501 -0.00000000000E+00 -0.00000000000E+00 -0.20333956157E+03  0.20333956157E+03  0.00000000000E+00 0.  1.
         23    2    1    2    0    0 -0.65913175694E+02 -0.26156255830E+02 -0.47930145274E+02  0.15157049318E+03  0.12509044380E+03 0.  0.
          5    1    3    3  502    0 -0.58149657020E+02 -0.72659427914E+02 -0.16117123592E+02  0.94541044786E+02  0.41800000000E+01 0. -1.
         -5    1    3    3    0  502 -0.77635186739E+01  0.46503172084E+02 -0.31813021682E+02  0.57029448399E+02  0.41800000000E+01 0. -1.
        -11    1    1    2    0    0  0.30296586527E+02  0.28691857182E+02 -0.87002145955E+02  0.96490824562E+02  0.00000000000E+00 0.  1.
         11    1    1    2    0    0  0.35616589167E+02 -0.25356013527E+01  0.15071809534E+02  0.38757323704E+02  0.00000000000E+00 0. -1.
</event>
<event>
 7    1  0.1312490E-005  0.1556486E+03  0.7561462E-02  0.1193699E+00
          2   -1    0    0  501    0  0.00000000000E+00  0.00000000000E+00  0.10035052066E+04  0.10035052066E+04  0.00000000000E+00 0. -1.
         -2   -1    0    0    0  501 -0.00000000000E+00 -0.00000000000E+00 -0.25203732324E+02  0.25203732324E+02  0.00000000000E+00 0.  1.
         23    2    1    2    0    0 -0.55625893758E+02  0.96989640232E+02  0.42409123855E+03  0.45607230477E+03  0.12508932089E+03 0.  0.
          5    1    3    3  502    0 -0.44113601354E+02 -0.20839233465E+02  0.11109249259E+03  0.12140550970E+03  0.41800000000E+01 0.  1.
         -5    1    3    3    0  502 -0.11512292404E+02  0.11782887370E+03  0.31299874595E+03  0.33466679507E+03  0.41800000000E+01 0.  1.
        -11    1    1    2    0    0 -0.23170238300E+02 -0.68919790423E+01  0.10580819005E+03  0.10853447563E+03  0.00000000000E+00 0.  1.
         11    1    1    2    0    0  0.78796132058E+02 -0.90097661190E+02  0.44840204570E+03  0.46410215855E+03  0.00000000000E+00 0. -1.
</event>
<event>
 7    1  0.1312490E-005  0.1586873E+03  0.7561462E-02  0.1190187E+00
         -2   -1    0    0    0  501 -0.00000000000E+00  0.00000000000E+00  0.14225210374E+03  0.14225210374E+03  0.00000000000E+00 0. -1.
          2   -1    0    0  501    0  0.00000000000E+00 -0.00000000000E+00 -0.19893935622E+03  0.19893935622E+03  0.00000000000E+00 0.  1.
         23    2    1    2    0    0  0.12267663507E+03  0.73713466774E+00  0.86343908899E+01  0.17542129323E+03  0.12509187526E+03 0.  0.
          5    1    3    3  502    0  0.28295061915E+02  0.57596033622E+02 -0.40223381928E+01  0.64432640969E+02  0.41800000000E+01 0.  1.
         -5    1    3    3    0  502  0.94381573151E+02 -0.56858898954E+02  0.12656729083E+02  0.11098865227E+03  0.41800000000E+01 0.  1.
        -11    1    1    2    0    0 -0.12086637922E+03 -0.20813360392E+02 -0.31876570752E+02  0.12672013794E+03  0.00000000000E+00 0. -1.
         11    1    1    2    0    0 -0.18102558458E+01  0.20076225724E+02 -0.33445072622E+02  0.39050028787E+02  0.00000000000E+00 0.  1.
</event>
<event>
 7    1  0.1312490E-005  0.1859768E+03  0.7561462E-02  0.1162141E+00
          2   -1    0    0  501    0  0.00000000000E+00  0.00000000000E+00  0.78176640623E+03  0.78176640623E+03  0.00000000000E+00 0. -1.
         -2   -1    0    0    0  501 -0.00000000000E+00 -0.00000000000E+00 -0.49949679773E+02  0.49949679773E+02  0.00000000000E+00 0.  1.
         23    2    1    2    0    0 -0.68749044691E+01  0.16499597085E+03  0.36842246396E+03  0.42267379551E+03  0.12508833181E+03 0.  0.
          5    1    3    3  502    0  0.14401075909E+02 -0.76982460196E+01  0.10886475411E+03  0.11016197650E+03  0.41800000000E+01 0. -1.
         -5    1    3    3    0  502 -0.21275980378E+02  0.17269421687E+03  0.25955770985E+03  0.31251181901E+03  0.41800000000E+01 0. -1.
        -11    1    1    2    0    0  0.90992263207E+01  0.54370923291E+01  0.61041680418E+02  0.61955182519E+02  0.00000000000E+00 0. -1.
         11    1    1    2    0    0 -0.22243218516E+01 -0.17043306317E+03  0.30235258208E+03  0.34708710797E+03  0.00000000000E+00 0.  1.
</event>
<event>
 7    1  0.1312490E-005  0.9218958E+02  0.7561462E-02  0.1297634E+00
          1   -1    0    0  501    0  0.00000000000E+00  0.00000000000E+00  0.69505226177E+03  0.69505226177E+03  0.00000000000E+00 0. -1.
         -1   -1    0    0    0  501 -0.00000000000E+00 -0.00000000000E+00 -0.19512229143E+02  0.19512229143E+02  0.00000000000E+00 0.  1.
         23    2    1    2    0    0  0.18806179742E+02 -0.12076256141E+02  0.40594381649E+03  0.42536686113E+03  0.12508827301E+03 0.  0.
          5    1    3    3  502    0 -0.36950835699E+02  0.49385427207E+01  0.40205627366E+02  0.54988347265E+02  0.41800000000E+01 0. -1.
         -5    1    3    3    0  502  0.55757015441E+02 -0.17014798862E+02  0.36573818912E+03  0.37037851387E+03  0.41800000000E+01 0. -1.
        -11    1    1    2    0    0  0.29792223265E+02 -0.14387694536E+02  0.34994748204E+02  0.48158225912E+02  0.00000000000E+00 0.  1.
         11    1    1    2    0    0 -0.48598403007E+02  0.26463950676E+02  0.23460146793E+03  0.24103940387E+03  0.00000000000E+00 0. -1.
</event>
<event>
 7    1  0.1312490E-005  0.1904090E+03  0.7561462E-02  0.1158093E+00
          1   -1    0    0  501    0  0.00000000000E+00  0.00000000000E+00  0.45611369090E+03  0.45611369090E+03  0.00000000000E+00 0. -1.
         -1   -1    0    0    0  501 -0.00000000000E+00 -0.00000000000E+00 -0.88928480620E+02  0.88928480620E+02  0.00000000000E+00 0.  1.
         23    2    1    2    0    0  0.13512356561E+03  0.83210602878E+02  0.11356976250E+03  0.23179156485E+03  0.12508739411E+03 0.  0.
          5    1    3    3  502    0  0.47671763728E+02 -0.28710124897E+02  0.11880758046E+02  0.57056928942E+02  0.41800000000E+01 0. -1.
         -5    1    3    3    0  502  0.87451801882E+02  0.11192072778E+03  0.10168900446E+03  0.17473463591E+03  0.41800000000E+01 0. -1.
        -11    1    1    2    0    0 -0.74234215630E+02  0.64711810939E+01  0.87954378993E+02  0.11527605015E+03  0.00000000000E+00 0.  1.
         11    1    1    2    0    0 -0.60889349981E+02 -0.89681783972E+02  0.16566106878E+03  0.19797455652E+03  0.00000000000E+00 0. -1.
</event>
<event>
 7    1  0.1312490E-005  0.1277844E+03  0.7561462E-02  0.1230781E+00
         -2   -1    0    0    0  501 -0.00000000000E+00  0.00000000000E+00  0.10397196514E+03  0.10397196514E+03  0.00000000000E+00 0. -1.
          2   -1    0    0  501    0  0.00000000000E+00 -0.00000000000E+00 -0.43892414944E+03  0.43892414944E+03  0.00000000000E+00 0.  1.
         23    2    1    2    0    0 -0.94672631934E+02 -0.67031974673E+02  0.52452112479E+01  0.17067992664E+03  0.12509169537E+03 0.  0.
          5    1    3    3  502    0 -0.68221191213E+02 -0.13888430275E+01 -0.46699554793E+02  0.82791186930E+02  0.41800000000E+01 0.  1.
         -5    1    3    3    0  502 -0.26451440722E+02 -0.65643131645E+02  0.51944766041E+02  0.87888739708E+02  0.41800000000E+01 0.  1.
        -11    1    1    2    0    0  0.81365053041E+02  0.61038064791E+02 -0.34263947047E+03  0.35741813599E+03  0.00000000000E+00 0.  1.
         11    1    1    2    0    0  0.13307578893E+02  0.59939098820E+01  0.24420749190E+01  0.14798051952E+02  0.00000000000E+00 0. -1.
</event>
<event>
 7    1  0.1312490E-005  0.1990648E+03  0.7561462E-02  0.1150530E+00
         -1   -1    0    0    0  501 -0.00000000000E+00  0.00000000000E+00  0.44511697304E+02  0.44511697304E+02  0.00000000000E+00 0.  1.
          1   -1    0    0  501    0  0.00000000000E+00 -0.00000000000E+00 -0.10959829608E+04  0.10959829608E+04  0.00000000000E+00 0. -1.
         23    2    1    2    0    0  0.96552324641E+02  0.16601561947E+03 -0.49339358986E+03  0.54402928704E+03  0.12508834217E+03 0.  0.
          5    1    3    3  502    0  0.10363443210E+03  0.13849009844E+03 -0.28313313734E+03  0.33181538352E+03  0.41800000000E+01 0. -1.
         -5    1    3    3    0  502 -0.70821074591E+01  0.27525521031E+02 -0.21026045252E+03  0.21221390352E+03  0.41800000000E+01 0. -1.
        -11    1    1    2    0    0 -0.51655520864E+02 -0.49632220741E+02 -0.31737536321E+03  0.32535944944E+03  0.00000000000E+00 0.  1.
         11    1    1    2    0    0 -0.44896803777E+02 -0.11638339873E+03 -0.24070231042E+03  0.27110592161E+03  0.00000000000E+00 0. -1.
</event>
<event>
 7    1  0.1312490E-005  0.1334295E+03  0.7561462E-02  0.1222454E+00
          1   -1    0    0  501    0  0.00000000000E+00  0.00000000000E+00  0.24427982893E+03  0.24427982893E+03  0.00000000000E+00 0. -1.
         -1   -1    0    0    0  501 -0.00000000000E+00 -0.00000000000E+00 -0.92859971912E+02  0.92859971912E+02  0.00000000000E+00 0.  1.
         23    2    1    2    0    0  0.87081203548E+02 -0.12781745010E+02  0.22684701523E+02  0.15462067212E+03  0.12508576077E+03 0.  0.
          5    1    3    3  502    0  0.11662549641E+03  0.38239886216E+01  0.68054770398E+01  0.11696117398E+03  0.41800000000E+01 0. -1.
         -5    1    3    3    0  502 -0.29544292859E+02 -0.16605733631E+02  0.15879224483E+02  0.37659498140E+02  0.41800000000E+01 0. -1.
        -11    1    1    2    0    0 -0.10030976947E+03  0.46448387693E+01  0.13277486960E+03  0.16647159029E+03  0.00000000000E+00 0. -1.
         11    1    1    2    0    0  0.13228565918E+02  0.81369062402E+01 -0.40397141090E+01  0.16047538424E+02  0.00000000000E+00 0.  1.
</event>
<event>
 7    1  0.1312490E-005  0.1490117E+03  0.7561462E-02  0.1201693E+00
          2   -1    0    0  501    0  0.00000000000E+00  0.00000000000E+00  0.20945935009E+03  0.20945935009E+03  0.00000000000E+00 0. -1.
         -2   -1    0    0    0  501 -0.00000000000E+00 -0.00000000000E+00 -0.15020642550E+03  0.15020642550E+03  0.00000000000E+00 0.  1.
         23    2    1    2    0    0  0.11711971100E+03 -0.22416733909E+02 -0.41660784358E+02  0.17777409175E+03  0.12509384509E+03 0.  0.
          5    1    3    3  502    0  0.11122092531E+03  0.18008095395E+02 -0.65398158583E+02  0.13034100380E+03  0.41800000000E+01 0. -1.
         -5    1    3    3    0  502  0.58987856926E+01 -0.40424829304E+02  0.23737374225E+02  0.47433087945E+02  0.41800000000E+01 0. -1.
        -11    1    1    2    0    0 -0.11633492200E+03 -0.53257485654E+01  0.56304519522E+02  0.12935368798E+03  0.00000000000E+00 0.  1.
         11    1    1    2    0    0 -0.78478900075E+00  0.27742482474E+02  0.44609189434E+02  0.52537995866E+02  0.00000000000E+00 0. -1.
</event>
<event>
 7    1  0.1312490E-005  0.8744180E+02  0.7561462E-02  0.1309168E+00
         -1   -1    0    0    0  501 -0.00000000000E+00  0.00000000000E+00  0.17118881720E+03  0.17118881720E+03  0.00000000000E+00 0.  1.
          1   -1    0    0  501    0  0.00000000000E+00 -0.00000000000E+00 -0.88674407912E+02  0.88674407912E+02  0.00000000000E+00 0. -1.
         23    2    1    2    0    0 -0.29464222577E+01 -0.34481685452E+02  0.94435296126E+02  0.16051035372E+03  0.12509148837E+03 0.  0.
          5    1    3    3  502    0  0.52775920088E+01  0.24117581710E+02  0.97935839905E+02  0.10108616059E+03  0.41800000000E+01 0.  1.
         -5    1    3    3    0  502 -0.82240142665E+01 -0.58599267162E+02 -0.35005437788E+01  0.59424193132E+02  0.41800000000E+01 0.  1.
        -11    1    1    2    0    0 -0.36056445056E+02 -0.33178919453E+01  0.14437178042E+02  0.38980863855E+02  0.00000000000E+00 0. -1.
         11    1    1    2    0    0  0.39002867314E+02  0.37799577397E+02 -0.26358064877E+02  0.60372007538E+02  0.00000000000E+00 0.  1.
</event>
<event>
 7    1  0.1312490E-005  0.9924231E+02  0.7561462E-02  0.1281897E+00
          2   -1    0    0  501    0  0.00000000000E+00  0.00000000000E+00  0.79877370166E+03  0.79877370166E+03  0.00000000000E+00 0. -1.
         -2   -1    0    0    0  501 -0.00000000000E+00 -0.00000000000E+00 -0.21706303547E+02  0.21706303547E+02  0.00000000000E+00 0.  1.
         23    2    1    2    0    0  0.65709564147E+02 -0.15654664274E+02  0.33841098782E+03  0.36705892686E+03  0.12508974290E+03 0.  0.
          5    1    3    3  502    0  0.27187056062E+02  0.22171112019E+02  0.13746386148E+02  0.37909494294E+02  0.41800000000E+01 0.  1.
         -5    1    3    3    0  502  0.38522508085E+02 -0.37825776293E+02  0.32466460167E+03  0.32914943257E+03  0.41800000000E+01 0.  1.
        -11    1    1    2    0    0 -0.55404379501E+02 -0.29445144429E+02  0.17905187789E+03  0.18972674238E+03  0.00000000000E+00 0.  1.
         11    1    1    2    0    0 -0.10305184646E+02  0.45099808704E+02  0.25960453240E+03  0.26369433597E+03  0.00000000000E+00 0. -1.
</event>
<event>
 7    1  0.1312490E-005  0.8831406E+02  0.7561462E-02  0.1306987E+00
          2   -1    0    0  501    0  0.00000000000E+00  0.00000000000E+00  0.11474840518E+03  0.11474840518E+03  0.00000000000E+00 0. -1.
         -2   -1    0    0    0  501 -0.00000000000E+00 -0.00000000000E+00 -0.12442480194E+03  0.12442480194E+03  0.00000000000E+00 0.  1.
         23    2    1    2    0    0  0.62283145333E+02  0.22197587981E+02  0.12696812040E+02  0.14205614458E+03  0.12508723384E+03 0.  0.
          5    1    3    3  502    0  0.70463419897E+02  0.23989144368E+02 -0.42672722301E+02  0.85901142132E+02  0.41800000000E+01 0.  1.
         -5    1    3    3    0  502 -0.81802745637E+01 -0.17915563866E+01  0.55369534342E+02  0.56155002443E+02  0.41800000000E+01 0.  1.
        -11    1    1    2    0    0 -0.76103257548E+01  0.21448450910E+02 -0.13850886115E+02  0.26642074819E+02  0.00000000000E+00 0. -1.
         11    1    1    2    0    0 -0.54672819578E+02 -0.43646038891E+02 -0.85223226817E+01  0.70474987729E+02  0.00000000000E+00 0.  1.
</event>
<event>
 7    1  0.1312490E-005  0.1079860E+03  0.7561462E-02  0.1264346E+00
          2   -1    0    0  501    0  0.00000000000E+00  0.00000000000E+00  0.50223117894E+03  0.50223117894E+03  0.00000000000E+00 0. -1.
         -2   -1    0    0    0  501 -0.00000000000E+00 -0.00000000000E+00 -0.28053814710E+02  0.28053814710E+02  0.00000000000E+00 0.  1.
         23    2    1    2    0    0  0.31326583200E+02 -0.37382309156E+02  0.28924297416E+03  0.31888812960E+03  0.12509735908E+03 0.  0.
          5    1    3    3  502    0 -0.42438861068E+02 -0.40672646831E+02  0.10593276396E+03  0.12122105431E+03  0.41800000000E+01 0.  1.
         -5    1    3    3    0  502  0.73765444267E+02  0.32903376748E+01  0.18331021020E+03  0.19766707529E+03  0.41800000000E+01 0.  1.
        -11    1    1    2    0    0  0.17728132642E+02  0.28000486281E+02  0.14111710733E+03  0.14495637930E+03  0.00000000000E+00 0.  1.
         11    1    1    2    0    0 -0.49054715841E+02  0.93818228752E+01  0.43817282748E+02  0.66440484753E+02  0.00000000000E+00 0. -1.
</event>
<event>
 7    1  0.1312490E-005  0.9873057E+02  0.7561462E-02  0.1282988E+00
          2   -1    0    0  501    0  0.00000000000E+00  0.00000000000E+00  0.63488205809E+03  0.63488205809E+03  0.00000000000E+00 0. -1.
         -2   -1    0    0    0  501 -0.00000000000E+00 -0.00000000000E+00 -0.25359192747E+02  0.25359192747E+02  0.00000000000E+00 0.  1.
         23    2    1    2    0    0  0.13832795278E+01  0.62362965463E+02  0.30137868070E+03  0.33221634293E+03  0.12509011315E+03 0.  0.
          5    1    3    3  502    0  0.43547894444E+02  0.77614005216E+02  0.24064836359E+03  0.25661149666E+03  0.41800000000E+01 0. -1.
         -5    1    3    3    0  502 -0.42164614916E+02 -0.15251039753E+02  0.60730317104E+02  0.75604846274E+02  0.41800000000E+01 0. -1.
        -11    1    1    2    0    0 -0.43053226520E+01 -0.99703755270E+01 -0.39453780335E+01  0.11554661359E+02  0.00000000000E+00 0.  1.
         11    1    1    2    0    0  0.29220431242E+01 -0.52392589936E+02  0.31208956267E+03  0.31647024654E+03  0.00000000000E+00 0. -1.
</event>
<event>
 7    1  0.1312490E-005  0.1282570E+03  0.7561462E-02  0.1230065E+00
         -1   -1    0    0    0  501 -0.00000000000E+00  0.00000000000E+00  0.38585970709E+03  0.38585970709E+03  0.00000000000E+00 0.  1.
          1   -1    0    0  501    0  0.00000000000E+00 -0.00000000000E+00 -0.91263289583E+02  0.91263289583E+02  0.00000000000E+00 0. -1.
         23    2    1    2    0    0  0.96414887713E+02  0.39156864072E+01  0.29139130552E+03  0.33146261866E+03  0.12508961375E+03 0.  0.
          5    1    3    3  502    0  0.83933993952E+02  0.50522068705E+02  0.24705876302E+03  0.26580613152E+03  0.41800000000E+01 0. -1.
         -5    1    3    3    0  502  0.12480893762E+02 -0.46606382298E+02  0.44332542494E+02  0.65656487143E+02  0.41800000000E+01 0. -1.
        -11    1    1    2    0    0 -0.19027818375E+02 -0.23465788688E+02  0.46045709164E+02  0.55071848011E+02  0.00000000000E+00 0.  1.
         11    1    1    2    0    0 -0.77387069338E+02  0.19550102281E+02 -0.42840597179E+02  0.90588529995E+02  0.00000000000E+00 0. -1.
</event>
<event>
 7    1  0.1312490E-005  0.1774037E+03  0.7561462E-02  0.1170340E+00
         -1   -1    0    0    0  501 -0.00000000000E+00  0.00000000000E+00  0.77717744185E+02  0.77717744185E+02  0.00000000000E+00 0.  1.
          1   -1    0    0  501    0  0.00000000000E+00 -0.00000000000E+00 -0.61808694620E+03  0.61808694620E+03  0.00000000000E+00 0. -1.
         23    2    1    2    0    0  0.58112252912E+02  0.16124477230E+03 -0.14979501058E+03  0.25973816521E+03  0.12509379977E+03 0.  0.
          5    1    3    3  502    0  0.26755696892E+02  0.14538965468E+03 -0.16468960864E+03  0.22134624143E+03  0.41800000000E+01 0. -1.
         -5    1    3    3    0  502  0.31356556020E+02  0.15855117622E+02  0.14894598056E+02  0.38391923779E+02  0.41800000000E+01 0. -1.
        -11    1    1    2    0    0 -0.23296725996E+02 -0.74649953089E+02 -0.28320291892E+03  0.29380137206E+03  0.00000000000E+00 0.  1.
         11    1    1    2    0    0 -0.34815526916E+02 -0.86594819213E+02 -0.10737127252E+03  0.14226515311E+03  0.00000000000E+00 0. -1.
</event>
<event>
 7    1  0.1312490E-005  0.2472438E+03  0.7561462E-02  0.1115059E+00
         -1   -1    0    0    0  501 -0.00000000000E+00  0.00000000000E+00  0.18248598774E+03  0.18248598774E+03  0.00000000000E+00 0.  1.
          1   -1    0    0  501    0  0.00000000000E+00 -0.00000000000E+00 -0.37404126169E+03  0.37404126169E+03  0.00000000000E+00 0. -1.
         23    2    1    2    0    0 -0.18301849936E+03 -0.13022195958E+03 -0.17089418962E+02  0.25766863048E+03  0.12509014760E+03 0.  0.
          5    1    3    3  502    0 -0.20070503807E+03 -0.12158304757E+03 -0.61771904131E+01  0.23477772433E+03  0.41800000000E+01 0.  1.
         -5    1    3    3    0  502  0.17686538707E+02 -0.86389120127E+01 -0.10912228549E+02  0.22890906144E+02  0.41800000000E+01 0.  1.
        -11    1    1    2    0    0  0.16308767539E+03  0.14223380113E+03 -0.16994407100E+03  0.27515274179E+03  0.00000000000E+00 0. -1.
         11    1    1    2    0    0  0.19930823973E+02 -0.12011841547E+02 -0.45217839971E+01  0.23705877164E+02  0.00000000000E+00 0.  1.
</event>
<event>
 7    1  0.1312490E-005  0.1366664E+03  0.7561462E-02  0.1217886E+00
          2   -1    0    0  501    0  0.00000000000E+00  0.00000000000E+00  0.30312878168E+03  0.30312878168E+03  0.00000000000E+00 0. -1.
         -2   -1    0    0    0  501 -0.00000000000E+00 -0.00000000000E+00 -0.12879995364E+03  0.12879995364E+03  0.00000000000E+00 0.  1.
         23    2    1    2    0    0 -0.28827232358E+02 -0.80488125559E+02 -0.62422095737E+02  0.16387232994E+03  0.12509306457E+03 0.  0.
          5    1    3    3  502    0  0.29704530602E+02  0.17401884837E+02 -0.28267164395E+02  0.44740247173E+02  0.41800000000E+01 0. -1.
         -5    1    3    3    0  502 -0.58531762960E+02 -0.97890010396E+02 -0.34154931342E+02  0.11913208277E+03  0.41800000000E+01 0. -1.
        -11    1    1    2    0    0 -0.18617312046E+02  0.74393836446E+02  0.12739240603E+03  0.14869388798E+03  0.00000000000E+00 0.  1.
         11    1    1    2    0    0  0.47444544405E+02  0.60942891132E+01  0.10935851774E+03  0.11936251739E+03  0.00000000000E+00 0. -1.
</event>
<event>
 7    1  0.1312490E-005  0.9484239E+02  0.7561462E-02  0.1291531E+00
         -4   -1    0    0    0  501 -0.00000000000E+00  0.00000000000E+00  0.35260180531E+03  0.35260180531E+03  0.00000000000E+00 0.  1.
          4   -1    0    0  501    0  0.00000000000E+00 -0.00000000000E+00 -0.48737636186E+02  0.48737636186E+02  0.00000000000E+00 0. -1.
         23    2    1    2    0    0 -0.67474013639E+02  0.22976642119E+02  0.19967484681E+03  0.24616351524E+03  0.12508302519E+03 0.  0.
          5    1    3    3  502    0 -0.86222242454E+02  0.13401901064E+02  0.62730594507E+02  0.10754759845E+03  0.41800000000E+01 0.  1.
         -5    1    3    3    0  502  0.18748228815E+02  0.95747410545E+01  0.13694425230E+03  0.13861591679E+03  0.41800000000E+01 0.  1.
        -11    1    1    2    0    0  0.41105763988E+02 -0.32941033369E+02  0.11379520965E+03  0.12539595389E+03  0.00000000000E+00 0.  1.
         11    1    1    2    0    0  0.26368249651E+02  0.99643912502E+01 -0.96058873299E+01  0.29779972365E+02  0.00000000000E+00 0. -1.
</event>
<event>
 6    1  0.1312490E-005  0.2050964E+03  0.7561462E-02  0.1145509E+00
          1   -1    0    0  501    0  0.00000000000E+00  0.00000000000E+00  0.81090089934E+03  0.81090089934E+03  0.00000000000E+00 0. -1.
         -1   -1    0    0    0  501 -0.00000000000E+00 -0.00000000000E+00 -0.12724390760E+03  0.12724390760E+03  0.00000000000E+00 0.  1.
          5    1    1    2  502    0  0.16220963667E+02 -0.12865587615E+03  0.18121577754E+01  0.12975442360E+03  0.41800000000E+01 0. -1.
         -5    1    1    2    0  502  0.67496248581E+02  0.14105651407E+03  0.49695813124E+02  0.16413357358E+03  0.41800000000E+01 0.  1.
        -11    1    1    2    0    0 -0.97956124328E+02 -0.28993442656E+02  0.50282178323E+03  0.51309430683E+03  0.00000000000E+00 0. -1.
         11    1    1    2    0    0  0.14238912081E+02  0.16592804736E+02  0.12932723761E+03  0.13116250293E+03  0.00000000000E+00 0.  1.
</event>
<event>
 6    1  0.1312490E-005  0.2414515E+03  0.7561462E-02  0.1118830E+00
         -2   -1    0    0    0  501 -0.00000000000E+00  0.00000000000E+00  0.22154468916E+03  0.22154468916E+03  0.00000000000E+00 0.  1.
          2   -1    0    0  501    0  0.00000000000E+00 -0.00000000000E+00 -0.30003634746E+03  0.30003634746E+03  0.00000000000E+00 0. -1.
          5    1    1    2  502    0  0.12687886656E+03 -0.36067665468E+02 -0.73950323685E+02  0.15127870321E+03  0.41800000000E+01 0. -1.
         -5    1    1    2    0  502 -0.47360781302E+02 -0.14132804776E+03  0.31419716622E+02  0.15238547071E+03  0.41800000000E+01 0.  1.
        -11    1    1    2    0    0  0.79175003784E+01  0.23783595616E+02 -0.32611282617E+02  0.41132006839E+02  0.00000000000E+00 0.  1.
         11    1    1    2    0    0 -0.87435585635E+02  0.15361211762E+03 -0.33497686134E+01  0.17678485587E+03  0.00000000000E+00 0. -1.
</event>
<event>
 7    1  0.1312490E-005  0.1108410E+03  0.7561462E-02  0.1259020E+00
          1   -1    0    0  501    0  0.00000000000E+00  0.00000000000E+00  0.37726050900E+03  0.37726050900E+03  0.00000000000E+00 0. -1.
         -1   -1    0    0    0  501 -0.00000000000E+00 -0.00000000000E+00 -0.36321257378E+02  0.36321257378E+02  0.00000000000E+00 0.  1.
         23    2    1    2    0    0  0.28397336174E+02  0.61200784713E+02  0.20655551691E+03  0.24593313498E+03  0.11517803855E+03 0.  0.
          5    1    3    3  502    0 -0.41060926133E+02  0.84312509118E+00  0.68106018240E+02  0.79640521315E+02  0.41800000000E+01 0. -1.
         -5    1    3    3    0  502  0.69458262307E+02  0.60357659622E+02  0.13844949867E+03  0.16629261367E+03  0.41800000000E+01 0.  1.
        -11    1    1    2    0    0  0.11110992332E+02  0.42000214019E+01 -0.12804942653E+01  0.11947133377E+02  0.00000000000E+00 0.  1.
         11    1    1    2    0    0 -0.39508328506E+02 -0.65400806115E+02  0.13566422897E+03  0.15570149802E+03  0.00000000000E+00 0. -1.
</event>
<event>
 7    1  0.1312490E-005  0.1223356E+03  0.7561462E-02  0.1239293E+00
         -4   -1    0    0    0  501 -0.00000000000E+00  0.00000000000E+00  0.22805184490E+03  0.22805184490E+03  0.00000000000E+00 0.  1.
          4   -1    0    0  501    0  0.00000000000E+00 -0.00000000000E+00 -0.94160494762E+02  0.94160494762E+02  0.00000000000E+00 0. -1.
         23    2    1    2    0    0  0.49276437933E+02  0.85761828100E+02  0.80884343774E+02  0.17885953566E+03  0.12516068845E+03 0.  0.
          5    1    3    3  502    0 -0.26317870452E+01 -0.22272855224E+02  0.50086122221E+02  0.55037245771E+02  0.41800000000E+01 0.  1.
         -5    1    3    3    0  502  0.51908224978E+02  0.10803468332E+03  0.30798221553E+02  0.12382228988E+03  0.41800000000E+01 0.  1.
        -11    1    1    2    0    0 -0.30672706237E+01 -0.26990935635E+02  0.62349054613E+02  0.68009729941E+02  0.00000000000E+00 0.  1.
         11    1    1    2    0    0 -0.46209167309E+02 -0.58770892465E+02 -0.93420482460E+01  0.75343074068E+02  0.00000000000E+00 0. -1.
</event>
<event>
 7    1  0.1312490E-005  0.9436105E+02  0.7561462E-02  0.1292622E+00
          4   -1    0    0  501    0  0.00000000000E+00  0.00000000000E+00  0.16555240430E+02  0.16555240430E+02  0.00000000000E+00 0. -1.
         -4   -1    0    0    0  501 -0.00000000000E+00 -0.00000000000E+00 -0.78100240603E+03  0.78100240603E+03  0.00000000000E+00 0.  1.
         23    2    1    2    0    0 -0.75789867183E+01  0.27236760858E+02 -0.50521140722E+03  0.52123378201E+03  0.12508719895E+03 0.  0.
          5    1    3    3  502    0 -0.26454719716E+02 -0.31971817530E+02 -0.69207188611E+02  0.80803197132E+02  0.41800000000E+01 0.  1.
         -5    1    3    3    0  502  0.18875732997E+02  0.59208578388E+02 -0.43600421861E+03  0.44043058488E+03  0.41800000000E+01 0.  1.
        -11    1    1    2    0    0  0.39419211717E+02  0.46199117510E+01 -0.18723966339E+03  0.19139986777E+03  0.00000000000E+00 0.  1.
         11    1    1    2    0    0 -0.31840224999E+02 -0.31856672609E+02 -0.71996094984E+02  0.84923996671E+02  0.00000000000E+00 0. -1.
</event>
<event>
 7    1  0.1312490E-005  0.9568954E+02  0.7561462E-02  0.1289631E+00
         -2   -1    0    0    0  501 -0.00000000000E+00  0.00000000000E+00  0.12514303911E+03  0.12514303911E+03  0.00000000000E+00 0.  1.
          2   -1    0    0  501    0  0.00000000000E+00 -0.00000000000E+00 -0.11875650415E+03  0.11875650415E+03  0.00000000000E+00 0. -1.
         23    2    1    2    0    0  0.30000497321E+02 -0.38472164707E+02  0.29523689257E+02  0.13747312612E+03  0.12508826836E+03 0.  0.
          5    1    3    3  502    0 -0.31008573900E+01 -0.53079310969E+02  0.66718308977E+02  0.85415652677E+02  0.41800000000E+01 0. -1.
         -5    1    3    3    0  502  0.33101354711E+02  0.14607146262E+02 -0.37194619720E+02  0.52057473447E+02  0.41800000000E+01 0. -1.
        -11    1    1    2    0    0  0.28606966694E+02  0.31582701671E+02 -0.20676956905E+02  0.47364143982E+02  0.00000000000E+00 0. -1.
         11    1    1    2    0    0 -0.58607464015E+02  0.68894630361E+01 -0.24601973885E+01  0.59062273156E+02  0.00000000000E+00 0.  1.
</event>
<event>
 7    1  0.1312490E-005  0.1178518E+03  0.7561462E-02  0.1246683E+00
          2   -1    0    0  501    0  0.00000000000E+00  0.00000000000E+00  0.45092497837E+03  0.45092497837E+03  0.00000000000E+00 0. -1.
         -2   -1    0    0    0  501 -0.00000000000E+00 -0.00000000000E+00 -0.38707963592E+02  0.38707963592E+02  0.00000000000E+00 0.  1.
         23    2    1    2    0    0  0.74749017780E+01  0.72408500703E+02  0.20287744525E+03  0.24920840790E+03  0.12508680043E+03 0.  0.
          5    1    3    3  502    0 -0.35590855568E+02 -0.15438726050E+02  0.99189536525E+02  0.10658846006E+03  0.41800000000E+01 0.  1.
         -5    1    3    3    0  502  0.43065757346E+02  0.87847226753E+02  0.10368790873E+03  0.14261994784E+03  0.41800000000E+01 0.  1.
        -11    1    1    2    0    0  0.27370080944E+02 -0.50951802882E+02  0.51753818736E+02  0.77612275457E+02  0.00000000000E+00 0.  1.
         11    1    1    2    0    0 -0.34844982722E+02 -0.21456697822E+02  0.15758575079E+03  0.16281225861E+03  0.00000000000E+00 0. -1.
</event>
<event>
 7    1  0.1312490E-005  0.1066714E+03  0.7561462E-02  0.1266861E+00
          1   -1    0    0  501    0  0.00000000000E+00  0.00000000000E+00  0.34173700129E+03  0.34173700129E+03  0.00000000000E+00 0. -1.
         -1   -1    0    0    0  501 -0.00000000000E+00 -0.00000000000E+00 -0.36687875247E+02  0.36687875247E+02  0.00000000000E+00 0.  1.
         23    2    1    2    0    0 -0.41117825670E+02  0.16478968207E+01  0.13693452621E+03  0.18311761184E+03  0.11440106706E+03 0.  0.
          5    1    3    3  502    0  0.24802244581E+02 -0.31273419156E+02  0.19998220506E+02  0.44839483777E+02  0.41800000000E+01 0. -1.
         -5    1    3    3    0  502 -0.65920070252E+02  0.32921315977E+02  0.11693630571E+03  0.13827812806E+03  0.41800000000E+01 0.  1.
        -11    1    1    2    0    0 -0.24756275286E+02 -0.19092088115E+02  0.53520288887E+02  0.61982274218E+02  0.00000000000E+00 0. -1.
         11    1    1    2    0    0  0.65874100957E+02  0.17444191294E+02  0.11459431094E+03  0.13332499048E+03  0.00000000000E+00 0.  1.
</event>
<event>
 7    1  0.1312490E-005  0.8119874E+02  0.7561462E-02  0.1325684E+00
         -1   -1    0    0    0  501 -0.00000000000E+00  0.00000000000E+00  0.17759344395E+03  0.17759344395E+03  0.00000000000E+00 0.  1.
          1   -1    0    0  501    0  0.00000000000E+00 -0.00000000000E+00 -0.73138750683E+02  0.73138750683E+02  0.00000000000E+00 0. -1.
         23    2    1    2    0    0  0.34230819549E+01 -0.19586030209E+02  0.69632653274E+02  0.14453164672E+03  0.12508141522E+03 0.  0.
          5    1    3    3  502    0 -0.29035394522E+02  0.34111823828E+01  0.93431853352E+02  0.97988131532E+02  0.41800000000E+01 0.  1.
         -5    1    3    3    0  502  0.32458476477E+02 -0.22997212592E+02 -0.23799200078E+02  0.46543515193E+02  0.41800000000E+01 0.  1.
        -11    1    1    2    0    0  0.28227373700E+02  0.44424126540E+02  0.39345505991E+02  0.65714203081E+02  0.00000000000E+00 0.  1.
         11    1    1    2    0    0 -0.31650455655E+02 -0.24838096331E+02 -0.45234660008E+01  0.40486344824E+02  0.00000000000E+00 0. -1.
</event>
<event>
 7    1  0.1312490E-005  0.1243765E+03  0.7561462E-02  0.1236047E+00
          1   -1    0    0  501    0  0.00000000000E+00  0.00000000000E+00  0.54580634086E+02  0.54580634086E+02  0.00000000000E+00 0. -1.
         -1   -1    0    0    0  501 -0.00000000000E+00 -0.00000000000E+00 -0.42235814069E+03  0.42235814069E+03  0.00000000000E+00 0.  1.
         23    2    1    2    0    0  0.15157860351E+02 -0.84640168057E+02 -0.29333574571E+03  0.33028352721E+03  0.12509048668E+03 0.  0.
          5    1    3    3  502    0 -0.54767288020E+02 -0.33325926605E+02 -0.14076300017E+03  0.15473127621E+03  0.41800000000E+01 0. -1.
         -5    1    3    3    0  502  0.69925148370E+02 -0.51314241452E+02 -0.15257274554E+03  0.17555225100E+03  0.41800000000E+01 0. -1.
        -11    1    1    2    0    0 -0.30583442173E+02  0.70072873660E+02 -0.79593679453E+01  0.76869409365E+02  0.00000000000E+00 0. -1.
         11    1    1    2    0    0  0.15425581822E+02  0.14567294397E+02 -0.66482392947E+02  0.69785838195E+02  0.00000000000E+00 0.  1.
</event>
<event>
 7    1  0.1312490E-005  0.2184680E+03  0.7561462E-02  0.1135030E+00
          2   -1    0    0  501    0  0.00000000000E+00  0.00000000000E+00  0.16916846148E+04  0.16916846148E+04  0.00000000000E+00 0. -1.
         -2   -1    0    0    0  501 -0.00000000000E+00 -0.00000000000E+00 -0.33815249322E+02  0.33815249322E+02  0.00000000000E+00 0.  1.
         23    2    1    2    0    0  0.18921000908E+03 -0.45454223117E+02  0.54119846119E+03  0.58856683980E+03  0.12509451060E+03 0.  0.
          5    1    3    3  502    0 -0.15309954356E+02 -0.10184152297E+02  0.19686234721E+02  0.27260445665E+02  0.41800000000E+01 0.  1.
         -5    1    3    3    0  502  0.20451996343E+03 -0.35270070820E+02  0.52151222647E+03  0.56130639413E+03  0.41800000000E+01 0.  1.
        -11    1    1    2    0    0 -0.15388367792E+03  0.12195906184E+01  0.89585071963E+03  0.90897204885E+03  0.00000000000E+00 0. -1.
         11    1    1    2    0    0 -0.35326331155E+02  0.44234632499E+02  0.22082018463E+03  0.22796097544E+03  0.00000000000E+00 0.  1.
</event>
<event>
 7    1  0.1312490E-005  0.3035823E+03  0.7561462E-02  0.1083463E+00
          2   -1    0    0  501    0  0.00000000000E+00  0.00000000000E+00  0.21553414187E+03  0.21553414187E+03  0.00000000000E+00 0. -1.
         -2   -1    0    0    0  501 -0.00000000000E+00 -0.00000000000E+00 -0.52729977608E+03  0.52729977608E+03  0.00000000000E+00 0.  1.
         23    2    1    2    0    0 -0.10691373036E+03 -0.27873813325E+03 -0.28844393568E+03  0.43355433101E+03  0.12507582195E+03 0.  0.
          5    1    3    3  502    0 -0.92782764773E+01 -0.22650117475E+02  0.11385378372E+02  0.27316908256E+02  0.41800000000E+01 0. -1.
         -5    1    3    3    0  502 -0.97635453885E+02 -0.25608801578E+03 -0.29982931405E+03  0.40623742275E+03  0.41800000000E+01 0. -1.
        -11    1    1    2    0    0  0.67057786926E+02  0.74890724155E+02 -0.12373262327E+02  0.10128408055E+03  0.00000000000E+00 0.  1.
         11    1    1    2    0    0  0.39855943436E+02  0.20384740910E+03 -0.10948436206E+02  0.20799550639E+03  0.00000000000E+00 0. -1.
</event>
<event>
 7    1  0.1312490E-005  0.6508789E+02  0.7561462E-02  0.1377641E+00
          1   -1    0    0  501    0  0.00000000000E+00  0.00000000000E+00  0.22505547503E+03  0.22505547503E+03  0.00000000000E+00 0. -1.
         -1   -1    0    0    0  501 -0.00000000000E+00 -0.00000000000E+00 -0.72469486938E+02  0.72469486938E+02  0.00000000000E+00 0.  1.
         23    2    1    2    0    0 -0.10109154241E+02  0.24102046468E+02  0.12479887067E+02  0.12839958356E+03  0.12509037467E+03 0.  0.
          5    1    3    3  502    0  0.11801062381E+02  0.94964717441E+01  0.66407400127E+02  0.68241213651E+02  0.41800000000E+01 0.  1.
         -5    1    3    3    0  502 -0.21910216622E+02  0.14605574724E+02 -0.53927513060E+02  0.60158369911E+02  0.41800000000E+01 0.  1.
        -11    1    1    2    0    0 -0.25027841967E+02  0.19553710124E+02  0.22725363672E+02  0.39053586355E+02  0.00000000000E+00 0.  1.
         11    1    1    2    0    0  0.35136996208E+02 -0.43655756593E+02  0.11738073736E+03  0.13007179206E+03  0.00000000000E+00 0. -1.
</event>
<event>
 7    1  0.1312490E-005  0.1098663E+03  0.7561462E-02  0.1260818E+00
         -1   -1    0    0    0  501 -0.00000000000E+00  0.00000000000E+00  0.37426662357E+03  0.37426662357E+03  0.00000000000E+00 0.  1.
          1   -1    0    0  501    0  0.00000000000E+00 -0.00000000000E+00 -0.60520460981E+02  0.60520460981E+02  0.00000000000E+00 0. -1.
         23    2    1    2    0    0 -0.53487436038E+02 -0.42372233035E+02  0.27234984204E+03  0.30737305443E+03  0.12508975253E+03 0.  0.
          5    1    3    3  502    0 -0.10997760714E+02  0.31682021783E+02  0.16475574638E+02  0.37598114376E+02  0.41800000000E+01 0. -1.
         -5    1    3    3    0  502 -0.42489675324E+02 -0.74054254818E+02  0.25587426740E+03  0.26977494006E+03  0.41800000000E+01 0. -1.
        -11    1    1    2    0    0  0.26283634366E+01 -0.19889462967E+02  0.42516683700E+02  0.47012417767E+02  0.00000000000E+00 0. -1.
         11    1    1    2    0    0  0.50859072601E+02  0.62261696002E+02 -0.11203631490E+01  0.80401612350E+02  0.00000000000E+00 0.  1.
</event>
<event>
 7    1  0.1312490E-005  0.1041849E+03  0.7561462E-02  0.1271734E+00
          1   -1    0    0  501    0  0.00000000000E+00  0.00000000000E+00  0.67860276543E+02  0.67860276543E+02  0.00000000000E+00 0. -1.
         -1   -1    0    0    0  501 -0.00000000000E+00 -0.00000000000E+00 -0.25245327499E+03  0.25245327499E+03  0.00000000000E+00 0.  1.
         23    2    1    2    0    0  0.60267792087E+02  0.29196682961E+02 -0.13903316174E+03  0.19865078538E+03  0.12508901394E+03 0.  0.
          5    1    3    3  502    0 -0.38792614644E+02  0.85726049705E+01 -0.30930235783E+02  0.50522355374E+02  0.41800000000E+01 0. -1.
         -5    1    3    3    0  502  0.99060406731E+02  0.20624077991E+02 -0.10810292596E+03  0.14812843000E+03  0.41800000000E+01 0. -1.
        -11    1    1    2    0    0 -0.12889731202E+02 -0.85640107080E+01 -0.64723624046E+02  0.66547989899E+02  0.00000000000E+00 0.  1.
         11    1    1    2    0    0 -0.47378060884E+02 -0.20632672253E+02  0.19163787335E+02  0.55114776263E+02  0.00000000000E+00 0. -1.
</event>
<event>
 7    1  0.1312490E-005  0.1032617E+03  0.7561462E-02  0.1273583E+00
          1   -1    0    0  501    0  0.00000000000E+00  0.00000000000E+00  0.14639368265E+03  0.14639368265E+03  0.00000000000E+00 0. -1.
         -1   -1    0    0    0  501 -0.00000000000E+00 -0.00000000000E+00 -0.95914683143E+02  0.95914683143E+02  0.00000000000E+00 0.  1.
         23    2    1    2    0    0 -0.49664066085E+02 -0.77165987243E+01  0.14088181782E+02  0.13554342723E+03  0.12508988146E+03 0.  0.
          5    1    3    3  502    0  0.29206356256E+02  0.23265337390E+02  0.31386036706E+02  0.48957561926E+02  0.41800000000E+01 0. -1.
         -5    1    3    3    0  502 -0.78870422340E+02 -0.30981936115E+02 -0.17297854924E+02  0.86585865304E+02  0.41800000000E+01 0. -1.
        -11    1    1    2    0    0 -0.57056086781E+01 -0.20982334586E+02 -0.14613836626E+02  0.26198789208E+02  0.00000000000E+00 0.  1.
         11    1    1    2    0    0  0.55369674763E+02  0.28698933310E+02  0.51004654351E+02  0.80566149355E+02  0.00000000000E+00 0. -1.
</event>
<event>
 7    1  0.1312490E-005  0.6149744E+02  0.7561462E-02  0.1391653E+00
         -2   -1    0    0    0  501 -0.00000000000E+00  0.00000000000E+00  0.67003793466E+02  0.67003793466E+02  0.00000000000E+00 0.  1.
          2   -1    0    0  501    0  0.00000000000E+00 -0.00000000000E+00 -0.19226029072E+03  0.19226029072E+03  0.00000000000E+00 0. -1.
         23    2    1    2    0    0 -0.14602877899E+02  0.47049502119E+01 -0.42491202996E+02  0.13299764411E+03  0.12508992928E+03 0.  0.
          5    1    3    3  502    0  0.30449580741E+02  0.12581969495E+02  0.31589959717E+02  0.45835367115E+02  0.41800000000E+01 0.  1.
         -5    1    3    3    0  502 -0.45052458640E+02 -0.78770192830E+01 -0.74081162713E+02  0.87162276996E+02  0.41800000000E+01 0.  1.
        -11    1    1    2    0    0  0.18976781688E+02  0.14675732049E+02 -0.98212456299E+02  0.10109986116E+03  0.00000000000E+00 0. -1.
         11    1    1    2    0    0 -0.43739037896E+01 -0.19380682261E+02  0.15447162039E+02  0.25166578916E+02  0.00000000000E+00 0.  1.
</event>
<event>
 7    1  0.1312490E-005  0.1210310E+03  0.7561462E-02  0.1241406E+00
         -2   -1    0    0    0  501 -0.00000000000E+00  0.00000000000E+00  0.40360916900E+02  0.40360916900E+02  0.00000000000E+00 0.  1.
          2   -1    0    0  501    0  0.00000000000E+00 -0.00000000000E+00 -0.42462127741E+03  0.42462127741E+03  0.00000000000E+00 0. -1.
         23    2    1    2    0    0  0.59795225873E+02 -0.29242577609E+02 -0.15964746137E+03  0.21346136839E+03  0.12509135258E+03 0.  0.
          5    1    3    3  502    0  0.82315907557E+02 -0.60148496481E+02 -0.12769077966E+03  0.16345078120E+03  0.41800000000E+01 0.  1.
         -5    1    3    3    0  502 -0.22520681684E+02  0.30905918872E+02 -0.31956681706E+02  0.50010587184E+02  0.41800000000E+01 0.  1.
        -11    1    1    2    0    0 -0.61806328937E+02 -0.97005796487E+01 -0.78976549222E+02  0.10075424988E+03  0.00000000000E+00 0.  1.
         11    1    1    2    0    0  0.20111030640E+01  0.38943157258E+02 -0.14563634992E+03  0.15076657604E+03  0.00000000000E+00 0. -1.
</event>
<event>
 6    1  0.1312490E-005  0.3012463E+03  0.7561462E-02  0.1084619E+00
         -2   -1    0    0    0  501 -0.00000000000E+00  0.00000000000E+00  0.59418283940E+03  0.59418283940E+03  0.00000000000E+00 0.  1.
          2   -1    0    0  501    0  0.00000000000E+00 -0.00000000000E+00 -0.27880091449E+03  0.27880091449E+03  0.00000000000E+00 0. -1.
          5    1    1    2  502    0  0.63650456718E+02  0.95363979740E+02  0.45036530747E+02  0.12325352236E+03  0.41800000000E+01 0. -1.
         -5    1    1    2    0  502 -0.26360513260E+03 -0.47809197933E+02  0.40689636828E+03  0.48719145340E+03  0.41800000000E+01 0.  1.
        -11    1    1    2    0    0  0.11797779376E+03 -0.66857647977E+02 -0.58399612895E+02  0.14764558815E+03  0.00000000000E+00 0. -1.
         11    1    1    2    0    0  0.81976882129E+02  0.19302866170E+02 -0.78151361225E+02  0.11489319000E+03  0.00000000000E+00 0.  1.
</event>
<event>
 7    1  0.1312490E-005  0.1258913E+03  0.7561462E-02  0.1233683E+00
         -2   -1    0    0    0  501 -0.00000000000E+00  0.00000000000E+00  0.46980680144E+02  0.46980680144E+02  0.00000000000E+00 0.  1.
          2   -1    0    0  501    0  0.00000000000E+00 -0.00000000000E+00 -0.49597656200E+03  0.49597656200E+03  0.00000000000E+00 0. -1.
         23    2    1    2    0    0  0.94052575453E+02 -0.44345074490E+02 -0.20091572243E+03  0.25851042550E+03  0.12509252572E+03 0.  0.
          5    1    3    3  502    0  0.47267125987E+02  0.76397363576E+01 -0.17863886023E+03  0.18499151753E+03  0.41800000000E+01 0.  1.
         -5    1    3    3    0  502  0.46785449466E+02 -0.51984810848E+02 -0.22276862199E+02  0.73518907977E+02  0.41800000000E+01 0.  1.
        -11    1    1    2    0    0 -0.10734918670E+03  0.25064620726E+02 -0.16740535498E+03  0.20044110351E+03  0.00000000000E+00 0. -1.
         11    1    1    2    0    0  0.13296611250E+02  0.19280453764E+02 -0.80674804445E+02  0.84005713141E+02  0.00000000000E+00 0.  1.
</event>
<event>
 7    1  0.1312490E-005  0.1878597E+03  0.7561462E-02  0.1160406E+00
         -1   -1    0    0    0  501 -0.00000000000E+00  0.00000000000E+00  0.53777325000E+02  0.53777325000E+02  0.00000000000E+00 0.  1.
          1   -1    0    0  501    0  0.00000000000E+00 -0.00000000000E+00 -0.79909695791E+03  0.79909695791E+03  0.00000000000E+00 0. -1.
         23    2    1    2    0    0  0.16288621850E+02 -0.13763632638E+03 -0.29348710928E+03  0.34783784885E+03  0.12508960084E+03 0.  0.
          5    1    3    3  502    0 -0.17191556781E+02 -0.12686160180E+03 -0.13765522355E+03  0.18803150961E+03  0.41800000000E+01 0. -1.
         -5    1    3    3    0  502  0.33480178630E+02 -0.10774724577E+02 -0.15583188573E+03  0.15980633924E+03  0.41800000000E+01 0. -1.
        -11    1    1    2    0    0 -0.70763990895E+02  0.75331728047E+01 -0.78537853087E+02  0.10598342072E+03  0.00000000000E+00 0. -1.
         11    1    1    2    0    0  0.54475369045E+02  0.13010315357E+03 -0.37329467054E+03  0.39905301334E+03  0.00000000000E+00 0.  1.
</event>
<event>
 7    1  0.1312490E-005  0.6109785E+02  0.7561462E-02  0.1393281E+00
         -2   -1    0    0    0  501 -0.00000000000E+00  0.00000000000E+00  0.10422021704E+03  0.10422021704E+03  0.00000000000E+00 0.  1.
          2   -1    0    0  501    0  0.00000000000E+00 -0.00000000000E+00 -0.11024407235E+03  0.11024407235E+03  0.00000000000E+00 0. -1.
         23    2    1    2    0    0  0.12754019934E+02 -0.19359307761E+02  0.14519213959E+01  0.12723230905E+03  0.12509398294E+03 0.  0.
          5    1    3    3  502    0 -0.19512653895E+02 -0.14576614411E+01  0.57002455850E+02  0.60412091603E+02  0.41800000000E+01 0. -1.
         -5    1    3    3    0  502  0.32266673829E+02 -0.17901646320E+02 -0.55550534454E+02  0.66820217443E+02  0.41800000000E+01 0. -1.
        -11    1    1    2    0    0 -0.25196469937E+02 -0.14435478575E+02  0.25317588688E+02  0.38525646470E+02  0.00000000000E+00 0.  1.
         11    1    1    2    0    0  0.12442450003E+02  0.33794786336E+02 -0.32793365391E+02  0.48706333872E+02  0.00000000000E+00 0. -1.
</event>
<event>
 7    1  0.1312490E-005  0.1374192E+03  0.7561462E-02  0.1216844E+00
         -2   -1    0    0    0  501 -0.00000000000E+00  0.00000000000E+00  0.47284590464E+02  0.47284590464E+02  0.00000000000E+00 0.  1.
          2   -1    0    0  501    0  0.00000000000E+00 -0.00000000000E+00 -0.58842399738E+03  0.58842399738E+03  0.00000000000E+00 0. -1.
         23    2    1    2    0    0  0.78111002948E+02  0.82522007204E+02 -0.18294270445E+03  0.24905149428E+03  0.12508958085E+03 0.  0.
          5    1    3    3  502    0  0.14615769579E+02  0.80393873007E+02 -0.36940983491E+02  0.89771399671E+02  0.41800000000E+01 0. -1.
         -5    1    3    3    0  502  0.63495233368E+02  0.21281341970E+01 -0.14600172096E+03  0.15928009461E+03  0.41800000000E+01 0. -1.
        -11    1    1    2    0    0 -0.83667828158E+02 -0.52401965041E+02 -0.17507240057E+03  0.20098909635E+03  0.00000000000E+00 0. -1.
         11    1    1    2    0    0  0.55568252102E+01 -0.30120042164E+02 -0.18312430190E+03  0.18566799722E+03  0.00000000000E+00 0.  1.
</event>
<event>
 7    1  0.1312490E-005  0.1789366E+03  0.7561462E-02  0.1168836E+00
         -2   -1    0    0    0  501 -0.00000000000E+00  0.00000000000E+00  0.37849129462E+03  0.37849129462E+03  0.00000000000E+00 0.  1.
          2   -1    0    0  501    0  0.00000000000E+00 -0.00000000000E+00 -0.12426958007E+03  0.12426958007E+03  0.00000000000E+00 0. -1.
         23    2    1    2    0    0  0.12250740766E+03 -0.97191427722E+02  0.25014497784E+03  0.32042936099E+03  0.12509287308E+03 0.  0.
          5    1    3    3  502    0 -0.13616509994E+02 -0.53532043106E+02  0.51335096555E+02  0.75523860613E+02  0.41800000000E+01 0. -1.
         -5    1    3    3    0  502  0.13612391765E+03 -0.43659384616E+02  0.19880988128E+03  0.24490550038E+03  0.41800000000E+01 0. -1.
        -11    1    1    2    0    0 -0.48637639268E+02  0.19906706648E+02  0.43665937436E+02  0.68327234800E+02  0.00000000000E+00 0.  1.
         11    1    1    2    0    0 -0.73869768389E+02  0.77284721074E+02 -0.39589200715E+02  0.11400427890E+03  0.00000000000E+00 0. -1.
</event>
<event>
 6    1  0.1312490E-005  0.6386594E+02  0.7561462E-02  0.1382289E+00
         -1   -1    0    0    0  501 -0.00000000000E+00  0.00000000000E+00  0.65270113890E+03  0.65270113890E+03  0.00000000000E+00 0.  1.
          1   -1    0    0  501    0  0.00000000000E+00 -0.00000000000E+00 -0.26294423124E+02  0.26294423124E+02  0.00000000000E+00 0. -1.
          5    1    1    2  502    0  0.18751776370E+02 -0.27856528716E+01 -0.32266972959E+01  0.19679251876E+02  0.41800000000E+01 0. -1.
         -5    1    1    2    0  502 -0.25728689341E+02 -0.35092737346E+02  0.46805145583E+03  0.47008839953E+03  0.41800000000E+01 0.  1.
        -11    1    1    2    0    0 -0.34263488287E+01  0.49148075984E+02  0.16608896645E+03  0.17324207922E+03  0.00000000000E+00 0. -1.
         11    1    1    2    0    0  0.10403261799E+02 -0.11269685766E+02 -0.45070092031E+01  0.15985831392E+02  0.00000000000E+00 0.  1.
</event>
<event>
 7    1  0.1312490E-005  0.1171539E+03  0.7561462E-02  0.1247867E+00
         -2   -1    0    0    0  501 -0.00000000000E+00  0.00000000000E+00  0.15446662019E+03  0.15446662019E+03  0.00000000000E+00 0.  1.
          2   -1    0    0  501    0  0.00000000000E+00 -0.00000000000E+00 -0.19080568696E+03  0.19080568696E+03  0.00000000000E+00 0. -1.
         23    2    1    2    0    0 -0.92339218488E+02 -0.53683264383E+02  0.60058601047E+02  0.17511325975E+03  0.12509673870E+03 0.  0.
          5    1    3    3  502    0 -0.94732195384E+02 -0.24554793806E+02  0.90030808845E+02  0.13304189446E+03  0.41800000000E+01 0.  1.
         -5    1    3    3    0  502  0.23929768962E+01 -0.29128470578E+02 -0.29972207798E+02  0.42071365285E+02  0.41800000000E+01 0.  1.
        -11    1    1    2    0    0  0.43714299671E+02  0.24177391472E+02  0.86535846661E+01  0.50698824263E+02  0.00000000000E+00 0.  1.
         11    1    1    2    0    0  0.48624918816E+02  0.29505872912E+02 -0.10505125248E+03  0.11946022314E+03  0.00000000000E+00 0. -1.
</event>
<event>
 7    1  0.1312490E-005  0.1167760E+03  0.7561462E-02  0.1248512E+00
          1   -1    0    0  501    0  0.00000000000E+00  0.00000000000E+00  0.73574809758E+03  0.73574809758E+03  0.00000000000E+00 0. -1.
         -1   -1    0    0    0  501 -0.00000000000E+00 -0.00000000000E+00 -0.20480240814E+02  0.20480240814E+02  0.00000000000E+00 0.  1.
         23    2    1    2    0    0 -0.48607782782E+02  0.29877921369E+02  0.38155533936E+03  0.40556973041E+03  0.12508765928E+03 0.  0.
          5    1    3    3  502    0 -0.90716701082E+02  0.27237262431E+02  0.27527243635E+03  0.29114219023E+03  0.41800000000E+01 0.  1.
         -5    1    3    3    0  502  0.42108918300E+02  0.26406589378E+01  0.10628290300E+03  0.11442754018E+03  0.41800000000E+01 0.  1.
        -11    1    1    2    0    0  0.38717069617E+02 -0.56188410053E+02  0.29517507660E+03  0.30295952659E+03  0.00000000000E+00 0. -1.
         11    1    1    2    0    0  0.98907131647E+01  0.26310488684E+02  0.38537440811E+02  0.47699081395E+02  0.00000000000E+00 0.  1.
</event>
<event>
 6    1  0.1312490E-005  0.1240328E+03  0.7561462E-02  0.1236589E+00
         -2   -1    0    0    0  501 -0.00000000000E+00  0.00000000000E+00  0.13270592054E+04  0.13270592054E+04  0.00000000000E+00 0.  1.
          2   -1    0    0  501    0  0.00000000000E+00 -0.00000000000E+00 -0.17592426383E+02  0.17592426383E+02  0.00000000000E+00 0. -1.
          5    1    1    2  502    0 -0.57924447337E+02 -0.48703896143E+02  0.15528338900E+03  0.17279384942E+03  0.41800000000E+01 0. -1.
         -5    1    1    2    0  502  0.41080453072E+02  0.65360051412E+02  0.84039997250E+03  0.84394853286E+03  0.41800000000E+01 0.  1.
        -11    1    1    2    0    0  0.86782163320E+01 -0.55038617785E+02  0.19560520420E+03  0.20338622568E+03  0.00000000000E+00 0.  1.
         11    1    1    2    0    0  0.81657779338E+01  0.38382462516E+02  0.11817821335E+03  0.12452302385E+03  0.00000000000E+00 0. -1.
</event>
<event>
 7    1  0.1312490E-005  0.2666218E+03  0.7561462E-02  0.1103229E+00
          1   -1    0    0  501    0  0.00000000000E+00  0.00000000000E+00  0.41044346076E+03  0.41044346076E+03  0.00000000000E+00 0. -1.
         -1   -1    0    0    0  501 -0.00000000000E+00 -0.00000000000E+00 -0.18409319543E+03  0.18409319543E+03  0.00000000000E+00 0.  1.
         23    2    1    2    0    0  0.22676142280E+03  0.10980516199E+03  0.10830122742E+03  0.30142110796E+03  0.12509041527E+03 0.  0.
          5    1    3    3  502    0  0.15765078757E+03  0.76920675540E+01  0.58754928678E+02  0.16847122238E+03  0.41800000000E+01 0. -1.
         -5    1    3    3    0  502  0.69110635230E+02  0.10211309444E+03  0.49546298743E+02  0.13294988558E+03  0.41800000000E+01 0. -1.
        -11    1    1    2    0    0 -0.13719973537E+03 -0.68510338634E+02  0.11960363392E+03  0.19447998131E+03  0.00000000000E+00 0. -1.
         11    1    1    2    0    0 -0.89561687431E+02 -0.41294823358E+02 -0.15545960128E+01  0.98635566914E+02  0.00000000000E+00 0.  1.
</event>
<event>
 7    1  0.1312490E-005  0.9136251E+02  0.7561462E-02  0.1299585E+00
          2   -1    0    0  501    0  0.00000000000E+00  0.00000000000E+00  0.89887738220E+02  0.89887738220E+02  0.00000000000E+00 0. -1.
         -2   -1    0    0    0  501 -0.00000000000E+00 -0.00000000000E+00 -0.18733320033E+03  0.18733320033E+03  0.00000000000E+00 0.  1.
         23    2    1    2    0    0 -0.65678003530E+02  0.81580433618E+01 -0.78782410297E+02  0.16197164845E+03  0.12509193784E+03 0.  0.
          5    1    3    3  502    0 -0.58714774687E+02  0.22999345288E+02  0.16405704666E+02  0.65291762082E+02  0.41800000000E+01 0.  1.
         -5    1    3    3    0  502 -0.69632288426E+01 -0.14841301926E+02 -0.95188114963E+02  0.96679886372E+02  0.41800000000E+01 0.  1.
        -11    1    1    2    0    0 -0.16644580390E+02  0.83914447805E+01 -0.24836177620E+02  0.31053085525E+02  0.00000000000E+00 0.  1.
         11    1    1    2    0    0  0.82322583920E+02 -0.16549488142E+02  0.61731258109E+01  0.84196204566E+02  0.00000000000E+00 0. -1.
</event>
<event>
 7    1  0.1312490E-005  0.7840783E+02  0.7561462E-02  0.1333631E+00
          2   -1    0    0  501    0  0.00000000000E+00  0.00000000000E+00  0.53445709082E+03  0.53445709082E+03  0.00000000000E+00 0. -1.
         -2   -1    0    0    0  501 -0.00000000000E+00 -0.00000000000E+00 -0.21181327498E+02  0.21181327498E+02  0.00000000000E+00 0.  1.
         23    2    1    2    0    0 -0.21568047576E+02  0.71424874868E+01  0.34154569109E+03  0.36444200841E+03  0.12509325558E+03 0.  0.
          5    1    3    3  502    0  0.91692635065E+01 -0.38956116500E+02  0.36338269659E+02  0.54218047252E+02  0.41800000000E+01 0. -1.
         -5    1    3    3    0  502 -0.30737311083E+02  0.46098603987E+02  0.30520742143E+03  0.31022396116E+03  0.41800000000E+01 0. -1.
        -11    1    1    2    0    0  0.96062154904E+01  0.24965402192E+02  0.14803484446E+02  0.30572762950E+02  0.00000000000E+00 0.  1.
         11    1    1    2    0    0  0.11961832086E+02 -0.32107889679E+02  0.15692658779E+03  0.16062364696E+03  0.00000000000E+00 0. -1.
</event>
<event>
 7    1  0.1312490E-005  0.1160969E+03  0.7561462E-02  0.1249678E+00
         -1   -1    0    0    0  501 -0.00000000000E+00  0.00000000000E+00  0.27986822214E+02  0.27986822214E+02  0.00000000000E+00 0.  1.
          1   -1    0    0  501    0  0.00000000000E+00 -0.00000000000E+00 -0.56361244854E+03  0.56361244854E+03  0.00000000000E+00 0. -1.
         23    2    1    2    0    0 -0.50181324187E+02  0.13599731589E+02 -0.21345707312E+03  0.25281369157E+03  0.12509085731E+03 0.  0.
          5    1    3    3  502    0  0.10801717003E+02 -0.45619348019E+02 -0.10406480076E+03  0.11421364700E+03  0.41800000000E+01 0. -1.
         -5    1    3    3    0  502 -0.60983041190E+02  0.59219079608E+02 -0.10939227236E+03  0.13860004457E+03  0.41800000000E+01 0. -1.
        -11    1    1    2    0    0 -0.65410139423E+01  0.28589097617E+02 -0.14687772383E+03  0.14977712483E+03  0.00000000000E+00 0. -1.
         11    1    1    2    0    0  0.56722338129E+02 -0.42188829206E+02 -0.17529082938E+03  0.18900845435E+03  0.00000000000E+00 0.  1.
</event>
<event>
 7    1  0.1312490E-005  0.1297313E+03  0.7561462E-02  0.1227855E+00
         -1   -1    0    0    0  501 -0.00000000000E+00  0.00000000000E+00  0.99514775999E+02  0.99514775999E+02  0.00000000000E+00 0.  1.
          1   -1    0    0  501    0  0.00000000000E+00 -0.00000000000E+00 -0.24817128912E+03  0.24817128912E+03  0.00000000000E+00 0. -1.
         23    2    1    2    0    0 -0.54584622997E+02  0.96199307080E+02 -0.75476638792E+02  0.18324842940E+03  0.12509786618E+03 0.  0.
          5    1    3    3  502    0  0.11683422290E+02  0.75203103934E+02 -0.83606762184E+02  0.11313519470E+03  0.41800000000E+01 0. -1.
         -5    1    3    3    0  502 -0.66268045287E+02  0.20996203146E+02  0.81301233923E+01  0.70113234693E+02  0.41800000000E+01 0. -1.
        -11    1    1    2    0    0  0.31369417779E+02 -0.29823212443E+02 -0.82832388520E+02  0.93459450887E+02  0.00000000000E+00 0. -1.
         11    1    1    2    0    0  0.23215205218E+02 -0.66376094637E+02  0.96525141900E+01  0.70978184837E+02  0.00000000000E+00 0.  1.
</event>
<event>
 7    1  0.1312490E-005  0.2028999E+03  0.7561462E-02  0.1147315E+00
          2   -1    0    0  501    0  0.00000000000E+00  0.00000000000E+00  0.80805214304E+02  0.80805214304E+02  0.00000000000E+00 0. -1.
         -2   -1    0    0    0  501 -0.00000000000E+00 -0.00000000000E+00 -0.52730249001E+03  0.52730249001E+03  0.00000000000E+00 0.  1.
         23    2    1    2    0    0  0.15086736411E+03  0.89212805518E+02 -0.24344337984E+03  0.32500983180E+03  0.12508727095E+03 0.  0.
          5    1    3    3  502    0  0.12798342650E+03  0.11657642893E+03 -0.22699635504E+03  0.28550768613E+03  0.41800000000E+01 0. -1.
         -5    1    3    3    0  502  0.22883937619E+02 -0.27363623413E+02 -0.16447024799E+02  0.39502145663E+02  0.41800000000E+01 0. -1.
        -11    1    1    2    0    0 -0.18887287417E+02 -0.58135263428E+02 -0.73082103618E+02  0.95275560083E+02  0.00000000000E+00 0.  1.
         11    1    1    2    0    0 -0.13198007670E+03 -0.31077542091E+02 -0.12997179225E+03  0.18782231243E+03  0.00000000000E+00 0. -1.
</event>
<event>
 7    1  0.1312490E-005  0.8975838E+02  0.7561462E-02  0.1303438E+00
         -1   -1    0    0    0  501 -0.00000000000E+00  0.00000000000E+00  0.13062524294E+03  0.13062524294E+03  0.00000000000E+00 0.  1.
          1   -1    0    0  501    0  0.00000000000E+00 -0.00000000000E+00 -0.14084894839E+03  0.14084894839E+03  0.00000000000E+00 0. -1.
         23    2    1    2    0    0  0.32412987486E+02  0.51128789119E+02  0.33722459827E+02  0.14300225505E+03  0.12509071036E+03 0.  0.
          5    1    3    3  502    0  0.65985666894E+01  0.26744598723E+02  0.79889377041E+02  0.84608507889E+02  0.41800000000E+01 0. -1.
         -5    1    3    3    0  502  0.25814420796E+02  0.24384190396E+02 -0.46166917214E+02  0.58393747160E+02  0.41800000000E+01 0. -1.
        -11    1    1    2    0    0 -0.53047938652E+02 -0.70072461240E+02 -0.16828309513E+02  0.89484219953E+02  0.00000000000E+00 0.  1.
         11    1    1    2    0    0  0.20634951166E+02  0.18943672121E+02 -0.27117855767E+02  0.38987716328E+02  0.00000000000E+00 0. -1.
</event>
<event>
 7    1  0.1312490E-005  0.1666107E+03  0.7561462E-02  0.1181429E+00
          2   -1    0    0  501    0  0.00000000000E+00  0.00000000000E+00  0.54331853881E+03  0.54331853881E+03  0.00000000000E+00 0. -1.
         -2   -1    0    0    0  501 -0.00000000000E+00 -0.00000000000E+00 -0.63294785155E+02  0.63294785155E+02  0.00000000000E+00 0.  1.
         23    2    1    2    0    0  0.14375173987E+03  0.23500703030E+02  0.19362640224E+03  0.27268227422E+03  0.12509034045E+03 0.  0.
          5    1    3    3  502    0  0.57159182344E+02  0.47905849375E+02  0.15994422010E+03  0.17652696246E+03  0.41800000000E+01 0.  1.
         -5    1    3    3    0  502  0.86592557528E+02 -0.24405146345E+02  0.33682182136E+02  0.96155311766E+02  0.41800000000E+01 0.  1.
        -11    1    1    2    0    0 -0.12927121077E+03  0.12288438876E+02  0.19044088251E+03  0.23049898350E+03  0.00000000000E+00 0. -1.
         11    1    1    2    0    0 -0.14480529103E+02 -0.35789141906E+02  0.95956468908E+02  0.10343206624E+03  0.00000000000E+00 0.  1.
</event>
<event>
 7    1  0.1312490E-005  0.9480522E+02  0.7561462E-02  0.1291615E+00
          1   -1    0    0  501    0  0.00000000000E+00  0.00000000000E+00  0.24338994145E+03  0.24338994145E+03  0.00000000000E+00 0. -1.
         -1   -1    0    0    0  501 -0.00000000000E+00 -0.00000000000E+00 -0.60627989647E+02  0.60627989647E+02  0.00000000000E+00 0.  1.
         23    2    1    2    0    0 -0.78513677924E+01  0.53969953416E+02  0.95310057767E+02  0.16646083679E+03  0.12510317032E+03 0.  0.
          5    1    3    3  502    0 -0.36435052517E+02  0.26842163247E+02  0.11394158818E+03  0.12267099370E+03  0.41800000000E+01 0. -1.
         -5    1    3    3    0  502  0.28583684725E+02  0.27127790169E+02 -0.18631530410E+02  0.43789843084E+02  0.41800000000E+01 0. -1.
        -11    1    1    2    0    0 -0.16381120008E+01 -0.78352830373E+02  0.54389125291E+02  0.95394058454E+02  0.00000000000E+00 0.  1.
         11    1    1    2    0    0  0.94894797932E+01  0.24382876957E+02  0.33062768741E+02  0.42163035852E+02  0.00000000000E+00 0. -1.
</event>
<event>
 7    1  0.1312490E-005  0.1287194E+03  0.7561462E-02  0.1229368E+00
          1   -1    0    0  501    0  0.00000000000E+00  0.00000000000E+00  0.11279838467E+04  0.11279838467E+04  0.00000000000E+00 0. -1.
         -1   -1    0    0    0  501 -0.00000000000E+00 -0.00000000000E+00 -0.19765716392E+02  0.19765716392E+02  0.00000000000E+00 0.  1.
         23    2    1    2    0    0  0.91840230919E+02  0.38178166196E+02  0.68094180475E+03  0.69944364264E+03  0.12508983722E+03 0.  0.
          5    1    3    3  502    0  0.58386091108E+02  0.72479824863E+02  0.58224420037E+03  0.58965077962E+03  0.41800000000E+01 0. -1.
         -5    1    3    3    0  502  0.33454139811E+02 -0.34301658667E+02  0.98697604388E+02  0.10979286302E+03  0.41800000000E+01 0. -1.
        -11    1    1    2    0    0 -0.62152673953E+02  0.65463580743E+01  0.34109686585E+03  0.34677497253E+03  0.00000000000E+00 0. -1.
         11    1    1    2    0    0 -0.29687556965E+02 -0.44724524270E+02  0.86179459686E+02  0.10153094790E+03  0.00000000000E+00 0.  1.
</event>
<event>
 7    1  0.1312490E-005  0.1146335E+03  0.7561462E-02  0.1252222E+00
         -1   -1    0    0    0  501 -0.00000000000E+00  0.00000000000E+00  0.74810295338E+02  0.74810295338E+02  0.00000000000E+00 0.  1.
          1   -1    0    0  501    0  0.00000000000E+00 -0.00000000000E+00 -0.24176722355E+03  0.24176722355E+03  0.00000000000E+00 0. -1.
         23    2    1    2    0    0 -0.22150226412E+02 -0.27559654611E+02 -0.10369240913E+02  0.13034280755E+03  0.12502623417E+03 0.  0.
          5    1    3    3  502    0 -0.48057165672E+02  0.36623491772E+02 -0.36091688303E+01  0.60673468845E+02  0.41800000000E+01 0. -1.
         -5    1    3    3    0  502  0.25906939261E+02 -0.64183146382E+02 -0.67600720829E+01  0.69669338708E+02  0.41800000000E+01 0. -1.
        -11    1    1    2    0    0  0.49302328758E+01  0.61290420180E+02 -0.11169202026E+03  0.12749874584E+03  0.00000000000E+00 0. -1.
         11    1    1    2    0    0  0.17219993536E+02 -0.33730765569E+02 -0.44895667039E+02  0.58735965491E+02  0.00000000000E+00 0.  1.
</event>
<event>
 7    1  0.1312490E-005  0.1287664E+03  0.7561462E-02  0.1229298E+00
          2   -1    0    0  501    0  0.00000000000E+00  0.00000000000E+00  0.42151933454E+03  0.42151933454E+03  0.00000000000E+00 0. -1.
         -2   -1    0    0    0  501 -0.00000000000E+00 -0.00000000000E+00 -0.48485898566E+02  0.48485898566E+02  0.00000000000E+00 0.  1.
         23    2    1    2    0    0  0.26678003565E+02  0.88664228615E+02  0.19362617344E+03  0.24841695157E+03  0.12508727144E+03 0.  0.
          5    1    3    3  502    0 -0.18144795094E+02  0.83614182678E+02  0.18274898258E+03  0.20182970090E+03  0.41800000000E+01 0.  1.
         -5    1    3    3    0  502  0.44822798659E+02  0.50500459375E+01  0.10877190866E+02  0.46587250667E+02  0.41800000000E+01 0.  1.
        -11    1    1    2    0    0 -0.47155949075E+02 -0.14060391935E+02  0.95674809221E+02  0.10758739366E+03  0.00000000000E+00 0.  1.
         11    1    1    2    0    0  0.20477945510E+02 -0.74603836680E+02  0.83732453309E+02  0.11400088788E+03  0.00000000000E+00 0. -1.
</event>
<event>
 7    1  0.1312490E-005  0.8824171E+02  0.7561462E-02  0.1307166E+00
         -2   -1    0    0    0  501 -0.00000000000E+00  0.00000000000E+00  0.43046860444E+02  0.43046860444E+02  0.00000000000E+00 0.  1.
          2   -1    0    0  501    0  0.00000000000E+00 -0.00000000000E+00 -0.42296205104E+03  0.42296205104E+03  0.00000000000E+00 0. -1.
         23    2    1    2    0    0 -0.34593649399E+02  0.55236242729E+02 -0.13538976671E+03  0.19551615601E+03  0.12509362591E+03 0.  0.
          5    1    3    3  502    0 -0.97025998366E+01  0.17934876430E+02  0.22898410943E+02  0.30945272012E+02  0.41800000000E+01 0.  1.
         -5    1    3    3    0  502 -0.24891049562E+02  0.37301366299E+02 -0.15828817765E+03  0.16457088400E+03  0.41800000000E+01 0.  1.
        -11    1    1    2    0    0  0.39128480038E+02 -0.78082623149E+02 -0.15423736267E+03  0.17724868979E+03  0.00000000000E+00 0.  1.
         11    1    1    2    0    0 -0.45348306389E+01  0.22846380420E+02 -0.90288061216E+02  0.93244065684E+02  0.00000000000E+00 0. -1.
</event>
<event>
 7    1  0.1312490E-005  0.1297563E+03  0.7561462E-02  0.1227818E+00
          1   -1    0    0  501    0  0.00000000000E+00  0.00000000000E+00  0.17351191023E+03  0.17351191023E+03  0.00000000000E+00 0. -1.
         -1   -1    0    0    0  501 -0.00000000000E+00 -0.00000000000E+00 -0.14067357274E+03  0.14067357274E+03  0.00000000000E+00 0.  1.
         23    2    1    2    0    0 -0.81378903100E+02 -0.16911992613E+02 -0.67619872701E+02  0.15547961760E+03  0.11266287295E+03 0.  0.
          5    1    3    3  502    0 -0.13907231107E+02 -0.57932480361E+02 -0.19088947250E+02  0.62701225386E+02  0.41800000000E+01 0. -1.
         -5    1    3    3    0  502 -0.67471671993E+02  0.41020487748E+02 -0.48530925450E+02  0.92778392213E+02  0.41800000000E+01 0.  1.
        -11    1    1    2    0    0  0.56772371236E+01  0.40908456711E+02  0.20869092725E+02  0.46273662953E+02  0.00000000000E+00 0.  1.
         11    1    1    2    0    0  0.75701665976E+02 -0.23996464098E+02  0.79589117469E+02  0.11243220242E+03  0.00000000000E+00 0. -1.
</event>
<event>
 6    1  0.1312490E-005  0.2046173E+03  0.7561462E-02  0.1145901E+00
         -2   -1    0    0    0  501 -0.00000000000E+00  0.00000000000E+00  0.69549167601E+03  0.69549167601E+03  0.00000000000E+00 0.  1.
          2   -1    0    0  501    0  0.00000000000E+00 -0.00000000000E+00 -0.13741570355E+03  0.13741570355E+03  0.00000000000E+00 0. -1.
          5    1    1    2  502    0  0.41821010618E+02  0.18038524780E+03  0.72689869058E+02  0.19897015860E+03  0.41800000000E+01 0. -1.
         -5    1    1    2    0  502 -0.69988528060E+02 -0.58171952029E+02  0.46817997436E+03  0.47696156119E+03  0.41800000000E+01 0.  1.
        -11    1    1    2    0    0 -0.67842823080E+00 -0.88673308554E+02 -0.28717925558E+02  0.93210166630E+02  0.00000000000E+00 0. -1.
         11    1    1    2    0    0  0.28845945673E+02 -0.33539987214E+02  0.45924054601E+02  0.63765493137E+02  0.00000000000E+00 0.  1.
</event>
<event>
 6    1  0.1312490E-005  0.1243145E+03  0.7561462E-02  0.1236145E+00
         -1   -1    0    0    0  501 -0.00000000000E+00  0.00000000000E+00  0.61632789655E+03  0.61632789655E+03  0.00000000000E+00 0.  1.
          1   -1    0    0  501    0  0.00000000000E+00 -0.00000000000E+00 -0.10944800967E+03  0.10944800967E+03  0.00000000000E+00 0. -1.
          5    1    1    2  502    0 -0.48509227957E+02  0.57593558386E+02  0.53629531034E+02  0.92540597380E+02  0.41800000000E+01 0. -1.
         -5    1    1    2    0  502  0.58682209335E+02 -0.76624250878E+02  0.51247730771E+03  0.52150296339E+03  0.41800000000E+01 0.  1.
        -11    1    1    2    0    0  0.12367121528E+02 -0.24580796067E+02  0.78458700420E+01  0.28613264527E+02  0.00000000000E+00 0.  1.
         11    1    1    2    0    0 -0.22540102907E+02  0.43611488559E+02 -0.67072821912E+02  0.83119080917E+02  0.00000000000E+00 0. -1.
</event>
<event>
 7    1  0.1312490E-005  0.1066145E+03  0.7561462E-02  0.1266971E+00
         -1   -1    0    0    0  501 -0.00000000000E+00  0.00000000000E+00  0.31732481913E+02  0.31732481913E+02  0.00000000000E+00 0.  1.
          1   -1    0    0  501    0  0.00000000000E+00 -0.00000000000E+00 -0.37985568846E+03  0.37985568846E+03  0.00000000000E+00 0. -1.
         23    2    1    2    0    0 -0.16429164873E+02 -0.13151956324E+02 -0.17658894288E+03  0.21740914600E+03  0.12506074765E+03 0.  0.
          5    1    3    3  502    0  0.16444239944E+02  0.49655962331E+02 -0.10020897824E+03  0.11311692774E+03  0.41800000000E+01 0.  1.
         -5    1    3    3    0  502 -0.32873404817E+02 -0.62807918655E+02 -0.76379964635E+02  0.10429221825E+03  0.41800000000E+01 0.  1.
        -11    1    1    2    0    0 -0.28295609312E+02 -0.19500610661E+02 -0.50559601763E+02  0.61132549864E+02  0.00000000000E+00 0.  1.
         11    1    1    2    0    0  0.44724774185E+02  0.32652566984E+02 -0.12097466191E+03  0.13304647451E+03  0.00000000000E+00 0. -1.
</event>
<event>
 7    1  0.1312490E-005  0.1352625E+03  0.7561462E-02  0.1219850E+00
          1   -1    0    0  501    0  0.00000000000E+00  0.00000000000E+00  0.10919821138E+03  0.10919821138E+03  0.00000000000E+00 0. -1.
         -1   -1    0    0    0  501 -0.00000000000E+00 -0.00000000000E+00 -0.19734449569E+03  0.19734449569E+03  0.00000000000E+00 0.  1.
         23    2    1    2    0    0 -0.16145158512E+02 -0.89465520352E+02 -0.88185373602E+02  0.17804496584E+03  0.12513434488E+03 0.  0.
          5    1    3    3  502    0 -0.69218476040E+02 -0.65244025614E+02 -0.44824518908E+02  0.10523635398E+03  0.41800000000E+01 0.  1.
         -5    1    3    3    0  502  0.53073317529E+02 -0.24221494738E+02 -0.43360854694E+02  0.72808611857E+02  0.41800000000E+01 0.  1.
        -11    1    1    2    0    0 -0.25722075417E+02  0.60984874835E+02  0.26582854839E+02  0.71326210426E+02  0.00000000000E+00 0. -1.
         11    1    1    2    0    0  0.41867233929E+02  0.28480645517E+02 -0.26543765542E+02  0.57171530809E+02  0.00000000000E+00 0.  1.
</event>
<event>
 7    1  0.1312490E-005  0.4310772E+03  0.7561462E-02  0.1033520E+00
         -3   -1    0    0    0  501 -0.00000000000E+00  0.00000000000E+00  0.68910562948E+03  0.68910562948E+03  0.00000000000E+00 0.  1.
          3   -1    0    0  501    0  0.00000000000E+00 -0.00000000000E+00 -0.36059871601E+03  0.36059871601E+03  0.00000000000E+00 0. -1.
         23    2    1    2    0    0  0.18673474252E+03 -0.38513495213E+03  0.40838923094E+03  0.60467016098E+03  0.12508175011E+03 0.  0.
          5    1    3    3  502    0  0.11874465617E+03 -0.18159728366E+03  0.28112410794E+03  0.35514237042E+03  0.41800000000E+01 0.  1.
         -5    1    3    3    0  502  0.67990086356E+02 -0.20353766847E+03  0.12726512299E+03  0.24952779056E+03  0.41800000000E+01 0.  1.
        -11    1    1    2    0    0 -0.16348360029E+03  0.29342579897E+03 -0.27820831780E+02  0.33704537639E+03  0.00000000000E+00 0.  1.
         11    1    1    2    0    0 -0.23251142231E+02  0.91709153162E+02 -0.52061485691E+02  0.10798880813E+03  0.00000000000E+00 0. -1.
</event>
<event>
 7    1  0.2201862E-005  0.2725234E+03  0.7561462E-02  0.1099844E+00
         -2   -1    0    0    0  501 -0.00000000000E+00  0.00000000000E+00  0.53283321123E+02  0.53283321123E+02  0.00000000000E+00 0.  1.
          2   -1    0    0  501    0  0.00000000000E+00 -0.00000000000E+00 -0.18402575558E+04  0.18402575558E+04  0.00000000000E+00 0. -1.
         23    2    1    2    0    0  0.22042361687E+03  0.15696677058E+03 -0.56766933477E+03  0.64118764786E+03  0.12509191894E+03 0.  0.
          5    1    3    3  502    0  0.12776359963E+03  0.10697790643E+03 -0.20883241171E+03  0.26720078300E+03  0.41800000000E+01 0. -1.
         -5    1    3    3    0  502  0.92660017244E+02  0.49988864145E+02 -0.35883692306E+03  0.37398686485E+03  0.41800000000E+01 0. -1.
        -11    1    1    2    0    0 -0.17552586519E+03 -0.10591965493E+03 -0.10515354094E+04  0.10713332907E+04  0.00000000000E+00 0. -1.
         11    1    1    2    0    0 -0.44897751687E+02 -0.51047115647E+02 -0.16776949048E+03  0.18101993829E+03  0.00000000000E+00 0.  1.
</event>
<event>
 7    1  0.1312490E-005  0.1494506E+03  0.7561462E-02  0.1201150E+00
          4   -1    0    0  501    0  0.00000000000E+00  0.00000000000E+00  0.60553493115E+02  0.60553493115E+02  0.00000000000E+00 0. -1.
         -4   -1    0    0    0  501 -0.00000000000E+00 -0.00000000000E+00 -0.41759508593E+03  0.41759508593E+03  0.00000000000E+00 0.  1.
         23    2    1    2    0    0  0.91122771793E+02 -0.50204477898E+02 -0.26886886628E+03  0.31426447659E+03  0.12509134603E+03 0.  0.
          5    1    3    3  502    0  0.33233958657E+02 -0.86235091892E+02 -0.13067366255E+03  0.16010641950E+03  0.41800000000E+01 0.  1.
         -5    1    3    3    0  502  0.57888813136E+02  0.36030613994E+02 -0.13819520374E+03  0.15415805709E+03  0.41800000000E+01 0.  1.
        -11    1    1    2    0    0 -0.97476058395E+02  0.10698179263E+02 -0.60269058164E+02  0.11510166103E+03  0.00000000000E+00 0. -1.
         11    1    1    2    0    0  0.63532866019E+01  0.39506298636E+02 -0.27903668363E+02  0.48782441417E+02  0.00000000000E+00 0.  1.
</event>
<event>
 7    1  0.1312490E-005  0.1712503E+03  0.7561462E-02  0.1176550E+00
          2   -1    0    0  501    0  0.00000000000E+00  0.00000000000E+00  0.43109062659E+03  0.43109062659E+03  0.00000000000E+00 0. -1.
         -2   -1    0    0    0  501 -0.00000000000E+00 -0.00000000000E+00 -0.12485587422E+03  0.12485587422E+03  0.00000000000E+00 0.  1.
         23    2    1    2    0    0  0.16630334111E+03  0.88253090249E+01  0.16963654357E+02  0.20897376391E+03  0.12509029175E+03 0.  0.
          5    1    3    3  502    0  0.11979534110E+03 -0.64503403784E+01 -0.46484262738E+02  0.12872757949E+03  0.41800000000E+01 0.  1.
         -5    1    3    3    0  502  0.46508000014E+02  0.15275649403E+02  0.63447917095E+02  0.80246184419E+02  0.41800000000E+01 0.  1.
        -11    1    1    2    0    0 -0.21605069193E+02  0.15512871238E+02  0.12020656509E+03  0.12311395729E+03  0.00000000000E+00 0. -1.
         11    1    1    2    0    0 -0.14469827192E+03 -0.24338180263E+02  0.16906453292E+03  0.22385877961E+03  0.00000000000E+00 0.  1.
</event>
<event>
 7    1  0.1312490E-005  0.1011772E+03  0.7561462E-02  0.1277840E+00
          1   -1    0    0  501    0  0.00000000000E+00  0.00000000000E+00  0.43385078577E+03  0.43385078577E+03  0.00000000000E+00 0. -1.
         -1   -1    0    0    0  501 -0.00000000000E+00 -0.00000000000E+00 -0.31345111398E+02  0.31345111398E+02  0.00000000000E+00 0.  1.
         23    2    1    2    0    0 -0.24823875840E+02  0.34315823013E+02  0.19649763085E+03  0.23675439813E+03  0.12509006989E+03 0.  0.
          5    1    3    3  502    0 -0.73740501257E+02  0.17729389121E+02  0.86206866687E+02  0.11489599222E+03  0.41800000000E+01 0.  1.
         -5    1    3    3    0  502  0.48916625417E+02  0.16586433892E+02  0.11029076416E+03  0.12185840591E+03  0.41800000000E+01 0.  1.
        -11    1    1    2    0    0  0.39945426121E+02 -0.33132818032E+01  0.18213223192E+03  0.18649065609E+03  0.00000000000E+00 0. -1.
         11    1    1    2    0    0 -0.15121550281E+02 -0.31002541210E+02  0.23875811602E+02  0.41950842948E+02  0.00000000000E+00 0.  1.
</event>
<event>
 7    1  0.1312490E-005  0.1002257E+03  0.7561462E-02  0.1279822E+00
          1   -1    0    0  501    0  0.00000000000E+00  0.00000000000E+00  0.21857295496E+03  0.21857295496E+03  0.00000000000E+00 0. -1.
         -1   -1    0    0    0  501 -0.00000000000E+00 -0.00000000000E+00 -0.57412907590E+02  0.57412907590E+02  0.00000000000E+00 0.  1.
         23    2    1    2    0    0  0.11922876264E+02  0.24522210689E+01  0.50083152704E+02  0.13529783806E+03  0.12509602085E+03 0.  0.
          5    1    3    3  502    0  0.50373509062E+02 -0.34320032429E+02 -0.14447731928E+01  0.61113949395E+02  0.41800000000E+01 0.  1.
         -5    1    3    3    0  502 -0.38450632798E+02  0.36772253498E+02  0.51527925897E+02  0.74183888663E+02  0.41800000000E+01 0.  1.
        -11    1    1    2    0    0 -0.45982290646E+02 -0.16900044813E+02  0.56902079141E+02  0.75085479144E+02  0.00000000000E+00 0. -1.
         11    1    1    2    0    0  0.34059414382E+02  0.14447823745E+02  0.54174815526E+02  0.65602545349E+02  0.00000000000E+00 0.  1.
</event>
<event>
 7    1  0.1312490E-005  0.1080542E+03  0.7561462E-02  0.1264216E+00
         -2   -1    0    0    0  501 -0.00000000000E+00  0.00000000000E+00  0.10590853139E+02  0.10590853139E+02  0.00000000000E+00 0.  1.
          2   -1    0    0  501    0  0.00000000000E+00 -0.00000000000E+00 -0.14596744163E+04  0.14596744163E+04  0.00000000000E+00 0. -1.
         23    2    1    2    0    0  0.48490367853E+02  0.32170663406E+02 -0.92292645399E+03  0.93318158585E+03  0.12509342641E+03 0.  0.
          5    1    3    3  502    0  0.50418733833E+02  0.60956888292E+02 -0.86208176091E+03  0.86571370894E+03  0.41800000000E+01 0. -1.
         -5    1    3    3    0  502 -0.19283659797E+01 -0.28786224886E+02 -0.60844693084E+02  0.67467876912E+02  0.41800000000E+01 0. -1.
        -11    1    1    2    0    0 -0.49304155060E+02 -0.61261511071E+02 -0.37703798895E+03  0.38515129177E+03  0.00000000000E+00 0.  1.
         11    1    1    2    0    0  0.81378720677E+00  0.29090847664E+02 -0.14911912025E+03  0.15193239185E+03  0.00000000000E+00 0. -1.
</event>
<event>
 7    1  0.1312490E-005  0.1042387E+03  0.7561462E-02  0.1271627E+00
          1   -1    0    0  501    0  0.00000000000E+00  0.00000000000E+00  0.61659888994E+02  0.61659888994E+02  0.00000000000E+00 0. -1.
         -1   -1    0    0    0  501 -0.00000000000E+00 -0.00000000000E+00 -0.32365320935E+03  0.32365320935E+03  0.00000000000E+00 0.  1.
         23    2    1    2    0    0 -0.69263159035E+02 -0.55251956424E+02 -0.12086750464E+03  0.19520946166E+03  0.12509043271E+03 0.  0.
          5    1    3    3  502    0 -0.70040250915E+02 -0.62070678490E+02 -0.14339966381E+03  0.17128730793E+03  0.41800000000E+01 0.  1.
         -5    1    3    3    0  502  0.77709187983E+00  0.68187220669E+01  0.22532159169E+02  0.23922153733E+02  0.41800000000E+01 0.  1.
        -11    1    1    2    0    0  0.87688386604E+01  0.44455402299E+02 -0.11448716036E+03  0.12312792215E+03  0.00000000000E+00 0.  1.
         11    1    1    2    0    0  0.60494320375E+02  0.10796554125E+02 -0.26638655358E+02  0.66975714538E+02  0.00000000000E+00 0. -1.
</event>
<event>
 7    1  0.1312490E-005  0.1103339E+03  0.7561462E-02  0.1259953E+00
          2   -1    0    0  501    0  0.00000000000E+00  0.00000000000E+00  0.50592641965E+03  0.50592641965E+03  0.00000000000E+00 0. -1.
         -2   -1    0    0    0  501 -0.00000000000E+00 -0.00000000000E+00 -0.32968604502E+02  0.32968604502E+02  0.00000000000E+00 0.  1.
         23    2    1    2    0    0 -0.52426060265E+02  0.18347978529E+02  0.17502104656E+03  0.22218207682E+03  0.12508944164E+03 0.  0.
          5    1    3    3  502    0 -0.82922713359E+02 -0.12674577857E+01  0.62618376407E+02  0.10400152068E+03  0.41800000000E+01 0.  1.
         -5    1    3    3    0  502  0.30496653094E+02  0.19615436315E+02  0.11240267016E+03  0.11818055614E+03  0.41800000000E+01 0.  1.
        -11    1    1    2    0    0  0.35686860310E+02  0.32086037318E+02  0.19561057372E+03  0.20141142555E+03  0.00000000000E+00 0. -1.
         11    1    1    2    0    0  0.16739199955E+02 -0.50434015848E+02  0.10232619487E+03  0.11530152178E+03  0.00000000000E+00 0.  1.
</event>
<event>
 7    1  0.1312490E-005  0.2638854E+03  0.7561462E-02  0.1104831E+00
          1   -1    0    0  501    0  0.00000000000E+00  0.00000000000E+00  0.45224368996E+03  0.45224368996E+03  0.00000000000E+00 0. -1.
         -1   -1    0    0    0  501 -0.00000000000E+00 -0.00000000000E+00 -0.16896557273E+03  0.16896557273E+03  0.00000000000E+00 0.  1.
         23    2    1    2    0    0  0.18829170022E+03  0.16380159775E+03  0.17633411519E+03  0.33019081962E+03  0.12509008509E+03 0.  0.
          5    1    3    3  502    0  0.10025345617E+03  0.45475251834E+02  0.14016785264E+03  0.17827858345E+03  0.41800000000E+01 0.  1.
         -5    1    3    3    0  502  0.88038244056E+02  0.11832634591E+03  0.36166262547E+02  0.15191223618E+03  0.41800000000E+01 0.  1.
        -11    1    1    2    0    0  0.62078146208E+01 -0.37820377952E+02  0.86042673033E+01  0.39280419634E+02  0.00000000000E+00 0. -1.
         11    1    1    2    0    0 -0.19449951484E+03 -0.12598121979E+03  0.98339734741E+02  0.25173802344E+03  0.00000000000E+00 0.  1.
</event>
<event>
 7    1  0.1312490E-005  0.1060707E+03  0.7561462E-02  0.1268024E+00
         -1   -1    0    0    0  501 -0.00000000000E+00  0.00000000000E+00  0.23528049319E+02  0.23528049319E+02  0.00000000000E+00 0.  1.
          1   -1    0    0  501    0  0.00000000000E+00 -0.00000000000E+00 -0.52720768673E+03  0.52720768673E+03  0.00000000000E+00 0. -1.
         23    2    1    2    0    0  0.18483789302E+02  0.16878369642E+02 -0.26052140447E+03  0.29007635071E+03  0.12508539973E+03 0.  0.
          5    1    3    3  502    0  0.69171561454E+02  0.13491023622E+02 -0.19277337212E+03  0.20529432050E+03  0.41800000000E+01 0. -1.
         -5    1    3    3    0  502 -0.50687772152E+02  0.33873460195E+01 -0.67748032353E+02  0.84782030209E+02  0.41800000000E+01 0. -1.
        -11    1    1    2    0    0 -0.18554264607E+02 -0.52122266334E+02 -0.11305049009E+03  0.12586264216E+03  0.00000000000E+00 0. -1.
         11    1    1    2    0    0  0.70475304513E-01  0.35243896692E+02 -0.13010774285E+03  0.13479674317E+03  0.00000000000E+00 0.  1.
</event>
<event>
 6    1  0.1312490E-005  0.1679463E+03  0.7561462E-02  0.1180007E+00
          1   -1    0    0  501    0  0.00000000000E+00  0.00000000000E+00  0.19823160396E+03  0.19823160396E+03  0.00000000000E+00 0. -1.
         -1   -1    0    0    0  501 -0.00000000000E+00 -0.00000000000E+00 -0.17267496111E+03  0.17267496111E+03  0.00000000000E+00 0.  1.
          5    1    1    2  502    0 -0.79245078060E+02  0.11496030553E+03 -0.13616388594E+02  0.14035146128E+03  0.41800000000E+01 0. -1.
         -5    1    1    2    0  502  0.64100839099E+02 -0.20623091819E+02 -0.37688849047E+02  0.77279694823E+02  0.41800000000E+01 0.  1.
        -11    1    1    2    0    0 -0.12382109505E+02  0.12984210973E+02 -0.82040501314E+00  0.17960496507E+02  0.00000000000E+00 0.  1.
         11    1    1    2    0    0  0.27526348466E+02 -0.10732142468E+03  0.77682285499E+02  0.13531491247E+03  0.00000000000E+00 0. -1.
</event>
<event>
 7    1  0.1312490E-005  0.1644228E+03  0.7561462E-02  0.1183792E+00
          2   -1    0    0  501    0  0.00000000000E+00  0.00000000000E+00  0.49801623983E+03  0.49801623983E+03  0.00000000000E+00 0.  1.
         -2   -1    0    0    0  501 -0.00000000000E+00 -0.00000000000E+00 -0.86335209392E+02  0.86335209392E+02  0.00000000000E+00 0. -1.
         23    2    1    2    0    0  0.10024624256E+03 -0.10097631777E+03  0.67846356309E+02  0.20123218048E+03  0.12508291849E+03 0.  0.
          5    1    3    3  502    0  0.55760670373E+02  0.17253179454E+02  0.16179387084E+01  0.58540709659E+02  0.41800000000E+01 0.  1.
         -5    1    3    3    0  502  0.44485572191E+02 -0.11822949723E+03  0.66228417601E+02  0.14269147082E+03  0.41800000000E+01 0.  1.
        -11    1    1    2    0    0 -0.58724760168E+02  0.73793465341E+02  0.30743153158E+03  0.32157148443E+03  0.00000000000E+00 0.  1.
         11    1    1    2    0    0 -0.41521482397E+02  0.27182852432E+02  0.36403142545E+02  0.61547784314E+02  0.00000000000E+00 0. -1.
</event>
<event>
 7    1  0.1312490E-005  0.1332975E+03  0.7561462E-02  0.1222643E+00
          1   -1    0    0  501    0  0.00000000000E+00  0.00000000000E+00  0.11213097853E+03  0.11213097853E+03  0.00000000000E+00 0. -1.
         -1   -1    0    0    0  501 -0.00000000000E+00 -0.00000000000E+00 -0.24738454514E+03  0.24738454514E+03  0.00000000000E+00 0.  1.
         23    2    1    2    0    0 -0.53820588667E+02 -0.62728926712E+02 -0.17288771149E+03  0.22884375331E+03  0.12509088149E+03 0.  0.
          5    1    3    3  502    0  0.33925746951E+02  0.94360260116E+01 -0.31611698041E+02  0.47505439121E+02  0.41800000000E+01 0. -1.
         -5    1    3    3    0  502 -0.87746335618E+02 -0.72164952724E+02 -0.14127601345E+03  0.18133831419E+03  0.41800000000E+01 0. -1.
        -11    1    1    2    0    0  0.47975180755E+02  0.83264109619E+02  0.47449578229E+02  0.10717272224E+03  0.00000000000E+00 0. -1.
         11    1    1    2    0    0  0.58454079125E+01 -0.20535182907E+02 -0.98154333466E+01  0.23499048118E+02  0.00000000000E+00 0.  1.
</event>
<event>
 7    1  0.1312490E-005  0.1417907E+03  0.7561462E-02  0.1210940E+00
         -2   -1    0    0    0  501 -0.00000000000E+00  0.00000000000E+00  0.19884988859E+03  0.19884988859E+03  0.00000000000E+00 0.  1.
          2   -1    0    0  501    0  0.00000000000E+00 -0.00000000000E+00 -0.11549310140E+03  0.11549310140E+03  0.00000000000E+00 0. -1.
         23    2    1    2    0    0 -0.82669609535E+02  0.66186887598E+02  0.41315192887E+02  0.16902503259E+03  0.12509015968E+03 0.  0.
          5    1    3    3  502    0  0.27214760496E+02  0.33805227521E+02 -0.78386423787E+01  0.44298457207E+02  0.41800000000E+01 0.  1.
         -5    1    3    3    0  502 -0.10988437003E+03  0.32381660077E+02  0.49153835265E+02  0.12472657539E+03  0.41800000000E+01 0.  1.
        -11    1    1    2    0    0  0.17805374362E+02 -0.57149102798E+02 -0.11222642885E+02  0.60901551869E+02  0.00000000000E+00 0. -1.
         11    1    1    2    0    0  0.64864235173E+02 -0.90377848001E+01  0.53264237187E+02  0.84416405525E+02  0.00000000000E+00 0.  1.
</event>
<event>
 7    1  0.1312490E-005  0.1447797E+03  0.7561462E-02  0.1207038E+00
         -2   -1    0    0    0  501 -0.00000000000E+00  0.00000000000E+00  0.26594235490E+03  0.26594235490E+03  0.00000000000E+00 0. -1.
          2   -1    0    0  501    0  0.00000000000E+00 -0.00000000000E+00 -0.10199811457E+03  0.10199811457E+03  0.00000000000E+00 0.  1.
         23    2    1    2    0    0  0.62600374717E+02 -0.10323582969E+03  0.59588637518E+02  0.18377444584E+03  0.12508316344E+03 0.  0.
          5    1    3    3  502    0  0.38483568815E+02 -0.12255382599E+03  0.75197441394E+02  0.14890450942E+03  0.41800000000E+01 0. -1.
         -5    1    3    3    0  502  0.24116805902E+02  0.19317996294E+02 -0.15608803876E+02  0.34869936424E+02  0.41800000000E+01 0. -1.
        -11    1    1    2    0    0 -0.44108136498E+01  0.52408649517E+02  0.91929522005E+02  0.10591108930E+03  0.00000000000E+00 0. -1.
         11    1    1    2    0    0 -0.58189561067E+02  0.50827180174E+02  0.12426080807E+02  0.78254934323E+02  0.00000000000E+00 0.  1.
</event>
<event>
 7    1  0.1312490E-005  0.9775646E+02  0.7561462E-02  0.1285086E+00
          2   -1    0    0  501    0  0.00000000000E+00  0.00000000000E+00  0.15338430872E+03  0.15338430872E+03  0.00000000000E+00 0. -1.
         -2   -1    0    0    0  501 -0.00000000000E+00 -0.00000000000E+00 -0.11342046765E+03  0.11342046765E+03  0.00000000000E+00 0.  1.
         23    2    1    2    0    0 -0.62808834901E+02 -0.39470872091E+02  0.14013520114E+02  0.14610961269E+03  0.12509492671E+03 0.  0.
          5    1    3    3  502    0 -0.21022148430E+02 -0.25728586560E+02  0.68327461847E+02  0.76092084565E+02  0.41800000000E+01 0. -1.
         -5    1    3    3    0  502 -0.41786686471E+02 -0.13742285531E+02 -0.54313941733E+02  0.70017528123E+02  0.41800000000E+01 0. -1.
        -11    1    1    2    0    0 -0.13470650031E+02  0.39316329024E+02  0.10514320541E+02  0.42869372245E+02  0.00000000000E+00 0. -1.
         11    1    1    2    0    0  0.76279484931E+02  0.15454306672E+00  0.15436000413E+02  0.77825791443E+02  0.00000000000E+00 0.  1.
</event>
<event>
 7    1  0.1312490E-005  0.7338472E+02  0.7561462E-02  0.1348947E+00
          3   -1    0    0  501    0  0.00000000000E+00  0.00000000000E+00  0.96122931977E+02  0.96122931977E+02  0.00000000000E+00 0.  1.
         -3   -1    0    0    0  501 -0.00000000000E+00 -0.00000000000E+00 -0.16355204141E+03  0.16355204141E+03  0.00000000000E+00 0. -1.
         23    2    1    2    0    0 -0.36940133405E+02  0.26468437568E+02 -0.82853676905E+02  0.15677191794E+03  0.12509017082E+03 0.  0.
          5    1    3    3  502    0  0.73390891788E+01  0.10459472263E+02 -0.10408756600E+03  0.10495216332E+03  0.41800000000E+01 0. -1.
         -5    1    3    3    0  502 -0.44279222584E+02  0.16008965305E+02  0.21233889095E+02  0.51819754620E+02  0.41800000000E+01 0. -1.
        -11    1    1    2    0    0  0.42261026102E+02 -0.47955716310E+02 -0.14633408475E+02  0.65573483190E+02  0.00000000000E+00 0. -1.
         11    1    1    2    0    0 -0.53208926972E+01  0.21487278742E+02  0.30057975947E+02  0.37329572257E+02  0.00000000000E+00 0.  1.
</event>
<event>
 7    1  0.1312490E-005  0.1310668E+03  0.7561462E-02  0.1225881E+00
         -2   -1    0    0    0  501 -0.00000000000E+00  0.00000000000E+00  0.24056016796E+03  0.24056016796E+03  0.00000000000E+00 0.  1.
          2   -1    0    0  501    0  0.00000000000E+00 -0.00000000000E+00 -0.10179602182E+03  0.10179602182E+03  0.00000000000E+00 0. -1.
         23    2    1    2    0    0 -0.86306908787E+02  0.25737060187E+02  0.14822009800E+03  0.21384141750E+03  0.12509066958E+03 0.  0.
          5    1    3    3  502    0  0.19679234154E+02  0.29199367099E+02  0.53377710084E+01  0.35858604200E+02  0.41800000000E+01 0. -1.
         -5    1    3    3    0  502 -0.10598614294E+03 -0.34623069119E+01  0.14288232699E+03  0.17798281330E+03  0.41800000000E+01 0. -1.
        -11    1    1    2    0    0  0.33873701630E+02  0.29115993383E+02  0.17519856827E+02  0.47980351354E+02  0.00000000000E+00 0.  1.
         11    1    1    2    0    0  0.52433207157E+02 -0.54853053570E+02 -0.26975808688E+02  0.80534420921E+02  0.00000000000E+00 0. -1.
</event>
<event>
 7    1  0.1312490E-005  0.8976096E+02  0.7561462E-02  0.1303432E+00
         -1   -1    0    0    0  501 -0.00000000000E+00  0.00000000000E+00  0.10847301048E+03  0.10847301048E+03  0.00000000000E+00 0.  1.
          1   -1    0    0  501    0  0.00000000000E+00 -0.00000000000E+00 -0.98203207700E+02  0.98203207700E+02  0.00000000000E+00 0. -1.
         23    2    1    2    0    0  0.52328590843E+01  0.97388057449E+00  0.40446000174E+02  0.13155390746E+03  0.12506886256E+03 0.  0.
          5    1    3    3  502    0  0.56860039898E+02 -0.12626331974E+02  0.50337452642E+02  0.77096173282E+02  0.41800000000E+01 0.  1.
         -5    1    3    3    0  502 -0.51627180813E+02  0.13600212549E+02 -0.98914524680E+01  0.54457734180E+02  0.41800000000E+01 0.  1.
        -11    1    1    2    0    0 -0.18627588178E+02  0.29157976604E+02 -0.22478337526E+02  0.41260759796E+02  0.00000000000E+00 0.  1.
         11    1    1    2    0    0  0.13394729093E+02 -0.30131857179E+02 -0.76978598641E+01  0.33861550925E+02  0.00000000000E+00 0. -1.
</event>
<event>
 7    1  0.1312490E-005  0.1513418E+03  0.7561462E-02  0.1198834E+00
          4   -1    0    0  501    0  0.00000000000E+00  0.00000000000E+00  0.15545985056E+03  0.15545985056E+03  0.00000000000E+00 0.  1.
         -4   -1    0    0    0  501 -0.00000000000E+00 -0.00000000000E+00 -0.17002810645E+03  0.17002810645E+03  0.00000000000E+00 0. -1.
         23    2    1    2    0    0 -0.11797252634E+03  0.17381667635E+02 -0.27457484454E+02  0.17498985221E+03  0.12509154880E+03 0.  0.
          5    1    3    3  502    0  0.18919926163E+02  0.40742648890E+01 -0.31640526320E+02  0.37325039132E+02  0.41800000000E+01 0. -1.
         -5    1    3    3    0  502 -0.13689245250E+03  0.13307402746E+02  0.41830418658E+01  0.13766481307E+03  0.41800000000E+01 0. -1.
        -11    1    1    2    0    0  0.11657600540E+03 -0.39525747200E+02 -0.31256213330E+01  0.12313415137E+03  0.00000000000E+00 0.  1.
         11    1    1    2    0    0  0.13965209408E+01  0.22144079564E+02  0.16014849892E+02  0.27363953434E+02  0.00000000000E+00 0. -1.
</event>
<event>
 7    1  0.1312490E-005  0.1476089E+03  0.7561462E-02  0.1203442E+00
          1   -1    0    0  501    0  0.00000000000E+00  0.00000000000E+00  0.19277248186E+03  0.19277248186E+03  0.00000000000E+00 0. -1.
         -1   -1    0    0    0  501 -0.00000000000E+00 -0.00000000000E+00 -0.14206527007E+03  0.14206527007E+03  0.00000000000E+00 0.  1.
         23    2    1    2    0    0  0.37835634930E+02  0.11800490659E+03  0.12314128741E+02  0.17650996484E+03  0.12508971448E+03 0.  0.
          5    1    3    3  502    0  0.48096912605E+02  0.12093137781E+03  0.48193775948E+02  0.13884460227E+03  0.41800000000E+01 0.  1.
         -5    1    3    3    0  502 -0.10261277675E+02 -0.29264712140E+01 -0.35879647207E+02  0.37665362563E+02  0.41800000000E+01 0.  1.
        -11    1    1    2    0    0  0.28358056730E+02 -0.56363492069E+02  0.13665226940E+02  0.64558198914E+02  0.00000000000E+00 0.  1.
         11    1    1    2    0    0 -0.66193691659E+02 -0.61641414525E+02  0.24727856103E+02  0.93769588181E+02  0.00000000000E+00 0. -1.
</event>
<event>
 6    1  0.1312490E-005  0.2294444E+03  0.7561462E-02  0.1127031E+00
         -2   -1    0    0    0  501 -0.00000000000E+00  0.00000000000E+00  0.38304330723E+02  0.38304330723E+02  0.00000000000E+00 0.  1.
          2   -1    0    0  501    0  0.00000000000E+00 -0.00000000000E+00 -0.13923424519E+04  0.13923424519E+04  0.00000000000E+00 0. -1.
          5    1    1    2  502    0  0.11018583072E+03  0.98338425419E+02 -0.42656117532E+03  0.45142360582E+03  0.41800000000E+01 0. -1.
         -5    1    1    2    0  502 -0.18093842664E+03 -0.62691138587E+02 -0.63175280391E+03  0.66014996080E+03  0.41800000000E+01 0.  1.
        -11    1    1    2    0    0 -0.20625450211E+02  0.21131607687E+01 -0.44504781370E+02  0.49097354406E+02  0.00000000000E+00 0. -1.
         11    1    1    2    0    0  0.91378046125E+02 -0.37760447600E+02 -0.25121936059E+03  0.26997586161E+03  0.00000000000E+00 0.  1.
</event>
<event>
 7    1  0.1312490E-005  0.1271274E+03  0.7561462E-02  0.1231781E+00
          1   -1    0    0  501    0  0.00000000000E+00  0.00000000000E+00  0.97239067131E+03  0.97239067131E+03  0.00000000000E+00 0. -1.
         -1   -1    0    0    0  501 -0.00000000000E+00 -0.00000000000E+00 -0.24420202341E+02  0.24420202341E+02  0.00000000000E+00 0.  1.
         23    2    1    2    0    0 -0.10221431269E+00 -0.10376883765E+03  0.41157218653E+03  0.44250140778E+03  0.12509136280E+03 0.  0.
          5    1    3    3  502    0 -0.21168101824E+02 -0.87868871170E+02  0.40499940310E+03  0.41498315143E+03  0.41800000000E+01 0. -1.
         -5    1    3    3    0  502  0.21065887511E+02 -0.15899966479E+02  0.65727834291E+01  0.27518256352E+02  0.41800000000E+01 0. -1.
        -11    1    1    2    0    0 -0.44708962646E+02  0.50762022725E+02  0.21049900938E+03  0.22110067219E+03  0.00000000000E+00 0.  1.
         11    1    1    2    0    0  0.44811176959E+02  0.53006814924E+02  0.32589927306E+03  0.33320879368E+03  0.00000000000E+00 0. -1.
</event>
<event>
 7    1  0.1312490E-005  0.8486325E+02  0.7561462E-02  0.1315791E+00
         -1   -1    0    0    0  501 -0.00000000000E+00  0.00000000000E+00  0.48095146101E+02  0.48095146101E+02  0.00000000000E+00 0.  1.
          1   -1    0    0  501    0  0.00000000000E+00 -0.00000000000E+00 -0.31073426091E+03  0.31073426091E+03  0.00000000000E+00 0. -1.
         23    2    1    2    0    0 -0.36350158994E+02  0.38071037378E+02 -0.12642188244E+03  0.18547254311E+03  0.12508730528E+03 0.  0.
          5    1    3    3  502    0 -0.76769217586E+01 -0.22114320954E+02 -0.11533547907E+03  0.11776129862E+03  0.41800000000E+01 0. -1.
         -5    1    3    3    0  502 -0.28673237236E+02  0.60185358332E+02 -0.11086403370E+02  0.67711244493E+02  0.41800000000E+01 0. -1.
        -11    1    1    2    0    0  0.24366596543E+02 -0.53984506025E+02 -0.32133923197E+02  0.67384322641E+02  0.00000000000E+00 0.  1.
         11    1    1    2    0    0  0.11983562451E+02  0.15913468647E+02 -0.10408330917E+03  0.10597254126E+03  0.00000000000E+00 0. -1.
</event>
<event>
 7    1  0.1312490E-005  0.9273588E+02  0.7561462E-02  0.1296358E+00
         -3   -1    0    0    0  501 -0.00000000000E+00  0.00000000000E+00  0.36228353093E+03  0.36228353093E+03  0.00000000000E+00 0.  1.
          3   -1    0    0  501    0  0.00000000000E+00 -0.00000000000E+00 -0.34900274595E+02  0.34900274595E+02  0.00000000000E+00 0. -1.
         23    2    1    2    0    0  0.25454910913E+02 -0.13274030814E+01  0.16458531108E+03  0.20829268442E+03  0.12509117983E+03 0.  0.
          5    1    3    3  502    0  0.64204073471E+02 -0.15735367681E+02  0.15047907914E+03  0.16441164954E+03  0.41800000000E+01 0. -1.
         -5    1    3    3    0  502 -0.38749162557E+02  0.14407964599E+02  0.14106231942E+02  0.43881034883E+02  0.41800000000E+01 0. -1.
        -11    1    1    2    0    0  0.16814135888E+02  0.24319431369E+02  0.14398484413E+02  0.32885654337E+02  0.00000000000E+00 0. -1.
         11    1    1    2    0    0 -0.42269046801E+02 -0.22992028288E+02  0.14839946084E+03  0.15600546676E+03  0.00000000000E+00 0.  1.
</event>
<event>
 7    1  0.1312490E-005  0.1472230E+03  0.7561462E-02  0.1203927E+00
          4   -1    0    0  501    0  0.00000000000E+00  0.00000000000E+00  0.26692443424E+02  0.26692443424E+02  0.00000000000E+00 0. -1.
         -4   -1    0    0    0  501 -0.00000000000E+00 -0.00000000000E+00 -0.87630915205E+03  0.87630915205E+03  0.00000000000E+00 0.  1.
         23    2    1    2    0    0 -0.92972041391E+02  0.50035599999E+02 -0.53853899574E+03  0.56286707111E+03  0.12509087920E+03 0.  0.
          5    1    3    3  502    0 -0.85968470577E+02  0.88052315773E+02 -0.44090942853E+03  0.45777984317E+03  0.41800000000E+01 0.  1.
         -5    1    3    3    0  502 -0.70035708140E+01 -0.38016715775E+02 -0.97629567211E+02  0.10508722794E+03  0.41800000000E+01 0.  1.
        -11    1    1    2    0    0  0.34267881819E+02 -0.63543856300E+02 -0.21436818099E+03  0.22619864372E+03  0.00000000000E+00 0.  1.
         11    1    1    2    0    0  0.58704159572E+02  0.13508256302E+02 -0.96709531890E+02  0.11393588064E+03  0.00000000000E+00 0. -1.
</event>
<event>
 7    1  0.1312490E-005  0.1190150E+03  0.7561462E-02  0.1244731E+00
         -2   -1    0    0    0  501 -0.00000000000E+00  0.00000000000E+00  0.11251411087E+03  0.11251411087E+03  0.00000000000E+00 0. -1.
          2   -1    0    0  501    0  0.00000000000E+00 -0.00000000000E+00 -0.14540475055E+03  0.14540475055E+03  0.00000000000E+00 0.  1.
         23    2    1    2    0    0  0.52739542086E+01  0.58463874479E+02  0.15536211687E+02  0.13905498277E+03  0.12509626353E+03 0.  0.
          5    1    3    3  502    0 -0.54738741119E+02  0.51036322918E+02 -0.48246234475E+01  0.75111819494E+02  0.41800000000E+01 0.  1.
         -5    1    3    3    0  502  0.60012695328E+02  0.74275515608E+01  0.20360835134E+02  0.63943163278E+02  0.41800000000E+01 0.  1.
        -11    1    1    2    0    0 -0.16746207141E+02  0.18321028073E+02 -0.30244907232E+02  0.39126077451E+02  0.00000000000E+00 0.  1.
         11    1    1    2    0    0  0.11472252933E+02 -0.76784902552E+02 -0.18181944134E+02  0.79737801197E+02  0.00000000000E+00 0. -1.
</event>
<event>
 7    1  0.1312490E-005  0.1228475E+03  0.7561462E-02  0.1238472E+00
         -4   -1    0    0    0  501 -0.00000000000E+00  0.00000000000E+00  0.32001526861E+03  0.32001526861E+03  0.00000000000E+00 0.  1.
          4   -1    0    0  501    0  0.00000000000E+00 -0.00000000000E+00 -0.68565976797E+02  0.68565976797E+02  0.00000000000E+00 0. -1.
         23    2    1    2    0    0  0.43193442981E+02 -0.90857970215E+02  0.14641450161E+03  0.21727143455E+03  0.12509526658E+03 0.  0.
          5    1    3    3  502    0  0.33129515283E+02 -0.19939268943E+02  0.13992265354E+03  0.14522727225E+03  0.41800000000E+01 0. -1.
         -5    1    3    3    0  502  0.10063927699E+02 -0.70918701271E+02  0.64918480680E+01  0.72044162304E+02  0.41800000000E+01 0. -1.
        -11    1    1    2    0    0  0.27404210563E+02  0.14297764781E+02  0.28792591176E+02  0.42242515798E+02  0.00000000000E+00 0.  1.
         11    1    1    2    0    0 -0.70597653545E+02  0.76560205434E+02  0.76242199026E+02  0.12906729506E+03  0.00000000000E+00 0. -1.
</event>
<event>
 6    1  0.1312490E-005  0.1813728E+03  0.7561462E-02  0.1166481E+00
          2   -1    0    0  501    0  0.00000000000E+00  0.00000000000E+00  0.18192989854E+03  0.18192989854E+03  0.00000000000E+00 0. -1.
         -2   -1    0    0    0  501 -0.00000000000E+00 -0.00000000000E+00 -0.23883021539E+03  0.23883021539E+03  0.00000000000E+00 0.  1.
          5    1    1    2  502    0 -0.32324725388E+02  0.17209739891E+03 -0.65508751943E+02  0.18700607361E+03  0.41800000000E+01 0. -1.
         -5    1    1    2    0  502 -0.55198456041E+01 -0.24291625732E+02 -0.43965609911E+02  0.50705019781E+02  0.41800000000E+01 0.  1.
        -11    1    1    2    0    0  0.52147397099E+02 -0.10575294077E+03  0.50798802410E+01  0.11802050961E+03  0.00000000000E+00 0. -1.
         11    1    1    2    0    0 -0.14302826107E+02 -0.42052832414E+02  0.47494164763E+02  0.65028510941E+02  0.00000000000E+00 0.  1.
</event>
<event>
 7    1  0.1312490E-005  0.1295762E+03  0.7561462E-02  0.1228086E+00
          2   -1    0    0  501    0  0.00000000000E+00  0.00000000000E+00  0.18423628829E+03  0.18423628829E+03  0.00000000000E+00 0. -1.
         -2   -1    0    0    0  501 -0.00000000000E+00 -0.00000000000E+00 -0.13571640933E+03  0.13571640933E+03  0.00000000000E+00 0.  1.
         23    2    1    2    0    0  0.36283571553E+02  0.89776043196E+02 -0.34953640666E+02  0.16200391618E+03  0.12508907372E+03 0.  0.
          5    1    3    3  502    0 -0.13470076556E+01  0.89332058871E+02  0.23392257708E+02  0.92448370956E+02  0.41800000000E+01 0. -1.
         -5    1    3    3    0  502  0.37630579208E+02  0.44398432519E+00 -0.58345898375E+02  0.69555545220E+02  0.41800000000E+01 0. -1.
        -11    1    1    2    0    0 -0.60549113267E+02 -0.30499600934E+02  0.57258045911E+02  0.88740659204E+02  0.00000000000E+00 0. -1.
         11    1    1    2    0    0  0.24265541714E+02 -0.59276442262E+02  0.26215473713E+02  0.69208122240E+02  0.00000000000E+00 0.  1.
</event>
<event>
 6    1  0.1312490E-005  0.1182002E+03  0.7561462E-02  0.1246096E+00
         -2   -1    0    0    0  501 -0.00000000000E+00  0.00000000000E+00  0.18575668511E+02  0.18575668511E+02  0.00000000000E+00 0.  1.
          2   -1    0    0  501    0  0.00000000000E+00 -0.00000000000E+00 -0.79912077490E+03  0.79912077490E+03  0.00000000000E+00 0. -1.
          5    1    1    2  502    0  0.98114392029E+01 -0.48636318767E+02 -0.19676688192E+03  0.20296904706E+03  0.41800000000E+01 0. -1.
         -5    1    1    2    0  502 -0.92224152248E+01  0.92736960564E+02 -0.27047584304E+03  0.28611160561E+03  0.41800000000E+01 0.  1.
        -11    1    1    2    0    0 -0.39496666899E+02 -0.36288442019E+02 -0.23234072109E+03  0.23845135436E+03  0.00000000000E+00 0. -1.
         11    1    1    2    0    0  0.38907642921E+02 -0.78121997794E+01 -0.80961660334E+02  0.90164436376E+02  0.00000000000E+00 0.  1.
</event>
<event>
 7    1  0.1312490E-005  0.8337243E+02  0.7561462E-02  0.1319745E+00
         -1   -1    0    0    0  501 -0.00000000000E+00  0.00000000000E+00  0.22695881867E+02  0.22695881867E+02  0.00000000000E+00 0.  1.
          1   -1    0    0  501    0  0.00000000000E+00 -0.00000000000E+00 -0.59881328986E+03  0.59881328986E+03  0.00000000000E+00 0. -1.
         23    2    1    2    0    0  0.45627263901E+02 -0.15523228723E+02 -0.34081037841E+03  0.36622627337E+03  0.12508857435E+03 0.  0.
          5    1    3    3  502    0 -0.89619098421E+01  0.15506174837E+02 -0.27335846890E+03  0.27397642637E+03  0.41800000000E+01 0.  1.
         -5    1    3    3    0  502  0.54589173744E+02 -0.31029403560E+02 -0.67451909511E+02  0.92249847002E+02  0.41800000000E+01 0.  1.
        -11    1    1    2    0    0  0.12933110036E+02  0.23000544011E+02 -0.23274420669E+02  0.35185068105E+02  0.00000000000E+00 0.  1.
         11    1    1    2    0    0 -0.58560373937E+02 -0.74773152886E+01 -0.21203260891E+03  0.22009783025E+03  0.00000000000E+00 0. -1.
</event>
<event>
 7    1  0.1312490E-005  0.1163934E+03  0.7561462E-02  0.1249168E+00
         -2   -1    0    0    0  501 -0.00000000000E+00  0.00000000000E+00  0.88475321860E+02  0.88475321860E+02  0.00000000000E+00 0.  1.
          2   -1    0    0  501    0  0.00000000000E+00 -0.00000000000E+00 -0.19836345023E+03  0.19836345023E+03  0.00000000000E+00 0. -1.
         23    2    1    2    0    0 -0.28262469361E+02 -0.69905329038E+02 -0.33557844726E+02  0.14986459328E+03  0.12509094761E+03 0.  0.
          5    1    3    3  502    0 -0.39696721672E+02 -0.99273807550E+02 -0.45000767776E+02  0.11607609606E+03  0.41800000000E+01 0.  1.
         -5    1    3    3    0  502  0.11434252311E+02  0.29368478512E+02  0.11442923050E+02  0.33788497213E+02  0.41800000000E+01 0.  1.
        -11    1    1    2    0    0  0.57008434998E+01  0.71171827373E+02 -0.86527635175E+02  0.11218270935E+03  0.00000000000E+00 0. -1.
         11    1    1    2    0    0  0.22561625862E+02 -0.12664983351E+01  0.10197351535E+02  0.24791469458E+02  0.00000000000E+00 0.  1.
</event>
<event>
 7    1  0.1312490E-005  0.1587327E+03  0.7561462E-02  0.1190135E+00
          1   -1    0    0  501    0  0.00000000000E+00  0.00000000000E+00  0.73922160524E+03  0.73922160524E+03  0.00000000000E+00 0. -1.
         -1   -1    0    0    0  501 -0.00000000000E+00 -0.00000000000E+00 -0.40248927620E+02  0.40248927620E+02  0.00000000000E+00 0.  1.
         23    2    1    2    0    0  0.12467829202E+03  0.23106965305E+02  0.26934913311E+03  0.32296548269E+03  0.12521636935E+03 0.  0.
          5    1    3    3  502    0 -0.20167629543E+02  0.10892369576E+02  0.85160784882E+02  0.88290478978E+02  0.41800000000E+01 0.  1.
         -5    1    3    3    0  502  0.14484592156E+03  0.12214595729E+02  0.18418834823E+03  0.23467500371E+03  0.41800000000E+01 0.  1.
        -11    1    1    2    0    0 -0.85955679704E+02  0.22564932654E+02  0.31350349989E+03  0.32585579556E+03  0.00000000000E+00 0. -1.
         11    1    1    2    0    0 -0.38722612318E+02 -0.45671897959E+02  0.11612004462E+03  0.13064925461E+03  0.00000000000E+00 0.  1.
</event>
<event>
 7    1  0.1312490E-005  0.9818605E+02  0.7561462E-02  0.1284157E+00
          2   -1    0    0  501    0  0.00000000000E+00  0.00000000000E+00  0.52447720187E+03  0.52447720187E+03  0.00000000000E+00 0. -1.
         -2   -1    0    0    0  501 -0.00000000000E+00 -0.00000000000E+00 -0.21250985387E+02  0.21250985387E+02  0.00000000000E+00 0.  1.
         23    2    1    2    0    0 -0.16128581626E+02  0.23113155016E+02  0.27732107451E+03  0.30026466084E+03  0.11161334644E+03 0.  0.
          5    1    3    3  502    0 -0.55317661943E+02  0.30562324104E+02  0.22831523194E+03  0.23693758020E+03  0.41800000000E+01 0.  1.
         -5    1    3    3    0  502  0.39189080317E+02 -0.74491690880E+01  0.49005842573E+02  0.63327080641E+02  0.41800000000E+01 0.  1.
        -11    1    1    2    0    0 -0.23931615114E+02  0.22060436186E+02  0.11083155742E+03  0.11551198711E+03  0.00000000000E+00 0.  1.
         11    1    1    2    0    0  0.40060196740E+02 -0.45173591201E+02  0.11507358455E+03  0.12995153930E+03  0.00000000000E+00 0. -1.
</event>
<event>
 7    1  0.1312490E-005  0.8610671E+02  0.7561462E-02  0.1312563E+00
         -1   -1    0    0    0  501 -0.00000000000E+00  0.00000000000E+00  0.41107294722E+03  0.41107294722E+03  0.00000000000E+00 0.  1.
          1   -1    0    0  501    0  0.00000000000E+00 -0.00000000000E+00 -0.36069159800E+02  0.36069159800E+02  0.00000000000E+00 0. -1.
         23    2    1    2    0    0 -0.75801417253E+01 -0.19190287545E+02  0.29707502888E+03  0.32299732965E+03  0.12509187219E+03 0.  0.
          5    1    3    3  502    0 -0.12696607721E+02  0.48177043109E+02  0.69818743966E+02  0.85874098186E+02  0.41800000000E+01 0. -1.
         -5    1    3    3    0  502  0.51164659961E+01 -0.67367330655E+02  0.22725628492E+03  0.23712323146E+03  0.41800000000E+01 0. -1.
        -11    1    1    2    0    0 -0.82494985587E+01  0.32694134522E+02 -0.88870952593E+01  0.34870347299E+02  0.00000000000E+00 0. -1.
         11    1    1    2    0    0  0.15829640284E+02 -0.13503846976E+02  0.86815853795E+02  0.89274430073E+02  0.00000000000E+00 0.  1.
</event>
<event>
 7    1  0.1312490E-005  0.2295365E+03  0.7561462E-02  0.1126966E+00
         -1   -1    0    0    0  501 -0.00000000000E+00  0.00000000000E+00  0.10688491112E+03  0.10688491112E+03  0.00000000000E+00 0.  1.
          1   -1    0    0  501    0  0.00000000000E+00 -0.00000000000E+00 -0.60742278934E+03  0.60742278934E+03  0.00000000000E+00 0. -1.
         23    2    1    2    0    0 -0.19491303998E+03 -0.66481807108E+02 -0.10945629135E+03  0.26464428920E+03  0.12507995947E+03 0.  0.
          5    1    3    3  502    0 -0.19913753739E+03 -0.29971876946E+02 -0.10567371091E+03  0.22746093683E+03  0.41800000000E+01 0. -1.
         -5    1    3    3    0  502  0.42244974154E+01 -0.36509930162E+02 -0.37825804411E+01  0.37183352372E+02  0.41800000000E+01 0. -1.
        -11    1    1    2    0    0  0.77449731064E+02 -0.13408761154E+02 -0.11693425123E+03  0.14089668139E+03  0.00000000000E+00 0.  1.
         11    1    1    2    0    0  0.11746330891E+03  0.79890568262E+02 -0.27414733564E+03  0.30876672987E+03  0.00000000000E+00 0. -1.
</event>
<event>
 6    1  0.1312490E-005  0.8223076E+02  0.7561462E-02  0.1322837E+00
          2   -1    0    0  501    0  0.00000000000E+00  0.00000000000E+00  0.51828501823E+03  0.51828501823E+03  0.00000000000E+00 0. -1.
         -2   -1    0    0    0  501 -0.00000000000E+00 -0.00000000000E+00 -0.29090707450E+02  0.29090707450E+02  0.00000000000E+00 0.  1.
          5    1    1    2  502    0  0.36844570991E+02  0.19329607554E+02  0.28431542175E+03  0.28737412477E+03  0.41800000000E+01 0. -1.
         -5    1    1    2    0  502 -0.30900160597E+02 -0.52582913547E+00 -0.44927021026E+01  0.31507986184E+02  0.41800000000E+01 0.  1.
        -11    1    1    2    0    0  0.49800451099E+01  0.35611401399E+02  0.85818602173E+02  0.93047327946E+02  0.00000000000E+00 0.  1.
         11    1    1    2    0    0 -0.10924455504E+02 -0.54415179818E+02  0.12355298896E+03  0.13544628678E+03  0.00000000000E+00 0. -1.
</event>
<event>
 7    1  0.1312490E-005  0.9271125E+02  0.7561462E-02  0.1296416E+00
         -3   -1    0    0    0  501 -0.00000000000E+00  0.00000000000E+00  0.54417964107E+03  0.54417964107E+03  0.00000000000E+00 0.  1.
          3   -1    0    0  501    0  0.00000000000E+00 -0.00000000000E+00 -0.36550061445E+02  0.36550061445E+02  0.00000000000E+00 0. -1.
         23    2    1    2    0    0  0.70815694848E+02  0.33770663521E+02  0.35251293619E+03  0.38217590938E+03  0.12505093036E+03 0.  0.
          5    1    3    3  502    0  0.60669526210E+02  0.49081343125E+02  0.35470487285E+03  0.36321176864E+03  0.41800000000E+01 0. -1.
         -5    1    3    3    0  502  0.10146168637E+02 -0.15310679604E+02 -0.21919366624E+01  0.18964140747E+02  0.41800000000E+01 0. -1.
        -11    1    1    2    0    0 -0.89744332191E+01 -0.24261992964E+02 -0.52656657800E+01  0.26399090710E+02  0.00000000000E+00 0. -1.
         11    1    1    2    0    0 -0.61841261629E+02 -0.95086705569E+01  0.16038230922E+03  0.17215470242E+03  0.00000000000E+00 0.  1.
</event>
<event>
 7    1  0.1312490E-005  0.1053832E+03  0.7561462E-02  0.1269366E+00
         -1   -1    0    0    0  501 -0.00000000000E+00  0.00000000000E+00  0.17534020121E+03  0.17534020121E+03  0.00000000000E+00 0.  1.
          1   -1    0    0  501    0  0.00000000000E+00 -0.00000000000E+00 -0.14402998765E+03  0.14402998765E+03  0.00000000000E+00 0. -1.
         23    2    1    2    0    0  0.44300328608E+02  0.13211582528E+02  0.12311476903E+03  0.18150169974E+03  0.12509418703E+03 0.  0.
          5    1    3    3  502    0  0.43001391534E+01  0.57701136817E+02  0.18455610366E+02  0.60876878540E+02  0.41800000000E+01 0.  1.
         -5    1    3    3    0  502  0.40000189454E+02 -0.44489554290E+02  0.10465915867E+03  0.12062482120E+03  0.41800000000E+01 0.  1.
        -11    1    1    2    0    0 -0.37197932418E+02 -0.46042255517E+02 -0.27388291272E+02  0.65220349340E+02  0.00000000000E+00 0.  1.
         11    1    1    2    0    0 -0.71023961901E+01  0.32830672989E+02 -0.64416264195E+02  0.72648139779E+02  0.00000000000E+00 0. -1.
</event>
<event>
 7    1  0.1312490E-005  0.1207800E+03  0.7561462E-02  0.1241816E+00
          1   -1    0    0  501    0  0.00000000000E+00  0.00000000000E+00  0.75785350641E+02  0.75785350641E+02  0.00000000000E+00 0. -1.
         -1   -1    0    0    0  501 -0.00000000000E+00 -0.00000000000E+00 -0.24157484283E+03  0.24157484283E+03  0.00000000000E+00 0.  1.
         23    2    1    2    0    0 -0.33278951687E+02  0.71153702944E+02 -0.64260911137E+02  0.16108112403E+03  0.12508927113E+03 0.  0.
          5    1    3    3  502    0 -0.66837472867E+02  0.82656651220E+02 -0.66219058516E+02  0.12530684690E+03  0.41800000000E+01 0. -1.
         -5    1    3    3    0  502  0.33558521180E+02 -0.11502948276E+02  0.19581473796E+01  0.35774277127E+02  0.41800000000E+01 0. -1.
        -11    1    1    2    0    0 -0.14771981124E+02 -0.38836935637E+02 -0.87247517641E+02  0.96636682117E+02  0.00000000000E+00 0.  1.
         11    1    1    2    0    0  0.48050932811E+02 -0.32316767306E+02 -0.14281063409E+02  0.59642387320E+02  0.00000000000E+00 0. -1.
</event>
<event>
 7    1  0.1312490E-005  0.1000631E+03  0.7561462E-02  0.1280163E+00
         -1   -1    0    0    0  501 -0.00000000000E+00  0.00000000000E+00  0.13331135304E+03  0.13331135304E+03  0.00000000000E+00 0.  1.
          1   -1    0    0  501    0  0.00000000000E+00 -0.00000000000E+00 -0.41092418334E+03  0.41092418334E+03  0.00000000000E+00 0. -1.
         23    2    1    2    0    0 -0.66688546863E+02 -0.39890070521E+02  0.86469392012E+02  0.16113232274E+03  0.11157100728E+03 0.  0.
          5    1    3    3  502    0 -0.22111746467E+02  0.27017754287E+02 -0.89549423983E+01  0.36284318540E+02  0.41800000000E+01 0. -1.
         -5    1    3    3    0  502 -0.44576800396E+02 -0.66907824808E+02  0.95424334410E+02  0.12484800420E+03  0.41800000000E+01 0.  1.
        -11    1    1    2    0    0  0.59744349070E+02  0.19387192175E+02 -0.35344714003E+03  0.35898486216E+03  0.00000000000E+00 0. -1.
         11    1    1    2    0    0  0.69441977930E+01  0.20502878345E+02 -0.10635082287E+02  0.24118351492E+02  0.00000000000E+00 0.  1.
</event>
<event>
 7    1  0.1312490E-005  0.4226688E+03  0.7561462E-02  0.1036201E+00
          1   -1    0    0  501    0  0.00000000000E+00  0.00000000000E+00  0.27940315094E+03  0.27940315094E+03  0.00000000000E+00 0. -1.
         -1   -1    0    0    0  501 -0.00000000000E+00 -0.00000000000E+00 -0.67954597059E+03  0.67954597059E+03  0.00000000000E+00 0.  1.
         23    2    1    2    0    0  0.40341934130E+03  0.98224295461E+02 -0.28495683213E+03  0.51888621171E+03  0.12508927757E+03 0.  0.
          5    1    3    3  502    0  0.10562815982E+03  0.78357362665E+02 -0.57425522417E+02  0.14357000890E+03  0.41800000000E+01 0. -1.
         -5    1    3    3    0  502  0.29779118149E+03  0.19866932796E+02 -0.22753130972E+03  0.37531620281E+03  0.41800000000E+01 0. -1.
        -11    1    1    2    0    0 -0.33886652781E+03 -0.79721957007E+02 -0.12945945264E+03  0.37141064064E+03  0.00000000000E+00 0.  1.
         11    1    1    2    0    0 -0.64552813493E+02 -0.18502338454E+02  0.14273465116E+02  0.68652269187E+02  0.00000000000E+00 0. -1.
</event>
<event>
 7    1  0.1312490E-005  0.1348307E+03  0.7561462E-02  0.1220459E+00
          2   -1    0    0  501    0  0.00000000000E+00  0.00000000000E+00  0.38836500163E+03  0.38836500163E+03  0.00000000000E+00 0. -1.
         -2   -1    0    0    0  501 -0.00000000000E+00 -0.00000000000E+00 -0.29176067006E+03  0.29176067006E+03  0.00000000000E+00 0.  1.
         23    2    1    2    0    0 -0.10520118144E+03  0.57578232050E+02 -0.24879984135E+03  0.30320270357E+03  0.12509187430E+03 0.  0.
          5    1    3    3  502    0 -0.70706744449E+02  0.40212470551E+02 -0.39854241210E+02  0.90677006131E+02  0.41800000000E+01 0. -1.
         -5    1    3    3    0  502 -0.34494436990E+02  0.17365761499E+02 -0.20894560014E+03  0.21252569744E+03  0.41800000000E+01 0. -1.
        -11    1    1    2    0    0  0.61534429531E+02 -0.79479724980E+02  0.25630585951E+03  0.27531110824E+03  0.00000000000E+00 0.  1.
         11    1    1    2    0    0  0.43666751908E+02  0.21901492930E+02  0.89098313412E+02  0.10161185988E+03  0.00000000000E+00 0. -1.
</event>
<event>
 7    1  0.1312490E-005  0.1318892E+03  0.7561462E-02  0.1224679E+00
         -1   -1    0    0    0  501 -0.00000000000E+00  0.00000000000E+00  0.24230480554E+02  0.24230480554E+02  0.00000000000E+00 0.  1.
          1   -1    0    0  501    0  0.00000000000E+00 -0.00000000000E+00 -0.86236250649E+03  0.86236250649E+03  0.00000000000E+00 0. -1.
         23    2    1    2    0    0  0.15722630178E+02  0.93908109470E+02 -0.45501422523E+03  0.48140470977E+03  0.12508643130E+03 0.  0.
          5    1    3    3  502    0 -0.14000361285E+02  0.10650356308E+03 -0.22804396305E+03  0.25211215867E+03  0.41800000000E+01 0. -1.
         -5    1    3    3    0  502  0.29722991463E+02 -0.12595453610E+02 -0.22697026218E+03  0.22929255109E+03  0.41800000000E+01 0. -1.
        -11    1    1    2    0    0  0.32218788829E+02 -0.43850359390E+02 -0.24103455703E+03  0.24710030768E+03  0.00000000000E+00 0. -1.
         11    1    1    2    0    0 -0.47941419007E+02 -0.50057750080E+02 -0.14208324367E+03  0.15808796959E+03  0.00000000000E+00 0.  1.
</event>
<event>
 7    1  0.1312490E-005  0.1198356E+03  0.7561462E-02  0.1243369E+00
         -1   -1    0    0    0  501 -0.00000000000E+00  0.00000000000E+00  0.10393260049E+02  0.10393260049E+02  0.00000000000E+00 0.  1.
          1   -1    0    0  501    0  0.00000000000E+00 -0.00000000000E+00 -0.13935845774E+04  0.13935845774E+04  0.00000000000E+00 0. -1.
         23    2    1    2    0    0 -0.48700247003E+02 -0.71626859867E+01 -0.78824840554E+03  0.79962793813E+03  0.12508506095E+03 0.  0.
          5    1    3    3  502    0  0.12659779139E+02 -0.54360209690E+02 -0.28512594483E+03  0.29056768440E+03  0.41800000000E+01 0. -1.
         -5    1    3    3    0  502 -0.61360026142E+02  0.47197523703E+02 -0.50312246071E+03  0.50906025372E+03  0.41800000000E+01 0. -1.
        -11    1    1    2    0    0  0.77110552609E+02  0.10665919946E+01 -0.43947107517E+03  0.44618606081E+03  0.00000000000E+00 0. -1.
         11    1    1    2    0    0 -0.28410305606E+02  0.60960939920E+01 -0.15547183669E+03  0.15816383857E+03  0.00000000000E+00 0.  1.
</event>
<event>
 7    1  0.1312490E-005  0.1037019E+03  0.7561462E-02  0.1272699E+00
         -2   -1    0    0    0  501 -0.00000000000E+00  0.00000000000E+00  0.48631718386E+03  0.48631718386E+03  0.00000000000E+00 0. -1.
          2   -1    0    0  501    0  0.00000000000E+00 -0.00000000000E+00 -0.58014735207E+02  0.58014735207E+02  0.00000000000E+00 0.  1.
         23    2    1    2    0    0 -0.38719156261E+02 -0.37829762609E+02  0.41421790978E+03  0.43606703170E+03  0.12509082841E+03 0.  0.
          5    1    3    3  502    0 -0.83817905989E+02 -0.15764166893E+02  0.27866365209E+03  0.29145300430E+03  0.41800000000E+01 0. -1.
         -5    1    3    3    0  502  0.45098749728E+02 -0.22065595716E+02  0.13555425769E+03  0.14461402740E+03  0.41800000000E+01 0. -1.
        -11    1    1    2    0    0 -0.10257752219E+02  0.90766871034E+00  0.40276096897E+02  0.41571737086E+02  0.00000000000E+00 0. -1.
         11    1    1    2    0    0  0.48976908480E+02  0.36922093899E+02 -0.26191558028E+02  0.66693150279E+02  0.00000000000E+00 0.  1.
</event>
<event>
 7    1  0.1312490E-005  0.1036148E+03  0.7561462E-02  0.1272873E+00
          2   -1    0    0  501    0  0.00000000000E+00  0.00000000000E+00  0.12660325600E+04  0.12660325600E+04  0.00000000000E+00 0. -1.
         -2   -1    0    0    0  501 -0.00000000000E+00 -0.00000000000E+00 -0.14183169784E+02  0.14183169784E+02  0.00000000000E+00 0.  1.
         23    2    1    2    0    0  0.45898823839E+02 -0.62920319043E+02  0.60717079820E+03  0.62479570566E+03  0.12509047545E+03 0.  0.
          5    1    3    3  502    0  0.53738974107E+02 -0.51127775090E+02  0.15003308646E+03  0.16741961103E+03  0.41800000000E+01 0. -1.
         -5    1    3    3    0  502 -0.78401502685E+01 -0.11792543953E+02  0.45713771174E+03  0.45737609463E+03  0.41800000000E+01 0. -1.
        -11    1    1    2    0    0 -0.68426939770E+02  0.22738866625E+02  0.39192641243E+03  0.39850422194E+03  0.00000000000E+00 0.  1.
         11    1    1    2    0    0  0.22528115931E+02  0.40181452418E+02  0.25275217958E+03  0.25691580218E+03  0.00000000000E+00 0. -1.
</event>
<event>
 7    1  0.1312490E-005  0.1007318E+03  0.7561462E-02  0.1278765E+00
         -2   -1    0    0    0  501 -0.00000000000E+00  0.00000000000E+00  0.24254830765E+03  0.24254830765E+03  0.00000000000E+00 0.  1.
          2   -1    0    0  501    0  0.00000000000E+00 -0.00000000000E+00 -0.63418175670E+02  0.63418175670E+02  0.00000000000E+00 0. -1.
         23    2    1    2    0    0 -0.15943770327E+02  0.44072740801E+02  0.16649809955E+03  0.21345989847E+03  0.12508757256E+03 0.  0.
          5    1    3    3  502    0 -0.49876321708E+02  0.61468395245E+02  0.15384680331E+03  0.17306739257E+03  0.41800000000E+01 0. -1.
         -5    1    3    3    0  502  0.33932551381E+02 -0.17395654445E+02  0.12651296238E+02  0.40392505905E+02  0.41800000000E+01 0. -1.
        -11    1    1    2    0    0  0.41097548049E+02 -0.11491726111E+02 -0.12264950600E+02  0.44401545445E+02  0.00000000000E+00 0. -1.
         11    1    1    2    0    0 -0.25153777722E+02 -0.32581014689E+02  0.24896983030E+02  0.48105039402E+02  0.00000000000E+00 0.  1.
</event>
<event>
 7    1  0.1312490E-005  0.9842451E+02  0.7561462E-02  0.1283644E+00
          1   -1    0    0  501    0  0.00000000000E+00  0.00000000000E+00  0.43798518938E+03  0.43798518938E+03  0.00000000000E+00 0.  1.
         -1   -1    0    0    0  501 -0.00000000000E+00 -0.00000000000E+00 -0.31171370541E+02  0.31171370541E+02  0.00000000000E+00 0. -1.
         23    2    1    2    0    0 -0.48233569567E+01 -0.27545181836E+02  0.14930589586E+03  0.19677977204E+03  0.12509207142E+03 0.  0.
          5    1    3    3  502    0 -0.16290210782E+02  0.39457011266E+02  0.11018458649E+03  0.11823849714E+03  0.41800000000E+01 0.  1.
         -5    1    3    3    0  502  0.11466853825E+02 -0.67002193101E+02  0.39121309368E+02  0.78541274905E+02  0.41800000000E+01 0.  1.
        -11    1    1    2    0    0 -0.91901497577E+01 -0.27529527144E+02  0.56896988905E+02  0.63871754820E+02  0.00000000000E+00 0. -1.
         11    1    1    2    0    0  0.14013506714E+02  0.55074708980E+02  0.20061093408E+03  0.20850503306E+03  0.00000000000E+00 0.  1.
</event>
<event>
 7    1  0.1312490E-005  0.1347919E+03  0.7561462E-02  0.1220514E+00
          1   -1    0    0  501    0  0.00000000000E+00  0.00000000000E+00  0.39702428989E+03  0.39702428989E+03  0.00000000000E+00 0. -1.
         -1   -1    0    0    0  501 -0.00000000000E+00 -0.00000000000E+00 -0.65542490031E+02  0.65542490031E+02  0.00000000000E+00 0.  1.
         23    2    1    2    0    0  0.12110403506E+02 -0.11240083449E+03  0.12546922835E+03  0.21016968895E+03  0.12509261140E+03 0.  0.
          5    1    3    3  502    0  0.56124433084E+02 -0.90743258616E+02  0.45084057963E+02  0.11590658159E+03  0.41800000000E+01 0.  1.
         -5    1    3    3    0  502 -0.44014029578E+02 -0.21657575870E+02  0.80385170383E+02  0.94263107364E+02  0.41800000000E+01 0.  1.
        -11    1    1    2    0    0 -0.14090811114E+02  0.91498813444E+02  0.21134741089E+03  0.23073428854E+03  0.00000000000E+00 0.  1.
         11    1    1    2    0    0  0.19804076087E+01  0.20902021042E+02 -0.53348393735E+01  0.21662802429E+02  0.00000000000E+00 0. -1.
</event>
<event>
 7    1  0.1312490E-005  0.1724585E+03  0.7561462E-02  0.1175308E+00
          1   -1    0    0  501    0  0.00000000000E+00  0.00000000000E+00  0.12146317553E+03  0.12146317553E+03  0.00000000000E+00 0.  1.
         -1   -1    0    0    0  501 -0.00000000000E+00 -0.00000000000E+00 -0.35561904850E+03  0.35561904850E+03  0.00000000000E+00 0. -1.
         23    2    1    2    0    0  0.18865827073E+02 -0.14943404816E+03 -0.22584648924E+03  0.29889794405E+03  0.12508752964E+03 0.  0.
          5    1    3    3  502    0  0.35404615759E+01  0.21213476260E+02 -0.43168415174E+02  0.48410029042E+02  0.41800000000E+01 0. -1.
         -5    1    3    3    0  502  0.15325365497E+02 -0.17064752442E+03 -0.18267807407E+03  0.25048791500E+03  0.41800000000E+01 0. -1.
        -11    1    1    2    0    0 -0.21405835990E+02  0.10744623415E+03  0.37682443209E+02  0.11585710843E+03  0.00000000000E+00 0.  1.
         11    1    1    2    0    0  0.25400089172E+01  0.41987814011E+02 -0.45991826935E+02  0.62327171567E+02  0.00000000000E+00 0. -1.
</event>
<event>
 7    1  0.1312490E-005  0.5489225E+02  0.7561462E-02  0.1420609E+00
          3   -1    0    0  501    0  0.00000000000E+00  0.00000000000E+00  0.28558647355E+03  0.28558647355E+03  0.00000000000E+00 0. -1.
         -3   -1    0    0    0  501 -0.00000000000E+00 -0.00000000000E+00 -0.43166440567E+02  0.43166440567E+02  0.00000000000E+00 0.  1.
         23    2    1    2    0    0  0.16972348164E+02  0.17301999273E+02  0.13246714946E+03  0.18379989592E+03  0.12508971290E+03 0.  0.
          5    1    3    3  502    0 -0.14696148269E+02  0.88845328296E+00  0.14496753197E+03  0.14577319318E+03  0.41800000000E+01 0. -1.
         -5    1    3    3    0  502  0.31668496432E+02  0.16413545990E+02 -0.12500382514E+02  0.38026702740E+02  0.41800000000E+01 0. -1.
        -11    1    1    2    0    0 -0.17249002923E+02  0.17026327390E+02  0.10787124345E+03  0.11056052229E+03  0.00000000000E+00 0. -1.
         11    1    1    2    0    0  0.27665475899E+00 -0.34328326663E+02  0.20816400745E+01  0.34392495907E+02  0.00000000000E+00 0.  1.
</event>
<event>
 7    1  0.1312490E-005  0.1141602E+03  0.7561462E-02  0.1253054E+00
         -1   -1    0    0    0  501 -0.00000000000E+00  0.00000000000E+00  0.73430812832E+02  0.73430812832E+02  0.00000000000E+00 0.  1.
          1   -1    0    0  501    0  0.00000000000E+00 -0.00000000000E+00 -0.25102401789E+03  0.25102401789E+03  0.00000000000E+00 0. -1.
         23    2    1    2    0    0 -0.65916886775E+02 -0.13701035519E+02 -0.43320094358E+02  0.14854397569E+03  0.12512365005E+03 0.  0.
          5    1    3    3  502    0 -0.76821638573E+02  0.19654654868E+02  0.14557429735E+02  0.80729553272E+02  0.41800000000E+01 0.  1.
         -5    1    3    3    0  502  0.10904751798E+02 -0.33355690387E+02 -0.57877524094E+02  0.67814422420E+02  0.41800000000E+01 0.  1.
        -11    1    1    2    0    0  0.61368143682E+02 -0.30922343707E+02 -0.84298300487E+02  0.10875864961E+03  0.00000000000E+00 0.  1.
         11    1    1    2    0    0  0.45487430934E+01  0.44623379226E+02 -0.49974810214E+02  0.67152205424E+02  0.00000000000E+00 0. -1.
</event>
<event>
 7    1  0.1312490E-005  0.1064637E+03  0.7561462E-02  0.1267262E+00
         -1   -1    0    0    0  501 -0.00000000000E+00  0.00000000000E+00  0.16222459496E+02  0.16222459496E+02  0.00000000000E+00 0. -1.
          1   -1    0    0  501    0  0.00000000000E+00 -0.00000000000E+00 -0.80878131228E+03  0.80878131228E+03  0.00000000000E+00 0.  1.
         23    2    1    2    0    0 -0.37444159909E+02 -0.37180323668E+01 -0.46138412923E+03  0.47951916339E+03  0.12508966572E+03 0.  0.
          5    1    3    3  502    0 -0.78607430615E+02 -0.70459162279E+01 -0.38032870557E+03  0.38845356192E+03  0.41800000000E+01 0.  1.
         -5    1    3    3    0  502  0.41163270706E+02  0.33278838612E+01 -0.81055423661E+02  0.91065601470E+02  0.41800000000E+01 0.  1.
        -11    1    1    2    0    0  0.58744677879E+02 -0.18517305872E+02 -0.15776621810E+03  0.16936353613E+03  0.00000000000E+00 0. -1.
         11    1    1    2    0    0 -0.21300517970E+02  0.22235338239E+02 -0.17340850545E+03  0.17612107226E+03  0.00000000000E+00 0.  1.
</event>
<event>
 7    1  0.1312490E-005  0.1385538E+03  0.7561462E-02  0.1215288E+00
         -2   -1    0    0    0  501 -0.00000000000E+00  0.00000000000E+00  0.35500786171E+02  0.35500786171E+02  0.00000000000E+00 0.  1.
          2   -1    0    0  501    0  0.00000000000E+00 -0.00000000000E+00 -0.60077181792E+03  0.60077181792E+03  0.00000000000E+00 0. -1.
         23    2    1    2    0    0 -0.10076295883E+02 -0.97783565147E+02 -0.29403229143E+03  0.33431353231E+03  0.12508953645E+03 0.  0.
          5    1    3    3  502    0  0.29731450991E+02  0.14492058761E+02 -0.11093081273E+03  0.11583219138E+03  0.41800000000E+01 0. -1.
         -5    1    3    3    0  502 -0.39807746874E+02 -0.11227562391E+03 -0.18310147870E+03  0.21848134093E+03  0.41800000000E+01 0. -1.
        -11    1    1    2    0    0 -0.31427619299E+02  0.63063019820E+02 -0.99678161947E+02  0.12206709505E+03  0.00000000000E+00 0.  1.
         11    1    1    2    0    0  0.41503915182E+02  0.34720545327E+02 -0.17156057837E+03  0.17989197674E+03  0.00000000000E+00 0. -1.
</event>
<event>
 7    1  0.1312490E-005  0.2380522E+03  0.7561462E-02  0.1121097E+00
         -2   -1    0    0    0  501 -0.00000000000E+00  0.00000000000E+00  0.29344589216E+03  0.29344589216E+03  0.00000000000E+00 0.  1.
          2   -1    0    0  501    0  0.00000000000E+00 -0.00000000000E+00 -0.22684076161E+03  0.22684076161E+03  0.00000000000E+00 0. -1.
         23    2    1    2    0    0 -0.88050627078E+02 -0.26716609278E+02  0.11587585547E+03  0.19135573757E+03  0.12133884078E+03 0.  0.
          5    1    3    3  502    0 -0.68258695625E+02 -0.73659733886E+02  0.85034528159E+02  0.13165617837E+03  0.41800000000E+01 0. -1.
         -5    1    3    3    0  502 -0.19791931453E+02  0.46943124608E+02  0.30841327309E+02  0.59699559201E+02  0.41800000000E+01 0.  1.
        -11    1    1    2    0    0 -0.34348403340E+02  0.14813842808E+03 -0.12011610378E+02  0.15254207770E+03  0.00000000000E+00 0.  1.
         11    1    1    2    0    0  0.12239903042E+03 -0.12142181880E+03 -0.37259114540E+02  0.17638883849E+03  0.00000000000E+00 0. -1.
</event>
<event>
 7    1  0.1312490E-005  0.3318776E+03  0.7561462E-02  0.1070309E+00
         -1   -1    0    0    0  501 -0.00000000000E+00  0.00000000000E+00  0.37137316081E+03  0.37137316081E+03  0.00000000000E+00 0.  1.
          1   -1    0    0  501    0  0.00000000000E+00 -0.00000000000E+00 -0.36528782436E+03  0.36528782436E+03  0.00000000000E+00 0. -1.
         23    2    1    2    0    0  0.27428716766E+03  0.16280344180E+03  0.15342403584E+03  0.37540095618E+03  0.12509409307E+03 0.  0.
          5    1    3    3  502    0  0.35769949088E+02 -0.18154564979E+02  0.35036075857E+02  0.53423557527E+02  0.41800000000E+01 0.  1.
         -5    1    3    3    0  502  0.23851721857E+03  0.18095800678E+03  0.11838795999E+03  0.32197739865E+03  0.41800000000E+01 0.  1.
        -11    1    1    2    0    0 -0.78251152751E+02 -0.77751730189E+02 -0.83140786252E+02  0.13813386548E+03  0.00000000000E+00 0. -1.
         11    1    1    2    0    0 -0.19603601491E+03 -0.85051711615E+02 -0.64197913135E+02  0.22312616351E+03  0.00000000000E+00 0.  1.
</event>
<event>
 7    1  0.1312490E-005  0.8997646E+02  0.7561462E-02  0.1302909E+00
          1   -1    0    0  501    0  0.00000000000E+00  0.00000000000E+00  0.56074091436E+02  0.56074091436E+02  0.00000000000E+00 0. -1.
         -1   -1    0    0    0  501 -0.00000000000E+00 -0.00000000000E+00 -0.25726207366E+03  0.25726207366E+03  0.00000000000E+00 0.  1.
         23    2    1    2    0    0  0.93821264049E+01 -0.93504289454E+01 -0.17729199641E+03  0.21738264369E+03  0.12508919606E+03 0.  0.
          5    1    3    3  502    0 -0.31573813913E+02 -0.32096384339E+02 -0.13824236933E+02  0.47282824994E+02  0.41800000000E+01 0.  1.
         -5    1    3    3    0  502  0.40955940318E+02  0.22745955393E+02 -0.16346775947E+03  0.17009981870E+03  0.41800000000E+01 0.  1.
        -11    1    1    2    0    0  0.32072467260E+02 -0.19187475088E+02 -0.26087315749E+02  0.45577959579E+02  0.00000000000E+00 0.  1.
         11    1    1    2    0    0 -0.41454593665E+02  0.28537904033E+02  0.21913299289E+01  0.50375561827E+02  0.00000000000E+00 0. -1.
</event>
<event>
 7    1  0.1312490E-005  0.1778640E+03  0.7561462E-02  0.1169886E+00
          2   -1    0    0  501    0  0.00000000000E+00  0.00000000000E+00  0.13998755823E+04  0.13998755823E+04  0.00000000000E+00 0. -1.
         -2   -1    0    0    0  501 -0.00000000000E+00 -0.00000000000E+00 -0.28324367576E+02  0.28324367576E+02  0.00000000000E+00 0.  1.
         23    2    1    2    0    0 -0.12077744594E+03 -0.10980074707E+03  0.59459176557E+03  0.62915092524E+03  0.12509246000E+03 0.  0.
          5    1    3    3  502    0 -0.48931231793E+02 -0.88676685527E+01  0.50051789444E+02  0.70679240353E+02  0.41800000000E+01 0.  1.
         -5    1    3    3    0  502 -0.71846214142E+02 -0.10093307852E+03  0.54453997612E+03  0.55847168489E+03  0.41800000000E+01 0.  1.
        -11    1    1    2    0    0  0.67032980078E+02  0.90085811964E+01  0.20744585494E+03  0.21819339514E+03  0.00000000000E+00 0.  1.
         11    1    1    2    0    0  0.53744465858E+02  0.10079216588E+03  0.56951359427E+03  0.58085562954E+03  0.00000000000E+00 0. -1.
</event>
<event>
 7    1  0.1312490E-005  0.1693005E+03  0.7561462E-02  0.1178579E+00
         -2   -1    0    0    0  501 -0.00000000000E+00  0.00000000000E+00  0.42103512863E+02  0.42103512863E+02  0.00000000000E+00 0.  1.
          2   -1    0    0  501    0  0.00000000000E+00 -0.00000000000E+00 -0.84058367698E+03  0.84058367698E+03  0.00000000000E+00 0. -1.
         23    2    1    2    0    0  0.89215181427E+01  0.14824983880E+03 -0.32323629726E+03  0.37708321259E+03  0.12510970051E+03 0.  0.
          5    1    3    3  502    0 -0.32739258195E+02  0.11380749379E+03 -0.29052977959E+03  0.31376588389E+03  0.41800000000E+01 0.  1.
         -5    1    3    3    0  502  0.41660776338E+02  0.34442345008E+02 -0.32706517670E+02  0.63317328693E+02  0.41800000000E+01 0.  1.
        -11    1    1    2    0    0 -0.31919327889E+02 -0.25090824900E+02 -0.64842355104E+02  0.76504405118E+02  0.00000000000E+00 0.  1.
         11    1    1    2    0    0  0.22997809746E+02 -0.12315901390E+03 -0.41040151176E+03  0.42909957214E+03  0.00000000000E+00 0. -1.
</event>
<event>
 6    1  0.1312490E-005  0.1767192E+03  0.7561462E-02  0.1171016E+00
          2   -1    0    0  501    0  0.00000000000E+00  0.00000000000E+00  0.14634523718E+04  0.14634523718E+04  0.00000000000E+00 0. -1.
         -2   -1    0    0    0  501 -0.00000000000E+00 -0.00000000000E+00 -0.30031880348E+02  0.30031880348E+02  0.00000000000E+00 0.  1.
          5    1    1    2  502    0 -0.68028064431E+02 -0.83871156684E+02  0.69170658550E+03  0.70009832259E+03  0.41800000000E+01 0. -1.
         -5    1    1    2    0  502  0.46982670989E+01  0.11212387782E+03  0.15324118285E+03  0.18998465783E+03  0.41800000000E+01 0.  1.
        -11    1    1    2    0    0  0.27284346136E+02 -0.71639555224E+02  0.35958482729E+03  0.36766548578E+03  0.00000000000E+00 0.  1.
         11    1    1    2    0    0  0.36045451196E+02  0.43386834089E+02  0.22888789586E+03  0.23573578599E+03  0.00000000000E+00 0. -1.
</event>
<event>
 7    1  0.1312490E-005  0.9223205E+02  0.7561462E-02  0.1297535E+00
         -4   -1    0    0    0  501 -0.00000000000E+00  0.00000000000E+00  0.97673892104E+03  0.97673892104E+03  0.00000000000E+00 0.  1.
          4   -1    0    0  501    0  0.00000000000E+00 -0.00000000000E+00 -0.16395650701E+02  0.16395650701E+02  0.00000000000E+00 0. -1.
         23    2    1    2    0    0 -0.88650177703E+01 -0.25791585404E+02  0.74199217874E+03  0.75295664357E+03  0.12509004502E+03 0.  0.
          5    1    3    3  502    0 -0.23079783890E+02  0.32125735946E+02  0.92125447005E+02  0.10034595019E+03  0.41800000000E+01 0.  1.
         -5    1    3    3    0  502  0.14214766120E+02 -0.57917321350E+02  0.64986673174E+03  0.65261069337E+03  0.41800000000E+01 0.  1.
        -11    1    1    2    0    0 -0.17160139814E+02 -0.23538956773E+02  0.14571617463E+03  0.14859931505E+03  0.00000000000E+00 0.  1.
         11    1    1    2    0    0  0.26025157585E+02  0.49330542177E+02  0.72634916968E+02  0.91578613124E+02  0.00000000000E+00 0. -1.
</event>
<event>
 7    1  0.1312490E-005  0.1513329E+03  0.7561462E-02  0.1198845E+00
          2   -1    0    0  501    0  0.00000000000E+00  0.00000000000E+00  0.95356260682E+03  0.95356260682E+03  0.00000000000E+00 0. -1.
         -2   -1    0    0    0  501 -0.00000000000E+00 -0.00000000000E+00 -0.35831888816E+02  0.35831888816E+02  0.00000000000E+00 0.  1.
         23    2    1    2    0    0 -0.14102155978E+00 -0.14777200506E+03  0.45973208362E+03  0.49883680068E+03  0.12509188477E+03 0.  0.
          5    1    3    3  502    0  0.11991837529E+02 -0.54481634028E+02  0.40256448115E+02  0.68921017320E+02  0.41800000000E+01 0.  1.
         -5    1    3    3    0  502 -0.12132859089E+02 -0.93290371030E+02  0.41947563551E+03  0.42991578336E+03  0.41800000000E+01 0.  1.
        -11    1    1    2    0    0 -0.17358479502E+02  0.10357456804E+03  0.17895688145E+03  0.20749595990E+03  0.00000000000E+00 0.  1.
         11    1    1    2    0    0  0.17499501062E+02  0.44197437021E+02  0.27904175293E+03  0.28306173506E+03  0.00000000000E+00 0. -1.
</event>
<event>
 7    1  0.1312490E-005  0.1123864E+03  0.7561462E-02  0.1256213E+00
          1   -1    0    0  501    0  0.00000000000E+00  0.00000000000E+00  0.15525802905E+03  0.15525802905E+03  0.00000000000E+00 0. -1.
         -1   -1    0    0    0  501 -0.00000000000E+00 -0.00000000000E+00 -0.82640963400E+02  0.82640963400E+02  0.00000000000E+00 0.  1.
         23    2    1    2    0    0 -0.12548083681E+02 -0.30329676260E+02  0.39927241607E+02  0.13534433578E+03  0.12508621403E+03 0.  0.
          5    1    3    3  502    0 -0.52847008413E+02 -0.58123341395E+02  0.34544947532E+02  0.85918303715E+02  0.41800000000E+01 0.  1.
         -5    1    3    3    0  502  0.40298924732E+02  0.27793665135E+02  0.53822940747E+01  0.49426032065E+02  0.41800000000E+01 0.  1.
        -11    1    1    2    0    0  0.52203492888E+02  0.13694643232E+02  0.14666356455E+02  0.55927184219E+02  0.00000000000E+00 0.  1.
         11    1    1    2    0    0 -0.39655409207E+02  0.16635033028E+02  0.18023467586E+02  0.46627472450E+02  0.00000000000E+00 0. -1.
</event>
<event>
 7    1  0.1312490E-005  0.8016120E+02  0.7561462E-02  0.1328595E+00
          1   -1    0    0  501    0  0.00000000000E+00  0.00000000000E+00  0.16107066586E+03  0.16107066586E+03  0.00000000000E+00 0. -1.
         -1   -1    0    0    0  501 -0.00000000000E+00 -0.00000000000E+00 -0.12627749230E+03  0.12627749230E+03  0.00000000000E+00 0.  1.
         23    2    1    2    0    0 -0.62634565865E+01 -0.44423992354E+02 -0.62153928517E+02  0.14668821904E+03  0.12506638553E+03 0.  0.
          5    1    3    3  502    0  0.36483633835E+02  0.14457935920E+01  0.21102758166E+02  0.42378587271E+02  0.41800000000E+01 0.  1.
         -5    1    3    3    0  502 -0.42747090421E+02 -0.45869785946E+02 -0.83256686683E+02  0.10430963177E+03  0.41800000000E+01 0.  1.
        -11    1    1    2    0    0  0.23710442291E+02  0.22233501607E+02 -0.67430881174E+01  0.33196127857E+02  0.00000000000E+00 0.  1.
         11    1    1    2    0    0 -0.17446985705E+02  0.22190490747E+02  0.10369019020E+03  0.10746381127E+03  0.00000000000E+00 0. -1.
</event>
<event>
 7    1  0.1312490E-005  0.9073441E+02  0.7561462E-02  0.1301083E+00
         -2   -1    0    0    0  501 -0.00000000000E+00  0.00000000000E+00  0.31759123849E+02  0.31759123849E+02  0.00000000000E+00 0.  1.
          2   -1    0    0  501    0  0.00000000000E+00 -0.00000000000E+00 -0.38251174753E+03  0.38251174753E+03  0.00000000000E+00 0. -1.
         23    2    1    2    0    0 -0.12577401591E+02  0.39115428066E+01 -0.18083912119E+03  0.22028218672E+03  0.12509181762E+03 0.  0.
          5    1    3    3  502    0 -0.26014341068E+02  0.44511996951E+02 -0.22839374400E+02  0.56543551682E+02  0.41800000000E+01 0. -1.
         -5    1    3    3    0  502  0.13436939477E+02 -0.40600454145E+02 -0.15799974679E+03  0.16373863504E+03  0.41800000000E+01 0. -1.
        -11    1    1    2    0    0  0.43099625326E+02 -0.24858448742E+02 -0.59647629987E+02  0.77674705923E+02  0.00000000000E+00 0.  1.
         11    1    1    2    0    0 -0.30522223735E+02  0.20946905935E+02 -0.11026587250E+03  0.11631397873E+03  0.00000000000E+00 0. -1.
</event>
<event>
 7    1  0.1312490E-005  0.1056789E+03  0.7561462E-02  0.1268788E+00
          2   -1    0    0  501    0  0.00000000000E+00  0.00000000000E+00  0.11568699776E+03  0.11568699776E+03  0.00000000000E+00 0. -1.
         -2   -1    0    0    0  501 -0.00000000000E+00 -0.00000000000E+00 -0.14223277524E+03  0.14223277524E+03  0.00000000000E+00 0.  1.
         23    2    1    2    0    0 -0.34957892356E+02 -0.55155214576E+02  0.39340955617E+01  0.14116037516E+03  0.12508646000E+03 0.  0.
          5    1    3    3  502    0  0.97572364302E+01 -0.52607686448E+02  0.52420910466E+02  0.75021307575E+02  0.41800000000E+01 0.  1.
         -5    1    3    3    0  502 -0.44715128786E+02 -0.25475281284E+01 -0.48486814905E+02  0.66139067589E+02  0.41800000000E+01 0.  1.
        -11    1    1    2    0    0  0.66617492041E+02  0.36533791809E+02 -0.20132059139E+02  0.78599669178E+02  0.00000000000E+00 0.  1.
         11    1    1    2    0    0 -0.31659599685E+02  0.18621422768E+02 -0.10347813903E+02  0.38159728650E+02  0.00000000000E+00 0. -1.
</event>
<event>
 7    1  0.1312490E-005  0.9303120E+02  0.7561462E-02  0.1295673E+00
         -2   -1    0    0    0  501 -0.00000000000E+00  0.00000000000E+00  0.13834907263E+02  0.13834907263E+02  0.00000000000E+00 0.  1.
          2   -1    0    0  501    0  0.00000000000E+00 -0.00000000000E+00 -0.11182728963E+04  0.11182728963E+04  0.00000000000E+00 0. -1.
         23    2    1    2    0    0  0.37677012770E+02  0.46201460529E+02 -0.62441791299E+03  0.63960807786E+03  0.12508649388E+03 0.  0.
          5    1    3    3  502    0 -0.87869015014E+01  0.20499328389E+02 -0.13564070204E+02  0.26436499445E+02  0.41800000000E+01 0. -1.
         -5    1    3    3    0  502  0.46463914272E+02  0.25702132140E+02 -0.61085384278E+03  0.61317157841E+03  0.41800000000E+01 0. -1.
        -11    1    1    2    0    0 -0.78075234127E+01  0.28555890095E+02 -0.13632641707E+03  0.13950372136E+03  0.00000000000E+00 0.  1.
         11    1    1    2    0    0 -0.29869489358E+02 -0.74757350624E+02 -0.34369365896E+03  0.35299600433E+03  0.00000000000E+00 0. -1.
</event>
<event>
 7    1  0.1312490E-005  0.1221478E+03  0.7561462E-02  0.1239595E+00
          2   -1    0    0  501    0  0.00000000000E+00  0.00000000000E+00  0.15226591418E+03  0.15226591418E+03  0.00000000000E+00 0.  1.
         -2   -1    0    0    0  501 -0.00000000000E+00 -0.00000000000E+00 -0.13167910147E+03  0.13167910147E+03  0.00000000000E+00 0. -1.
         23    2    1    2    0    0 -0.24993383800E+02 -0.58085411855E+02 -0.52327051077E+02  0.14961135444E+03  0.12508738065E+03 0.  0.
          5    1    3    3  502    0  0.30396969628E+02  0.21880662175E+02  0.26811559831E+01  0.37780949395E+02  0.41800000000E+01 0.  1.
         -5    1    3    3    0  502 -0.55390353428E+02 -0.79966074030E+02 -0.55008207060E+02  0.11183040505E+03  0.41800000000E+01 0.  1.
        -11    1    1    2    0    0  0.55503899987E+02  0.16961446427E+02  0.55348016782E+02  0.80198357467E+02  0.00000000000E+00 0.  1.
         11    1    1    2    0    0 -0.30510516187E+02  0.41123965428E+02  0.17565847007E+02  0.54135303745E+02  0.00000000000E+00 0. -1.
</event>
<event>
 7    1  0.1312490E-005  0.3550872E+03  0.7561462E-02  0.1060546E+00
          2   -1    0    0  501    0  0.00000000000E+00  0.00000000000E+00  0.58992354145E+03  0.58992354145E+03  0.00000000000E+00 0. -1.
         -2   -1    0    0    0  501 -0.00000000000E+00 -0.00000000000E+00 -0.25226195276E+03  0.25226195276E+03  0.00000000000E+00 0.  1.
         23    2    1    2    0    0 -0.28584951521E+03  0.20326419164E+03  0.12363618279E+03  0.38912158970E+03  0.11447020977E+03 0.  0.
          5    1    3    3  502    0 -0.30130513139E+01 -0.52002383116E+01 -0.10673509987E+02  0.12942842507E+02  0.41800000000E+01 0. -1.
         -5    1    3    3    0  502 -0.28283646390E+03  0.20846442995E+03  0.13430969278E+03  0.37617874719E+03  0.41800000000E+01 0.  1.
        -11    1    1    2    0    0  0.11456522901E+03 -0.95077802829E+02 -0.12209012422E+02  0.14937884815E+03  0.00000000000E+00 0.  1.
         11    1    1    2    0    0  0.17128428620E+03 -0.10818638881E+03  0.22623441833E+03  0.30368505636E+03  0.00000000000E+00 0. -1.
</event>
<event>
 7    1  0.1312490E-005  0.3284576E+03  0.7561462E-02  0.1071821E+00
          3   -1    0    0  501    0  0.00000000000E+00  0.00000000000E+00  0.41237240087E+03  0.41237240087E+03  0.00000000000E+00 0. -1.
         -3   -1    0    0    0  501 -0.00000000000E+00 -0.00000000000E+00 -0.29358354137E+03  0.29358354137E+03  0.00000000000E+00 0.  1.
         23    2    1    2    0    0  0.29607636056E+03  0.98745970345E+02 -0.53934856873E+02  0.34053782856E+03  0.12508023806E+03 0.  0.
          5    1    3    3  502    0  0.30585042243E+03  0.83697023744E+02 -0.55886084261E+02  0.32200993695E+03  0.41800000000E+01 0.  1.
         -5    1    3    3    0  502 -0.97740618662E+01  0.15048946601E+02  0.19512273879E+01  0.18527891609E+02  0.41800000000E+01 0.  1.
        -11    1    1    2    0    0 -0.24063702059E+02 -0.34172426711E+02  0.30564306720E+02  0.51778309642E+02  0.00000000000E+00 0. -1.
         11    1    1    2    0    0 -0.27201265850E+03 -0.64573543634E+02  0.14215940965E+03  0.31363980403E+03  0.00000000000E+00 0.  1.
</event>
<event>
 7    1  0.1312490E-005  0.1172651E+03  0.7561462E-02  0.1247678E+00
         -1   -1    0    0    0  501 -0.00000000000E+00  0.00000000000E+00  0.25493120220E+02  0.25493120220E+02  0.00000000000E+00 0.  1.
          1   -1    0    0  501    0  0.00000000000E+00 -0.00000000000E+00 -0.56942747528E+03  0.56942747528E+03  0.00000000000E+00 0. -1.
         23    2    1    2    0    0  0.41714969450E+02  0.22212901156E+02 -0.34938362935E+03  0.37409869553E+03  0.12508941554E+03 0.  0.
          5    1    3    3  502    0 -0.26043579957E+02  0.52521263008E+02 -0.13684271866E+03  0.14893002778E+03  0.41800000000E+01 0.  1.
         -5    1    3    3    0  502  0.67758549406E+02 -0.30308361851E+02 -0.21254091070E+03  0.22516866775E+03  0.41800000000E+01 0.  1.
        -11    1    1    2    0    0 -0.52057709049E+02  0.21624752703E+02 -0.13384765014E+03  0.14523370287E+03  0.00000000000E+00 0.  1.
         11    1    1    2    0    0  0.10342739599E+02 -0.43837653860E+02 -0.60703075575E+02  0.75588197112E+02  0.00000000000E+00 0. -1.
</event>
<event>
 7    1  0.1312490E-005  0.2020827E+03  0.7561462E-02  0.1147994E+00
         -1   -1    0    0    0  501 -0.00000000000E+00  0.00000000000E+00  0.31597728706E+03  0.31597728706E+03  0.00000000000E+00 0.  1.
          1   -1    0    0  501    0  0.00000000000E+00 -0.00000000000E+00 -0.15891658196E+03  0.15891658196E+03  0.00000000000E+00 0. -1.
         23    2    1    2    0    0  0.10900367729E+03 -0.15364349571E+03  0.13581268268E+03  0.26378076669E+03  0.12508829947E+03 0.  0.
          5    1    3    3  502    0  0.33128926319E+02 -0.13049289406E+03  0.42519529031E+02  0.14124908463E+03  0.41800000000E+01 0. -1.
         -5    1    3    3    0  502  0.75874750975E+02 -0.23150601645E+02  0.93293153646E+02  0.12253168206E+03  0.41800000000E+01 0. -1.
        -11    1    1    2    0    0 -0.56770404077E+02  0.10105402353E+03  0.56603613973E+02  0.12899133136E+03  0.00000000000E+00 0.  1.
         11    1    1    2    0    0 -0.52233273217E+02  0.52589472178E+02 -0.35355591548E+02  0.82121770978E+02  0.00000000000E+00 0. -1.
</event>
<event>
 7    1  0.1312490E-005  0.1179706E+03  0.7561462E-02  0.1246483E+00
         -3   -1    0    0    0  501 -0.00000000000E+00  0.00000000000E+00  0.88857857544E+02  0.88857857544E+02  0.00000000000E+00 0.  1.
          3   -1    0    0  501    0  0.00000000000E+00 -0.00000000000E+00 -0.16812743875E+03  0.16812743875E+03  0.00000000000E+00 0. -1.
         23    2    1    2    0    0  0.44985938637E+02  0.27154438353E+02 -0.24558271814E+02  0.13788284639E+03  0.12508985736E+03 0.  0.
          5    1    3    3  502    0 -0.25298539394E+02  0.53793534269E+02 -0.34131113206E+01  0.59689883176E+02  0.41800000000E+01 0. -1.
         -5    1    3    3    0  502  0.70284478030E+02 -0.26639095916E+02 -0.21145160493E+02  0.78192963210E+02  0.41800000000E+01 0. -1.
        -11    1    1    2    0    0  0.20638388958E+02  0.12755573384E+02  0.89623399562E+00  0.24278611709E+02  0.00000000000E+00 0.  1.
         11    1    1    2    0    0 -0.65624327595E+02 -0.39910011738E+02 -0.55607543386E+02  0.94823838198E+02  0.00000000000E+00 0. -1.
</event>
<event>
 7    1  0.1312490E-005  0.1364075E+03  0.7561462E-02  0.1218246E+00
          1   -1    0    0  501    0  0.00000000000E+00  0.00000000000E+00  0.25329551875E+02  0.25329551875E+02  0.00000000000E+00 0. -1.
         -1   -1    0    0    0  501 -0.00000000000E+00 -0.00000000000E+00 -0.84391162236E+03  0.84391162236E+03  0.00000000000E+00 0.  1.
         23    2    1    2    0    0  0.93838730305E+02 -0.19746208029E+00 -0.52007186821E+03  0.54307143393E+03  0.12508432337E+03 0.  0.
          5    1    3    3  502    0  0.15263453098E+02 -0.48412949305E+02 -0.30218330120E+03  0.30644576451E+03  0.41800000000E+01 0. -1.
         -5    1    3    3    0  502  0.78575277207E+02  0.48215487225E+02 -0.21788856701E+03  0.23662566942E+03  0.41800000000E+01 0. -1.
        -11    1    1    2    0    0 -0.54585822151E+02  0.44486013813E+02 -0.13467196086E+03  0.15197090000E+03  0.00000000000E+00 0. -1.
         11    1    1    2    0    0 -0.39252908153E+02 -0.44288551732E+02 -0.16383824142E+03  0.17419884030E+03  0.00000000000E+00 0.  1.
</event>
<event>
 7    1  0.1312490E-005  0.1160821E+03  0.7561462E-02  0.1249704E+00
         -2   -1    0    0    0  501 -0.00000000000E+00  0.00000000000E+00  0.67474191467E+02  0.67474191467E+02  0.00000000000E+00 0.  1.
          2   -1    0    0  501    0  0.00000000000E+00 -0.00000000000E+00 -0.31391347541E+03  0.31391347541E+03  0.00000000000E+00 0. -1.
         23    2    1    2    0    0 -0.91984559007E+02 -0.19865361068E+02 -0.11454796800E+03  0.19396989780E+03  0.12508913868E+03 0.  0.
          5    1    3    3  502    0 -0.33524377176E+02 -0.58047503642E+02 -0.95981934143E+01  0.67845370225E+02  0.41800000000E+01 0.  1.
         -5    1    3    3    0  502 -0.58460181831E+02  0.38182142574E+02 -0.10494977458E+03  0.12612452758E+03  0.41800000000E+01 0.  1.
        -11    1    1    2    0    0  0.54794460354E+02  0.18511562833E+02 -0.13806920188E+03  0.14969373852E+03  0.00000000000E+00 0. -1.
         11    1    1    2    0    0  0.37190098654E+02  0.13537982350E+01  0.61778859261E+01  0.37724030565E+02  0.00000000000E+00 0.  1.
</event>
<event>
 7    1  0.1312490E-005  0.1085540E+03  0.7561462E-02  0.1263271E+00
         -1   -1    0    0    0  501 -0.00000000000E+00  0.00000000000E+00  0.78571245665E+03  0.78571245665E+03  0.00000000000E+00 0.  1.
          1   -1    0    0  501    0  0.00000000000E+00 -0.00000000000E+00 -0.18885480325E+02  0.18885480325E+02  0.00000000000E+00 0. -1.
         23    2    1    2    0    0 -0.20028582062E+02 -0.17085164876E+02  0.57357886833E+03  0.58765038296E+03  0.12508879824E+03 0.  0.
          5    1    3    3  502    0  0.47717120400E+02  0.18297896000E+02  0.23364386606E+03  0.23920423308E+03  0.41800000000E+01 0. -1.
         -5    1    3    3    0  502 -0.67745702462E+02 -0.35383060875E+02  0.33993500227E+03  0.34844614988E+03  0.41800000000E+01 0. -1.
        -11    1    1    2    0    0  0.15856552173E+02  0.51877657903E+02  0.15879642175E+03  0.16780651119E+03  0.00000000000E+00 0.  1.
         11    1    1    2    0    0  0.41720298899E+01 -0.34792493027E+02  0.34451686239E+02  0.49141042817E+02  0.00000000000E+00 0. -1.
</event>
<event>
 7    1  0.1312490E-005  0.9846978E+02  0.7561462E-02  0.1283547E+00
          3   -1    0    0  501    0  0.00000000000E+00  0.00000000000E+00  0.33803322662E+02  0.33803322662E+02  0.00000000000E+00 0. -1.
         -3   -1    0    0    0  501 -0.00000000000E+00 -0.00000000000E+00 -0.40795923552E+03  0.40795923552E+03  0.00000000000E+00 0.  1.
         23    2    1    2    0    0  0.28273992271E+02  0.38921711155E+02 -0.21524574570E+03  0.25355944244E+03  0.12508933437E+03 0.  0.
          5    1    3    3  502    0 -0.27387801380E+02 -0.48965604881E+01 -0.16307104356E+03  0.16548022727E+03  0.41800000000E+01 0. -1.
         -5    1    3    3    0  502  0.55661793651E+02  0.43818271643E+02 -0.52174702135E+02  0.88079215171E+02  0.41800000000E+01 0. -1.
        -11    1    1    2    0    0 -0.58979065552E+02 -0.27584964890E+02 -0.12576729709E+03  0.14162229160E+03  0.00000000000E+00 0.  1.
         11    1    1    2    0    0  0.30705073281E+02 -0.11336746265E+02 -0.33142870073E+02  0.46580824142E+02  0.00000000000E+00 0. -1.
</event>
<event>
 7    1  0.1312490E-005  0.1114674E+03  0.7561462E-02  0.1257876E+00
          1   -1    0    0  501    0  0.00000000000E+00  0.00000000000E+00  0.21688640843E+03  0.21688640843E+03  0.00000000000E+00 0. -1.
         -1   -1    0    0    0  501 -0.00000000000E+00 -0.00000000000E+00 -0.79503398467E+02  0.79503398467E+02  0.00000000000E+00 0.  1.
         23    2    1    2    0    0  0.48926598905E+02 -0.52793109444E+02  0.68121691448E+02  0.15959011537E+03  0.12509002995E+03 0.  0.
          5    1    3    3  502    0  0.70634871932E+02 -0.56593179398E+02  0.90388974667E+02  0.12798324980E+03  0.41800000000E+01 0. -1.
         -5    1    3    3    0  502 -0.21708273027E+02  0.38000699546E+01 -0.22267283219E+02  0.31606865574E+02  0.41800000000E+01 0. -1.
        -11    1    1    2    0    0 -0.45046042860E+02  0.74927034253E+02  0.73152942790E+02  0.11399368175E+03  0.00000000000E+00 0. -1.
         11    1    1    2    0    0 -0.38805560448E+01 -0.22133924809E+02 -0.38916242741E+01  0.22806009782E+02  0.00000000000E+00 0.  1.
</event>
<event>
 7    1  0.1312490E-005  0.1044870E+03  0.7561462E-02  0.1271134E+00
         -2   -1    0    0    0  501 -0.00000000000E+00  0.00000000000E+00  0.34478986239E+03  0.34478986239E+03  0.00000000000E+00 0.  1.
          2   -1    0    0  501    0  0.00000000000E+00 -0.00000000000E+00 -0.62725433239E+02  0.62725433239E+02  0.00000000000E+00 0. -1.
         23    2    1    2    0    0  0.35234826117E+02  0.66942657571E+02  0.24094978072E+03  0.28182911217E+03  0.12509212311E+03 0.  0.
          5    1    3    3  502    0 -0.22619303501E+02  0.71054063032E+02  0.19131553086E+03  0.20537628274E+03  0.41800000000E+01 0.  1.
         -5    1    3    3    0  502  0.57854129617E+02 -0.41114054607E+01  0.49634249860E+02  0.76452829429E+02  0.41800000000E+01 0.  1.
        -11    1    1    2    0    0 -0.14419718703E+02 -0.18833491780E+02  0.64175480983E+02  0.68418718634E+02  0.00000000000E+00 0.  1.
         11    1    1    2    0    0 -0.20815107414E+02 -0.48109165791E+02 -0.23060832550E+02  0.57267464827E+02  0.00000000000E+00 0. -1.
</event>
<event>
 6    1  0.1312490E-005  0.1882850E+03  0.7561462E-02  0.1160017E+00
          1   -1    0    0  501    0  0.00000000000E+00  0.00000000000E+00  0.44321943784E+03  0.44321943784E+03  0.00000000000E+00 0. -1.
         -1   -1    0    0    0  501 -0.00000000000E+00 -0.00000000000E+00 -0.10058576835E+03  0.10058576835E+03  0.00000000000E+00 0.  1.
          5    1    1    2  502    0  0.11368134077E+03 -0.72286032914E+02  0.41981512792E+02  0.14116882662E+03  0.41800000000E+01 0. -1.
         -5    1    1    2    0  502 -0.39719192918E+02  0.12312651752E+03  0.96194056905E+02  0.16127158022E+03  0.41800000000E+01 0.  1.
        -11    1    1    2    0    0 -0.28474382713E+02  0.15105871491E+02  0.14775853973E+02  0.35458478324E+02  0.00000000000E+00 0.  1.
         11    1    1    2    0    0 -0.45487765137E+02 -0.65946356102E+02  0.18968224582E+03  0.20590632103E+03  0.00000000000E+00 0. -1.
</event>
<event>
 7    1  0.1312490E-005  0.1833625E+03  0.7561462E-02  0.1164588E+00
          2   -1    0    0  501    0  0.00000000000E+00  0.00000000000E+00  0.31174298085E+03  0.31174298085E+03  0.00000000000E+00 0. -1.
         -2   -1    0    0    0  501 -0.00000000000E+00 -0.00000000000E+00 -0.13360878876E+03  0.13360878876E+03  0.00000000000E+00 0.  1.
         23    2    1    2    0    0  0.15391130744E+03  0.15425274566E+01  0.84105743970E+01  0.19852543275E+03  0.12510211724E+03 0.  0.
          5    1    3    3  502    0  0.15093040135E+03  0.34208580837E+02 -0.18467417098E+02  0.15591257470E+03  0.41800000000E+01 0.  1.
         -5    1    3    3    0  502  0.29809060866E+01 -0.32666053380E+02  0.26877991495E+02  0.42612858052E+02  0.41800000000E+01 0.  1.
        -11    1    1    2    0    0 -0.58498151855E+02  0.43921649667E+02  0.61694123269E+02  0.95693834314E+02  0.00000000000E+00 0.  1.
         11    1    1    2    0    0 -0.95413155582E+02 -0.45464177124E+02  0.10802949442E+03  0.15113250254E+03  0.00000000000E+00 0. -1.
</event>
<event>
 7    1  0.1312490E-005  0.7441016E+02  0.7561462E-02  0.1345707E+00
          2   -1    0    0  501    0  0.00000000000E+00  0.00000000000E+00  0.34305911240E+02  0.34305911240E+02  0.00000000000E+00 0.  1.
         -2   -1    0    0    0  501 -0.00000000000E+00 -0.00000000000E+00 -0.41609711661E+03  0.41609711661E+03  0.00000000000E+00 0. -1.
         23    2    1    2    0    0  0.35259048526E+02 -0.34163219952E+01 -0.28446025859E+03  0.31276258281E+03  0.12509165732E+03 0.  0.
          5    1    3    3  502    0  0.22974072198E+01  0.13511180384E+02 -0.27352922184E+03  0.27390424910E+03  0.41800000000E+01 0.  1.
         -5    1    3    3    0  502  0.32961641306E+02 -0.16927502380E+02 -0.10931036751E+02  0.38858333712E+02  0.41800000000E+01 0.  1.
        -11    1    1    2    0    0  0.30626199434E+02  0.62466731862E+01 -0.28158214901E+02  0.42069823913E+02  0.00000000000E+00 0.  1.
         11    1    1    2    0    0 -0.65885247960E+02 -0.28303511910E+01 -0.69172731880E+02  0.95570621125E+02  0.00000000000E+00 0. -1.
</event>
<event>
 7    1  0.1312490E-005  0.1051900E+03  0.7561462E-02  0.1269746E+00
          3   -1    0    0  501    0  0.00000000000E+00  0.00000000000E+00  0.58409283580E+02  0.58409283580E+02  0.00000000000E+00 0. -1.
         -3   -1    0    0    0  501 -0.00000000000E+00 -0.00000000000E+00 -0.38756984255E+03  0.38756984255E+03  0.00000000000E+00 0.  1.
         23    2    1    2    0    0  0.73082336148E+02 -0.43518170256E+02 -0.28199598632E+03  0.32000534177E+03  0.12508726338E+03 0.  0.
          5    1    3    3  502    0  0.68041616410E+02 -0.17082762198E+02 -0.49597848028E+02  0.86016866120E+02  0.41800000000E+01 0. -1.
         -5    1    3    3    0  502  0.50407197376E+01 -0.26435408058E+02 -0.23239813829E+03  0.23398847565E+03  0.41800000000E+01 0. -1.
        -11    1    1    2    0    0 -0.84242753328E+02  0.19627401984E+02 -0.49224406591E+02  0.99524462325E+02  0.00000000000E+00 0.  1.
         11    1    1    2    0    0  0.11160417180E+02  0.23890768272E+02  0.20598339415E+01  0.26449322035E+02  0.00000000000E+00 0. -1.
</event>
<event>
 7    1  0.1312490E-005  0.1127055E+03  0.7561462E-02  0.1255640E+00
          1   -1    0    0  501    0  0.00000000000E+00  0.00000000000E+00  0.32773958593E+03  0.32773958593E+03  0.00000000000E+00 0. -1.
         -1   -1    0    0    0  501 -0.00000000000E+00 -0.00000000000E+00 -0.46974876557E+02  0.46974876557E+02  0.00000000000E+00 0.  1.
         23    2    1    2    0    0  0.30784880468E+02  0.44359561401E+02  0.18808622542E+03  0.23224726846E+03  0.12508751320E+03 0.  0.
          5    1    3    3  502    0  0.26081992211E+02  0.83244446070E+02  0.16473917408E+03  0.18645743749E+03  0.41800000000E+01 0.  1.
         -5    1    3    3    0  502  0.47028882569E+01 -0.38884884670E+02  0.23347051345E+02  0.45789830970E+02  0.41800000000E+01 0.  1.
        -11    1    1    2    0    0  0.28057132015E+02 -0.22316358761E+02  0.64086981200E+02  0.73432715357E+02  0.00000000000E+00 0. -1.
         11    1    1    2    0    0 -0.58842012483E+02 -0.22043202639E+02  0.28591502748E+02  0.69034478669E+02  0.00000000000E+00 0.  1.
</event>
<event>
 7    1  0.1312490E-005  0.1130236E+03  0.7561462E-02  0.1255071E+00
         -1   -1    0    0    0  501 -0.00000000000E+00  0.00000000000E+00  0.59056640612E+03  0.59056640612E+03  0.00000000000E+00 0.  1.
          1   -1    0    0  501    0  0.00000000000E+00 -0.00000000000E+00 -0.28764519659E+02  0.28764519659E+02  0.00000000000E+00 0. -1.
         23    2    1    2    0    0 -0.30039759746E+02  0.63728011818E+02  0.33555403907E+03  0.36497504846E+03  0.12508647489E+03 0.  0.
          5    1    3    3  502    0 -0.34217234462E+01 -0.36597874646E+02  0.12216823945E+03  0.12764663627E+03  0.41800000000E+01 0. -1.
         -5    1    3    3    0  502 -0.26618036299E+02  0.10032588646E+03  0.21338579963E+03  0.23732841219E+03  0.41800000000E+01 0. -1.
        -11    1    1    2    0    0  0.42339250945E+02 -0.39047389236E+02  0.21813642730E+03  0.22561208233E+03  0.00000000000E+00 0.  1.
         11    1    1    2    0    0 -0.12299491199E+02 -0.24680622581E+02  0.81114200843E+01  0.28743794992E+02  0.00000000000E+00 0. -1.
</event>
<event>
 7    1  0.1312490E-005  0.1111790E+03  0.7561462E-02  0.1258402E+00
         -2   -1    0    0    0  501 -0.00000000000E+00  0.00000000000E+00  0.17155980847E+02  0.17155980847E+02  0.00000000000E+00 0. -1.
          2   -1    0    0  501    0  0.00000000000E+00 -0.00000000000E+00 -0.84289564028E+03  0.84289564028E+03  0.00000000000E+00 0.  1.
         23    2    1    2    0    0  0.48761264126E+02 -0.15008694616E+02 -0.46100932553E+03  0.48039512105E+03  0.12508777842E+03 0.  0.
          5    1    3    3  502    0  0.74867223537E+02  0.25369079716E+02 -0.35789518607E+03  0.36654485125E+03  0.41800000000E+01 0.  1.
         -5    1    3    3    0  502 -0.26105959412E+02 -0.40377774333E+02 -0.10311413946E+03  0.11385026980E+03  0.41800000000E+01 0.  1.
        -11    1    1    2    0    0  0.13415024106E+01 -0.28528153856E+02 -0.46441589545E+02  0.54520422143E+02  0.00000000000E+00 0. -1.
         11    1    1    2    0    0 -0.50102766536E+02  0.43536848473E+02 -0.31828874436E+03  0.32513607793E+03  0.00000000000E+00 0.  1.
</event>
<event>
 7    1  0.1312490E-005  0.9405751E+02  0.7561462E-02  0.1293313E+00
          1   -1    0    0  501    0  0.00000000000E+00  0.00000000000E+00  0.96520728272E+02  0.96520728272E+02  0.00000000000E+00 0. -1.
         -1   -1    0    0    0  501 -0.00000000000E+00 -0.00000000000E+00 -0.12812893407E+03  0.12812893407E+03  0.00000000000E+00 0.  1.
         23    2    1    2    0    0  0.39489824553E+01  0.16336462629E+02 -0.62439120315E+02  0.12805737906E+03  0.11053313581E+03 0.  0.
          5    1    3    3  502    0  0.44898691826E+02 -0.12218726113E+02  0.16054089031E+01  0.46746545683E+02  0.41800000000E+01 0. -1.
         -5    1    3    3    0  502 -0.40949709371E+02  0.28555188742E+02 -0.64044529218E+02  0.81310833377E+02  0.41800000000E+01 0.  1.
        -11    1    1    2    0    0  0.37774141451E+02  0.13381030326E+02  0.10065822103E+02  0.41318984856E+02  0.00000000000E+00 0. -1.
         11    1    1    2    0    0 -0.41723123906E+02 -0.29717492955E+02  0.20765092414E+02  0.55273298427E+02  0.00000000000E+00 0.  1.
</event>
<event>
 7    1  0.1312490E-005  0.1036535E+03  0.7561462E-02  0.1272795E+00
         -1   -1    0    0    0  501 -0.00000000000E+00  0.00000000000E+00  0.16934013187E+03  0.16934013187E+03  0.00000000000E+00 0.  1.
          1   -1    0    0  501    0  0.00000000000E+00 -0.00000000000E+00 -0.12135014257E+03  0.12135014257E+03  0.00000000000E+00 0. -1.
         23    2    1    2    0    0  0.24371329159E+02 -0.13668958576E+02  0.11601108839E+03  0.17288439770E+03  0.12509852208E+03 0.  0.
          5    1    3    3  502    0 -0.43898375861E+02 -0.14546333053E+02  0.11264394109E+02  0.47780981396E+02  0.41800000000E+01 0. -1.
         -5    1    3    3    0  502  0.68269705019E+02  0.87737447732E+00  0.10474669428E+03  0.12510341631E+03  0.41800000000E+01 0. -1.
        -11    1    1    2    0    0 -0.37864846150E+02  0.44729680585E+02 -0.26755031333E+02  0.64422997453E+02  0.00000000000E+00 0.  1.
         11    1    1    2    0    0  0.13493516991E+02 -0.31060722009E+02 -0.41266067752E+02  0.53382879280E+02  0.00000000000E+00 0. -1.
</event>
<event>
 7    1  0.1312490E-005  0.9776265E+02  0.7561462E-02  0.1285072E+00
         -2   -1    0    0    0  501 -0.00000000000E+00  0.00000000000E+00  0.25439605827E+03  0.25439605827E+03  0.00000000000E+00 0.  1.
          2   -1    0    0  501    0  0.00000000000E+00 -0.00000000000E+00 -0.84494246302E+02  0.84494246302E+02  0.00000000000E+00 0. -1.
         23    2    1    2    0    0 -0.41876011609E+01  0.58525854569E+02  0.18460141856E+03  0.23058311143E+03  0.12509226949E+03 0.  0.
          5    1    3    3  502    0 -0.54680303278E+02  0.31493682182E+02  0.15180806149E+03  0.16445348132E+03  0.41800000000E+01 0. -1.
         -5    1    3    3    0  502  0.50492702117E+02  0.27032172388E+02  0.32793357066E+02  0.66129630112E+02  0.41800000000E+01 0. -1.
        -11    1    1    2    0    0 -0.20780485194E+02 -0.19292735179E+02 -0.44722136223E+02  0.52953825773E+02  0.00000000000E+00 0. -1.
         11    1    1    2    0    0  0.24968086355E+02 -0.39233119391E+02  0.30022529629E+02  0.55353367366E+02  0.00000000000E+00 0.  1.
</event>
<event>
 7    1  0.1312490E-005  0.2080064E+03  0.7561462E-02  0.1143154E+00
         -1   -1    0    0    0  501 -0.00000000000E+00  0.00000000000E+00  0.90889052586E+02  0.90889052586E+02  0.00000000000E+00 0.  1.
          1   -1    0    0  501    0  0.00000000000E+00 -0.00000000000E+00 -0.51191675214E+03  0.51191675214E+03  0.00000000000E+00 0. -1.
         23    2    1    2    0    0 -0.33547305780E+02 -0.17378900221E+03 -0.14023894889E+03  0.25818526147E+03  0.12515840938E+03 0.  0.
          5    1    3    3  502    0  0.15569046516E+01 -0.18069666156E+03 -0.11625047540E+03  0.21490777762E+03  0.41800000000E+01 0. -1.
         -5    1    3    3    0  502 -0.35104210432E+02  0.69076593478E+01 -0.23988473496E+02  0.43277483850E+02  0.41800000000E+01 0. -1.
        -11    1    1    2    0    0  0.65245957367E+02  0.10726298023E+03 -0.18920216666E+03  0.22706792320E+03  0.00000000000E+00 0.  1.
         11    1    1    2    0    0 -0.31698651587E+02  0.66526021976E+02 -0.91586584008E+02  0.11755262006E+03  0.00000000000E+00 0. -1.
</event>
<event>
 7    1  0.1312490E-005  0.2207124E+03  0.7561462E-02  0.1133353E+00
          1   -1    0    0  501    0  0.00000000000E+00  0.00000000000E+00  0.12566207697E+03  0.12566207697E+03  0.00000000000E+00 0. -1.
         -1   -1    0    0    0  501 -0.00000000000E+00 -0.00000000000E+00 -0.40081573746E+03  0.40081573746E+03  0.00000000000E+00 0.  1.
         23    2    1    2    0    0 -0.15655952031E+03  0.11502915836E+03 -0.16807280636E+03  0.28572293988E+03  0.12508612818E+03 0.  0.
          5    1    3    3  502    0 -0.14489344422E+03  0.39868349925E+02 -0.83762315857E+02  0.17209646557E+03  0.41800000000E+01 0.  1.
         -5    1    3    3    0  502 -0.11666076094E+02  0.75160808438E+02 -0.84310490502E+02  0.11362647431E+03  0.41800000000E+01 0.  1.
        -11    1    1    2    0    0  0.13724515268E+03 -0.48382105443E+02 -0.81564557654E+02  0.16682277160E+03  0.00000000000E+00 0.  1.
         11    1    1    2    0    0  0.19314367638E+02 -0.66647052921E+02 -0.25516296476E+02  0.73932102947E+02  0.00000000000E+00 0. -1.
</event>
<event>
 7    1  0.1312490E-005  0.3397233E+03  0.7561462E-02  0.1066914E+00
          2   -1    0    0  501    0  0.00000000000E+00  0.00000000000E+00  0.20674545811E+04  0.20674545811E+04  0.00000000000E+00 0. -1.
         -2   -1    0    0    0  501 -0.00000000000E+00 -0.00000000000E+00 -0.10895476090E+03  0.10895476090E+03  0.00000000000E+00 0.  1.
         23    2    1    2    0    0 -0.22339177476E+03 -0.23251991215E+03  0.22904693142E+03  0.41483007575E+03  0.12510835453E+03 0.  0.
          5    1    3    3  502    0 -0.16052781809E+03 -0.23129644218E+03  0.20040910468E+03  0.34561323207E+03  0.41800000000E+01 0.  1.
         -5    1    3    3    0  502 -0.62863956676E+02 -0.12234699685E+01  0.28637826742E+02  0.69216843674E+02  0.41800000000E+01 0.  1.
        -11    1    1    2    0    0  0.12262647730E+03  0.63533539478E+02  0.70028694667E+03  0.71377557485E+03  0.00000000000E+00 0.  1.
         11    1    1    2    0    0  0.10076529746E+03  0.16898637267E+03  0.10291659421E+04  0.10478036914E+04  0.00000000000E+00 0. -1.
</event>
<event>
 7    1  0.1312490E-005  0.1247106E+03  0.7561462E-02  0.1235522E+00
          2   -1    0    0  501    0  0.00000000000E+00  0.00000000000E+00  0.91372852928E+02  0.91372852928E+02  0.00000000000E+00 0. -1.
         -2   -1    0    0    0  501 -0.00000000000E+00 -0.00000000000E+00 -0.24657892484E+03  0.24657892484E+03  0.00000000000E+00 0.  1.
         23    2    1    2    0    0  0.57989424436E+02  0.67800492153E+02 -0.14362477835E+03  0.21032130892E+03  0.12508915199E+03 0.  0.
          5    1    3    3  502    0  0.55543570196E+02  0.94482132903E+02 -0.65788942109E+02  0.12789690744E+03  0.41800000000E+01 0. -1.
         -5    1    3    3    0  502  0.24458542407E+01 -0.26681640750E+02 -0.77835836244E+02  0.82424401484E+02  0.41800000000E+01 0. -1.
        -11    1    1    2    0    0 -0.49796852507E+02 -0.58550308901E+01  0.24147804068E+02  0.55651813516E+02  0.00000000000E+00 0. -1.
         11    1    1    2    0    0 -0.81925719293E+01 -0.61945461263E+02 -0.35729097624E+02  0.71978655329E+02  0.00000000000E+00 0.  1.
</event>
<event>
 7    1  0.1312490E-005  0.1172620E+03  0.7561462E-02  0.1247683E+00
         -4   -1    0    0    0  501 -0.00000000000E+00  0.00000000000E+00  0.27055370699E+03  0.27055370699E+03  0.00000000000E+00 0.  1.
          4   -1    0    0  501    0  0.00000000000E+00 -0.00000000000E+00 -0.66786230449E+02  0.66786230449E+02  0.00000000000E+00 0. -1.
         23    2    1    2    0    0 -0.12755223153E+02 -0.78045042102E+02  0.11739758532E+03  0.18889891060E+03  0.12508749368E+03 0.  0.
          5    1    3    3  502    0  0.16936741220E+02 -0.98532481497E+02  0.48909288395E+02  0.11137815766E+03  0.41800000000E+01 0. -1.
         -5    1    3    3    0  502 -0.29691964373E+02  0.20487439395E+02  0.68488296922E+02  0.77520752941E+02  0.41800000000E+01 0. -1.
        -11    1    1    2    0    0 -0.15513546657E+02  0.65330309846E+02  0.94936293026E+02  0.11628249760E+03  0.00000000000E+00 0. -1.
         11    1    1    2    0    0  0.28268769810E+02  0.12714732257E+02 -0.85664018002E+01  0.32158529238E+02  0.00000000000E+00 0.  1.
</event>
<event>
 7    1  0.1312490E-005  0.9450758E+02  0.7561462E-02  0.1292289E+00
          3   -1    0    0  501    0  0.00000000000E+00  0.00000000000E+00  0.38159595393E+03  0.38159595393E+03  0.00000000000E+00 0. -1.
         -3   -1    0    0    0  501 -0.00000000000E+00 -0.00000000000E+00 -0.41050536761E+02  0.41050536761E+02  0.00000000000E+00 0.  1.
         23    2    1    2    0    0 -0.34300043892E+01 -0.54527532089E+02  0.13928300466E+03  0.19501847318E+03  0.12508969905E+03 0.  0.
          5    1    3    3  502    0  0.45406027628E+02 -0.28377746325E+02  0.12732971899E+03  0.13819310246E+03  0.41800000000E+01 0.  1.
         -5    1    3    3    0  502 -0.48836032017E+02 -0.26149785764E+02  0.11953285678E+02  0.56825370717E+02  0.41800000000E+01 0.  1.
        -11    1    1    2    0    0  0.30794655552E+02  0.30387384980E+02  0.30309552038E+02  0.52823980550E+02  0.00000000000E+00 0.  1.
         11    1    1    2    0    0 -0.27364651163E+02  0.24140147109E+02  0.17095286047E+03  0.17480403696E+03  0.00000000000E+00 0. -1.
</event>
<event>
 7    1  0.1312490E-005  0.1137089E+03  0.7561462E-02  0.1253852E+00
         -2   -1    0    0    0  501 -0.00000000000E+00  0.00000000000E+00  0.10329524202E+03  0.10329524202E+03  0.00000000000E+00 0.  1.
          2   -1    0    0  501    0  0.00000000000E+00 -0.00000000000E+00 -0.12884689419E+03  0.12884689419E+03  0.00000000000E+00 0. -1.
         23    2    1    2    0    0 -0.37206023884E+02  0.44315245943E+01 -0.30243859266E+02  0.13403945724E+03  0.12509180010E+03 0.  0.
          5    1    3    3  502    0 -0.36245346559E+02 -0.57711588486E+02 -0.14822156821E+02  0.69867884794E+02  0.41800000000E+01 0.  1.
         -5    1    3    3    0  502 -0.96067732454E+00  0.62143113080E+02 -0.15421702445E+02  0.64171572449E+02  0.41800000000E+01 0.  1.
        -11    1    1    2    0    0  0.47432270905E+02  0.33171414597E+02  0.10117357235E+02  0.58758182298E+02  0.00000000000E+00 0.  1.
         11    1    1    2    0    0 -0.10226247021E+02 -0.37602939191E+02 -0.54251501380E+01  0.39344496667E+02  0.00000000000E+00 0. -1.
</event>
<event>
 7    1  0.1312490E-005  0.1308561E+03  0.7561462E-02  0.1226191E+00
          2   -1    0    0  501    0  0.00000000000E+00  0.00000000000E+00  0.82105675336E+02  0.82105675336E+02  0.00000000000E+00 0. -1.
         -2   -1    0    0    0  501 -0.00000000000E+00 -0.00000000000E+00 -0.39357010410E+03  0.39357010410E+03  0.00000000000E+00 0.  1.
         23    2    1    2    0    0  0.79418879765E+02 -0.80481902368E+02 -0.23755544434E+03  0.29131497180E+03  0.12508848305E+03 0.  0.
          5    1    3    3  502    0  0.50957953134E+02 -0.15968337360E+02 -0.20792828527E+03  0.21471689501E+03  0.41800000000E+01 0. -1.
         -5    1    3    3    0  502  0.28460926631E+02 -0.64513565008E+02 -0.29627159066E+02  0.76598076797E+02  0.41800000000E+01 0. -1.
        -11    1    1    2    0    0 -0.23600999835E+02  0.78159363908E+02 -0.94442122341E+02  0.12484072986E+03  0.00000000000E+00 0.  1.
         11    1    1    2    0    0 -0.55817879930E+02  0.23225384603E+01  0.20533137918E+02  0.59520077768E+02  0.00000000000E+00 0. -1.
</event>
<event>
 7    1  0.1312490E-005  0.9585644E+02  0.7561462E-02  0.1289259E+00
         -1   -1    0    0    0  501 -0.00000000000E+00  0.00000000000E+00  0.27807138309E+02  0.27807138309E+02  0.00000000000E+00 0.  1.
          1   -1    0    0  501    0  0.00000000000E+00 -0.00000000000E+00 -0.58495825588E+03  0.58495825588E+03  0.00000000000E+00 0. -1.
         23    2    1    2    0    0  0.37718474149E+02 -0.47708586972E+02 -0.33777214317E+03  0.36528344973E+03  0.12507272038E+03 0.  0.
          5    1    3    3  502    0 -0.51872088395E+01  0.19609091739E+02 -0.23088001926E+03  0.23180698719E+03  0.41800000000E+01 0. -1.
         -5    1    3    3    0  502  0.42905682989E+02 -0.67317678711E+02 -0.10689212391E+03  0.13347646254E+03  0.41800000000E+01 0. -1.
        -11    1    1    2    0    0 -0.54234930375E+02  0.18124918846E+02 -0.53941624073E+02  0.78610680977E+02  0.00000000000E+00 0.  1.
         11    1    1    2    0    0  0.16516456226E+02  0.29583668126E+02 -0.16543735033E+03  0.16887126348E+03  0.00000000000E+00 0. -1.
</event>
<event>
 7    1  0.1312490E-005  0.1234543E+03  0.7561462E-02  0.1237505E+00
         -2   -1    0    0    0  501 -0.00000000000E+00  0.00000000000E+00  0.35702213241E+03  0.35702213241E+03  0.00000000000E+00 0.  1.
          2   -1    0    0  501    0  0.00000000000E+00 -0.00000000000E+00 -0.11711406988E+03  0.11711406988E+03  0.00000000000E+00 0. -1.
         23    2    1    2    0    0 -0.54966353892E+02  0.47815135174E+02  0.30553548155E+03  0.33809376555E+03  0.12509147295E+03 0.  0.
          5    1    3    3  502    0  0.49798477469E+01  0.71242027637E+02  0.21748370123E+03  0.22894728233E+03  0.41800000000E+01 0.  1.
         -5    1    3    3    0  502 -0.59946201639E+02 -0.23426892463E+02  0.88051780324E+02  0.10914648322E+03  0.41800000000E+01 0.  1.
        -11    1    1    2    0    0 -0.15285834256E+01 -0.54017630330E+02 -0.71736012833E+01  0.54513314971E+02  0.00000000000E+00 0.  1.
         11    1    1    2    0    0  0.56494937318E+02  0.62024951567E+01 -0.58453817739E+02  0.81529121772E+02  0.00000000000E+00 0. -1.
</event>
<event>
 7    1  0.1312490E-005  0.1319443E+03  0.7561462E-02  0.1224599E+00
          1   -1    0    0  501    0  0.00000000000E+00  0.00000000000E+00  0.10161317408E+04  0.10161317408E+04  0.00000000000E+00 0. -1.
         -1   -1    0    0    0  501 -0.00000000000E+00 -0.00000000000E+00 -0.19206758371E+02  0.19206758371E+02  0.00000000000E+00 0.  1.
         23    2    1    2    0    0 -0.43313503947E+02  0.56839522141E+02  0.39012921864E+03  0.41587812153E+03  0.12508802431E+03 0.  0.
          5    1    3    3  502    0  0.41025669986E+02  0.77529149117E+01  0.16912456734E+03  0.17425213044E+03  0.41800000000E+01 0. -1.
         -5    1    3    3    0  502 -0.84339173933E+02  0.49086607229E+02  0.22100465131E+03  0.24162599109E+03  0.41800000000E+01 0. -1.
        -11    1    1    2    0    0  0.17493483385E+02 -0.84572590082E+02  0.39923957804E+03  0.40847372697E+03  0.00000000000E+00 0.  1.
         11    1    1    2    0    0  0.25820020562E+02  0.27733067941E+02  0.20755618578E+03  0.21098665070E+03  0.00000000000E+00 0. -1.
</event>
<event>
 7    1  0.1312490E-005  0.1119094E+03  0.7561462E-02  0.1257074E+00
          1   -1    0    0  501    0  0.00000000000E+00  0.00000000000E+00  0.29285080102E+03  0.29285080102E+03  0.00000000000E+00 0. -1.
         -1   -1    0    0    0  501 -0.00000000000E+00 -0.00000000000E+00 -0.87587878992E+02  0.87587878992E+02  0.00000000000E+00 0.  1.
         23    2    1    2    0    0 -0.97032969434E+02  0.93728445353E+00  0.32268453185E+02  0.16154694153E+03  0.12505952817E+03 0.  0.
          5    1    3    3  502    0 -0.50584682704E+02 -0.24135995134E+01 -0.47193665064E+02  0.69349477352E+02  0.41800000000E+01 0.  1.
         -5    1    3    3    0  502 -0.46448286730E+02  0.33508839669E+01  0.79462118249E+02  0.92197464174E+02  0.41800000000E+01 0.  1.
        -11    1    1    2    0    0  0.95221249671E+02 -0.27900055042E+02  0.99210520262E+02  0.14031474189E+03  0.00000000000E+00 0.  1.
         11    1    1    2    0    0  0.18117197628E+01  0.26962770588E+02  0.73783948579E+02  0.78576996597E+02  0.00000000000E+00 0. -1.
</event>
<event>
 7    1  0.1312490E-005  0.1137523E+03  0.7561462E-02  0.1253775E+00
          2   -1    0    0  501    0  0.00000000000E+00  0.00000000000E+00  0.16016242401E+03  0.16016242401E+03  0.00000000000E+00 0. -1.
         -2   -1    0    0    0  501 -0.00000000000E+00 -0.00000000000E+00 -0.95129903043E+02  0.95129903043E+02  0.00000000000E+00 0.  1.
         23    2    1    2    0    0  0.45747766649E+02 -0.33619908021E+02  0.13935386198E+02  0.13807669531E+03  0.12509125641E+03 0.  0.
          5    1    3    3  502    0  0.43575636641E+02 -0.73841866731E+02  0.34671143784E+02  0.92579792624E+02  0.41800000000E+01 0. -1.
         -5    1    3    3    0  502  0.21721300081E+01  0.40221958710E+02 -0.20735757587E+02  0.45496902685E+02  0.41800000000E+01 0. -1.
        -11    1    1    2    0    0 -0.68296728187E+02  0.38056489150E+02  0.52526278133E+02  0.94189964125E+02  0.00000000000E+00 0. -1.
         11    1    1    2    0    0  0.22548961538E+02 -0.44365811289E+01 -0.14291433640E+01  0.23025667619E+02  0.00000000000E+00 0.  1.
</event>
<event>
 7    1  0.1312490E-005  0.1175583E+03  0.7561462E-02  0.1247180E+00
         -1   -1    0    0    0  501 -0.00000000000E+00  0.00000000000E+00  0.36177674326E+03  0.36177674326E+03  0.00000000000E+00 0.  1.
          1   -1    0    0  501    0  0.00000000000E+00 -0.00000000000E+00 -0.55883872520E+02  0.55883872520E+02  0.00000000000E+00 0. -1.
         23    2    1    2    0    0  0.43448355727E+02 -0.30373916365E+02  0.27808256171E+03  0.30949421312E+03  0.12508566031E+03 0.  0.
          5    1    3    3  502    0  0.10806547213E+02  0.46997567132E+02  0.13649598350E+03  0.14482464808E+03  0.41800000000E+01 0.  1.
         -5    1    3    3    0  502  0.32641808514E+02 -0.77371483497E+02  0.14158657822E+03  0.16466956505E+03  0.41800000000E+01 0.  1.
        -11    1    1    2    0    0 -0.66243380708E+02  0.40550309280E+02  0.29647774845E+02  0.83135453469E+02  0.00000000000E+00 0.  1.
         11    1    1    2    0    0  0.22795024981E+02 -0.10176392914E+02 -0.18374658209E+01  0.25030949188E+02  0.00000000000E+00 0. -1.
</event>
<event>
 7    1  0.1312490E-005  0.1172360E+03  0.7561462E-02  0.1247728E+00
          2   -1    0    0  501    0  0.00000000000E+00  0.00000000000E+00  0.16966229975E+03  0.16966229975E+03  0.00000000000E+00 0. -1.
         -2   -1    0    0    0  501 -0.00000000000E+00 -0.00000000000E+00 -0.11707542260E+03  0.11707542260E+03  0.00000000000E+00 0.  1.
         23    2    1    2    0    0  0.72068919922E+02  0.20097285794E+02 -0.22720415413E+02  0.14751898237E+03  0.12509117782E+03 0.  0.
          5    1    3    3  502    0  0.84977243238E+01 -0.46649029976E+02  0.11734117876E+02  0.49025556995E+02  0.41800000000E+01 0.  1.
         -5    1    3    3    0  502  0.63571195598E+02  0.66746315770E+02 -0.34454533289E+02  0.98493425378E+02  0.41800000000E+01 0.  1.
        -11    1    1    2    0    0 -0.48285433553E+02 -0.40687933476E+02  0.63950033800E+01  0.63465637097E+02  0.00000000000E+00 0.  1.
         11    1    1    2    0    0 -0.23783486369E+02  0.20590647682E+02  0.68912289181E+02  0.75753102880E+02  0.00000000000E+00 0. -1.
</event>
<event>
 7    1  0.1312490E-005  0.1431473E+03  0.7561462E-02  0.1209156E+00
          1   -1    0    0  501    0  0.00000000000E+00  0.00000000000E+00  0.16656575592E+03  0.16656575592E+03  0.00000000000E+00 0. -1.
         -1   -1    0    0    0  501 -0.00000000000E+00 -0.00000000000E+00 -0.19481915067E+03  0.19481915067E+03  0.00000000000E+00 0.  1.
         23    2    1    2    0    0  0.79276178409E+02  0.85304555975E+02 -0.97966164423E+02  0.19699361751E+03  0.12509011246E+03 0.  0.
          5    1    3    3  502    0  0.16160672464E+02  0.92437042957E+02 -0.94503724099E+02  0.13324488926E+03  0.41800000000E+01 0. -1.
         -5    1    3    3    0  502  0.63115505945E+02 -0.71324869814E+01 -0.34624403243E+01  0.63748728256E+02  0.41800000000E+01 0. -1.
        -11    1    1    2    0    0 -0.27401321623E+02  0.16545301321E+01 -0.15960157788E+02  0.31753685349E+02  0.00000000000E+00 0.  1.
         11    1    1    2    0    0 -0.51874856786E+02 -0.86959086108E+02  0.85672927458E+02  0.13263760373E+03  0.00000000000E+00 0. -1.
</event>
<event>
 7    1  0.1312490E-005  0.8028329E+02  0.7561462E-02  0.1328249E+00
          1   -1    0    0  501    0  0.00000000000E+00  0.00000000000E+00  0.17469697057E+02  0.17469697057E+02  0.00000000000E+00 0. -1.
         -1   -1    0    0    0  501 -0.00000000000E+00 -0.00000000000E+00 -0.12459788379E+04  0.12459788379E+04  0.00000000000E+00 0.  1.
         23    2    1    2    0    0 -0.61941045761E+01 -0.55552179398E+02 -0.10236334408E+04  0.10327622051E+04  0.12509172426E+03 0.  0.
          5    1    3    3  502    0 -0.86166395744E+01 -0.57680647080E+02 -0.10254978052E+04  0.10271633387E+04  0.41800000000E+01 0.  1.
         -5    1    3    3    0  502  0.24225349983E+01  0.21284676820E+01  0.18643643394E+01  0.55988663926E+01  0.41800000000E+01 0.  1.
        -11    1    1    2    0    0 -0.36430947702E+02  0.29346164775E+02 -0.14656800485E+03  0.15385249878E+03  0.00000000000E+00 0.  1.
         11    1    1    2    0    0  0.42625052278E+02  0.26206014622E+02 -0.58307695130E+02  0.76833831060E+02  0.00000000000E+00 0. -1.
</event>
<event>
 7    1  0.1312490E-005  0.1121614E+03  0.7561462E-02  0.1256619E+00
          1   -1    0    0  501    0  0.00000000000E+00  0.00000000000E+00  0.33249872343E+03  0.33249872343E+03  0.00000000000E+00 0. -1.
         -1   -1    0    0    0  501 -0.00000000000E+00 -0.00000000000E+00 -0.41163573180E+02  0.41163573180E+02  0.00000000000E+00 0.  1.
         23    2    1    2    0    0  0.37394452440E+02  0.66306494979E+01  0.20196093041E+03  0.24057794846E+03  0.12508885357E+03 0.  0.
          5    1    3    3  502    0  0.57341844532E+02 -0.43275576168E+02  0.14658659134E+03  0.16329716405E+03  0.41800000000E+01 0.  1.
         -5    1    3    3    0  502 -0.19947392092E+02  0.49906225666E+02  0.55374339069E+02  0.77280784408E+02  0.41800000000E+01 0.  1.
        -11    1    1    2    0    0 -0.66738661509E+02  0.49184613422E+01  0.57227627876E+02  0.88052493402E+02  0.00000000000E+00 0. -1.
         11    1    1    2    0    0  0.29344209069E+02 -0.11549110840E+02  0.32146591972E+02  0.45031854753E+02  0.00000000000E+00 0.  1.
</event>
<event>
 7    1  0.1312490E-005  0.1855522E+03  0.7561462E-02  0.1162535E+00
         -1   -1    0    0    0  501 -0.00000000000E+00  0.00000000000E+00  0.27708674246E+02  0.27708674246E+02  0.00000000000E+00 0.  1.
          1   -1    0    0  501    0  0.00000000000E+00 -0.00000000000E+00 -0.15901153852E+04  0.15901153852E+04  0.00000000000E+00 0. -1.
         23    2    1    2    0    0 -0.11534504195E+03  0.13683134501E+03 -0.75517421209E+03  0.78610646887E+03  0.12509194265E+03 0.  0.
          5    1    3    3  502    0 -0.11768692073E+03  0.10759069872E+03 -0.41428429518E+03  0.44393121021E+03  0.41800000000E+01 0. -1.
         -5    1    3    3    0  502  0.23418787770E+01  0.29240646288E+02 -0.34088991691E+03  0.34217525866E+03  0.41800000000E+01 0. -1.
        -11    1    1    2    0    0  0.21228804639E+02 -0.48268612958E+02 -0.10286717442E+03  0.11559488188E+03  0.00000000000E+00 0. -1.
         11    1    1    2    0    0  0.94116237316E+02 -0.88562732050E+02 -0.70436532448E+03  0.71612270874E+03  0.00000000000E+00 0.  1.
</event>
<event>
 7    1  0.1312490E-005  0.8978495E+02  0.7561462E-02  0.1303373E+00
          2   -1    0    0  501    0  0.00000000000E+00  0.00000000000E+00  0.11697006376E+03  0.11697006376E+03  0.00000000000E+00 0. -1.
         -2   -1    0    0    0  501 -0.00000000000E+00 -0.00000000000E+00 -0.11902153287E+03  0.11902153287E+03  0.00000000000E+00 0.  1.
         23    2    1    2    0    0  0.12694670501E+02 -0.83728413958E+01 -0.51683745895E+02  0.13143072339E+03  0.11988146783E+03 0.  0.
          5    1    3    3  502    0 -0.36844937951E+02 -0.13734714311E+02  0.19776498202E+02  0.44212827448E+02  0.41800000000E+01 0. -1.
         -5    1    3    3    0  502  0.49539608452E+02  0.53618729150E+01 -0.71460244097E+02  0.87217895945E+02  0.41800000000E+01 0.  1.
        -11    1    1    2    0    0 -0.39488169201E+02  0.34620014885E+02  0.39490170883E+02  0.65706426884E+02  0.00000000000E+00 0. -1.
         11    1    1    2    0    0  0.26793498699E+02 -0.26247173490E+02  0.10142105901E+02  0.38854446346E+02  0.00000000000E+00 0.  1.
</event>
<event>
 7    1  0.1312490E-005  0.1602119E+03  0.7561462E-02  0.1188458E+00
         -2   -1    0    0    0  501 -0.00000000000E+00  0.00000000000E+00  0.27799894795E+02  0.27799894795E+02  0.00000000000E+00 0.  1.
          2   -1    0    0  501    0  0.00000000000E+00 -0.00000000000E+00 -0.12821763713E+04  0.12821763713E+04  0.00000000000E+00 0. -1.
         23    2    1    2    0    0  0.14507325168E+03  0.37890140687E+02 -0.77982596195E+03  0.80390183395E+03  0.12509083333E+03 0.  0.
          5    1    3    3  502    0  0.63912314387E+02  0.52876392197E+02 -0.60329919631E+03  0.60898940012E+03  0.41800000000E+01 0.  1.
         -5    1    3    3    0  502  0.81160937296E+02 -0.14986251510E+02 -0.17652676563E+03  0.19491243383E+03  0.41800000000E+01 0.  1.
        -11    1    1    2    0    0 -0.38764395574E+02 -0.28287594928E+02 -0.54238258062E+02  0.72419990532E+02  0.00000000000E+00 0.  1.
         11    1    1    2    0    0 -0.10630885611E+03 -0.96025457592E+01 -0.42031225649E+03  0.43365444161E+03  0.00000000000E+00 0. -1.
</event>
<event>
 7    1  0.1312490E-005  0.7564355E+02  0.7561462E-02  0.1341890E+00
          1   -1    0    0  501    0  0.00000000000E+00  0.00000000000E+00  0.13593545990E+03  0.13593545990E+03  0.00000000000E+00 0. -1.
         -1   -1    0    0    0  501 -0.00000000000E+00 -0.00000000000E+00 -0.10939655330E+03  0.10939655330E+03  0.00000000000E+00 0.  1.
         23    2    1    2    0    0 -0.20185762315E+02  0.37411688532E+01 -0.35211346231E+02  0.13155366292E+03  0.12508023816E+03 0.  0.
          5    1    3    3  502    0 -0.40409452982E+02 -0.26049740102E+02 -0.67521834189E+02  0.82995080227E+02  0.41800000000E+01 0.  1.
         -5    1    3    3    0  502  0.20223690667E+02  0.29790908955E+02  0.32310487958E+02  0.48558582688E+02  0.41800000000E+01 0.  1.
        -11    1    1    2    0    0  0.14596870613E+02  0.29583547653E+02 -0.99988016271E+01  0.34470726093E+02  0.00000000000E+00 0.  1.
         11    1    1    2    0    0  0.55888917022E+01 -0.33324716506E+02  0.71749054455E+02  0.79307624197E+02  0.00000000000E+00 0. -1.
</event>
<event>
 7    1  0.1312490E-005  0.2182120E+03  0.7561462E-02  0.1135223E+00
          1   -1    0    0  501    0  0.00000000000E+00  0.00000000000E+00  0.32992488801E+03  0.32992488801E+03  0.00000000000E+00 0. -1.
         -1   -1    0    0    0  501 -0.00000000000E+00 -0.00000000000E+00 -0.16403943718E+03  0.16403943718E+03  0.00000000000E+00 0.  1.
         23    2    1    2    0    0  0.66775393041E+02 -0.19651168944E+03  0.10432457651E+03  0.26383173553E+03  0.12509104767E+03 0.  0.
          5    1    3    3  502    0  0.66062173622E+02 -0.10397282638E+03  0.11746952200E+03  0.17026779028E+03  0.41800000000E+01 0.  1.
         -5    1    3    3    0  502  0.71321941894E+00 -0.92538863060E+02 -0.13144945487E+02  0.93563945247E+02  0.41800000000E+01 0.  1.
        -11    1    1    2    0    0 -0.41440808074E+02  0.27737490502E+02  0.40212454402E+01  0.50028785395E+02  0.00000000000E+00 0.  1.
         11    1    1    2    0    0 -0.25334584966E+02  0.16877419894E+03  0.57539628871E+02  0.18010380427E+03  0.00000000000E+00 0. -1.
</event>
<event>
 7    1  0.1312490E-005  0.1550442E+03  0.7561462E-02  0.1194408E+00
          2   -1    0    0  501    0  0.00000000000E+00  0.00000000000E+00  0.27923801216E+03  0.27923801216E+03  0.00000000000E+00 0. -1.
         -2   -1    0    0    0  501 -0.00000000000E+00 -0.00000000000E+00 -0.14058967961E+03  0.14058967961E+03  0.00000000000E+00 0.  1.
         23    2    1    2    0    0  0.13773151345E+03 -0.39809934117E+02 -0.14869851533E+02  0.19086406386E+03  0.12511266017E+03 0.  0.
          5    1    3    3  502    0  0.12478240672E+03 -0.36921447342E+02  0.38452804266E+02  0.13575688880E+03  0.41800000000E+01 0. -1.
         -5    1    3    3    0  502  0.12949106726E+02 -0.28884867750E+01 -0.53322655798E+02  0.55107175052E+02  0.41800000000E+01 0. -1.
        -11    1    1    2    0    0 -0.11424638757E+03 -0.61038200863E+01  0.81868045926E+02  0.14068358339E+03  0.00000000000E+00 0. -1.
         11    1    1    2    0    0 -0.23485125882E+02  0.45913754204E+02  0.71650138156E+02  0.88280044521E+02  0.00000000000E+00 0.  1.
</event>
<event>
 7    1  0.1312490E-005  0.6472197E+02  0.7561462E-02  0.1379020E+00
          1   -1    0    0  501    0  0.00000000000E+00  0.00000000000E+00  0.37886442116E+03  0.37886442116E+03  0.00000000000E+00 0. -1.
         -1   -1    0    0    0  501 -0.00000000000E+00 -0.00000000000E+00 -0.43392949342E+02  0.43392949342E+02  0.00000000000E+00 0.  1.
         23    2    1    2    0    0 -0.18029044049E+02  0.38479329232E+02  0.98610194769E+02  0.16485373872E+03  0.12508828663E+03 0.  0.
          5    1    3    3  502    0 -0.15377790414E+02  0.77180968467E+01 -0.28735067736E+02  0.33752362506E+02  0.41800000000E+01 0. -1.
         -5    1    3    3    0  502 -0.26512536354E+01  0.30761232385E+02  0.12734526251E+03  0.13110137622E+03  0.41800000000E+01 0. -1.
        -11    1    1    2    0    0  0.39892495781E+02 -0.42566931603E+02  0.22450243304E+03  0.23195839568E+03  0.00000000000E+00 0. -1.
         11    1    1    2    0    0 -0.21863451732E+02  0.40876023708E+01  0.12358844007E+02  0.25445236095E+02  0.00000000000E+00 0.  1.
</event>
<event>
 7    1  0.1312490E-005  0.1721594E+03  0.7561462E-02  0.1175614E+00
          1   -1    0    0  501    0  0.00000000000E+00  0.00000000000E+00  0.96286984201E+03  0.96286984201E+03  0.00000000000E+00 0. -1.
         -1   -1    0    0    0  501 -0.00000000000E+00 -0.00000000000E+00 -0.31462486534E+02  0.31462486534E+02  0.00000000000E+00 0.  1.
         23    2    1    2    0    0 -0.85377264030E+02 -0.10596963655E+03  0.42729250345E+03  0.46555889818E+03  0.12508942034E+03 0.  0.
          5    1    3    3  502    0  0.74869111013E+01 -0.90137151887E+02  0.20908145779E+03  0.22784487789E+03  0.41800000000E+01 0.  1.
         -5    1    3    3    0  502 -0.92864175132E+02 -0.15832484665E+02  0.21821104566E+03  0.23771402029E+03  0.41800000000E+01 0.  1.
        -11    1    1    2    0    0  0.99366876794E+02  0.71910751610E+02  0.37910870158E+03  0.39845745069E+03  0.00000000000E+00 0.  1.
         11    1    1    2    0    0 -0.13989612764E+02  0.34058884942E+02  0.12500615045E+03  0.13031597967E+03  0.00000000000E+00 0. -1.
</event>
<event>
 7    1  0.1312490E-005  0.1314516E+03  0.7561462E-02  0.1225318E+00
         -1   -1    0    0    0  501 -0.00000000000E+00  0.00000000000E+00  0.53453829859E+03  0.53453829859E+03  0.00000000000E+00 0.  1.
          1   -1    0    0  501    0  0.00000000000E+00 -0.00000000000E+00 -0.40091174400E+02  0.40091174400E+02  0.00000000000E+00 0. -1.
         23    2    1    2    0    0  0.22443351978E+02  0.90203538167E+02  0.32505447628E+03  0.36048149546E+03  0.12508442616E+03 0.  0.
          5    1    3    3  502    0 -0.51936708644E+02  0.32159469434E+02  0.11968766321E+03  0.13444055304E+03  0.41800000000E+01 0. -1.
         -5    1    3    3    0  502  0.74380060622E+02  0.58044068733E+02  0.20536681308E+03  0.22604094241E+03  0.41800000000E+01 0. -1.
        -11    1    1    2    0    0 -0.39432031501E+02 -0.73490988833E+02  0.17100835353E+03  0.19026210217E+03  0.00000000000E+00 0.  1.
         11    1    1    2    0    0  0.16988679523E+02 -0.16712549334E+02 -0.16157056171E+01  0.23885875362E+02  0.00000000000E+00 0. -1.
</event>
<event>
 7    1  0.1312490E-005  0.1059782E+03  0.7561462E-02  0.1268204E+00
         -1   -1    0    0    0  501 -0.00000000000E+00  0.00000000000E+00  0.86334592222E+02  0.86334592222E+02  0.00000000000E+00 0.  1.
          1   -1    0    0  501    0  0.00000000000E+00 -0.00000000000E+00 -0.28892051508E+03  0.28892051508E+03  0.00000000000E+00 0. -1.
         23    2    1    2    0    0  0.38785892368E+02 -0.22601172970E+02  0.19247549195E+02  0.13428840715E+03  0.12509096562E+03 0.  0.
          5    1    3    3  502    0  0.46396830658E+01 -0.64225799641E+02 -0.19971691964E+02  0.67548655637E+02  0.41800000000E+01 0.  1.
         -5    1    3    3    0  502  0.34146209302E+02  0.41624626670E+02  0.39219241159E+02  0.66739751515E+02  0.41800000000E+01 0.  1.
        -11    1    1    2    0    0  0.26294474385E+01  0.45854987094E+02 -0.94702361523E+02  0.10525270122E+03  0.00000000000E+00 0.  1.
         11    1    1    2    0    0 -0.41415339806E+02 -0.23253814123E+02 -0.12713111053E+03  0.13571399894E+03  0.00000000000E+00 0. -1.
</event>
<event>
 7    1  0.1312490E-005  0.2034065E+03  0.7561462E-02  0.1146896E+00
         -3   -1    0    0    0  501 -0.00000000000E+00  0.00000000000E+00  0.26814768430E+03  0.26814768430E+03  0.00000000000E+00 0.  1.
          3   -1    0    0  501    0  0.00000000000E+00 -0.00000000000E+00 -0.19454697302E+03  0.19454697302E+03  0.00000000000E+00 0. -1.
         23    2    1    2    0    0  0.12965577031E+03  0.14368597209E+03  0.95708355522E+02  0.24952766498E+03  0.12509072277E+03 0.  0.
          5    1    3    3  502    0  0.67734108004E+02  0.33055089361E+02 -0.19722215136E+02  0.78019141815E+02  0.41800000000E+01 0. -1.
         -5    1    3    3    0  502  0.61921662310E+02  0.11063088273E+03  0.11543057066E+03  0.17150852316E+03  0.41800000000E+01 0. -1.
        -11    1    1    2    0    0 -0.55263369874E+02 -0.17451453428E+02  0.18994812864E+02  0.60986852619E+02  0.00000000000E+00 0.  1.
         11    1    1    2    0    0 -0.74392400440E+02 -0.12623451866E+03 -0.41102457112E+02  0.15218013972E+03  0.00000000000E+00 0. -1.
</event>
<event>
 7    1  0.1312490E-005  0.1342249E+03  0.7561462E-02  0.1221318E+00
          1   -1    0    0  501    0  0.00000000000E+00  0.00000000000E+00  0.62713890970E+03  0.62713890970E+03  0.00000000000E+00 0. -1.
         -1   -1    0    0    0  501 -0.00000000000E+00 -0.00000000000E+00 -0.33610759107E+02  0.33610759107E+02  0.00000000000E+00 0.  1.
         23    2    1    2    0    0 -0.74606406254E+02 -0.24666587907E+02  0.24999051360E+03  0.29037425019E+03  0.12508953540E+03 0.  0.
          5    1    3    3  502    0 -0.99935525036E+02 -0.45043411616E+02  0.22051893970E+03  0.24629675852E+03  0.41800000000E+01 0. -1.
         -5    1    3    3    0  502  0.25329118782E+02  0.20376823708E+02  0.29471573907E+02  0.44077491663E+02  0.41800000000E+01 0. -1.
        -11    1    1    2    0    0 -0.24288134508E+02  0.87127423217E+01  0.23057942146E+02  0.34604827014E+02  0.00000000000E+00 0.  1.
         11    1    1    2    0    0  0.98894540762E+02  0.15953845586E+02  0.32047969484E+03  0.33577059161E+03  0.00000000000E+00 0. -1.
</event>
<event>
 7    1  0.1312490E-005  0.1283509E+03  0.7561462E-02  0.1229923E+00
         -2   -1    0    0    0  501 -0.00000000000E+00  0.00000000000E+00  0.24226296187E+02  0.24226296187E+02  0.00000000000E+00 0.  1.
          2   -1    0    0  501    0  0.00000000000E+00 -0.00000000000E+00 -0.79544308140E+03  0.79544308140E+03  0.00000000000E+00 0. -1.
         23    2    1    2    0    0  0.67203086209E+02  0.18801880374E+02 -0.28994656934E+03  0.32339827907E+03  0.12509064048E+03 0.  0.
          5    1    3    3  502    0  0.39500551880E+02  0.69286526926E+02 -0.12211089427E+03  0.14590907892E+03  0.41800000000E+01 0.  1.
         -5    1    3    3    0  502  0.27702534329E+02 -0.50484646552E+02 -0.16783567507E+03  0.17748920015E+03  0.41800000000E+01 0.  1.
        -11    1    1    2    0    0  0.19800112982E+02  0.15937312621E+02 -0.14426849425E+03  0.14649041211E+03  0.00000000000E+00 0.  1.
         11    1    1    2    0    0 -0.87003199191E+02 -0.34739192995E+02 -0.33700172163E+03  0.34978068640E+03  0.00000000000E+00 0. -1.
</event>
<event>
 7    1  0.1312490E-005  0.1102979E+03  0.7561462E-02  0.1260019E+00
         -1   -1    0    0    0  501 -0.00000000000E+00  0.00000000000E+00  0.37949026599E+02  0.37949026599E+02  0.00000000000E+00 0.  1.
          1   -1    0    0  501    0  0.00000000000E+00 -0.00000000000E+00 -0.36692556394E+03  0.36692556394E+03  0.00000000000E+00 0. -1.
         23    2    1    2    0    0 -0.24440516007E+02  0.26517011020E+02 -0.14433069615E+03  0.19437032417E+03  0.12509189570E+03 0.  0.
          5    1    3    3  502    0  0.45264772830E+02 -0.14590544206E+02 -0.67717577752E+02  0.82854851253E+02  0.41800000000E+01 0.  1.
         -5    1    3    3    0  502 -0.69705288837E+02  0.41107555226E+02 -0.76613118396E+02  0.11151547291E+03  0.41800000000E+01 0.  1.
        -11    1    1    2    0    0  0.26039010027E+02 -0.56282545843E+02 -0.77325085545E+02  0.99120753953E+02  0.00000000000E+00 0.  1.
         11    1    1    2    0    0 -0.15984940199E+01  0.29765534823E+02 -0.10732075565E+03  0.11138351242E+03  0.00000000000E+00 0. -1.
</event>
<event>
 7    1  0.1312490E-005  0.1170488E+03  0.7561462E-02  0.1248047E+00
         -3   -1    0    0    0  501 -0.00000000000E+00  0.00000000000E+00  0.12853598374E+03  0.12853598374E+03  0.00000000000E+00 0.  1.
          3   -1    0    0  501    0  0.00000000000E+00 -0.00000000000E+00 -0.16493172790E+03  0.16493172790E+03  0.00000000000E+00 0. -1.
         23    2    1    2    0    0 -0.61840051361E+02 -0.76053227367E+02 -0.13426966275E+02  0.15948879886E+03  0.12509239863E+03 0.  0.
          5    1    3    3  502    0 -0.62606356279E+02 -0.64375761664E+02 -0.62096617981E+02  0.10925775442E+03  0.41800000000E+01 0. -1.
         -5    1    3    3    0  502  0.76630491778E+00 -0.11677465703E+02  0.48669651706E+02  0.50231044441E+02  0.41800000000E+01 0. -1.
        -11    1    1    2    0    0  0.73074359881E+02  0.88657193982E+02 -0.17405866680E+02  0.11620208394E+03  0.00000000000E+00 0. -1.
         11    1    1    2    0    0 -0.11234308521E+02 -0.12603966615E+02 -0.55629112082E+01  0.17776828837E+02  0.00000000000E+00 0.  1.
</event>
<event>
 7    1  0.1312490E-005  0.1160676E+03  0.7561462E-02  0.1249729E+00
          2   -1    0    0  501    0  0.00000000000E+00  0.00000000000E+00  0.12497555826E+03  0.12497555826E+03  0.00000000000E+00 0. -1.
         -2   -1    0    0    0  501 -0.00000000000E+00 -0.00000000000E+00 -0.16125086772E+03  0.16125086772E+03  0.00000000000E+00 0.  1.
         23    2    1    2    0    0 -0.38126130487E+02  0.62151012390E+02 -0.72316568759E+02  0.16184492773E+03  0.12509094431E+03 0.  0.
          5    1    3    3  502    0 -0.66328518104E+02  0.61230006766E+02 -0.70784530760E+01  0.90643052356E+02  0.41800000000E+01 0. -1.
         -5    1    3    3    0  502  0.28202387617E+02  0.92100562364E+00 -0.65238115683E+02  0.71201875372E+02  0.41800000000E+01 0. -1.
        -11    1    1    2    0    0  0.57771760334E+02 -0.71136611976E+02  0.43613791050E+02  0.10148968728E+03  0.00000000000E+00 0.  1.
         11    1    1    2    0    0 -0.19645629846E+02  0.89855995855E+01 -0.75725317541E+01  0.22891810963E+02  0.00000000000E+00 0. -1.
</event>
<event>
 7    1  0.1312490E-005  0.1636517E+03  0.7561462E-02  0.1184635E+00
          1   -1    0    0  501    0  0.00000000000E+00  0.00000000000E+00  0.56721157352E+03  0.56721157352E+03  0.00000000000E+00 0. -1.
         -1   -1    0    0    0  501 -0.00000000000E+00 -0.00000000000E+00 -0.56085987388E+02  0.56085987388E+02  0.00000000000E+00 0.  1.
         23    2    1    2    0    0  0.11045259213E+03 -0.57178928781E+02  0.15722021301E+03  0.23629531807E+03  0.12509227379E+03 0.  0.
          5    1    3    3  502    0  0.11232326448E+03  0.44437432082E+01  0.83441068962E+02  0.14005765593E+03  0.41800000000E+01 0.  1.
         -5    1    3    3    0  502 -0.18706723470E+01 -0.61622671989E+02  0.73779144044E+02  0.96237662139E+02  0.41800000000E+01 0.  1.
        -11    1    1    2    0    0 -0.82460938218E+02 -0.72461859420E+01  0.14983229321E+03  0.17117835620E+03  0.00000000000E+00 0. -1.
         11    1    1    2    0    0 -0.27991653911E+02  0.64425114723E+02  0.20407307992E+03  0.21582388664E+03  0.00000000000E+00 0.  1.
</event>
<event>
 6    1  0.1312490E-005  0.2613079E+03  0.7561462E-02  0.1106360E+00
         -2   -1    0    0    0  501 -0.00000000000E+00  0.00000000000E+00  0.48814872710E+03  0.48814872710E+03  0.00000000000E+00 0.  1.
          2   -1    0    0  501    0  0.00000000000E+00 -0.00000000000E+00 -0.28558272336E+03  0.28558272336E+03  0.00000000000E+00 0. -1.
          5    1    1    2  502    0  0.92297572170E+02 -0.15837322268E+03 -0.14713991015E+03  0.23509263078E+03  0.41800000000E+01 0. -1.
         -5    1    1    2    0  502 -0.13606751493E+03  0.18874859995E+03  0.36304855762E+03  0.43123326656E+03  0.41800000000E+01 0.  1.
        -11    1    1    2    0    0  0.21757991699E+02  0.32959313433E+02 -0.61653185098E+01  0.39971711210E+02  0.00000000000E+00 0.  1.
         11    1    1    2    0    0  0.22011951059E+02 -0.63334690702E+02 -0.71773252161E+01  0.67433841897E+02  0.00000000000E+00 0. -1.
</event>
<event>
 7    1  0.1312490E-005  0.9031416E+02  0.7561462E-02  0.1302093E+00
          1   -1    0    0  501    0  0.00000000000E+00  0.00000000000E+00  0.44962307971E+02  0.44962307971E+02  0.00000000000E+00 0. -1.
         -1   -1    0    0    0  501 -0.00000000000E+00 -0.00000000000E+00 -0.34523350863E+03  0.34523350863E+03  0.00000000000E+00 0.  1.
         23    2    1    2    0    0  0.35133057586E+02 -0.40570577215E+02 -0.21510519560E+03  0.25455412697E+03  0.12508898797E+03 0.  0.
          5    1    3    3  502    0  0.23958291755E+01  0.22978768701E+02 -0.16617485306E+03  0.16782526031E+03  0.41800000000E+01 0.  1.
         -5    1    3    3    0  502  0.32737228411E+02 -0.63549345917E+02 -0.48930342537E+02  0.86728866655E+02  0.41800000000E+01 0.  1.
        -11    1    1    2    0    0  0.18481345010E+02  0.29290808197E+00  0.85821546584E+01  0.20378893177E+02  0.00000000000E+00 0. -1.
         11    1    1    2    0    0 -0.53614402596E+02  0.40277669133E+02 -0.93748159719E+02  0.11526279646E+03  0.00000000000E+00 0.  1.
</event>
<event>
 7    1  0.1312490E-005  0.1168368E+03  0.7561462E-02  0.1248408E+00
          3   -1    0    0  501    0  0.00000000000E+00  0.00000000000E+00  0.36263808275E+03  0.36263808275E+03  0.00000000000E+00 0. -1.
         -3   -1    0    0    0  501 -0.00000000000E+00 -0.00000000000E+00 -0.61458740943E+02  0.61458740943E+02  0.00000000000E+00 0.  1.
         23    2    1    2    0    0  0.20497295163E+02 -0.98529885847E+02  0.18457939663E+03  0.24463400867E+03  0.12509183435E+03 0.  0.
          5    1    3    3  502    0 -0.33455167444E+02 -0.34657033040E+02  0.14341513856E+03  0.15134639915E+03  0.41800000000E+01 0. -1.
         -5    1    3    3    0  502  0.53952462608E+02 -0.63872852806E+02  0.41164258076E+02  0.93287609520E+02  0.41800000000E+01 0. -1.
        -11    1    1    2    0    0 -0.21629789281E+02  0.75145845599E+02  0.13057379889E+03  0.15219810397E+03  0.00000000000E+00 0. -1.
         11    1    1    2    0    0  0.11324941174E+01  0.23384040248E+02 -0.13973853716E+02  0.27264711055E+02  0.00000000000E+00 0.  1.
</event>
<event>
 7    1  0.1312490E-005  0.7752558E+02  0.7561462E-02  0.1336224E+00
         -1   -1    0    0    0  501 -0.00000000000E+00  0.00000000000E+00  0.75505775686E+03  0.75505775686E+03  0.00000000000E+00 0.  1.
          1   -1    0    0  501    0  0.00000000000E+00 -0.00000000000E+00 -0.29903910508E+02  0.29903910508E+02  0.00000000000E+00 0. -1.
         23    2    1    2    0    0 -0.20216581098E+02 -0.28823057312E+02  0.63642027685E+03  0.64955054833E+03  0.12508264175E+03 0.  0.
          5    1    3    3  502    0 -0.11443798971E+02  0.99593436662E+01  0.58100374075E+03  0.58121679967E+03  0.41800000000E+01 0.  1.
         -5    1    3    3    0  502 -0.87727821273E+01 -0.38782400978E+02  0.55416536103E+02  0.68333748658E+02  0.41800000000E+01 0.  1.
        -11    1    1    2    0    0 -0.22110033250E+02  0.48013719952E+02  0.63175534944E+02  0.82373048320E+02  0.00000000000E+00 0.  1.
         11    1    1    2    0    0  0.42326614348E+02 -0.19190662641E+02  0.25558034553E+02  0.53038070713E+02  0.00000000000E+00 0. -1.
</event>
<event>
 7    1  0.1312490E-005  0.1824376E+03  0.7561462E-02  0.1165465E+00
         -2   -1    0    0    0  501 -0.00000000000E+00  0.00000000000E+00  0.97411437574E+02  0.97411437574E+02  0.00000000000E+00 0.  1.
          2   -1    0    0  501    0  0.00000000000E+00 -0.00000000000E+00 -0.98429884483E+03  0.98429884483E+03  0.00000000000E+00 0. -1.
         23    2    1    2    0    0  0.16742165361E+03  0.70105330289E+02 -0.57732578296E+02  0.22786620704E+03  0.12508073505E+03 0.  0.
          5    1    3    3  502    0  0.47993113153E+02  0.31440498580E+02 -0.81777446168E+02  0.99984333587E+02  0.41800000000E+01 0.  1.
         -5    1    3    3    0  502  0.11942854045E+03  0.38664831709E+02  0.24044867873E+02  0.12788187345E+03  0.41800000000E+01 0.  1.
        -11    1    1    2    0    0 -0.13232649638E+03 -0.59474424623E+02 -0.77486985388E+03  0.78833419264E+03  0.00000000000E+00 0. -1.
         11    1    1    2    0    0 -0.35095157225E+02 -0.10630905666E+02 -0.54284975075E+02  0.65509882726E+02  0.00000000000E+00 0.  1.
</event>
<event>
 7    1  0.1312490E-005  0.1122348E+03  0.7561462E-02  0.1256486E+00
         -1   -1    0    0    0  501 -0.00000000000E+00  0.00000000000E+00  0.20981714412E+03  0.20981714412E+03  0.00000000000E+00 0.  1.
          1   -1    0    0  501    0  0.00000000000E+00 -0.00000000000E+00 -0.64444787733E+02  0.64444787733E+02  0.00000000000E+00 0. -1.
         23    2    1    2    0    0  0.22087774024E+02  0.53357310955E+02  0.91536390734E+02  0.16541064312E+03  0.12508755987E+03 0.  0.
          5    1    3    3  502    0  0.31843565297E+02  0.91894892726E+02  0.58648953818E+02  0.11364794826E+03  0.41800000000E+01 0.  1.
         -5    1    3    3    0  502 -0.97557912726E+01 -0.38537581771E+02  0.32887436915E+02  0.51762694858E+02  0.41800000000E+01 0.  1.
        -11    1    1    2    0    0 -0.53524183644E+01 -0.65975591212E+02  0.57372328148E+02  0.87595725097E+02  0.00000000000E+00 0. -1.
         11    1    1    2    0    0 -0.16735355660E+02  0.12618280257E+02 -0.35363624974E+01  0.21255563634E+02  0.00000000000E+00 0.  1.
</event>
<event>
 7    1  0.1312490E-005  0.1027761E+03  0.7561462E-02  0.1274564E+00
         -2   -1    0    0    0  501 -0.00000000000E+00  0.00000000000E+00  0.34562147795E+03  0.34562147795E+03  0.00000000000E+00 0.  1.
          2   -1    0    0  501    0  0.00000000000E+00 -0.00000000000E+00 -0.40934027306E+02  0.40934027306E+02  0.00000000000E+00 0. -1.
         23    2    1    2    0    0 -0.13047896033E+02 -0.28389485781E+02  0.23458581319E+03  0.26768235351E+03  0.12508848123E+03 0.  0.
          5    1    3    3  502    0 -0.68944664114E+02 -0.11015404868E+02  0.11836684979E+03  0.13748777903E+03  0.41800000000E+01 0.  1.
         -5    1    3    3    0  502  0.55896768081E+02 -0.17374080913E+02  0.11621896340E+03  0.13019457448E+03  0.41800000000E+01 0.  1.
        -11    1    1    2    0    0  0.35725882311E+02  0.38122247509E+02  0.77179057678E+02  0.93200060977E+02  0.00000000000E+00 0.  1.
         11    1    1    2    0    0 -0.22677986278E+02 -0.97327617282E+01 -0.70774202263E+01  0.25673090767E+02  0.00000000000E+00 0. -1.
</event>
<event>
 7    1  0.1312490E-005  0.7518508E+02  0.7561462E-02  0.1343299E+00
         -2   -1    0    0    0  501 -0.00000000000E+00  0.00000000000E+00  0.43647736401E+02  0.43647736401E+02  0.00000000000E+00 0.  1.
          2   -1    0    0  501    0  0.00000000000E+00 -0.00000000000E+00 -0.50521028564E+03  0.50521028564E+03  0.00000000000E+00 0. -1.
         23    2    1    2    0    0  0.45498552112E+01  0.40841595723E+02 -0.80231452927E+02  0.15418758347E+03  0.12509191714E+03 0.  0.
          5    1    3    3  502    0 -0.11693961292E+02  0.27352950388E+02  0.29655789892E+02  0.42212212685E+02  0.41800000000E+01 0.  1.
         -5    1    3    3    0  502  0.16243816503E+02  0.13488645335E+02 -0.10988724282E+03  0.11197537078E+03  0.41800000000E+01 0.  1.
        -11    1    1    2    0    0  0.32108803216E+02 -0.51446723980E+02 -0.18568661779E+03  0.19533883556E+03  0.00000000000E+00 0.  1.
         11    1    1    2    0    0 -0.36658658427E+02  0.10605128257E+02 -0.19564447852E+03  0.19933160301E+03  0.00000000000E+00 0. -1.
</event>
<event>
 7    1  0.1312490E-005  0.1303269E+03  0.7561462E-02  0.1226972E+00
         -1   -1    0    0    0  501 -0.00000000000E+00  0.00000000000E+00  0.90151427257E+02  0.90151427257E+02  0.00000000000E+00 0.  1.
          1   -1    0    0  501    0  0.00000000000E+00 -0.00000000000E+00 -0.28975529365E+03  0.28975529365E+03  0.00000000000E+00 0. -1.
         23    2    1    2    0    0 -0.86491499745E+02  0.43857585168E+02 -0.25454936200E+02  0.16031185910E+03  0.12509065147E+03 0.  0.
          5    1    3    3  502    0 -0.10973975724E+03  0.24225594168E+02  0.10588314986E+02  0.11295697653E+03  0.41800000000E+01 0. -1.
         -5    1    3    3    0  502  0.23248257496E+02  0.19631991000E+02 -0.36043251186E+02  0.47354882571E+02  0.41800000000E+01 0. -1.
        -11    1    1    2    0    0  0.97720945411E+02 -0.38408150475E+02 -0.17788881668E+03  0.20656476053E+03  0.00000000000E+00 0. -1.
         11    1    1    2    0    0 -0.11229445666E+02 -0.54494346933E+01  0.37398864800E+01  0.13030101279E+02  0.00000000000E+00 0.  1.
</event>
<event>
 7    1  0.1312490E-005  0.1428970E+03  0.7561462E-02  0.1209483E+00
          2   -1    0    0  501    0  0.00000000000E+00  0.00000000000E+00  0.10968589571E+03  0.10968589571E+03  0.00000000000E+00 0. -1.
         -2   -1    0    0    0  501 -0.00000000000E+00 -0.00000000000E+00 -0.29634383801E+03  0.29634383801E+03  0.00000000000E+00 0.  1.
         23    2    1    2    0    0 -0.77349903122E+02 -0.11947057746E+03 -0.78184420926E+02  0.20497826679E+03  0.12508820803E+03 0.  0.
          5    1    3    3  502    0 -0.54620228203E+02 -0.90989984114E+02  0.12707574156E+02  0.10696495397E+03  0.41800000000E+01 0.  1.
         -5    1    3    3    0  502 -0.22729674920E+02 -0.28480593351E+02 -0.90891995082E+02  0.98013312818E+02  0.41800000000E+01 0.  1.
        -11    1    1    2    0    0  0.63325545936E+02  0.87627219913E+02 -0.12263334703E+03  0.16348575547E+03  0.00000000000E+00 0.  1.
         11    1    1    2    0    0  0.14024357186E+02  0.31843357552E+02  0.14159825653E+02  0.37565711456E+02  0.00000000000E+00 0. -1.
</event>
<event>
 7    1  0.1312490E-005  0.1083518E+03  0.7561462E-02  0.1263653E+00
         -1   -1    0    0    0  501 -0.00000000000E+00  0.00000000000E+00  0.50017584521E+03  0.50017584521E+03  0.00000000000E+00 0.  1.
          1   -1    0    0  501    0  0.00000000000E+00 -0.00000000000E+00 -0.46413729460E+02  0.46413729460E+02  0.00000000000E+00 0. -1.
         23    2    1    2    0    0 -0.83326200706E+02 -0.51874366642E+02  0.27594371524E+03  0.31879616693E+03  0.12590415573E+03 0.  0.
          5    1    3    3  502    0  0.49989285504E+01 -0.19163911422E+02  0.19045732783E+03  0.19152992171E+03  0.41800000000E+01 0.  1.
         -5    1    3    3    0  502 -0.88325129257E+02 -0.32710455220E+02  0.85486387414E+02  0.12726624522E+03  0.41800000000E+01 0.  1.
        -11    1    1    2    0    0  0.48445248587E+02  0.13431124238E+02  0.16748293210E+03  0.17486529031E+03  0.00000000000E+00 0.  1.
         11    1    1    2    0    0  0.34880952119E+02  0.38443242404E+02  0.10335468401E+02  0.52928117427E+02  0.00000000000E+00 0. -1.
</event>
<event>
 7    1  0.1312490E-005  0.1142889E+03  0.7561462E-02  0.1252828E+00
          1   -1    0    0  501    0  0.00000000000E+00  0.00000000000E+00  0.19685375901E+03  0.19685375901E+03  0.00000000000E+00 0. -1.
         -1   -1    0    0    0  501 -0.00000000000E+00 -0.00000000000E+00 -0.90969775726E+02  0.90969775726E+02  0.00000000000E+00 0.  1.
         23    2    1    2    0    0  0.33083689786E+02  0.61502060144E+02  0.14387509697E+02  0.14398167082E+03  0.12508671858E+03 0.  0.
          5    1    3    3  502    0 -0.86047760932E+01  0.83100459064E+02 -0.19543990580E+02  0.85902086331E+02  0.41800000000E+01 0.  1.
         -5    1    3    3    0  502  0.41688465879E+02 -0.21598398919E+02  0.33931500277E+02  0.58079584488E+02  0.41800000000E+01 0.  1.
        -11    1    1    2    0    0 -0.53410767349E+02 -0.54458469867E+02  0.36050470049E+02  0.84368663613E+02  0.00000000000E+00 0.  1.
         11    1    1    2    0    0  0.20327077563E+02 -0.70435902770E+01  0.55446003540E+02  0.59473200308E+02  0.00000000000E+00 0. -1.
</event>
<event>
 7    1  0.1312490E-005  0.1234471E+03  0.7561462E-02  0.1237516E+00
         -1   -1    0    0    0  501 -0.00000000000E+00  0.00000000000E+00  0.15187857240E+03  0.15187857240E+03  0.00000000000E+00 0.  1.
          1   -1    0    0  501    0  0.00000000000E+00 -0.00000000000E+00 -0.13819639931E+03  0.13819639931E+03  0.00000000000E+00 0. -1.
         23    2    1    2    0    0 -0.79533174877E+01 -0.91836851003E+02  0.33583083642E+02  0.15897186621E+03  0.12508784225E+03 0.  0.
          5    1    3    3  502    0  0.23507467064E+02 -0.90420601570E+02  0.65314887290E+02  0.11407012360E+03  0.41800000000E+01 0. -1.
         -5    1    3    3    0  502 -0.31460784552E+02 -0.14162494330E+01 -0.31731803648E+02  0.44901742614E+02  0.41800000000E+01 0. -1.
        -11    1    1    2    0    0 -0.32213272728E+02  0.67102349907E+02  0.10224063342E+02  0.75132894088E+02  0.00000000000E+00 0.  1.
         11    1    1    2    0    0  0.40166590215E+02  0.24734501096E+02 -0.30124973895E+02  0.55970211418E+02  0.00000000000E+00 0. -1.
</event>
<event>
 7    1  0.1312490E-005  0.1354914E+03  0.7561462E-02  0.1219528E+00
         -1   -1    0    0    0  501 -0.00000000000E+00  0.00000000000E+00  0.83537243465E+02  0.83537243465E+02  0.00000000000E+00 0.  1.
          1   -1    0    0  501    0  0.00000000000E+00 -0.00000000000E+00 -0.32930243506E+03  0.32930243506E+03  0.00000000000E+00 0. -1.
         23    2    1    2    0    0  0.64778525759E+02  0.10190508006E+03 -0.90352350783E+02  0.19593928768E+03  0.12509098458E+03 0.  0.
          5    1    3    3  502    0  0.41570780625E+02  0.35165346126E+02  0.25425406277E+02  0.60238318821E+02  0.41800000000E+01 0. -1.
         -5    1    3    3    0  502  0.23207745134E+02  0.66739733930E+02 -0.11577775706E+03  0.13570096886E+03  0.41800000000E+01 0. -1.
        -11    1    1    2    0    0 -0.72303439216E+02 -0.11180980813E+03 -0.15515859608E+03  0.20445882337E+03  0.00000000000E+00 0. -1.
         11    1    1    2    0    0  0.75249134574E+01  0.99047280756E+01 -0.25424473227E+00  0.12441567473E+02  0.00000000000E+00 0.  1.
</event>
<event>
 7    1  0.1312490E-005  0.1132723E+03  0.7561462E-02  0.1254627E+00
         -2   -1    0    0    0  501 -0.00000000000E+00  0.00000000000E+00  0.12217820236E+03  0.12217820236E+03  0.00000000000E+00 0.  1.
          2   -1    0    0  501    0  0.00000000000E+00 -0.00000000000E+00 -0.12805715986E+03  0.12805715986E+03  0.00000000000E+00 0. -1.
         23    2    1    2    0    0  0.39765122245E+02  0.32254253450E+02  0.32428595111E+02  0.13899876708E+03  0.12508973442E+03 0.  0.
          5    1    3    3  502    0 -0.39161579464E+02  0.38828253696E+02  0.19493077615E+02  0.58640558201E+02  0.41800000000E+01 0. -1.
         -5    1    3    3    0  502  0.78926701709E+02 -0.65740002460E+01  0.12935517496E+02  0.80358208883E+02  0.41800000000E+01 0. -1.
        -11    1    1    2    0    0 -0.54044914196E+02 -0.46838760572E+02 -0.43911487824E+01  0.71651967384E+02  0.00000000000E+00 0.  1.
         11    1    1    2    0    0  0.14279791951E+02  0.14584507122E+02 -0.33916403828E+02  0.39584627759E+02  0.00000000000E+00 0. -1.
</event>
<event>
 7    1  0.1312490E-005  0.1210416E+03  0.7561462E-02  0.1241389E+00
         -2   -1    0    0    0  501 -0.00000000000E+00  0.00000000000E+00  0.12634692640E+03  0.12634692640E+03  0.00000000000E+00 0. -1.
          2   -1    0    0  501    0  0.00000000000E+00 -0.00000000000E+00 -0.15193659820E+03  0.15193659820E+03  0.00000000000E+00 0.  1.
         23    2    1    2    0    0 -0.21335290306E+02 -0.80135385322E+02  0.49642173223E+01  0.15016251965E+03  0.12508902534E+03 0.  0.
          5    1    3    3  502    0  0.27811838591E+02 -0.77775693392E+02  0.37725340846E+02  0.90902313449E+02  0.41800000000E+01 0. -1.
         -5    1    3    3    0  502 -0.49147128896E+02 -0.23596919298E+01 -0.32761123524E+02  0.59260206204E+02  0.41800000000E+01 0. -1.
        -11    1    1    2    0    0 -0.99233672934E+01  0.78040544836E+02  0.72738805807E+01  0.79004488451E+02  0.00000000000E+00 0. -1.
         11    1    1    2    0    0  0.31258657599E+02  0.20948404861E+01 -0.37827769711E+02  0.49116516497E+02  0.00000000000E+00 0.  1.
</event>
<event>
 7    1  0.1312490E-005  0.1065369E+03  0.7561462E-02  0.1267121E+00
         -1   -1    0    0    0  501 -0.00000000000E+00  0.00000000000E+00  0.88098192236E+02  0.88098192236E+02  0.00000000000E+00 0.  1.
          1   -1    0    0  501    0  0.00000000000E+00 -0.00000000000E+00 -0.22838551648E+03  0.22838551648E+03  0.00000000000E+00 0. -1.
         23    2    1    2    0    0  0.70346150420E+01 -0.92568227601E+02 -0.45164114449E+02  0.16219182899E+03  0.12509208444E+03 0.  0.
          5    1    3    3  502    0 -0.92041520855E+01 -0.76640212349E+02  0.30476417483E+02  0.83094662808E+02  0.41800000000E+01 0.  1.
         -5    1    3    3    0  502  0.16238767128E+02 -0.15928015252E+02 -0.75640531933E+02  0.79097166187E+02  0.41800000000E+01 0.  1.
        -11    1    1    2    0    0  0.12891530391E+02 -0.44201683833E+01 -0.37112008080E+02  0.39535181650E+02  0.00000000000E+00 0. -1.
         11    1    1    2    0    0 -0.19926145433E+02  0.96988395984E+02 -0.58011201711E+02  0.11475669807E+03  0.00000000000E+00 0.  1.
</event>
<event>
 7    1  0.1312490E-005  0.8579272E+02  0.7561462E-02  0.1313372E+00
         -3   -1    0    0    0  501 -0.00000000000E+00  0.00000000000E+00  0.50410729999E+03  0.50410729999E+03  0.00000000000E+00 0.  1.
          3   -1    0    0  501    0  0.00000000000E+00 -0.00000000000E+00 -0.24626958768E+02  0.24626958768E+02  0.00000000000E+00 0. -1.
         23    2    1    2    0    0 -0.93466537698E+00 -0.14163287820E+02  0.33811328341E+03  0.36079201224E+03  0.12509520917E+03 0.  0.
          5    1    3    3  502    0 -0.52976978483E+02  0.18748388687E+02  0.22486279632E+03  0.23181633225E+03  0.41800000000E+01 0.  1.
         -5    1    3    3    0  502  0.52042313106E+02 -0.32911676507E+02  0.11325048709E+03  0.12897567999E+03  0.41800000000E+01 0.  1.
        -11    1    1    2    0    0  0.19480966069E+02 -0.10910788192E+02  0.13406426486E+03  0.13591092837E+03  0.00000000000E+00 0.  1.
         11    1    1    2    0    0 -0.18546300692E+02  0.25074076012E+02  0.73027929512E+01  0.32031318145E+02  0.00000000000E+00 0. -1.
</event>
<event>
 7    1  0.1312490E-005  0.1122864E+03  0.7561462E-02  0.1256393E+00
         -3   -1    0    0    0  501 -0.00000000000E+00  0.00000000000E+00  0.10190421953E+04  0.10190421953E+04  0.00000000000E+00 0.  1.
          3   -1    0    0  501    0  0.00000000000E+00 -0.00000000000E+00 -0.16326944538E+02  0.16326944538E+02  0.00000000000E+00 0. -1.
         23    2    1    2    0    0 -0.32833662881E+02 -0.57387520589E+01  0.80084442913E+03  0.81123969599E+03  0.12508821683E+03 0.  0.
          5    1    3    3  502    0 -0.43817023677E+02  0.53360074527E+02  0.41997985422E+03  0.42563808508E+03  0.41800000000E+01 0.  1.
         -5    1    3    3    0  502  0.10983360796E+02 -0.59098826586E+02  0.38086457491E+03  0.38560161091E+03  0.41800000000E+01 0.  1.
        -11    1    1    2    0    0  0.21725990534E+02  0.47339645677E+02  0.13382873451E+03  0.14360776754E+03  0.00000000000E+00 0. -1.
         11    1    1    2    0    0  0.11107672347E+02 -0.41600893618E+02  0.68042087103E+02  0.80521676287E+02  0.00000000000E+00 0.  1.
</event>
<event>
 6    1  0.1312490E-005  0.8026308E+02  0.7561462E-02  0.1328306E+00
         -1   -1    0    0    0  501 -0.00000000000E+00  0.00000000000E+00  0.23414831657E+02  0.23414831657E+02  0.00000000000E+00 0.  1.
          1   -1    0    0  501    0  0.00000000000E+00 -0.00000000000E+00 -0.63945306893E+03  0.63945306893E+03  0.00000000000E+00 0. -1.
          5    1    1    2  502    0  0.38144320020E+02 -0.34891564531E+02 -0.35667041353E+03  0.36042151255E+03  0.41800000000E+01 0. -1.
         -5    1    1    2    0  502  0.34285987591E+01  0.34383044243E+01  0.10874797600E+02  0.12621840183E+02  0.41800000000E+01 0.  1.
        -11    1    1    2    0    0 -0.53725084638E+00  0.54960595501E+02 -0.11358712871E+03  0.12618633644E+03  0.00000000000E+00 0.  1.
         11    1    1    2    0    0 -0.41035667932E+02 -0.23507335394E+02 -0.15665549263E+03  0.16363821141E+03  0.00000000000E+00 0. -1.
</event>
<event>
 7    1  0.1312490E-005  0.1013454E+03  0.7561462E-02  0.1277492E+00
          2   -1    0    0  501    0  0.00000000000E+00  0.00000000000E+00  0.55002979941E+03  0.55002979941E+03  0.00000000000E+00 0. -1.
         -2   -1    0    0    0  501 -0.00000000000E+00 -0.00000000000E+00 -0.30382358885E+02  0.30382358885E+02  0.00000000000E+00 0.  1.
         23    2    1    2    0    0 -0.68281345480E+02  0.49672257258E+00  0.25982941369E+03  0.29635068657E+03  0.12509922599E+03 0.  0.
          5    1    3    3  502    0 -0.41927755693E+02 -0.32241549114E+02  0.26642026191E+02  0.59369387282E+02  0.41800000000E+01 0. -1.
         -5    1    3    3    0  502 -0.26353589788E+02  0.32738271687E+02  0.23318738749E+03  0.23698129929E+03  0.41800000000E+01 0. -1.
        -11    1    1    2    0    0  0.24834611578E+02 -0.41043673049E+02  0.67784091763E+02  0.83042303230E+02  0.00000000000E+00 0. -1.
         11    1    1    2    0    0  0.43446733902E+02  0.40546950477E+02  0.19203393507E+03  0.20101916849E+03  0.00000000000E+00 0.  1.
</event>
<event>
 7    1  0.1312490E-005  0.2242480E+03  0.7561462E-02  0.1130755E+00
         -2   -1    0    0    0  501 -0.00000000000E+00  0.00000000000E+00  0.34364168077E+03  0.34364168077E+03  0.00000000000E+00 0.  1.
          2   -1    0    0  501    0  0.00000000000E+00 -0.00000000000E+00 -0.18023566124E+03  0.18023566124E+03  0.00000000000E+00 0. -1.
         23    2    1    2    0    0  0.18491260395E+03  0.10830672096E+03  0.15019934937E+03  0.29005227086E+03  0.12508980125E+03 0.  0.
          5    1    3    3  502    0  0.17596698434E+03  0.10470632225E+03  0.81293479260E+02  0.22034948529E+03  0.41800000000E+01 0.  1.
         -5    1    3    3    0  502  0.89456196075E+01  0.36003987107E+01  0.68905870107E+02  0.69702785570E+02  0.41800000000E+01 0.  1.
        -11    1    1    2    0    0 -0.11420399518E+03 -0.13630964370E+02  0.88097783154E+00  0.11501796306E+03  0.00000000000E+00 0. -1.
         11    1    1    2    0    0 -0.70708608772E+02 -0.94675756589E+02  0.12325692338E+02  0.11880710809E+03  0.00000000000E+00 0.  1.
</event>
<event>
 7    1  0.1312490E-005  0.7127603E+02  0.7561462E-02  0.1355807E+00
          3   -1    0    0  501    0  0.00000000000E+00  0.00000000000E+00  0.18849402237E+03  0.18849402237E+03  0.00000000000E+00 0. -1.
         -3   -1    0    0    0  501 -0.00000000000E+00 -0.00000000000E+00 -0.78330201549E+02  0.78330201549E+02  0.00000000000E+00 0.  1.
         23    2    1    2    0    0  0.50239308547E+02 -0.10042337147E+02  0.46055118237E+02  0.14278083533E+03  0.12506181017E+03 0.  0.
          5    1    3    3  502    0  0.34990265848E+02 -0.48753636203E+01 -0.40924301374E+02  0.54225074620E+02  0.41800000000E+01 0. -1.
         -5    1    3    3    0  502  0.15249042699E+02 -0.51669735266E+01  0.86979419611E+02  0.88555760708E+02  0.41800000000E+01 0. -1.
        -11    1    1    2    0    0 -0.25197781896E+02  0.42463555599E+02  0.66708915686E+02  0.82994946826E+02  0.00000000000E+00 0. -1.
         11    1    1    2    0    0 -0.25041526651E+02 -0.32421218452E+02 -0.26002131048E+01  0.41048441763E+02  0.00000000000E+00 0.  1.
</event>
<event>
 7    1  0.1312490E-005  0.9029904E+02  0.7561462E-02  0.1302129E+00
         -1   -1    0    0    0  501 -0.00000000000E+00  0.00000000000E+00  0.37793589731E+02  0.37793589731E+02  0.00000000000E+00 0.  1.
          1   -1    0    0  501    0  0.00000000000E+00 -0.00000000000E+00 -0.31674451107E+03  0.31674451107E+03  0.00000000000E+00 0. -1.
         23    2    1    2    0    0  0.13071483727E+02 -0.50043641154E+01 -0.16523382329E+03  0.20772075180E+03  0.12509910880E+03 0.  0.
          5    1    3    3  502    0 -0.26275152762E+02  0.40391068140E+02 -0.12821182965E+03  0.13703126541E+03  0.41800000000E+01 0. -1.
         -5    1    3    3    0  502  0.39346636489E+02 -0.45395432255E+02 -0.37021993643E+02  0.70689486389E+02  0.41800000000E+01 0. -1.
        -11    1    1    2    0    0 -0.62661096275E+01 -0.32905386962E+02 -0.81932607793E+01  0.34484172358E+02  0.00000000000E+00 0.  1.
         11    1    1    2    0    0 -0.68053740998E+01  0.37909751078E+02 -0.10552383727E+03  0.11233317665E+03  0.00000000000E+00 0. -1.
</event>
<event>
 7    1  0.1312490E-005  0.6880515E+02  0.7561462E-02  0.1364204E+00
          2   -1    0    0  501    0  0.00000000000E+00  0.00000000000E+00  0.34252519388E+03  0.34252519388E+03  0.00000000000E+00 0. -1.
         -2   -1    0    0    0  501 -0.00000000000E+00 -0.00000000000E+00 -0.72220313134E+02  0.72220313134E+02  0.00000000000E+00 0.  1.
         23    2    1    2    0    0 -0.25009086189E+02 -0.26073864968E+02  0.26480986461E+01  0.13009920868E+03  0.12495395491E+03 0.  0.
          5    1    3    3  502    0  0.36815107531E+01 -0.28049506520E+01 -0.58340671236E+02  0.58673056763E+02  0.41800000000E+01 0. -1.
         -5    1    3    3    0  502 -0.28690596942E+02 -0.23268914316E+02  0.60988769882E+02  0.71426151920E+02  0.41800000000E+01 0. -1.
        -11    1    1    2    0    0  0.56841891022E+02  0.74791012827E+01  0.12888755184E+03  0.14106359754E+03  0.00000000000E+00 0.  1.
         11    1    1    2    0    0 -0.31832804833E+02  0.18594763685E+02  0.13876923026E+03  0.14358270079E+03  0.00000000000E+00 0. -1.
</event>
<event>
 7    1  0.1312490E-005  0.1642745E+03  0.7561462E-02  0.1183954E+00
          2   -1    0    0  501    0  0.00000000000E+00  0.00000000000E+00  0.13853892084E+03  0.13853892084E+03  0.00000000000E+00 0. -1.
         -2   -1    0    0    0  501 -0.00000000000E+00 -0.00000000000E+00 -0.26619068446E+03  0.26619068446E+03  0.00000000000E+00 0.  1.
         23    2    1    2    0    0  0.12762237579E+03  0.15034679135E+02 -0.16557956653E+03  0.24408455983E+03  0.12508863703E+03 0.  0.
          5    1    3    3  502    0  0.50952040597E+02 -0.53073336309E+02 -0.47693433216E+02  0.87778274304E+02  0.41800000000E+01 0.  1.
         -5    1    3    3    0  502  0.76670335195E+02  0.68108015444E+02 -0.11788613332E+03  0.15630628553E+03  0.41800000000E+01 0.  1.
        -11    1    1    2    0    0 -0.56127673246E+02 -0.47660426259E+02  0.36172627828E+02  0.82038350418E+02  0.00000000000E+00 0. -1.
         11    1    1    2    0    0 -0.71494702546E+02  0.32625747124E+02  0.17551750767E+01  0.78606695053E+02  0.00000000000E+00 0.  1.
</event>
<event>
 7    1  0.1312490E-005  0.2526013E+03  0.7561462E-02  0.1111672E+00
          1   -1    0    0  501    0  0.00000000000E+00  0.00000000000E+00  0.13632095504E+04  0.13632095504E+04  0.00000000000E+00 0. -1.
         -1   -1    0    0    0  501 -0.00000000000E+00 -0.00000000000E+00 -0.52698096962E+02  0.52698096962E+02  0.00000000000E+00 0.  1.
         23    2    1    2    0    0 -0.90842583822E+02  0.21430027729E+03  0.47208742401E+03  0.54101089628E+03  0.12509704276E+03 0.  0.
          5    1    3    3  502    0  0.29997591780E+02  0.28416335226E+02  0.58743369620E+02  0.71941639505E+02  0.41800000000E+01 0. -1.
         -5    1    3    3    0  502 -0.12084017560E+03  0.18588394206E+03  0.41334405439E+03  0.46906925678E+03  0.41800000000E+01 0. -1.
        -11    1    1    2    0    0  0.47881326410E+02 -0.18194621665E+03  0.73016664494E+03  0.75401616465E+03  0.00000000000E+00 0. -1.
         11    1    1    2    0    0  0.42961257412E+02 -0.32354060638E+02  0.10825738446E+03  0.12088058640E+03  0.00000000000E+00 0.  1.
</event>
<event>
 7    1  0.1312490E-005  0.1410808E+03  0.7561462E-02  0.1211882E+00
         -3   -1    0    0    0  501 -0.00000000000E+00  0.00000000000E+00  0.60364306831E+03  0.60364306831E+03  0.00000000000E+00 0.  1.
          3   -1    0    0  501    0  0.00000000000E+00 -0.00000000000E+00 -0.55725570579E+02  0.55725570579E+02  0.00000000000E+00 0. -1.
         23    2    1    2    0    0 -0.27949949449E+02  0.10903854383E+03  0.45796752804E+03  0.48789984959E+03  0.12506559389E+03 0.  0.
          5    1    3    3  502    0  0.32069332089E+02  0.91747940709E+02  0.19943170173E+03  0.22189322374E+03  0.41800000000E+01 0. -1.
         -5    1    3    3    0  502 -0.60019281539E+02  0.17290603124E+02  0.25853582631E+03  0.26600662585E+03  0.41800000000E+01 0. -1.
        -11    1    1    2    0    0 -0.35017385515E+01 -0.78046305581E+02  0.81973875083E+01  0.78553708695E+02  0.00000000000E+00 0. -1.
         11    1    1    2    0    0  0.31451688001E+02 -0.30992238252E+02  0.81752582181E+02  0.92915080602E+02  0.00000000000E+00 0.  1.
</event>
<event>
 7    1  0.1312490E-005  0.7853085E+02  0.7561462E-02  0.1333273E+00
          2   -1    0    0  501    0  0.00000000000E+00  0.00000000000E+00  0.20919186431E+03  0.20919186431E+03  0.00000000000E+00 0. -1.
         -2   -1    0    0    0  501 -0.00000000000E+00 -0.00000000000E+00 -0.59588464445E+02  0.59588464445E+02  0.00000000000E+00 0.  1.
         23    2    1    2    0    0 -0.15464702347E+02  0.13610615229E+02  0.63923802249E+02  0.14197894867E+03  0.12508942204E+03 0.  0.
          5    1    3    3  502    0 -0.59567174490E+02 -0.31699815018E+01  0.72350437983E+02  0.93863493094E+02  0.41800000000E+01 0.  1.
         -5    1    3    3    0  502  0.44102472143E+02  0.16780596731E+02 -0.84266357339E+01  0.48115455579E+02  0.41800000000E+01 0.  1.
        -11    1    1    2    0    0 -0.12669978967E+02 -0.17377985931E+02 -0.12312032313E+02  0.24781220747E+02  0.00000000000E+00 0.  1.
         11    1    1    2    0    0  0.28134681315E+02  0.37673707016E+01  0.97991629924E+02  0.10202015933E+03  0.00000000000E+00 0. -1.
</event>
<event>
 7    1  0.1312490E-005  0.1231109E+03  0.7561462E-02  0.1238051E+00
         -2   -1    0    0    0  501 -0.00000000000E+00  0.00000000000E+00  0.26850337681E+02  0.26850337681E+02  0.00000000000E+00 0.  1.
          2   -1    0    0  501    0  0.00000000000E+00 -0.00000000000E+00 -0.63648314794E+03  0.63648314794E+03  0.00000000000E+00 0. -1.
         23    2    1    2    0    0  0.67355669051E+02  0.14698135593E+02 -0.26359077579E+03  0.29979595756E+03  0.12507876614E+03 0.  0.
          5    1    3    3  502    0  0.10208254105E+03 -0.55231067526E+01 -0.19395908535E+03  0.21929192663E+03  0.41800000000E+01 0. -1.
         -5    1    3    3    0  502 -0.34726872001E+02  0.20221242345E+02 -0.69631690441E+02  0.80504030921E+02  0.41800000000E+01 0. -1.
        -11    1    1    2    0    0 -0.32003356011E+02  0.31783603543E+02 -0.22066045750E+03  0.22522311106E+03  0.00000000000E+00 0. -1.
         11    1    1    2    0    0 -0.35352313040E+02 -0.46481739135E+02 -0.12538157696E+03  0.13831441701E+03  0.00000000000E+00 0.  1.
</event>
<event>
 7    1  0.1312490E-005  0.1497140E+03  0.7561462E-02  0.1200825E+00
          2   -1    0    0  501    0  0.00000000000E+00  0.00000000000E+00  0.21278141729E+03  0.21278141729E+03  0.00000000000E+00 0. -1.
         -2   -1    0    0    0  501 -0.00000000000E+00 -0.00000000000E+00 -0.12263498519E+03  0.12263498519E+03  0.00000000000E+00 0.  1.
         23    2    1    2    0    0 -0.46423320247E+02  0.88776145421E+02  0.14324552980E+02  0.16090356484E+03  0.12509370768E+03 0.  0.
          5    1    3    3  502    0 -0.54097062257E+02 -0.12539171178E+02 -0.94131159691E+01  0.56478333111E+02  0.41800000000E+01 0.  1.
         -5    1    3    3    0  502  0.76737420099E+01  0.10131531660E+03  0.23737668949E+02  0.10442523173E+03  0.41800000000E+01 0.  1.
        -11    1    1    2    0    0 -0.11988413912E+02 -0.82424961005E+02  0.63615918845E+01  0.83534819782E+02  0.00000000000E+00 0.  1.
         11    1    1    2    0    0  0.58411734160E+02 -0.63511844167E+01  0.69460287230E+02  0.90978017857E+02  0.00000000000E+00 0. -1.
</event>
<event>
 7    1  0.1312490E-005  0.1109976E+03  0.7561462E-02  0.1258734E+00
          2   -1    0    0  501    0  0.00000000000E+00  0.00000000000E+00  0.23170545853E+03  0.23170545853E+03  0.00000000000E+00 0.  1.
         -2   -1    0    0    0  501 -0.00000000000E+00 -0.00000000000E+00 -0.67477389796E+02  0.67477389796E+02  0.00000000000E+00 0. -1.
         23    2    1    2    0    0 -0.52017548021E+02  0.19177196051E+02  0.13560800636E+03  0.19264118809E+03  0.12508999084E+03 0.  0.
          5    1    3    3  502    0 -0.25268018240E+02  0.65812524379E+02  0.11491952429E+03  0.13488413760E+03  0.41800000000E+01 0. -1.
         -5    1    3    3    0  502 -0.26749529781E+02 -0.46635328328E+02  0.20688482066E+02  0.57757050495E+02  0.41800000000E+01 0. -1.
        -11    1    1    2    0    0 -0.72453707953E+01 -0.35297974561E+02 -0.52350478319E+01  0.36412197570E+02  0.00000000000E+00 0.  1.
         11    1    1    2    0    0  0.59262918816E+02  0.16120778510E+02  0.33855110204E+02  0.70129462662E+02  0.00000000000E+00 0. -1.
</event>
<event>
 7    1  0.1312490E-005  0.7508284E+02  0.7561462E-02  0.1343615E+00
         -1   -1    0    0    0  501 -0.00000000000E+00  0.00000000000E+00  0.68869537211E+02  0.68869537211E+02  0.00000000000E+00 0.  1.
          1   -1    0    0  501    0  0.00000000000E+00 -0.00000000000E+00 -0.20426061377E+03  0.20426061377E+03  0.00000000000E+00 0. -1.
         23    2    1    2    0    0  0.43020078651E+02  0.22299791945E+02 -0.81293511764E+02  0.15685952113E+03  0.12509303108E+03 0.  0.
          5    1    3    3  502    0  0.31607788856E+00  0.29272558500E+02  0.27077088709E+02  0.40095183244E+02  0.41800000000E+01 0.  1.
         -5    1    3    3    0  502  0.42704000763E+02 -0.69727665558E+01 -0.10837060047E+03  0.11676433788E+03  0.41800000000E+01 0.  1.
        -11    1    1    2    0    0 -0.16142162744E+02 -0.41210796819E+02 -0.67551270634E+02  0.80759354609E+02  0.00000000000E+00 0. -1.
         11    1    1    2    0    0 -0.26877915908E+02  0.18911004874E+02  0.13453705837E+02  0.35511275247E+02  0.00000000000E+00 0.  1.
</event>
<event>
 6    1  0.1312490E-005  0.8697120E+02  0.7561462E-02  0.1310357E+00
          1   -1    0    0  501    0  0.00000000000E+00  0.00000000000E+00  0.50244187333E+03  0.50244187333E+03  0.00000000000E+00 0. -1.
         -1   -1    0    0    0  501 -0.00000000000E+00 -0.00000000000E+00 -0.35990371442E+02  0.35990371442E+02  0.00000000000E+00 0.  1.
          5    1    1    2  502    0  0.27569409480E+02  0.32817789646E+01  0.17735948178E+03  0.17956809458E+03  0.41800000000E+01 0. -1.
         -5    1    1    2    0  502 -0.57597417770E+02  0.67602873799E+01  0.62359274463E+01  0.58476689461E+02  0.41800000000E+01 0.  1.
        -11    1    1    2    0    0  0.38356749705E+02 -0.40715940347E+02  0.98188224179E+02  0.11300422742E+03  0.00000000000E+00 0. -1.
         11    1    1    2    0    0 -0.83287414150E+01  0.30673874002E+02  0.18466786848E+03  0.18738323331E+03  0.00000000000E+00 0.  1.
</event>
<event>
 7    1  0.1312490E-005  0.2033284E+03  0.7561462E-02  0.1146961E+00
          2   -1    0    0  501    0  0.00000000000E+00  0.00000000000E+00  0.11096230250E+04  0.11096230250E+04  0.00000000000E+00 0. -1.
         -2   -1    0    0    0  501 -0.00000000000E+00 -0.00000000000E+00 -0.38671830190E+02  0.38671830190E+02  0.00000000000E+00 0.  1.
         23    2    1    2    0    0  0.11932746069E+03  0.12943096846E+03  0.56677234067E+03  0.60652279983E+03  0.12509037570E+03 0.  0.
          5    1    3    3  502    0  0.32666638493E+01  0.93452442779E+02  0.22132902566E+03  0.24030821907E+03  0.41800000000E+01 0.  1.
         -5    1    3    3    0  502  0.11606079684E+03  0.35978525678E+02  0.34544331501E+03  0.36621458075E+03  0.41800000000E+01 0.  1.
        -11    1    1    2    0    0  0.87775546801E+00 -0.43982283449E+02  0.64962284070E+02  0.78455784131E+02  0.00000000000E+00 0. -1.
         11    1    1    2    0    0 -0.12020521616E+03 -0.85448685008E+02  0.43921657007E+03  0.46331627123E+03  0.00000000000E+00 0.  1.
</event>
<event>
 7    1  0.1312490E-005  0.9432249E+02  0.7561462E-02  0.1292709E+00
         -1   -1    0    0    0  501 -0.00000000000E+00  0.00000000000E+00  0.45561675873E+03  0.45561675873E+03  0.00000000000E+00 0.  1.
          1   -1    0    0  501    0  0.00000000000E+00 -0.00000000000E+00 -0.28894309690E+02  0.28894309690E+02  0.00000000000E+00 0. -1.
         23    2    1    2    0    0 -0.12626969918E+02  0.95892879143E+01  0.33590770962E+03  0.35879379382E+03  0.12509037650E+03 0.  0.
          5    1    3    3  502    0  0.55028294478E+02  0.10871870694E+02  0.18488165381E+03  0.19324856813E+03  0.41800000000E+01 0.  1.
         -5    1    3    3    0  502 -0.67655264396E+02 -0.12825827792E+01  0.15102605580E+03  0.16554522570E+03  0.41800000000E+01 0.  1.
        -11    1    1    2    0    0  0.16964529248E+02  0.24740618955E+02  0.85624512289E+02  0.90727341985E+02  0.00000000000E+00 0.  1.
         11    1    1    2    0    0 -0.43375593299E+01 -0.34329906869E+02  0.51902271319E+01  0.34989932613E+02  0.00000000000E+00 0. -1.
</event>
<event>
 7    1  0.1312490E-005  0.1147462E+03  0.7561462E-02  0.1252025E+00
         -2   -1    0    0    0  501 -0.00000000000E+00  0.00000000000E+00  0.47803726066E+03  0.47803726066E+03  0.00000000000E+00 0.  1.
          2   -1    0    0  501    0  0.00000000000E+00 -0.00000000000E+00 -0.54641305516E+02  0.54641305516E+02  0.00000000000E+00 0. -1.
         23    2    1    2    0    0 -0.75935585394E+02  0.70956145567E+02  0.32708466739E+03  0.36528231877E+03  0.12508319248E+03 0.  0.
          5    1    3    3  502    0 -0.57853846903E+02  0.51715431901E+02  0.63528226260E+02  0.10037360923E+03  0.41800000000E+01 0. -1.
         -5    1    3    3    0  502 -0.18081738490E+02  0.19240713666E+02  0.26355644113E+03  0.26490870954E+03  0.41800000000E+01 0. -1.
        -11    1    1    2    0    0 -0.13382233383E+02 -0.12426664890E+02 -0.62822102744E+01  0.19312491722E+02  0.00000000000E+00 0. -1.
         11    1    1    2    0    0  0.89317818776E+02 -0.58529480678E+02  0.10259349803E+03  0.14808375568E+03  0.00000000000E+00 0.  1.
</event>
<event>
 7    1  0.1312490E-005  0.1910472E+03  0.7561462E-02  0.1157520E+00
          1   -1    0    0  501    0  0.00000000000E+00  0.00000000000E+00  0.55088035072E+03  0.55088035072E+03  0.00000000000E+00 0. -1.
         -1   -1    0    0    0  501 -0.00000000000E+00 -0.00000000000E+00 -0.77053445883E+02  0.77053445883E+02  0.00000000000E+00 0.  1.
         23    2    1    2    0    0 -0.16831963747E+03 -0.40991776190E+02  0.21430143879E+03  0.30262911035E+03  0.12508975054E+03 0.  0.
          5    1    3    3  502    0 -0.18417281911E+03 -0.35830949580E+02  0.21504961528E+03  0.28542476010E+03  0.41800000000E+01 0.  1.
         -5    1    3    3    0  502  0.15853181642E+02 -0.51608266096E+01 -0.74817648760E+00  0.17204350250E+02  0.41800000000E+01 0.  1.
        -11    1    1    2    0    0  0.79147960121E+02  0.13549402140E+00  0.18778418602E+03  0.20378252739E+03  0.00000000000E+00 0. -1.
         11    1    1    2    0    0  0.89171677349E+02  0.40856282168E+02  0.71741280015E+02  0.12152215885E+03  0.00000000000E+00 0.  1.
</event>
<event>
 6    1  0.1312490E-005  0.1183327E+03  0.7561462E-02  0.1245873E+00
          1   -1    0    0  501    0  0.00000000000E+00  0.00000000000E+00  0.79059631992E+02  0.79059631992E+02  0.00000000000E+00 0. -1.
         -1   -1    0    0    0  501 -0.00000000000E+00 -0.00000000000E+00 -0.45918682752E+03  0.45918682752E+03  0.00000000000E+00 0.  1.
          5    1    1    2  502    0 -0.57724755080E+02  0.10785716594E+02 -0.35179887611E+03  0.35669090353E+03  0.41800000000E+01 0. -1.
         -5    1    1    2    0  502  0.68159938674E+02 -0.18822366248E+02 -0.19681700103E+02  0.73518027927E+02  0.41800000000E+01 0.  1.
        -11    1    1    2    0    0  0.22921099544E+02 -0.41399642132E+02 -0.10080755361E+02  0.48383145842E+02  0.00000000000E+00 0.  1.
         11    1    1    2    0    0 -0.33356283138E+02  0.49436291785E+02  0.14341360487E+01  0.59654382207E+02  0.00000000000E+00 0. -1.
</event>
<event>
 7    1  0.1312490E-005  0.1245981E+03  0.7561462E-02  0.1235699E+00
         -4   -1    0    0    0  501 -0.00000000000E+00  0.00000000000E+00  0.30937819595E+03  0.30937819595E+03  0.00000000000E+00 0.  1.
          4   -1    0    0  501    0  0.00000000000E+00 -0.00000000000E+00 -0.57978162318E+02  0.57978162318E+02  0.00000000000E+00 0. -1.
         23    2    1    2    0    0  0.49465136321E+02  0.50808415468E+02  0.18363717085E+03  0.23323561366E+03  0.12509175101E+03 0.  0.
          5    1    3    3  502    0  0.85548374472E+02  0.55859043783E+02  0.15904074025E+03  0.18907719748E+03  0.41800000000E+01 0. -1.
         -5    1    3    3    0  502 -0.36083238151E+02 -0.50506283158E+01  0.24596430604E+02  0.44158416189E+02  0.41800000000E+01 0. -1.
        -11    1    1    2    0    0 -0.70171489800E+02 -0.19677701892E+02  0.63181677986E+02  0.96452964525E+02  0.00000000000E+00 0.  1.
         11    1    1    2    0    0  0.20706353479E+02 -0.31130713575E+02  0.45811847992E+01  0.37667780082E+02  0.00000000000E+00 0. -1.
</event>
<event>
 7    1  0.1312490E-005  0.8530585E+02  0.7561462E-02  0.1314635E+00
         -2   -1    0    0    0  501 -0.00000000000E+00  0.00000000000E+00  0.36328392894E+02  0.36328392894E+02  0.00000000000E+00 0.  1.
          2   -1    0    0  501    0  0.00000000000E+00 -0.00000000000E+00 -0.54547175589E+03  0.54547175589E+03  0.00000000000E+00 0. -1.
         23    2    1    2    0    0 -0.80150557436E+01 -0.75561082768E+02 -0.17921679202E+03  0.23138689065E+03  0.12509003268E+03 0.  0.
          5    1    3    3  502    0 -0.44933079597E+01 -0.17901487599E+02  0.17832309946E+02  0.26002245147E+02  0.41800000000E+01 0.  1.
         -5    1    3    3    0  502 -0.35217477839E+01 -0.57659595169E+02 -0.19704910197E+03  0.20538464551E+03  0.41800000000E+01 0.  1.
        -11    1    1    2    0    0 -0.12728783679E+02  0.71509595527E+02 -0.31790681121E+03  0.32609873475E+03  0.00000000000E+00 0. -1.
         11    1    1    2    0    0  0.20743839423E+02  0.40514872405E+01 -0.12019759761E+02  0.24314523387E+02  0.00000000000E+00 0.  1.
</event>
<event>
 7    1  0.1312490E-005  0.4653112E+02  0.7561462E-02  0.1465003E+00
          1   -1    0    0  501    0  0.00000000000E+00  0.00000000000E+00  0.47776044057E+02  0.47776044057E+02  0.00000000000E+00 0. -1.
         -1   -1    0    0    0  501 -0.00000000000E+00 -0.00000000000E+00 -0.28030648180E+03  0.28030648180E+03  0.00000000000E+00 0.  1.
         23    2    1    2    0    0 -0.25751370182E+01 -0.42991363560E+02 -0.15421291965E+03  0.20317226609E+03  0.12506980631E+03 0.  0.
          5    1    3    3  502    0 -0.12236998763E+02 -0.26086827707E+02 -0.17321589446E+03  0.17564590861E+03  0.41800000000E+01 0. -1.
         -5    1    3    3    0  502  0.96618617446E+01 -0.16904535853E+02  0.19002974806E+02  0.27526357483E+02  0.41800000000E+01 0. -1.
        -11    1    1    2    0    0 -0.33393617729E+01  0.10904347798E+02  0.19060396713E+02  0.22211592937E+02  0.00000000000E+00 0. -1.
         11    1    1    2    0    0  0.59144987911E+01  0.32087015762E+02 -0.97377914804E+02  0.10269866683E+03  0.00000000000E+00 0.  1.
</event>
<event>
 7    1  0.1312490E-005  0.9404122E+02  0.7561462E-02  0.1293350E+00
          3   -1    0    0  501    0  0.00000000000E+00  0.00000000000E+00  0.57554860369E+02  0.57554860369E+02  0.00000000000E+00 0. -1.
         -3   -1    0    0    0  501 -0.00000000000E+00 -0.00000000000E+00 -0.34699532075E+03  0.34699532075E+03  0.00000000000E+00 0.  1.
         23    2    1    2    0    0  0.31923380798E+02  0.18550713747E+02 -0.27829699535E+03  0.30368339033E+03  0.11580653142E+03 0.  0.
          5    1    3    3  502    0 -0.35648128840E+02  0.36576789751E+02 -0.10813828675E+03  0.11966625297E+03  0.41800000000E+01 0. -1.
         -5    1    3    3    0  502  0.67571509637E+02 -0.18026076003E+02 -0.17015870860E+03  0.18401713737E+03  0.41800000000E+01 0.  1.
        -11    1    1    2    0    0 -0.28292563998E+02  0.15685096926E+02 -0.43102530647E+02  0.53891739546E+02  0.00000000000E+00 0.  1.
         11    1    1    2    0    0 -0.36308167997E+01 -0.34235810673E+02  0.31959065623E+02  0.46975051236E+02  0.00000000000E+00 0. -1.
</event>
<event>
 7    1  0.1312490E-005  0.1496678E+03  0.7561462E-02  0.1200882E+00
         -3   -1    0    0    0  501 -0.00000000000E+00  0.00000000000E+00  0.17169329302E+03  0.17169329302E+03  0.00000000000E+00 0.  1.
          3   -1    0    0  501    0  0.00000000000E+00 -0.00000000000E+00 -0.17352220347E+03  0.17352220347E+03  0.00000000000E+00 0. -1.
         23    2    1    2    0    0 -0.10813169107E+03 -0.45759304137E+02  0.63421225489E+02  0.18290915604E+03  0.12508849264E+03 0.  0.
          5    1    3    3  502    0 -0.52829452872E+01 -0.47665565570E+02 -0.18264807406E+02  0.51487777594E+02  0.41800000000E+01 0. -1.
         -5    1    3    3    0  502 -0.10284874579E+03  0.19062614330E+01  0.81686032894E+02  0.13142137845E+03  0.41800000000E+01 0. -1.
        -11    1    1    2    0    0  0.56243851602E+02 -0.24128664968E+02 -0.21347481833E+02  0.64817268508E+02  0.00000000000E+00 0.  1.
         11    1    1    2    0    0  0.51887839471E+02  0.69887969106E+02 -0.43902654105E+02  0.97489071942E+02  0.00000000000E+00 0. -1.
</event>
<event>
 7    1  0.1312490E-005  0.1185189E+03  0.7561462E-02  0.1245561E+00
          1   -1    0    0  501    0  0.00000000000E+00  0.00000000000E+00  0.71918003489E+02  0.71918003489E+02  0.00000000000E+00 0. -1.
         -1   -1    0    0    0  501 -0.00000000000E+00 -0.00000000000E+00 -0.25211720301E+03  0.25211720301E+03  0.00000000000E+00 0.  1.
         23    2    1    2    0    0  0.88957537375E+01  0.52979583932E+02 -0.16996151547E+03  0.21776169276E+03  0.12508903767E+03 0.  0.
          5    1    3    3  502    0  0.65980252991E+02  0.17738463696E+02 -0.76713698901E+02  0.10281298983E+03  0.41800000000E+01 0. -1.
         -5    1    3    3    0  502 -0.57084499253E+02  0.35241120237E+02 -0.93247816573E+02  0.11494870293E+03  0.41800000000E+01 0. -1.
        -11    1    1    2    0    0  0.32862109228E+02  0.12989149698E+01 -0.17763742512E+02  0.37378549344E+02  0.00000000000E+00 0.  1.
         11    1    1    2    0    0 -0.41757862966E+02 -0.54278498902E+02  0.75260584625E+01  0.68894964392E+02  0.00000000000E+00 0. -1.
</event>
<event>
 7    1  0.1312490E-005  0.5422699E+02  0.7561462E-02  0.1423790E+00
         -1   -1    0    0    0  501 -0.00000000000E+00  0.00000000000E+00  0.13044876493E+03  0.13044876493E+03  0.00000000000E+00 0.  1.
          1   -1    0    0  501    0  0.00000000000E+00 -0.00000000000E+00 -0.14709955032E+03  0.14709955032E+03  0.00000000000E+00 0. -1.
         23    2    1    2    0    0 -0.23155049692E+02 -0.10535973989E+02  0.73066743279E+02  0.14708239995E+03  0.12508924945E+03 0.  0.
          5    1    3    3  502    0 -0.23857078690E+00  0.66750323968E+01 -0.34652675683E+02  0.35537210154E+02  0.41800000000E+01 0. -1.
         -5    1    3    3    0  502 -0.22916478905E+02 -0.17211006386E+02  0.10771941896E+03  0.11154518980E+03  0.41800000000E+01 0. -1.
        -11    1    1    2    0    0 -0.46804037209E+01 -0.25585004152E+02 -0.79618340004E+02  0.83759051340E+02  0.00000000000E+00 0. -1.
         11    1    1    2    0    0  0.27835453413E+02  0.36120978140E+02 -0.10099188667E+02  0.46706863953E+02  0.00000000000E+00 0.  1.
</event>
<event>
 7    1  0.1312490E-005  0.1002300E+03  0.7561462E-02  0.1279813E+00
         -2   -1    0    0    0  501 -0.00000000000E+00  0.00000000000E+00  0.75632181491E+02  0.75632181491E+02  0.00000000000E+00 0. -1.
          2   -1    0    0  501    0  0.00000000000E+00 -0.00000000000E+00 -0.18320412088E+03  0.18320412088E+03  0.00000000000E+00 0.  1.
         23    2    1    2    0    0 -0.16376012891E+02  0.65244699750E+01 -0.13747984385E+02  0.12706974752E+03  0.12508785374E+03 0.  0.
          5    1    3    3  502    0 -0.53360270868E+02  0.35819764753E+02 -0.37030832055E+02  0.74290840464E+02  0.41800000000E+01 0. -1.
         -5    1    3    3    0  502  0.36984257978E+02 -0.29295294778E+02  0.23282847670E+02  0.52778907055E+02  0.41800000000E+01 0. -1.
        -11    1    1    2    0    0  0.24632803165E+02  0.36966890999E+02 -0.65740155747E+02  0.79341629045E+02  0.00000000000E+00 0.  1.
         11    1    1    2    0    0 -0.82567902747E+01 -0.43491360974E+02 -0.28083799253E+02  0.52424925803E+02  0.00000000000E+00 0. -1.
</event>
<event>
 7    1  0.1312490E-005  0.9249916E+02  0.7561462E-02  0.1296910E+00
          1   -1    0    0  501    0  0.00000000000E+00  0.00000000000E+00  0.67443643485E+02  0.67443643485E+02  0.00000000000E+00 0. -1.
         -1   -1    0    0    0  501 -0.00000000000E+00 -0.00000000000E+00 -0.28416503331E+03  0.28416503331E+03  0.00000000000E+00 0.  1.
         23    2    1    2    0    0 -0.13242522463E+02  0.28746039057E+02 -0.21894986739E+03  0.25414068354E+03  0.12508694351E+03 0.  0.
          5    1    3    3  502    0  0.30576372167E+02  0.50755723335E+02 -0.48372093344E+02  0.76605416262E+02  0.41800000000E+01 0.  1.
         -5    1    3    3    0  502 -0.43818894629E+02 -0.22009684278E+02 -0.17057777405E+03  0.17753526728E+03  0.41800000000E+01 0.  1.
        -11    1    1    2    0    0  0.41946824983E+02 -0.14907031489E+02 -0.28775881407E+02  0.53007613271E+02  0.00000000000E+00 0.  1.
         11    1    1    2    0    0 -0.28704302520E+02 -0.13839007568E+02  0.31004358969E+02  0.44460379989E+02  0.00000000000E+00 0. -1.
</event>
<event>
 6    1  0.1312490E-005  0.1462709E+03  0.7561462E-02  0.1205132E+00
          2   -1    0    0  501    0  0.00000000000E+00  0.00000000000E+00  0.42464696048E+03  0.42464696048E+03  0.00000000000E+00 0. -1.
         -2   -1    0    0    0  501 -0.00000000000E+00 -0.00000000000E+00 -0.58034141598E+02  0.58034141598E+02  0.00000000000E+00 0.  1.
          5    1    1    2  502    0  0.61104904523E+02  0.79666708960E+02  0.17855759216E+03  0.20489236197E+03  0.41800000000E+01 0. -1.
         -5    1    1    2    0  502 -0.50764129590E+02 -0.94187244802E+02  0.56938636070E+02  0.12127536689E+03  0.41800000000E+01 0.  1.
        -11    1    1    2    0    0 -0.97458156622E+01 -0.34551146344E+02  0.63810897859E+02  0.73216072841E+02  0.00000000000E+00 0. -1.
         11    1    1    2    0    0 -0.59495927152E+00  0.49071682186E+02  0.67305692789E+02  0.83297300382E+02  0.00000000000E+00 0.  1.
</event>
<event>
 7    1  0.1312490E-005  0.2279464E+03  0.7561462E-02  0.1128094E+00
          2   -1    0    0  501    0  0.00000000000E+00  0.00000000000E+00  0.54556158880E+03  0.54556158880E+03  0.00000000000E+00 0. -1.
         -2   -1    0    0    0  501 -0.00000000000E+00 -0.00000000000E+00 -0.13155987923E+03  0.13155987923E+03  0.00000000000E+00 0.  1.
         23    2    1    2    0    0 -0.26935890150E+02  0.20614423939E+03  0.48859445657E+02  0.24749835596E+03  0.12508877312E+03 0.  0.
          5    1    3    3  502    0  0.33411447062E+02  0.11878723669E+03  0.65788845105E+02  0.13990131141E+03  0.41800000000E+01 0.  1.
         -5    1    3    3    0  502 -0.60347337212E+02  0.87357002700E+02 -0.16929399448E+02  0.10759704455E+03  0.41800000000E+01 0.  1.
        -11    1    1    2    0    0 -0.29976895724E+02 -0.36499606897E+02  0.68930401673E+02  0.83559774148E+02  0.00000000000E+00 0.  1.
         11    1    1    2    0    0  0.56912785874E+02 -0.16964463249E+03  0.29621186223E+03  0.34606333793E+03  0.00000000000E+00 0. -1.
</event>
<event>
 7    1  0.1312490E-005  0.1208444E+03  0.7561462E-02  0.1241711E+00
          1   -1    0    0  501    0  0.00000000000E+00  0.00000000000E+00  0.25206388677E+02  0.25206388677E+02  0.00000000000E+00 0. -1.
         -1   -1    0    0    0  501 -0.00000000000E+00 -0.00000000000E+00 -0.86846328082E+03  0.86846328082E+03  0.00000000000E+00 0.  1.
         23    2    1    2    0    0  0.76415032479E+02 -0.30081303621E+02 -0.54732939271E+03  0.56741674776E+03  0.12509260367E+03 0.  0.
          5    1    3    3  502    0 -0.11543413433E+01 -0.42469818755E+02 -0.59186657412E+02  0.72976371687E+02  0.41800000000E+01 0.  1.
         -5    1    3    3    0  502  0.77569373823E+02  0.12388515133E+02 -0.48814273530E+03  0.49444037607E+03  0.41800000000E+01 0.  1.
        -11    1    1    2    0    0 -0.88581555580E+02  0.75517650040E+00 -0.12998399817E+03  0.15729940261E+03  0.00000000000E+00 0.  1.
         11    1    1    2    0    0  0.12166523101E+02  0.29326127121E+02 -0.16594350126E+03  0.16895351913E+03  0.00000000000E+00 0. -1.
</event>
<event>
 7    1  0.1312490E-005  0.1348752E+03  0.7561462E-02  0.1220396E+00
          1   -1    0    0  501    0  0.00000000000E+00  0.00000000000E+00  0.63419559536E+03  0.63419559536E+03  0.00000000000E+00 0. -1.
         -1   -1    0    0    0  501 -0.00000000000E+00 -0.00000000000E+00 -0.31350554590E+02  0.31350554590E+02  0.00000000000E+00 0.  1.
         23    2    1    2    0    0  0.49706718967E+02  0.69835648601E+02  0.25201310562E+03  0.29411618772E+03  0.12508377491E+03 0.  0.
          5    1    3    3  502    0  0.19020205688E+02  0.10369000905E+03  0.18324254581E+03  0.21144429337E+03  0.41800000000E+01 0.  1.
         -5    1    3    3    0  502  0.30686513279E+02 -0.33854360451E+02  0.68770559811E+02  0.82671894350E+02  0.41800000000E+01 0.  1.
        -11    1    1    2    0    0  0.14317948216E+02 -0.48978111903E+02  0.19708644665E+03  0.20358518252E+03  0.00000000000E+00 0.  1.
         11    1    1    2    0    0 -0.64024667183E+02 -0.20857536698E+02  0.15374548849E+03  0.16784477971E+03  0.00000000000E+00 0. -1.
</event>
<event>
 7    1  0.1312490E-005  0.1443337E+03  0.7561462E-02  0.1207614E+00
          1   -1    0    0  501    0  0.00000000000E+00  0.00000000000E+00  0.32154740700E+03  0.32154740700E+03  0.00000000000E+00 0. -1.
         -1   -1    0    0    0  501 -0.00000000000E+00 -0.00000000000E+00 -0.75508708972E+02  0.75508708972E+02  0.00000000000E+00 0.  1.
         23    2    1    2    0    0  0.41631914489E+02  0.11276665450E+03  0.13059170427E+03  0.21714368183E+03  0.12509056985E+03 0.  0.
          5    1    3    3  502    0  0.27112101452E+02  0.12901800102E+03  0.63333033094E+02  0.14631902170E+03  0.41800000000E+01 0.  1.
         -5    1    3    3    0  502  0.14519813037E+02 -0.16251346518E+02  0.67258671174E+02  0.70824660129E+02  0.41800000000E+01 0.  1.
        -11    1    1    2    0    0 -0.55282820184E+02 -0.67253079648E+02  0.92903070134E+02  0.12731907701E+03  0.00000000000E+00 0. -1.
         11    1    1    2    0    0  0.13650905695E+02 -0.45513574851E+02  0.22543923629E+02  0.52593357134E+02  0.00000000000E+00 0.  1.
</event>
<event>
 7    1  0.1312490E-005  0.9876616E+02  0.7561462E-02  0.1282912E+00
          2   -1    0    0  501    0  0.00000000000E+00  0.00000000000E+00  0.27808859052E+03  0.27808859052E+03  0.00000000000E+00 0. -1.
         -2   -1    0    0    0  501 -0.00000000000E+00 -0.00000000000E+00 -0.64143478063E+02  0.64143478063E+02  0.00000000000E+00 0.  1.
         23    2    1    2    0    0 -0.59624186570E+02  0.41477735906E+02  0.81027539020E+02  0.16579687928E+03  0.12509075465E+03 0.  0.
          5    1    3    3  502    0  0.26374055118E+02  0.24039619522E+02 -0.11966676279E+02  0.37870408386E+02  0.41800000000E+01 0.  1.
         -5    1    3    3    0  502 -0.85998241688E+02  0.17438116384E+02  0.92994215299E+02  0.12792647089E+03  0.41800000000E+01 0.  1.
        -11    1    1    2    0    0  0.18669439535E+02 -0.20543677626E+02 -0.74352881897E+01  0.28738026610E+02  0.00000000000E+00 0.  1.
         11    1    1    2    0    0  0.40954747034E+02 -0.20934058280E+02  0.14035286163E+03  0.14769716269E+03  0.00000000000E+00 0. -1.
</event>
<event>
 7    1  0.1312490E-005  0.3218234E+03  0.7561462E-02  0.1074813E+00
         -2   -1    0    0    0  501 -0.00000000000E+00  0.00000000000E+00  0.46515426186E+02  0.46515426186E+02  0.00000000000E+00 0. -1.
          2   -1    0    0  501    0  0.00000000000E+00 -0.00000000000E+00 -0.23447363571E+04  0.23447363571E+04  0.00000000000E+00 0.  1.
         23    2    1    2    0    0 -0.46390481932E+02 -0.30811034210E+03 -0.12106402699E+04  0.12563361510E+04  0.12508637603E+03 0.  0.
          5    1    3    3  502    0  0.38500277887E+02 -0.98927027918E+02 -0.30496601269E+03  0.32294050465E+03  0.41800000000E+01 0. -1.
         -5    1    3    3    0  502 -0.84890759819E+02 -0.20918331418E+03 -0.90567425718E+03  0.93339564631E+03  0.41800000000E+01 0. -1.
        -11    1    1    2    0    0  0.23913625842E+02  0.14301761142E+03 -0.35191334490E+03  0.38061647494E+03  0.00000000000E+00 0.  1.
         11    1    1    2    0    0  0.22476856091E+02  0.16509273068E+03 -0.73566731611E+03  0.75429915735E+03  0.00000000000E+00 0. -1.
</event>
<event>
 6    1  0.1312490E-005  0.1242539E+03  0.7561462E-02  0.1236240E+00
         -4   -1    0    0    0  501 -0.00000000000E+00  0.00000000000E+00  0.14310682248E+04  0.14310682248E+04  0.00000000000E+00 0.  1.
          4   -1    0    0  501    0  0.00000000000E+00 -0.00000000000E+00 -0.13849403715E+02  0.13849403715E+02  0.00000000000E+00 0. -1.
          5    1    1    2  502    0  0.25014816004E+02 -0.40746775764E+02  0.27340694222E+03  0.27758758836E+03  0.41800000000E+01 0. -1.
         -5    1    1    2    0  502 -0.33873462520E+02  0.89953228675E+02  0.84851044701E+03  0.85394756625E+03  0.41800000000E+01 0.  1.
        -11    1    1    2    0    0  0.18331379522E+02  0.24159736004E+02  0.10185971361E+03  0.10627856593E+03  0.00000000000E+00 0.  1.
         11    1    1    2    0    0 -0.94727330058E+01 -0.73366188914E+02  0.19344171828E+03  0.20710390802E+03  0.00000000000E+00 0. -1.
</event>
<event>
 7    1  0.1312490E-005  0.1090250E+03  0.7561462E-02  0.1262386E+00
         -2   -1    0    0    0  501 -0.00000000000E+00  0.00000000000E+00  0.15586679984E+02  0.15586679984E+02  0.00000000000E+00 0.  1.
          2   -1    0    0  501    0  0.00000000000E+00 -0.00000000000E+00 -0.98374493876E+03  0.98374493876E+03  0.00000000000E+00 0. -1.
         23    2    1    2    0    0 -0.44365154569E+02  0.33389608502E+02 -0.61241743348E+03  0.62752337764E+03  0.12508934308E+03 0.  0.
          5    1    3    3  502    0  0.34347654918E+02 -0.13053001455E+02 -0.29094917140E+03  0.29329001855E+03  0.41800000000E+01 0. -1.
         -5    1    3    3    0  502 -0.78712809487E+02  0.46442609957E+02 -0.32146826209E+03  0.33423335909E+03  0.41800000000E+01 0. -1.
        -11    1    1    2    0    0 -0.76363785932E+01 -0.36688220284E+02 -0.54789331411E+02  0.66379293624E+02  0.00000000000E+00 0.  1.
         11    1    1    2    0    0  0.52001533162E+02  0.32986117818E+01 -0.30095149388E+03  0.30542894748E+03  0.00000000000E+00 0. -1.
</event>
<event>
 7    1  0.1312490E-005  0.1315140E+03  0.7561462E-02  0.1225226E+00
          2   -1    0    0  501    0  0.00000000000E+00  0.00000000000E+00  0.30400493373E+03  0.30400493373E+03  0.00000000000E+00 0. -1.
         -2   -1    0    0    0  501 -0.00000000000E+00 -0.00000000000E+00 -0.64882671739E+02  0.64882671739E+02  0.00000000000E+00 0.  1.
         23    2    1    2    0    0  0.82034774880E+02  0.20203561389E+02  0.91844623706E+02  0.17669235939E+03  0.12508743655E+03 0.  0.
          5    1    3    3  502    0  0.10795296230E+03  0.29215959076E+02  0.41800950336E+02  0.11946633912E+03  0.41800000000E+01 0.  1.
         -5    1    3    3    0  502 -0.25918187424E+02 -0.90123976867E+01  0.50043673370E+02  0.57226020269E+02  0.41800000000E+01 0.  1.
        -11    1    1    2    0    0 -0.73870995541E+02 -0.52123523255E+02  0.11173687020E+03  0.14373209043E+03  0.00000000000E+00 0.  1.
         11    1    1    2    0    0 -0.81637793388E+01  0.31919961866E+02  0.35540768089E+02  0.48463155644E+02  0.00000000000E+00 0. -1.
</event>
<event>
 7    1  0.1312490E-005  0.1097869E+03  0.7561462E-02  0.1260965E+00
         -2   -1    0    0    0  501 -0.00000000000E+00  0.00000000000E+00  0.30596268494E+02  0.30596268494E+02  0.00000000000E+00 0. -1.
          2   -1    0    0  501    0  0.00000000000E+00 -0.00000000000E+00 -0.48896718166E+03  0.48896718166E+03  0.00000000000E+00 0.  1.
         23    2    1    2    0    0  0.12460644416E+02 -0.52394819457E+02 -0.21949845190E+03  0.25831722511E+03  0.12509090149E+03 0.  0.
          5    1    3    3  502    0 -0.43906734884E+02 -0.63849046632E+02 -0.11088053711E+03  0.13533834650E+03  0.41800000000E+01 0.  1.
         -5    1    3    3    0  502  0.56367379300E+02  0.11454227175E+02 -0.10861791479E+03  0.12297887860E+03  0.41800000000E+01 0.  1.
        -11    1    1    2    0    0  0.14230546893E+02  0.55624081521E+02 -0.22245305087E+03  0.22974313211E+03  0.00000000000E+00 0.  1.
         11    1    1    2    0    0 -0.26691191309E+02 -0.32292620641E+01 -0.16419410392E+02  0.31503092937E+02  0.00000000000E+00 0. -1.
</event>
<event>
 7    1  0.1312490E-005  0.1450362E+03  0.7561462E-02  0.1206709E+00
          2   -1    0    0  501    0  0.00000000000E+00  0.00000000000E+00  0.83536126028E+03  0.83536126028E+03  0.00000000000E+00 0. -1.
         -2   -1    0    0    0  501 -0.00000000000E+00 -0.00000000000E+00 -0.39500863823E+02  0.39500863823E+02  0.00000000000E+00 0.  1.
         23    2    1    2    0    0 -0.10279243985E+02  0.10988145701E+03  0.19300217577E+03  0.25510189960E+03  0.12509013501E+03 0.  0.
          5    1    3    3  502    0 -0.57782711634E+02  0.41315296676E+02  0.13750614949E+03  0.15482638357E+03  0.41800000000E+01 0. -1.
         -5    1    3    3    0  502  0.47503467649E+02  0.68566160330E+02  0.55496026280E+02  0.10027551602E+03  0.41800000000E+01 0. -1.
        -11    1    1    2    0    0 -0.11916650435E+02  0.87009948230E+01  0.21892862043E+02  0.26400971136E+02  0.00000000000E+00 0.  1.
         11    1    1    2    0    0  0.22195894419E+02 -0.11858245183E+03  0.58096535864E+03  0.59335925337E+03  0.00000000000E+00 0. -1.
</event>
<event>
 7    1  0.1312490E-005  0.1268244E+03  0.7561462E-02  0.1232245E+00
         -1   -1    0    0    0  501 -0.00000000000E+00  0.00000000000E+00  0.19648429577E+03  0.19648429577E+03  0.00000000000E+00 0.  1.
          1   -1    0    0  501    0  0.00000000000E+00 -0.00000000000E+00 -0.20154316556E+03  0.20154316556E+03  0.00000000000E+00 0. -1.
         23    2    1    2    0    0 -0.32283189127E+02  0.91265109704E+02  0.12948433775E+03  0.20441398038E+03  0.12508939643E+03 0.  0.
          5    1    3    3  502    0  0.18899410212E+02  0.62413151518E+02  0.36169152131E+01  0.65445730681E+02  0.41800000000E+01 0. -1.
         -5    1    3    3    0  502 -0.51182599339E+02  0.28851958187E+02  0.12586742254E+03  0.13896824970E+03  0.41800000000E+01 0. -1.
        -11    1    1    2    0    0  0.45932715174E+02 -0.10015531893E+02 -0.16832326601E+02  0.49934481284E+02  0.00000000000E+00 0. -1.
         11    1    1    2    0    0 -0.13649526047E+02 -0.81249577812E+02 -0.11771088094E+03  0.14367899967E+03  0.00000000000E+00 0.  1.
</event>
<event>
 7    1  0.1312490E-005  0.1121009E+03  0.7561462E-02  0.1256728E+00
         -2   -1    0    0    0  501 -0.00000000000E+00  0.00000000000E+00  0.17147086182E+03  0.17147086182E+03  0.00000000000E+00 0.  1.
          2   -1    0    0  501    0  0.00000000000E+00 -0.00000000000E+00 -0.75678859625E+02  0.75678859625E+02  0.00000000000E+00 0. -1.
         23    2    1    2    0    0  0.34834605250E+02  0.18461894101E+02  0.67390739164E+02  0.14745393819E+03  0.12508741306E+03 0.  0.
          5    1    3    3  502    0  0.55669907289E+02  0.60397125914E+02  0.30588576442E+02  0.87750127093E+02  0.41800000000E+01 0. -1.
         -5    1    3    3    0  502 -0.20835302039E+02 -0.41935231812E+02  0.36802162721E+02  0.59703811094E+02  0.41800000000E+01 0. -1.
        -11    1    1    2    0    0 -0.43566738838E+02 -0.47598420834E+02  0.13935059102E+02  0.66014061162E+02  0.00000000000E+00 0.  1.
         11    1    1    2    0    0  0.87321335878E+01  0.29136526733E+02  0.14466203926E+02  0.33681722092E+02  0.00000000000E+00 0. -1.
</event>
<event>
 7    1  0.1312490E-005  0.9637011E+02  0.7561462E-02  0.1288120E+00
          1   -1    0    0  501    0  0.00000000000E+00  0.00000000000E+00  0.57922060198E+03  0.57922060198E+03  0.00000000000E+00 0. -1.
         -1   -1    0    0    0  501 -0.00000000000E+00 -0.00000000000E+00 -0.30764258713E+02  0.30764258713E+02  0.00000000000E+00 0.  1.
         23    2    1    2    0    0  0.30246186955E+02  0.63334637532E+02  0.23916755431E+03  0.27888114237E+03  0.12508982532E+03 0.  0.
          5    1    3    3  502    0 -0.86835530998E+01  0.17410622534E+02  0.21160004083E+03  0.21253372332E+03  0.41800000000E+01 0. -1.
         -5    1    3    3    0  502  0.38929740054E+02  0.45924014998E+02  0.27567513480E+02  0.66347419043E+02  0.41800000000E+01 0. -1.
        -11    1    1    2    0    0 -0.59939099455E+02 -0.27481188114E+02  0.22890511855E+03  0.23821306564E+03  0.00000000000E+00 0.  1.
         11    1    1    2    0    0  0.29692912501E+02 -0.35853449417E+02  0.80383670410E+02  0.92890652687E+02  0.00000000000E+00 0. -1.
</event>
<event>
 7    1  0.1312490E-005  0.7103346E+02  0.7561462E-02  0.1356614E+00
         -3   -1    0    0    0  501 -0.00000000000E+00  0.00000000000E+00  0.11342035082E+03  0.11342035082E+03  0.00000000000E+00 0.  1.
          3   -1    0    0  501    0  0.00000000000E+00 -0.00000000000E+00 -0.10921393324E+03  0.10921393324E+03  0.00000000000E+00 0. -1.
         23    2    1    2    0    0  0.14345737004E+02 -0.17484060737E+02  0.11172761491E+01  0.12712439178E+03  0.12509144707E+03 0.  0.
          5    1    3    3  502    0  0.30123820218E+02 -0.20314128689E+02 -0.56427176280E+02  0.67242895474E+02  0.41800000000E+01 0.  1.
         -5    1    3    3    0  502 -0.15778083213E+02  0.28300679517E+01  0.57544452429E+02  0.59881496306E+02  0.41800000000E+01 0.  1.
        -11    1    1    2    0    0  0.33282546151E+02 -0.89379211104E+01 -0.15732777043E+02  0.37883170215E+02  0.00000000000E+00 0.  1.
         11    1    1    2    0    0 -0.47628283155E+02  0.26421981847E+02  0.18821918472E+02  0.57626722065E+02  0.00000000000E+00 0. -1.
</event>
<event>
 7    1  0.1312490E-005  0.1083675E+03  0.7561462E-02  0.1263623E+00
          4   -1    0    0  501    0  0.00000000000E+00  0.00000000000E+00  0.10839773436E+03  0.10839773436E+03  0.00000000000E+00 0. -1.
         -4   -1    0    0    0  501 -0.00000000000E+00 -0.00000000000E+00 -0.12221759208E+03  0.12221759208E+03  0.00000000000E+00 0.  1.
         23    2    1    2    0    0  0.30324396674E+02  0.66101338534E+02  0.11829024118E+02  0.14517634071E+03  0.12508912063E+03 0.  0.
          5    1    3    3  502    0  0.50411695217E+02 -0.17266121998E+02  0.23765230426E+02  0.58495440512E+02  0.41800000000E+01 0.  1.
         -5    1    3    3    0  502 -0.20087298543E+02  0.83367460532E+02 -0.11936206308E+02  0.86680900199E+02  0.41800000000E+01 0.  1.
        -11    1    1    2    0    0  0.31410726051E+01 -0.21187122352E+02  0.44159666714E+01  0.21869184994E+02  0.00000000000E+00 0. -1.
         11    1    1    2    0    0 -0.33465469279E+02 -0.44914216182E+02 -0.30064848511E+02  0.63569800734E+02  0.00000000000E+00 0.  1.
</event>
<event>
 7    1  0.1312490E-005  0.1001878E+03  0.7561462E-02  0.1279902E+00
          1   -1    0    0  501    0  0.00000000000E+00  0.00000000000E+00  0.39144570299E+03  0.39144570299E+03  0.00000000000E+00 0. -1.
         -1   -1    0    0    0  501 -0.00000000000E+00 -0.00000000000E+00 -0.34899418597E+02  0.34899418597E+02  0.00000000000E+00 0.  1.
         23    2    1    2    0    0 -0.17225073220E+02  0.16461976670E+02  0.13980403846E+03  0.18910698612E+03  0.12509429726E+03 0.  0.
          5    1    3    3  502    0 -0.58386770512E+02  0.30662990435E+02  0.33357559523E+02  0.74023193194E+02  0.41800000000E+01 0.  1.
         -5    1    3    3    0  502  0.41161697292E+02 -0.14201013765E+02  0.10644647894E+03  0.11508379293E+03  0.41800000000E+01 0.  1.
        -11    1    1    2    0    0 -0.18164367245E+02  0.28215199446E+02  0.43997450862E+02  0.55333691360E+02  0.00000000000E+00 0.  1.
         11    1    1    2    0    0  0.35389440465E+02 -0.44677176116E+02  0.17274479507E+03  0.18190444411E+03  0.00000000000E+00 0. -1.
</event>
<event>
 6    1  0.1312490E-005  0.2199851E+03  0.7561462E-02  0.1133894E+00
          1   -1    0    0  501    0  0.00000000000E+00  0.00000000000E+00  0.13121300626E+04  0.13121300626E+04  0.00000000000E+00 0. -1.
         -1   -1    0    0    0  501 -0.00000000000E+00 -0.00000000000E+00 -0.37738685638E+02  0.37738685638E+02  0.00000000000E+00 0.  1.
          5    1    1    2  502    0  0.74873406154E+01 -0.28620722217E+02  0.95397505131E+02  0.99966806466E+02  0.41800000000E+01 0. -1.
         -5    1    1    2    0  502 -0.51254557193E+02  0.19861696202E+03  0.68075459716E+03  0.71099931167E+03  0.41800000000E+01 0.  1.
        -11    1    1    2    0    0 -0.32774369152E+02 -0.25938450388E+02  0.11640516529E+03  0.12368154667E+03  0.00000000000E+00 0.  1.
         11    1    1    2    0    0  0.76541585729E+02 -0.14405778941E+03  0.38183410934E+03  0.41522108339E+03  0.00000000000E+00 0. -1.
</event>
<event>
 7    1  0.1312490E-005  0.1886481E+03  0.7561462E-02  0.1159686E+00
         -2   -1    0    0    0  501 -0.00000000000E+00  0.00000000000E+00  0.86085835863E+02  0.86085835863E+02  0.00000000000E+00 0.  1.
          2   -1    0    0  501    0  0.00000000000E+00 -0.00000000000E+00 -0.47524557386E+03  0.47524557386E+03  0.00000000000E+00 0. -1.
         23    2    1    2    0    0 -0.10994247042E+03 -0.12904815087E+03 -0.17727692082E+03  0.27534553681E+03  0.12508911201E+03 0.  0.
          5    1    3    3  502    0 -0.71634524042E+02 -0.23533561087E+02 -0.13448566107E+02  0.76705083681E+02  0.41800000000E+01 0. -1.
         -5    1    3    3    0  502 -0.38307946381E+02 -0.10551458978E+03 -0.16382835471E+03  0.19864045313E+03  0.41800000000E+01 0. -1.
        -11    1    1    2    0    0  0.60932613318E+02  0.12645505314E+03 -0.13486086504E+03  0.19465640691E+03  0.00000000000E+00 0.  1.
         11    1    1    2    0    0  0.49009857105E+02  0.25930977233E+01 -0.77021952146E+02  0.91329466010E+02  0.00000000000E+00 0. -1.
</event>
<event>
 7    1  0.1312490E-005  0.1439503E+03  0.7561462E-02  0.1208110E+00
         -1   -1    0    0    0  501 -0.00000000000E+00  0.00000000000E+00  0.33254028540E+02  0.33254028540E+02  0.00000000000E+00 0.  1.
          1   -1    0    0  501    0  0.00000000000E+00 -0.00000000000E+00 -0.63921779803E+03  0.63921779803E+03  0.00000000000E+00 0. -1.
         23    2    1    2    0    0  0.93422429734E+02 -0.20400978849E+02 -0.29422969320E+03  0.33371067543E+03  0.12509097575E+03 0.  0.
          5    1    3    3  502    0 -0.22405608252E+02 -0.33436083693E+02 -0.66318183464E+02  0.77688846252E+02  0.41800000000E+01 0.  1.
         -5    1    3    3    0  502  0.11582803799E+03  0.13035104844E+02 -0.22791150974E+03  0.25602182917E+03  0.41800000000E+01 0.  1.
        -11    1    1    2    0    0 -0.77345015290E+01  0.41776988901E+02 -0.12877030434E+03  0.13559841664E+03  0.00000000000E+00 0. -1.
         11    1    1    2    0    0 -0.85687928205E+02 -0.21376010052E+02 -0.18296377195E+03  0.20316273450E+03  0.00000000000E+00 0.  1.
</event>
<event>
 7    1  0.1312490E-005  0.9254845E+02  0.7561462E-02  0.1296795E+00
          2   -1    0    0  501    0  0.00000000000E+00  0.00000000000E+00  0.38542937275E+03  0.38542937275E+03  0.00000000000E+00 0. -1.
         -2   -1    0    0    0  501 -0.00000000000E+00 -0.00000000000E+00 -0.34749421870E+02  0.34749421870E+02  0.00000000000E+00 0.  1.
         23    2    1    2    0    0  0.34456760574E+02  0.19083291249E+02  0.17759111982E+03  0.22076453413E+03  0.12508770258E+03 0.  0.
          5    1    3    3  502    0  0.27129183303E+02  0.62108465295E+02  0.15946586432E+03  0.17332134413E+03  0.41800000000E+01 0.  1.
         -5    1    3    3    0  502  0.73275772705E+01 -0.43025174046E+02  0.18125255503E+02  0.47443190000E+02  0.41800000000E+01 0.  1.
        -11    1    1    2    0    0 -0.22627451218E+02  0.21417199338E+02  0.12830076986E+02  0.33694344504E+02  0.00000000000E+00 0.  1.
         11    1    1    2    0    0 -0.11829309356E+02 -0.40500490587E+02  0.16025875407E+03  0.16571991599E+03  0.00000000000E+00 0. -1.
</event>
<event>
 7    1  0.1312490E-005  0.1178566E+03  0.7561462E-02  0.1246675E+00
         -2   -1    0    0    0  501 -0.00000000000E+00  0.00000000000E+00  0.66660239663E+02  0.66660239663E+02  0.00000000000E+00 0.  1.
          2   -1    0    0  501    0  0.00000000000E+00 -0.00000000000E+00 -0.25940155999E+03  0.25940155999E+03  0.00000000000E+00 0. -1.
         23    2    1    2    0    0  0.45102506089E+01  0.59256536114E+02 -0.52672421040E+02  0.14816691334E+03  0.12508945134E+03 0.  0.
          5    1    3    3  502    0 -0.58445040342E+02  0.30067155949E+02 -0.41265410703E+02  0.77718486397E+02  0.41800000000E+01 0.  1.
         -5    1    3    3    0  502  0.62955290951E+02  0.29189380166E+02 -0.11407010337E+02  0.70448426938E+02  0.41800000000E+01 0.  1.
        -11    1    1    2    0    0 -0.39430057541E+02 -0.50979507419E+02 -0.52054053087E+02  0.82844819133E+02  0.00000000000E+00 0.  1.
         11    1    1    2    0    0  0.34919806932E+02 -0.82770286953E+01 -0.88014846204E+02  0.95050067189E+02  0.00000000000E+00 0. -1.
</event>
<event>
 7    1  0.1312490E-005  0.9891440E+02  0.7561462E-02  0.1282596E+00
         -1   -1    0    0    0  501 -0.00000000000E+00  0.00000000000E+00  0.20957834377E+03  0.20957834377E+03  0.00000000000E+00 0.  1.
          1   -1    0    0  501    0  0.00000000000E+00 -0.00000000000E+00 -0.74416265261E+02  0.74416265261E+02  0.00000000000E+00 0. -1.
         23    2    1    2    0    0  0.38119360052E+02  0.44392593365E+02  0.99634920704E+02  0.17028904878E+03  0.12508978677E+03 0.  0.
          5    1    3    3  502    0 -0.20264760210E+02  0.69654861602E+02  0.39767304728E+02  0.82833394090E+02  0.41800000000E+01 0. -1.
         -5    1    3    3    0  502  0.58384120262E+02 -0.25262268237E+02  0.59867615975E+02  0.87455654693E+02  0.41800000000E+01 0. -1.
        -11    1    1    2    0    0 -0.24001711527E+02 -0.13716661078E+02  0.63884632097E+02  0.69609447387E+02  0.00000000000E+00 0.  1.
         11    1    1    2    0    0 -0.14117648525E+02 -0.30675932287E+02 -0.28357474289E+02  0.44096112863E+02  0.00000000000E+00 0. -1.
</event>
<event>
 7    1  0.1312490E-005  0.1137442E+03  0.7561462E-02  0.1253789E+00
         -1   -1    0    0    0  501 -0.00000000000E+00  0.00000000000E+00  0.29882648719E+03  0.29882648719E+03  0.00000000000E+00 0.  1.
          1   -1    0    0  501    0  0.00000000000E+00 -0.00000000000E+00 -0.54388970497E+02  0.54388970497E+02  0.00000000000E+00 0. -1.
         23    2    1    2    0    0  0.39524898244E+02 -0.22934633640E+02  0.19015118374E+03  0.23215019645E+03  0.12509207023E+03 0.  0.
          5    1    3    3  502    0 -0.42310737414E+02  0.10961634343E+02  0.52943242769E+02  0.68780922376E+02  0.41800000000E+01 0.  1.
         -5    1    3    3    0  502  0.81835635657E+02 -0.33896267984E+02  0.13720794097E+03  0.16336927408E+03  0.41800000000E+01 0.  1.
        -11    1    1    2    0    0 -0.51599954041E+02  0.45834096580E+02  0.99585128521E+01  0.69731568494E+02  0.00000000000E+00 0. -1.
         11    1    1    2    0    0  0.12075055798E+02 -0.22899462940E+02  0.44327820094E+02  0.51333692735E+02  0.00000000000E+00 0.  1.
</event>
<event>
 7    1  0.1312490E-005  0.1074335E+03  0.7561462E-02  0.1265398E+00
         -1   -1    0    0    0  501 -0.00000000000E+00  0.00000000000E+00  0.97211621487E+02  0.97211621487E+02  0.00000000000E+00 0.  1.
          1   -1    0    0  501    0  0.00000000000E+00 -0.00000000000E+00 -0.16203243429E+03  0.16203243429E+03  0.00000000000E+00 0. -1.
         23    2    1    2    0    0 -0.19889434592E+02 -0.33507236512E+02  0.12078942217E+02  0.13157738174E+03  0.12509349317E+03 0.  0.
          5    1    3    3  502    0  0.21535443285E+02  0.38412948135E+02 -0.10494749805E+02  0.45463634648E+02  0.41800000000E+01 0.  1.
         -5    1    3    3    0  502 -0.41424877877E+02 -0.71920184647E+02  0.22573692022E+02  0.86113747093E+02  0.41800000000E+01 0.  1.
        -11    1    1    2    0    0  0.43378283184E+02 -0.36912927275E+01 -0.70992442740E+02  0.83278016428E+02  0.00000000000E+00 0. -1.
         11    1    1    2    0    0 -0.23488848592E+02  0.37198529239E+02 -0.59073122782E+01  0.44388657606E+02  0.00000000000E+00 0.  1.
</event>
<event>
 7    1  0.1312490E-005  0.2653253E+03  0.7561462E-02  0.1103985E+00
          2   -1    0    0  501    0  0.00000000000E+00  0.00000000000E+00  0.20541221838E+04  0.20541221838E+04  0.00000000000E+00 0. -1.
         -2   -1    0    0    0  501 -0.00000000000E+00 -0.00000000000E+00 -0.39208915689E+02  0.39208915689E+02  0.00000000000E+00 0.  1.
         23    2    1    2    0    0 -0.21531303679E+03  0.12941818582E+03  0.75785119548E+03  0.80814293844E+03  0.12509118207E+03 0.  0.
          5    1    3    3  502    0 -0.12117068517E+03  0.19302879760E+02  0.47125237099E+03  0.48698173033E+03  0.41800000000E+01 0. -1.
         -5    1    3    3    0  502 -0.94142351618E+02  0.11011530606E+03  0.28659882449E+03  0.32116120811E+03  0.41800000000E+01 0. -1.
        -11    1    1    2    0    0  0.14346000941E+03 -0.12612503646E+03  0.10083655062E+04  0.10262988323E+04  0.00000000000E+00 0.  1.
         11    1    1    2    0    0  0.71853027374E+02 -0.32931493582E+01  0.24869656649E+03  0.25888932878E+03  0.00000000000E+00 0. -1.
</event>
<event>
 7    1  0.1312490E-005  0.7123420E+02  0.7561462E-02  0.1355946E+00
         -1   -1    0    0    0  501 -0.00000000000E+00  0.00000000000E+00  0.38280581875E+03  0.38280581875E+03  0.00000000000E+00 0.  1.
          1   -1    0    0  501    0  0.00000000000E+00 -0.00000000000E+00 -0.31843434109E+02  0.31843434109E+02  0.00000000000E+00 0. -1.
         23    2    1    2    0    0  0.73237193860E+01 -0.20757134078E+02  0.22825755328E+03  0.26121457642E+03  0.12508816422E+03 0.  0.
          5    1    3    3  502    0 -0.32674411386E+02  0.40945986268E+01  0.56859646434E+01  0.33677670514E+02  0.41800000000E+01 0. -1.
         -5    1    3    3    0  502  0.39998130772E+02 -0.24851732705E+02  0.22257158864E+03  0.22753690591E+03  0.41800000000E+01 0. -1.
        -11    1    1    2    0    0 -0.26881586960E+02 -0.72472086306E+01  0.11512806441E+03  0.11844666717E+03  0.00000000000E+00 0.  1.
         11    1    1    2    0    0  0.19557867574E+02  0.28004342709E+02  0.75767669558E+01  0.34988009262E+02  0.00000000000E+00 0. -1.
</event>
<event>
 7    1  0.1312490E-005  0.1712863E+03  0.7561462E-02  0.1176513E+00
         -2   -1    0    0    0  501 -0.00000000000E+00  0.00000000000E+00  0.34768864594E+02  0.34768864594E+02  0.00000000000E+00 0. -1.
          2   -1    0    0  501    0  0.00000000000E+00 -0.00000000000E+00 -0.10366989999E+04  0.10366989999E+04  0.00000000000E+00 0.  1.
         23    2    1    2    0    0 -0.49861536019E+02  0.13656398991E+03 -0.37193619766E+03  0.41846838190E+03  0.12507340007E+03 0.  0.
          5    1    3    3  502    0 -0.76179457268E+02  0.67201129434E+02 -0.29264006613E+03  0.30979829279E+03  0.41800000000E+01 0.  1.
         -5    1    3    3    0  502  0.26317921249E+02  0.69362860478E+02 -0.79296131522E+02  0.10867008911E+03  0.41800000000E+01 0.  1.
        -11    1    1    2    0    0 -0.96584183690E+01 -0.91330166449E+02 -0.42473006646E+03  0.43454587065E+03  0.00000000000E+00 0.  1.
         11    1    1    2    0    0  0.59519954388E+02 -0.45233823463E+02 -0.20526387123E+03  0.21845361198E+03  0.00000000000E+00 0. -1.
</event>
<event>
 7    1  0.1312490E-005  0.8086637E+02  0.7561462E-02  0.1326611E+00
         -2   -1    0    0    0  501 -0.00000000000E+00  0.00000000000E+00  0.24360004595E+03  0.24360004595E+03  0.00000000000E+00 0. -1.
          2   -1    0    0  501    0  0.00000000000E+00 -0.00000000000E+00 -0.54245070597E+02  0.54245070597E+02  0.00000000000E+00 0.  1.
         23    2    1    2    0    0 -0.24580254988E+02 -0.24746167042E+02  0.13905761365E+03  0.19027529169E+03  0.12510437640E+03 0.  0.
          5    1    3    3  502    0 -0.11343074086E+02  0.26401238824E+02 -0.11063742144E+02  0.31073614714E+02  0.41800000000E+01 0.  1.
         -5    1    3    3    0  502 -0.13237180902E+02 -0.51147405865E+02  0.15012135579E+03  0.15920167697E+03  0.41800000000E+01 0.  1.
        -11    1    1    2    0    0  0.24572777328E+02 -0.21981701151E+02 -0.69279856401E+01  0.33689962246E+02  0.00000000000E+00 0.  1.
         11    1    1    2    0    0  0.74776599416E-02  0.46727868193E+02  0.57225347345E+02  0.73879862618E+02  0.00000000000E+00 0. -1.
</event>
<event>
 7    1  0.1312490E-005  0.1186588E+03  0.7561462E-02  0.1245326E+00
         -2   -1    0    0    0  501 -0.00000000000E+00  0.00000000000E+00  0.45656220695E+03  0.45656220695E+03  0.00000000000E+00 0.  1.
          2   -1    0    0  501    0  0.00000000000E+00 -0.00000000000E+00 -0.39078563781E+02  0.39078563781E+02  0.00000000000E+00 0. -1.
         23    2    1    2    0    0 -0.47183482743E+01  0.77221856499E+02  0.24845613237E+03  0.28872610342E+03  0.12508731012E+03 0.  0.
          5    1    3    3  502    0  0.44379169948E+02  0.12370052740E+02  0.16795280527E+03  0.17420719310E+03  0.41800000000E+01 0. -1.
         -5    1    3    3    0  502 -0.49097518222E+02  0.64851803759E+02  0.80503327098E+02  0.11451891032E+03  0.41800000000E+01 0. -1.
        -11    1    1    2    0    0  0.10719595379E+02 -0.92539342069E+02  0.10304665601E+03  0.13891383254E+03  0.00000000000E+00 0. -1.
         11    1    1    2    0    0 -0.60012471049E+01  0.15317485570E+02  0.65980854795E+02  0.68000834778E+02  0.00000000000E+00 0.  1.
</event>
<event>
 7    1  0.1312490E-005  0.1057000E+03  0.7561462E-02  0.1268747E+00
          1   -1    0    0  501    0  0.00000000000E+00  0.00000000000E+00  0.47783430463E+02  0.47783430463E+02  0.00000000000E+00 0. -1.
         -1   -1    0    0    0  501 -0.00000000000E+00 -0.00000000000E+00 -0.33844938962E+03  0.33844938962E+03  0.00000000000E+00 0.  1.
         23    2    1    2    0    0 -0.25921184318E+02 -0.37045505099E+02 -0.23242282377E+03  0.26779059015E+03  0.12508858431E+03 0.  0.
          5    1    3    3  502    0 -0.72494528314E+02 -0.26923264720E+02 -0.96748206878E+02  0.12392742535E+03  0.41800000000E+01 0. -1.
         -5    1    3    3    0  502  0.46573343996E+02 -0.10122240380E+02 -0.13567461689E+03  0.14386316481E+03  0.41800000000E+01 0. -1.
        -11    1    1    2    0    0  0.51322286496E+02  0.18091650336E+02 -0.66268669455E+02  0.85748594475E+02  0.00000000000E+00 0.  1.
         11    1    1    2    0    0 -0.25401102178E+02  0.18953854764E+02  0.80255340619E+01  0.32693635455E+02  0.00000000000E+00 0. -1.
</event>
<event>
 7    1  0.1312490E-005  0.1351073E+03  0.7561462E-02  0.1220068E+00
         -1   -1    0    0    0  501 -0.00000000000E+00  0.00000000000E+00  0.67018824663E+02  0.67018824663E+02  0.00000000000E+00 0.  1.
          1   -1    0    0  501    0  0.00000000000E+00 -0.00000000000E+00 -0.38933541796E+03  0.38933541796E+03  0.00000000000E+00 0. -1.
         23    2    1    2    0    0 -0.89455532735E+02  0.48737816111E+02 -0.87311568167E+02  0.18342909789E+03  0.12508100159E+03 0.  0.
          5    1    3    3  502    0  0.75013759890E+01 -0.14319323191E+02  0.19685898304E+02  0.25813187529E+02  0.41800000000E+01 0.  1.
         -5    1    3    3    0  502 -0.96956908724E+02  0.63057139303E+02 -0.10699746647E+03  0.15761591036E+03  0.41800000000E+01 0.  1.
        -11    1    1    2    0    0  0.39064041655E+02  0.26518279208E+02 -0.65531125194E+02  0.80768476845E+02  0.00000000000E+00 0.  1.
         11    1    1    2    0    0  0.50391491080E+02 -0.75256095320E+02 -0.16947389994E+03  0.19215666790E+03  0.00000000000E+00 0. -1.
</event>
<event>
 7    1  0.1312490E-005  0.2945319E+03  0.7561462E-02  0.1088006E+00
          3   -1    0    0  501    0  0.00000000000E+00  0.00000000000E+00  0.18344331100E+03  0.18344331100E+03  0.00000000000E+00 0. -1.
         -3   -1    0    0    0  501 -0.00000000000E+00 -0.00000000000E+00 -0.49390175744E+03  0.49390175744E+03  0.00000000000E+00 0.  1.
         23    2    1    2    0    0  0.25609688319E+03  0.11394098887E+03 -0.16777268542E+03  0.34980530760E+03  0.12509163332E+03 0.  0.
          5    1    3    3  502    0  0.14858696288E+03  0.12984424029E+03 -0.95837699747E+02  0.21940817981E+03  0.41800000000E+01 0.  1.
         -5    1    3    3    0  502  0.10750992031E+03 -0.15903251429E+02 -0.71934985673E+02  0.13039712779E+03  0.41800000000E+01 0.  1.
        -11    1    1    2    0    0 -0.10950868999E+03 -0.69724396376E+02 -0.11183758365E+03  0.17135136343E+03  0.00000000000E+00 0.  1.
         11    1    1    2    0    0 -0.14658819320E+03 -0.44216592490E+02 -0.30848177378E+02  0.15618839741E+03  0.00000000000E+00 0. -1.
</event>
<event>
 7    1  0.1312490E-005  0.1286997E+03  0.7561462E-02  0.1229398E+00
          2   -1    0    0  501    0  0.00000000000E+00  0.00000000000E+00  0.52226032700E+03  0.52226032700E+03  0.00000000000E+00 0. -1.
         -2   -1    0    0    0  501 -0.00000000000E+00 -0.00000000000E+00 -0.51258201405E+02  0.51258201405E+02  0.00000000000E+00 0.  1.
         23    2    1    2    0    0 -0.89380736400E+02 -0.56464143243E+02  0.14394618379E+03  0.21807378631E+03  0.12513415576E+03 0.  0.
          5    1    3    3  502    0 -0.88337431929E+02  0.63961449055E+01  0.41725360306E+02  0.97994339848E+02  0.41800000000E+01 0.  1.
         -5    1    3    3    0  502 -0.10433044706E+01 -0.62860288149E+02  0.10222082348E+03  0.12007944647E+03  0.41800000000E+01 0.  1.
        -11    1    1    2    0    0  0.61313059576E+02  0.39133378240E+02  0.30978520267E+03  0.31820996899E+03  0.00000000000E+00 0. -1.
         11    1    1    2    0    0  0.28067676824E+02  0.17330765003E+02  0.17270739133E+02  0.37234773104E+02  0.00000000000E+00 0.  1.
</event>
<event>
 7    1  0.1312490E-005  0.1213164E+03  0.7561462E-02  0.1240941E+00
         -1   -1    0    0    0  501 -0.00000000000E+00  0.00000000000E+00  0.75758551198E+02  0.75758551198E+02  0.00000000000E+00 0.  1.
          1   -1    0    0  501    0  0.00000000000E+00 -0.00000000000E+00 -0.21467157965E+03  0.21467157965E+03  0.00000000000E+00 0. -1.
         23    2    1    2    0    0  0.47038316106E+01  0.66950045117E+02 -0.65423425626E+02  0.15630805439E+03  0.12509016218E+03 0.  0.
          5    1    3    3  502    0 -0.13863816420E+02 -0.32455892885E+02 -0.36726853150E+02  0.51106991019E+02  0.41800000000E+01 0.  1.
         -5    1    3    3    0  502  0.18567648031E+02  0.99405938001E+02 -0.28696572476E+02  0.10520106337E+03  0.41800000000E+01 0.  1.
        -11    1    1    2    0    0 -0.42211202296E+02 -0.22886616539E+02 -0.11606059187E+02  0.49399224951E+02  0.00000000000E+00 0.  1.
         11    1    1    2    0    0  0.37507370685E+02 -0.44063428578E+02 -0.61883543639E+02  0.84722851505E+02  0.00000000000E+00 0. -1.
</event>
<event>
 7    1  0.1312490E-005  0.1425166E+03  0.7561462E-02  0.1209982E+00
          1   -1    0    0  501    0  0.00000000000E+00  0.00000000000E+00  0.97434588240E+03  0.97434588240E+03  0.00000000000E+00 0. -1.
         -1   -1    0    0    0  501 -0.00000000000E+00 -0.00000000000E+00 -0.24848774061E+02  0.24848774061E+02  0.00000000000E+00 0.  1.
         23    2    1    2    0    0 -0.76270154700E+02 -0.80282937608E+02  0.47701071281E+03  0.50541943314E+03  0.12508835553E+03 0.  0.
          5    1    3    3  502    0 -0.23513192841E+02  0.18613149974E+02  0.25391360306E+03  0.25571255309E+03  0.41800000000E+01 0. -1.
         -5    1    3    3    0  502 -0.52756961859E+02 -0.98896087582E+02  0.22309710975E+03  0.24970688005E+03  0.41800000000E+01 0. -1.
        -11    1    1    2    0    0 -0.20622682727E+02  0.10204337237E+02  0.58425213537E+02  0.62792747337E+02  0.00000000000E+00 0.  1.
         11    1    1    2    0    0  0.96892837427E+02  0.70078600371E+02  0.41406118199E+03  0.43098247599E+03  0.00000000000E+00 0. -1.
</event>
<event>
 7    1  0.1312490E-005  0.1563002E+03  0.7561462E-02  0.1192938E+00
         -2   -1    0    0    0  501 -0.00000000000E+00  0.00000000000E+00  0.90845416116E+02  0.90845416116E+02  0.00000000000E+00 0.  1.
          2   -1    0    0  501    0  0.00000000000E+00 -0.00000000000E+00 -0.29412637806E+03  0.29412637806E+03  0.00000000000E+00 0. -1.
         23    2    1    2    0    0  0.11848131700E+03 -0.25061995456E+02 -0.93701133460E+02  0.19772330772E+03  0.12509467578E+03 0.  0.
          5    1    3    3  502    0  0.10711856970E+03  0.35017228586E+02 -0.58449756201E+02  0.12702141816E+03  0.41800000000E+01 0.  1.
         -5    1    3    3    0  502  0.11362747298E+02 -0.60079224042E+02 -0.35251377260E+02  0.70701889552E+02  0.41800000000E+01 0.  1.
        -11    1    1    2    0    0 -0.79350855570E+02 -0.16934615315E+02 -0.10044935138E+03  0.12912556551E+03  0.00000000000E+00 0. -1.
         11    1    1    2    0    0 -0.39130461429E+02  0.41996610771E+02 -0.91304771087E+01  0.58122920954E+02  0.00000000000E+00 0.  1.
</event>
<event>
 7    1  0.1312490E-005  0.1283893E+03  0.7561462E-02  0.1229866E+00
         -2   -1    0    0    0  501 -0.00000000000E+00  0.00000000000E+00  0.45923489006E+02  0.45923489006E+02  0.00000000000E+00 0.  1.
          2   -1    0    0  501    0  0.00000000000E+00 -0.00000000000E+00 -0.51881752368E+03  0.51881752368E+03  0.00000000000E+00 0. -1.
         23    2    1    2    0    0 -0.69947738818E+02 -0.16969699392E+02 -0.10371761107E+03  0.17772143355E+03  0.12508760223E+03 0.  0.
          5    1    3    3  502    0 -0.24570102913E+02 -0.69741195234E+02 -0.45785937139E+02  0.87070940672E+02  0.41800000000E+01 0.  1.
         -5    1    3    3    0  502 -0.45377635905E+02  0.52771495842E+02 -0.57931673932E+02  0.90650492874E+02  0.41800000000E+01 0.  1.
        -11    1    1    2    0    0  0.25705786718E+02 -0.35837177777E+02 -0.10243940418E+03  0.11152991666E+03  0.00000000000E+00 0.  1.
         11    1    1    2    0    0  0.44241952101E+02  0.52806877169E+02 -0.26673701942E+03  0.27548966247E+03  0.00000000000E+00 0. -1.
</event>
<event>
 7    1  0.1312490E-005  0.6645376E+02  0.7561462E-02  0.1372585E+00
          1   -1    0    0  501    0  0.00000000000E+00  0.00000000000E+00  0.10913227555E+03  0.10913227555E+03  0.00000000000E+00 0. -1.
         -1   -1    0    0    0  501 -0.00000000000E+00 -0.00000000000E+00 -0.12187822997E+03  0.12187822997E+03  0.00000000000E+00 0.  1.
         23    2    1    2    0    0  0.21293707913E+02  0.60892065086E+01 -0.39715562277E+02  0.13309935297E+03  0.12509041307E+03 0.  0.
          5    1    3    3  502    0  0.27527366983E+02 -0.48335103895E+02  0.12654558037E+02  0.57198325506E+02  0.41800000000E+01 0.  1.
         -5    1    3    3    0  502 -0.62336590700E+01  0.54424310404E+02 -0.52370120314E+02  0.75901027463E+02  0.41800000000E+01 0.  1.
        -11    1    1    2    0    0 -0.10779721195E+02 -0.23902810551E+01 -0.34094686974E+02  0.35838017696E+02  0.00000000000E+00 0.  1.
         11    1    1    2    0    0 -0.10513986718E+02 -0.36989254536E+01  0.61064294835E+02  0.62073134848E+02  0.00000000000E+00 0. -1.
</event>
<event>
 7    1  0.1312490E-005  0.1563523E+03  0.7561462E-02  0.1192878E+00
         -2   -1    0    0    0  501 -0.00000000000E+00  0.00000000000E+00  0.62208299980E+02  0.62208299980E+02  0.00000000000E+00 0.  1.
          2   -1    0    0  501    0  0.00000000000E+00 -0.00000000000E+00 -0.47753374994E+03  0.47753374994E+03  0.00000000000E+00 0. -1.
         23    2    1    2    0    0  0.54914748383E+02 -0.12380253376E+03 -0.21099665372E+03  0.28019426887E+03  0.12508614419E+03 0.  0.
          5    1    3    3  502    0  0.76234185552E+02 -0.13319522202E+03 -0.14945883281E+03  0.21426160020E+03  0.41800000000E+01 0. -1.
         -5    1    3    3    0  502 -0.21319437169E+02  0.93926882667E+01 -0.61537820919E+02  0.65932668667E+02  0.41800000000E+01 0. -1.
        -11    1    1    2    0    0 -0.34826817530E+02  0.83744562523E+02 -0.60812989850E+02  0.10919834571E+03  0.00000000000E+00 0.  1.
         11    1    1    2    0    0 -0.20087930853E+02  0.40057971233E+02 -0.14351580638E+03  0.15034943534E+03  0.00000000000E+00 0. -1.
</event>
<event>
 7    1  0.1312490E-005  0.1143858E+03  0.7561462E-02  0.1252657E+00
          1   -1    0    0  501    0  0.00000000000E+00  0.00000000000E+00  0.53879501949E+02  0.53879501949E+02  0.00000000000E+00 0. -1.
         -1   -1    0    0    0  501 -0.00000000000E+00 -0.00000000000E+00 -0.35851764305E+03  0.35851764305E+03  0.00000000000E+00 0.  1.
         23    2    1    2    0    0 -0.67011933097E+02 -0.24928900544E+02 -0.24475258156E+03  0.28400848805E+03  0.12507975795E+03 0.  0.
          5    1    3    3  502    0  0.46653228425E+01  0.31195636610E+02 -0.11922541859E+02  0.33978704877E+02  0.41800000000E+01 0. -1.
         -5    1    3    3    0  502 -0.71677255940E+02 -0.56124537154E+02 -0.23283003970E+03  0.25002978318E+03  0.41800000000E+01 0. -1.
        -11    1    1    2    0    0  0.42644672032E+02  0.53405156334E+02 -0.59949255330E+02  0.90909801399E+02  0.00000000000E+00 0.  1.
         11    1    1    2    0    0  0.24367261065E+02 -0.28476255789E+02  0.63695791390E-01  0.37478855542E+02  0.00000000000E+00 0. -1.
</event>
<event>
 7    1  0.1312490E-005  0.1400427E+03  0.7561462E-02  0.1213272E+00
         -2   -1    0    0    0  501 -0.00000000000E+00  0.00000000000E+00  0.31027502375E+03  0.31027502375E+03  0.00000000000E+00 0. -1.
          2   -1    0    0  501    0  0.00000000000E+00 -0.00000000000E+00 -0.95634346868E+02  0.95634346868E+02  0.00000000000E+00 0.  1.
         23    2    1    2    0    0 -0.86420705096E+02 -0.83282030986E+02  0.18448677947E+03  0.25315513015E+03  0.12509081968E+03 0.  0.
          5    1    3    3  502    0 -0.53799275596E+02 -0.84236006562E+02  0.19453783929E+03  0.21875216610E+03  0.41800000000E+01 0.  1.
         -5    1    3    3    0  502 -0.32621429500E+02  0.95397557633E+00 -0.10051059821E+02  0.34402964051E+02  0.41800000000E+01 0.  1.
        -11    1    1    2    0    0  0.10151537384E+03  0.55925275739E+02  0.11757032728E+02  0.11649564545E+03  0.00000000000E+00 0. -1.
         11    1    1    2    0    0 -0.15094668739E+02  0.27356755247E+02  0.18396864679E+02  0.36258595009E+02  0.00000000000E+00 0.  1.
</event>
<event>
 7    1  0.1312490E-005  0.8896640E+02  0.7561462E-02  0.1305374E+00
         -1   -1    0    0    0  501 -0.00000000000E+00  0.00000000000E+00  0.23343742665E+03  0.23343742665E+03  0.00000000000E+00 0.  1.
          1   -1    0    0  501    0  0.00000000000E+00 -0.00000000000E+00 -0.75275433746E+02  0.75275433746E+02  0.00000000000E+00 0. -1.
         23    2    1    2    0    0 -0.33212950639E+02  0.92286709673E+01  0.18651513178E+03  0.22720484544E+03  0.12508348792E+03 0.  0.
          5    1    3    3  502    0 -0.73751103973E+02 -0.17851132380E+02  0.81984632159E+02  0.11178926860E+03  0.41800000000E+01 0.  1.
         -5    1    3    3    0  502  0.40538153334E+02  0.27079803347E+02  0.10453049962E+03  0.11541557683E+03  0.41800000000E+01 0.  1.
        -11    1    1    2    0    0  0.34364763369E+02  0.83711686984E+01 -0.45012718122E+02  0.57246469057E+02  0.00000000000E+00 0. -1.
         11    1    1    2    0    0 -0.11518127305E+01 -0.17599839666E+02  0.16659579242E+02  0.24261545898E+02  0.00000000000E+00 0.  1.
</event>
<event>
 7    1  0.1312490E-005  0.1397739E+03  0.7561462E-02  0.1213633E+00
         -1   -1    0    0    0  501 -0.00000000000E+00  0.00000000000E+00  0.47872479454E+02  0.47872479454E+02  0.00000000000E+00 0.  1.
          1   -1    0    0  501    0  0.00000000000E+00 -0.00000000000E+00 -0.43496020577E+03  0.43496020577E+03  0.00000000000E+00 0. -1.
         23    2    1    2    0    0 -0.87735867734E+02  0.31936555618E+02 -0.18049525550E+03  0.23863072272E+03  0.12509419848E+03 0.  0.
          5    1    3    3  502    0 -0.11785193802E+03  0.95361940043E+01 -0.13844505608E+03  0.18211129631E+03  0.41800000000E+01 0. -1.
         -5    1    3    3    0  502  0.30116070286E+02  0.22400361614E+02 -0.42050199427E+02  0.56519426410E+02  0.41800000000E+01 0. -1.
        -11    1    1    2    0    0  0.44501738560E+02 -0.57910954115E+02 -0.15847331123E+03  0.17449319102E+03  0.00000000000E+00 0.  1.
         11    1    1    2    0    0  0.43234129173E+02  0.25974398497E+02 -0.48119159587E+02  0.69708771485E+02  0.00000000000E+00 0. -1.
</event>
<event>
 7    1  0.1312490E-005  0.9304357E+02  0.7561462E-02  0.1295644E+00
          2   -1    0    0  501    0  0.00000000000E+00  0.00000000000E+00  0.47128689195E+03  0.47128689195E+03  0.00000000000E+00 0. -1.
         -2   -1    0    0    0  501 -0.00000000000E+00 -0.00000000000E+00 -0.34137265886E+02  0.34137265886E+02  0.00000000000E+00 0.  1.
         23    2    1    2    0    0  0.35050647463E+02 -0.30239443013E+02  0.14990121958E+03  0.20065032010E+03  0.12508878256E+03 0.  0.
          5    1    3    3  502    0  0.56942600699E+02 -0.27794508457E+02  0.16282600923E+03  0.17477063871E+03  0.41800000000E+01 0. -1.
         -5    1    3    3    0  502 -0.21891953237E+02 -0.24449345556E+01 -0.12924789642E+02  0.25879681389E+02  0.41800000000E+01 0. -1.
        -11    1    1    2    0    0 -0.29550056800E+02  0.61602090220E+02  0.22006001069E+03  0.23042228990E+03  0.00000000000E+00 0. -1.
         11    1    1    2    0    0 -0.55005906625E+01 -0.31362647208E+02  0.67188395793E+02  0.74351547844E+02  0.00000000000E+00 0.  1.
</event>
<event>
 7    1  0.1312490E-005  0.2050795E+03  0.7561462E-02  0.1145523E+00
         -1   -1    0    0    0  501 -0.00000000000E+00  0.00000000000E+00  0.51982132781E+03  0.51982132781E+03  0.00000000000E+00 0.  1.
          1   -1    0    0  501    0  0.00000000000E+00 -0.00000000000E+00 -0.84084801105E+02  0.84084801105E+02  0.00000000000E+00 0. -1.
         23    2    1    2    0    0  0.83532250634E+02  0.15546838528E+03  0.26475644135E+03  0.34189011219E+03  0.12507925430E+03 0.  0.
          5    1    3    3  502    0 -0.18980317991E+02 -0.68912309472E+01  0.48260576549E+02  0.52481398455E+02  0.41800000000E+01 0.  1.
         -5    1    3    3    0  502  0.10251256862E+03  0.16235961623E+03  0.21649586481E+03  0.28940871374E+03  0.41800000000E+01 0.  1.
        -11    1    1    2    0    0 -0.54480124141E+01 -0.10358597854E+03  0.10327771331E+03  0.14637630223E+03  0.00000000000E+00 0.  1.
         11    1    1    2    0    0 -0.78084238219E+02 -0.51882406746E+02  0.67702372043E+02  0.11563971449E+03  0.00000000000E+00 0. -1.
</event>
<event>
 7    1  0.1312490E-005  0.1237457E+03  0.7561462E-02  0.1237043E+00
          2   -1    0    0  501    0  0.00000000000E+00  0.00000000000E+00  0.10949646380E+04  0.10949646380E+04  0.00000000000E+00 0. -1.
         -2   -1    0    0    0  501 -0.00000000000E+00 -0.00000000000E+00 -0.21068388462E+02  0.21068388462E+02  0.00000000000E+00 0.  1.
         23    2    1    2    0    0  0.92515956059E+02  0.11403581309E+02  0.39504338309E+03  0.42472825107E+03  0.12508224870E+03 0.  0.
          5    1    3    3  502    0  0.74038526143E+02 -0.23059780628E+02  0.37009574029E+03  0.37815576977E+03  0.41800000000E+01 0.  1.
         -5    1    3    3    0  502  0.18477429916E+02  0.34463361937E+02  0.24947642803E+02  0.46572481293E+02  0.41800000000E+01 0.  1.
        -11    1    1    2    0    0 -0.38087667290E+02  0.40288320151E+02  0.27428470821E+03  0.27983195010E+03  0.00000000000E+00 0.  1.
         11    1    1    2    0    0 -0.54428288768E+02 -0.51691901460E+02  0.40456815829E+03  0.41147282534E+03  0.00000000000E+00 0. -1.
</event>
<event>
 7    1  0.1312490E-005  0.1005486E+03  0.7561462E-02  0.1279146E+00
         -1   -1    0    0    0  501 -0.00000000000E+00  0.00000000000E+00  0.18259925817E+02  0.18259925817E+02  0.00000000000E+00 0.  1.
          1   -1    0    0  501    0  0.00000000000E+00 -0.00000000000E+00 -0.71378649775E+03  0.71378649775E+03  0.00000000000E+00 0. -1.
         23    2    1    2    0    0  0.36346680727E+01 -0.13860000253E+02 -0.28685534807E+03  0.31326613939E+03  0.12507746779E+03 0.  0.
          5    1    3    3  502    0 -0.48785750144E+02 -0.26506910728E+02 -0.68307964793E+02  0.88125570566E+02  0.41800000000E+01 0.  1.
         -5    1    3    3    0  502  0.52420418217E+02  0.12646910475E+02 -0.21854738328E+03  0.22514056882E+03  0.41800000000E+01 0.  1.
        -11    1    1    2    0    0  0.26941405997E+02 -0.28416286123E+02 -0.18620552548E+03  0.19027827620E+03  0.00000000000E+00 0. -1.
         11    1    1    2    0    0 -0.30576074069E+02  0.42276286376E+02 -0.22246569839E+03  0.22850200799E+03  0.00000000000E+00 0.  1.
</event>
<event>
 7    1  0.1312490E-005  0.1014139E+03  0.7561462E-02  0.1277350E+00
          2   -1    0    0  501    0  0.00000000000E+00  0.00000000000E+00  0.14415559238E+03  0.14415559238E+03  0.00000000000E+00 0.  1.
         -2   -1    0    0    0  501 -0.00000000000E+00 -0.00000000000E+00 -0.11024657401E+03  0.11024657401E+03  0.00000000000E+00 0. -1.
         23    2    1    2    0    0 -0.27116819803E+02  0.32616183202E+02 -0.38579709762E+02  0.13760487650E+03  0.12509025026E+03 0.  0.
          5    1    3    3  502    0  0.44014205399E+02  0.87499514556E+01 -0.43051463546E+02  0.62327464579E+02  0.41800000000E+01 0. -1.
         -5    1    3    3    0  502 -0.71131025202E+02  0.23866231747E+02  0.44717537836E+01  0.75277411924E+02  0.41800000000E+01 0. -1.
        -11    1    1    2    0    0  0.51243990679E+02 -0.17536246296E+02  0.69611645889E+02  0.88200043981E+02  0.00000000000E+00 0.  1.
         11    1    1    2    0    0 -0.24127170876E+02 -0.15079936906E+02  0.28770822452E+01  0.28597245913E+02  0.00000000000E+00 0. -1.
</event>
<event>
 7    1  0.1312490E-005  0.1396156E+03  0.7561462E-02  0.1213847E+00
          4   -1    0    0  501    0  0.00000000000E+00  0.00000000000E+00  0.39598025539E+03  0.39598025539E+03  0.00000000000E+00 0. -1.
         -4   -1    0    0    0  501 -0.00000000000E+00 -0.00000000000E+00 -0.57333259277E+02  0.57333259277E+02  0.00000000000E+00 0.  1.
         23    2    1    2    0    0 -0.66845576837E+02  0.79604105193E+02  0.18737922176E+03  0.24812151605E+03  0.12509264276E+03 0.  0.
          5    1    3    3  502    0  0.55237974948E+01  0.88822461516E+02  0.11235576318E+03  0.14339188237E+03  0.41800000000E+01 0.  1.
         -5    1    3    3    0  502 -0.72369374332E+02 -0.92183563230E+01  0.75023458578E+02  0.10472963368E+03  0.41800000000E+01 0.  1.
        -11    1    1    2    0    0  0.75187252676E+01 -0.50367370074E+02  0.12326141385E+03  0.13336708493E+03  0.00000000000E+00 0. -1.
         11    1    1    2    0    0  0.59326851570E+02 -0.29236735119E+02  0.28006360501E+02  0.71824913687E+02  0.00000000000E+00 0.  1.
</event>
<event>
 7    1  0.1312490E-005  0.2065500E+03  0.7561462E-02  0.1144328E+00
         -2   -1    0    0    0  501 -0.00000000000E+00  0.00000000000E+00  0.20354436374E+03  0.20354436374E+03  0.00000000000E+00 0.  1.
          2   -1    0    0  501    0  0.00000000000E+00 -0.00000000000E+00 -0.32247792657E+03  0.32247792657E+03  0.00000000000E+00 0. -1.
         23    2    1    2    0    0  0.51306502597E+02  0.16790588631E+03  0.94078539223E+02  0.23518209556E+03  0.12504040413E+03 0.  0.
          5    1    3    3  502    0  0.53980697949E+02  0.74149730118E+01  0.29625729129E+02  0.62161513835E+02  0.41800000000E+01 0. -1.
         -5    1    3    3    0  502 -0.26741953518E+01  0.16049091330E+03  0.64452810093E+02  0.17302058173E+03  0.41800000000E+01 0. -1.
        -11    1    1    2    0    0  0.26665048994E+02 -0.39444310814E+02 -0.46649979268E+02  0.66656575514E+02  0.00000000000E+00 0.  1.
         11    1    1    2    0    0 -0.77971551590E+02 -0.12846157550E+03 -0.16636212278E+03  0.22418361924E+03  0.00000000000E+00 0. -1.
</event>
<event>
 7    1  0.1312490E-005  0.1039736E+03  0.7561462E-02  0.1272155E+00
          2   -1    0    0  501    0  0.00000000000E+00  0.00000000000E+00  0.24413190492E+02  0.24413190492E+02  0.00000000000E+00 0. -1.
         -2   -1    0    0    0  501 -0.00000000000E+00 -0.00000000000E+00 -0.61093286754E+03  0.61093286754E+03  0.00000000000E+00 0.  1.
         23    2    1    2    0    0  0.49684923097E+02  0.17632982525E+02 -0.38502910121E+03  0.40825777154E+03  0.12508991001E+03 0.  0.
          5    1    3    3  502    0  0.69043246577E+02  0.49372093358E+02 -0.33602992177E+03  0.34660951260E+03  0.41800000000E+01 0. -1.
         -5    1    3    3    0  502 -0.19358323480E+02 -0.31739110833E+02 -0.48999179446E+02  0.61648258944E+02  0.41800000000E+01 0. -1.
        -11    1    1    2    0    0  0.11648245798E+02 -0.21122152239E+02 -0.13263883325E+03  0.13481426865E+03  0.00000000000E+00 0.  1.
         11    1    1    2    0    0 -0.61333168894E+02  0.34891697143E+01 -0.68851742586E+02  0.92274017844E+02  0.00000000000E+00 0. -1.
</event>
<event>
 7    1  0.1312490E-005  0.6933308E+02  0.7561462E-02  0.1362376E+00
         -2   -1    0    0    0  501 -0.00000000000E+00  0.00000000000E+00  0.21229894422E+02  0.21229894422E+02  0.00000000000E+00 0.  1.
          2   -1    0    0  501    0  0.00000000000E+00 -0.00000000000E+00 -0.60208946488E+03  0.60208946488E+03  0.00000000000E+00 0. -1.
         23    2    1    2    0    0  0.25485699030E+02  0.12068245184E+02 -0.30598852192E+03  0.33177056424E+03  0.12509024083E+03 0.  0.
          5    1    3    3  502    0  0.64124600744E+01  0.20412785071E+02  0.30414600713E+01  0.22011913091E+02  0.41800000000E+01 0. -1.
         -5    1    3    3    0  502  0.19073238955E+02 -0.83445398875E+01 -0.30902998199E+03  0.30975865115E+03  0.41800000000E+01 0. -1.
        -11    1    1    2    0    0  0.24448841381E+02 -0.33349084769E+02 -0.93644917641E+02  0.10236834423E+03  0.00000000000E+00 0.  1.
         11    1    1    2    0    0 -0.49934540411E+02  0.21280839585E+02 -0.18122613090E+03  0.18918045084E+03  0.00000000000E+00 0. -1.
</event>
<event>
 7    1  0.1312490E-005  0.1195001E+03  0.7561462E-02  0.1243924E+00
         -2   -1    0    0    0  501 -0.00000000000E+00  0.00000000000E+00  0.16152134166E+03  0.16152134166E+03  0.00000000000E+00 0.  1.
          2   -1    0    0  501    0  0.00000000000E+00 -0.00000000000E+00 -0.11998636414E+03  0.11998636414E+03  0.00000000000E+00 0. -1.
         23    2    1    2    0    0  0.53850604798E+02 -0.56104403038E+02  0.59661185418E+02  0.15891106240E+03  0.12508268078E+03 0.  0.
          5    1    3    3  502    0  0.64537579740E+02  0.35534801027E+00 -0.13216431929E+02  0.66010392695E+02  0.41800000000E+01 0.  1.
         -5    1    3    3    0  502 -0.10686974942E+02 -0.56459751048E+02  0.72877617347E+02  0.92900669707E+02  0.41800000000E+01 0.  1.
        -11    1    1    2    0    0 -0.76160171866E+02  0.28731380631E+02 -0.27743678304E+02  0.85997533089E+02  0.00000000000E+00 0. -1.
         11    1    1    2    0    0  0.22309567068E+02  0.27373022407E+02  0.96174704082E+01  0.36599110310E+02  0.00000000000E+00 0.  1.
</event>
<event>
 7    1  0.1312490E-005  0.9127122E+02  0.7561462E-02  0.1299802E+00
         -1   -1    0    0    0  501 -0.00000000000E+00  0.00000000000E+00  0.34777920707E+02  0.34777920707E+02  0.00000000000E+00 0.  1.
          1   -1    0    0  501    0  0.00000000000E+00 -0.00000000000E+00 -0.40124692166E+03  0.40124692166E+03  0.00000000000E+00 0. -1.
         23    2    1    2    0    0 -0.65090428801E+01 -0.27063970043E+02 -0.14069417734E+03  0.19029971396E+03  0.12507719010E+03 0.  0.
          5    1    3    3  502    0  0.51181150585E+02 -0.23693718665E+02 -0.11238863749E+03  0.12581566165E+03  0.41800000000E+01 0. -1.
         -5    1    3    3    0  502 -0.57690193465E+02 -0.33702513784E+01 -0.28305539851E+02  0.64484052312E+02  0.41800000000E+01 0. -1.
        -11    1    1    2    0    0  0.11945264802E+02 -0.18576506413E+02 -0.85371139872E+01  0.23678223264E+02  0.00000000000E+00 0.  1.
         11    1    1    2    0    0 -0.54362219216E+01  0.45640476457E+02 -0.21723770963E+03  0.22204690514E+03  0.00000000000E+00 0. -1.
</event>
<event>
 7    1  0.1312490E-005  0.1589277E+03  0.7561462E-02  0.1189913E+00
          2   -1    0    0  501    0  0.00000000000E+00  0.00000000000E+00  0.11148555505E+04  0.11148555505E+04  0.00000000000E+00 0.  1.
         -2   -1    0    0    0  501 -0.00000000000E+00 -0.00000000000E+00 -0.24741156439E+02  0.24741156439E+02  0.00000000000E+00 0. -1.
         23    2    1    2    0    0  0.10130161104E+02 -0.11845277257E+03  0.44259654349E+03  0.47505183151E+03  0.12509541486E+03 0.  0.
          5    1    3    3  502    0 -0.17591349842E+02 -0.13480003631E+03  0.30966961020E+03  0.33822070495E+03  0.41800000000E+01 0.  1.
         -5    1    3    3    0  502  0.27721510946E+02  0.16347263740E+02  0.13292693328E+03  0.13683112655E+03  0.41800000000E+01 0.  1.
        -11    1    1    2    0    0  0.20804586730E+02 -0.55987316999E+01  0.10086618584E+03  0.10314147600E+03  0.00000000000E+00 0.  1.
         11    1    1    2    0    0 -0.30934747834E+02  0.12405150427E+03  0.54665166469E+03  0.56140339939E+03  0.00000000000E+00 0. -1.
</event>
<event>
 7    1  0.1312490E-005  0.7286168E+02  0.7561462E-02  0.1350624E+00
         -1   -1    0    0    0  501 -0.00000000000E+00  0.00000000000E+00  0.98677069180E+02  0.98677069180E+02  0.00000000000E+00 0.  1.
          1   -1    0    0  501    0  0.00000000000E+00 -0.00000000000E+00 -0.12144557573E+03  0.12144557573E+03  0.00000000000E+00 0. -1.
         23    2    1    2    0    0 -0.25916447255E+01  0.22195928492E+02 -0.16344459117E+01  0.12708526308E+03  0.12509443158E+03 0.  0.
          5    1    3    3  502    0 -0.39801623336E+02 -0.88387355008E+01 -0.45750537703E+02  0.61423745942E+02  0.41800000000E+01 0.  1.
         -5    1    3    3    0  502  0.37209978610E+02  0.31034663993E+02  0.44116091791E+02  0.65661517133E+02  0.41800000000E+01 0.  1.
        -11    1    1    2    0    0 -0.11794579870E+02 -0.34945517414E+02  0.23984207703E+02  0.43994812430E+02  0.00000000000E+00 0.  1.
         11    1    1    2    0    0  0.14386224596E+02  0.12749588921E+02 -0.45118268339E+02  0.49042569404E+02  0.00000000000E+00 0. -1.
</event>
<event>
 7    1  0.1312490E-005  0.1322213E+03  0.7561462E-02  0.1224196E+00
          1   -1    0    0  501    0  0.00000000000E+00  0.00000000000E+00  0.30698973899E+02  0.30698973899E+02  0.00000000000E+00 0. -1.
         -1   -1    0    0    0  501 -0.00000000000E+00 -0.00000000000E+00 -0.61628033070E+03  0.61628033070E+03  0.00000000000E+00 0.  1.
         23    2    1    2    0    0 -0.18595559494E+02 -0.77713519867E+02 -0.38109263651E+03  0.40897905500E+03  0.12508830412E+03 0.  0.
          5    1    3    3  502    0 -0.50695642215E+02  0.12613937394E+02 -0.14074585968E+03  0.15018664712E+03  0.41800000000E+01 0.  1.
         -5    1    3    3    0  502  0.32100082721E+02 -0.90327457261E+02 -0.24034677683E+03  0.25879240788E+03  0.41800000000E+01 0.  1.
        -11    1    1    2    0    0  0.34114719420E+02  0.90024898726E+02 -0.19142672543E+03  0.21427199463E+03  0.00000000000E+00 0.  1.
         11    1    1    2    0    0 -0.15519159926E+02 -0.12311378859E+02 -0.13061994862E+02  0.23728254971E+02  0.00000000000E+00 0. -1.
</event>
<event>
 7    1  0.1312490E-005  0.6413566E+02  0.7561462E-02  0.1381253E+00
         -2   -1    0    0    0  501 -0.00000000000E+00  0.00000000000E+00  0.72140926685E+02  0.72140926685E+02  0.00000000000E+00 0.  1.
          2   -1    0    0  501    0  0.00000000000E+00 -0.00000000000E+00 -0.18131290916E+03  0.18131290916E+03  0.00000000000E+00 0. -1.
         23    2    1    2    0    0  0.14214815502E+02  0.16199726187E+00 -0.24553973524E+02  0.12826766013E+03  0.12509039850E+03 0.  0.
          5    1    3    3  502    0 -0.12298742231E+02 -0.36995206755E+01 -0.72196130637E+02  0.73448616002E+02  0.41800000000E+01 0.  1.
         -5    1    3    3    0  502  0.26513557733E+02  0.38615179374E+01  0.47642157113E+02  0.54819044125E+02  0.41800000000E+01 0.  1.
        -11    1    1    2    0    0  0.33524151780E+02  0.16133345672E+02 -0.55876105105E+02  0.67128926082E+02  0.00000000000E+00 0.  1.
         11    1    1    2    0    0 -0.47738967282E+02 -0.16295342933E+02 -0.28741903842E+02  0.58057249633E+02  0.00000000000E+00 0. -1.
</event>
<event>
 7    1  0.1312490E-005  0.1183687E+03  0.7561462E-02  0.1245813E+00
          2   -1    0    0  501    0  0.00000000000E+00  0.00000000000E+00  0.64598238640E+03  0.64598238640E+03  0.00000000000E+00 0. -1.
         -2   -1    0    0    0  501 -0.00000000000E+00 -0.00000000000E+00 -0.31852831610E+02  0.31852831610E+02  0.00000000000E+00 0.  1.
         23    2    1    2    0    0  0.85099088660E+02  0.35737282627E+02  0.35276055130E+03  0.38549533586E+03  0.12509052383E+03 0.  0.
          5    1    3    3  502    0  0.31442787966E+02 -0.32787608639E+02  0.23281217505E+03  0.23723966246E+03  0.41800000000E+01 0.  1.
         -5    1    3    3    0  502  0.53656300695E+02  0.68524891266E+02  0.11994837625E+03  0.14825567339E+03  0.41800000000E+01 0.  1.
        -11    1    1    2    0    0 -0.38366895535E+02  0.88720972831E+01  0.19787819833E+03  0.20175855411E+03  0.00000000000E+00 0. -1.
         11    1    1    2    0    0 -0.46732193126E+02 -0.44609379910E+02  0.63490805163E+02  0.90581328046E+02  0.00000000000E+00 0.  1.
</event>
<event>
 7    1  0.1312490E-005  0.1355190E+03  0.7561462E-02  0.1219489E+00
         -1   -1    0    0    0  501 -0.00000000000E+00  0.00000000000E+00  0.19849796916E+02  0.19849796916E+02  0.00000000000E+00 0.  1.
          1   -1    0    0  501    0  0.00000000000E+00 -0.00000000000E+00 -0.12817118281E+04  0.12817118281E+04  0.00000000000E+00 0. -1.
         23    2    1    2    0    0  0.13778720904E+02 -0.10768090132E+03 -0.83101175008E+03  0.84735751021E+03  0.12509672931E+03 0.  0.
          5    1    3    3  502    0 -0.29074498728E+02 -0.34386111655E+02 -0.82911737968E+02  0.94443421390E+02  0.41800000000E+01 0.  1.
         -5    1    3    3    0  502  0.42853219632E+02 -0.73294789667E+02 -0.74810001211E+03  0.75291408882E+03  0.41800000000E+01 0.  1.
        -11    1    1    2    0    0 -0.17632843942E+02 -0.11831053909E+02 -0.10455041158E+03  0.10668495481E+03  0.00000000000E+00 0.  1.
         11    1    1    2    0    0  0.38541230386E+01  0.11951195523E+03 -0.32629986950E+03  0.34751915997E+03  0.00000000000E+00 0. -1.
</event>
<event>
 7    1  0.1312490E-005  0.2094841E+03  0.7561462E-02  0.1141975E+00
          1   -1    0    0  501    0  0.00000000000E+00  0.00000000000E+00  0.67040122065E+02  0.67040122065E+02  0.00000000000E+00 0. -1.
         -1   -1    0    0    0  501 -0.00000000000E+00 -0.00000000000E+00 -0.69282715760E+03  0.69282715760E+03  0.00000000000E+00 0.  1.
         23    2    1    2    0    0 -0.14152337858E+02 -0.18705712712E+03 -0.32905897101E+03  0.39889615730E+03  0.12509068883E+03 0.  0.
          5    1    3    3  502    0  0.32404577826E+02 -0.15382189509E+03 -0.17907809446E+03  0.23832261409E+03  0.41800000000E+01 0. -1.
         -5    1    3    3    0  502 -0.46556915684E+02 -0.33235232031E+02 -0.14998087656E+03  0.16057354321E+03  0.41800000000E+01 0. -1.
        -11    1    1    2    0    0 -0.33588756619E+02  0.62264361310E+02 -0.12175376249E+03  0.14081560262E+03  0.00000000000E+00 0. -1.
         11    1    1    2    0    0  0.47741094477E+02  0.12479276581E+03 -0.17497430203E+03  0.22015551974E+03  0.00000000000E+00 0.  1.
</event>
<event>
 7    1  0.1312490E-005  0.8726634E+02  0.7561462E-02  0.1309610E+00
         -2   -1    0    0    0  501 -0.00000000000E+00  0.00000000000E+00  0.29771612267E+02  0.29771612267E+02  0.00000000000E+00 0.  1.
          2   -1    0    0  501    0  0.00000000000E+00 -0.00000000000E+00 -0.37620322209E+03  0.37620322209E+03  0.00000000000E+00 0. -1.
         23    2    1    2    0    0 -0.21755650117E+01 -0.43228849151E+02 -0.20887210757E+03  0.24727557812E+03  0.12507672738E+03 0.  0.
          5    1    3    3  502    0 -0.45682739160E+02 -0.41533681403E+02 -0.18966300071E+03  0.19950309668E+03  0.41800000000E+01 0.  1.
         -5    1    3    3    0  502  0.43507174148E+02 -0.16951677476E+01 -0.19209106857E+02  0.47772481433E+02  0.41800000000E+01 0.  1.
        -11    1    1    2    0    0  0.15478441741E+01 -0.12792113658E+02 -0.68843766067E+02  0.70039261273E+02  0.00000000000E+00 0.  1.
         11    1    1    2    0    0  0.62772083757E+00  0.56020962809E+02 -0.68715736189E+02  0.88659994967E+02  0.00000000000E+00 0. -1.
</event>
<event>
 7    1  0.1312490E-005  0.9511409E+02  0.7561462E-02  0.1290919E+00
         -3   -1    0    0    0  501 -0.00000000000E+00  0.00000000000E+00  0.39258354447E+03  0.39258354447E+03  0.00000000000E+00 0.  1.
          3   -1    0    0  501    0  0.00000000000E+00 -0.00000000000E+00 -0.40593848698E+02  0.40593848698E+02  0.00000000000E+00 0. -1.
         23    2    1    2    0    0 -0.28044895214E+02 -0.39897671517E+02  0.25175570813E+03  0.28531590277E+03  0.12508352194E+03 0.  0.
          5    1    3    3  502    0 -0.22409555394E+02  0.39902137228E+02  0.14326488708E+03  0.15045487363E+03  0.41800000000E+01 0. -1.
         -5    1    3    3    0  502 -0.56353398198E+01 -0.79799808744E+02  0.10849082104E+03  0.13486102914E+03  0.41800000000E+01 0. -1.
        -11    1    1    2    0    0  0.24114930527E+02  0.40177930496E-01  0.10481156722E+03  0.10754997030E+03  0.00000000000E+00 0.  1.
         11    1    1    2    0    0  0.39299646877E+01  0.39857493586E+02 -0.45775795763E+01  0.40311520093E+02  0.00000000000E+00 0. -1.
</event>
<event>
 7    1  0.1312490E-005  0.1432741E+03  0.7561462E-02  0.1208990E+00
         -2   -1    0    0    0  501 -0.00000000000E+00  0.00000000000E+00  0.83005449407E+02  0.83005449407E+02  0.00000000000E+00 0.  1.
          2   -1    0    0  501    0  0.00000000000E+00 -0.00000000000E+00 -0.37546332688E+03  0.37546332688E+03  0.00000000000E+00 0. -1.
         23    2    1    2    0    0 -0.79955250008E+02 -0.52144107591E+02 -0.25235059768E+02  0.15936198670E+03  0.12509030579E+03 0.  0.
          5    1    3    3  502    0 -0.56267751527E+02 -0.91558156055E+02 -0.17566649889E+01  0.10756167567E+03  0.41800000000E+01 0.  1.
         -5    1    3    3    0  502 -0.23687498481E+02  0.39414048465E+02 -0.23478394779E+02  0.51800311023E+02  0.41800000000E+01 0.  1.
        -11    1    1    2    0    0 -0.21187879985E+01  0.50695750208E+02 -0.80785173783E+02  0.95398074691E+02  0.00000000000E+00 0.  1.
         11    1    1    2    0    0  0.82074038007E+02  0.14483573825E+01 -0.18643764392E+03  0.20370871489E+03  0.00000000000E+00 0. -1.
</event>
<event>
 7    1  0.1312490E-005  0.1455950E+03  0.7561462E-02  0.1205993E+00
         -3   -1    0    0    0  501 -0.00000000000E+00  0.00000000000E+00  0.39746432485E+02  0.39746432485E+02  0.00000000000E+00 0.  1.
          3   -1    0    0  501    0  0.00000000000E+00 -0.00000000000E+00 -0.57460099125E+03  0.57460099125E+03  0.00000000000E+00 0. -1.
         23    2    1    2    0    0 -0.18851849425E+02 -0.10267068679E+03 -0.27025069108E+03  0.31556260313E+03  0.12509060043E+03 0.  0.
          5    1    3    3  502    0 -0.56819053749E+02 -0.10999673567E+03 -0.19965340207E+03  0.23496093311E+03  0.41800000000E+01 0.  1.
         -5    1    3    3    0  502  0.37967204324E+02  0.73260488771E+01 -0.70597289005E+02  0.80601670027E+02  0.41800000000E+01 0.  1.
        -11    1    1    2    0    0  0.36048720994E+02  0.10504799710E+03 -0.17321792211E+03  0.20576452687E+03  0.00000000000E+00 0.  1.
         11    1    1    2    0    0 -0.17196871569E+02 -0.23773103130E+01 -0.91385945580E+02  0.93020293730E+02  0.00000000000E+00 0. -1.
</event>
<event>
 7    1  0.1312490E-005  0.1378410E+03  0.7561462E-02  0.1216264E+00
         -3   -1    0    0    0  501 -0.00000000000E+00  0.00000000000E+00  0.18574317594E+04  0.18574317594E+04  0.00000000000E+00 0.  1.
          3   -1    0    0  501    0  0.00000000000E+00 -0.00000000000E+00 -0.20680773588E+02  0.20680773588E+02  0.00000000000E+00 0. -1.
         23    2    1    2    0    0 -0.78441360355E+02  0.62453445198E+02  0.15740914903E+04  0.15822345907E+04  0.12509516517E+03 0.  0.
          5    1    3    3  502    0 -0.91034743290E+02  0.17754649755E+02  0.13579923249E+04  0.13611624367E+04  0.41800000000E+01 0. -1.
         -5    1    3    3    0  502  0.12593382935E+02  0.44698795443E+02  0.21609916533E+03  0.22107215397E+03  0.41800000000E+01 0. -1.
        -11    1    1    2    0    0  0.42550949819E+02 -0.84132987645E+02  0.18231553544E+03  0.20525081584E+03  0.00000000000E+00 0.  1.
         11    1    1    2    0    0  0.35890410536E+02  0.21679542447E+02  0.80343960145E+02  0.90627126518E+02  0.00000000000E+00 0. -1.
</event>
<event>
 7    1  0.1312490E-005  0.1152029E+03  0.7561462E-02  0.1251227E+00
          4   -1    0    0  501    0  0.00000000000E+00  0.00000000000E+00  0.52239692181E+03  0.52239692181E+03  0.00000000000E+00 0. -1.
         -4   -1    0    0    0  501 -0.00000000000E+00 -0.00000000000E+00 -0.26248715653E+02  0.26248715653E+02  0.00000000000E+00 0.  1.
         23    2    1    2    0    0 -0.39756881066E+02 -0.18434393692E+02  0.23919426851E+03  0.27346386931E+03  0.12509257880E+03 0.  0.
          5    1    3    3  502    0 -0.56119268213E+02  0.41348373033E+02  0.11363508616E+03  0.13337715480E+03  0.41800000000E+01 0.  1.
         -5    1    3    3    0  502  0.16362387147E+02 -0.59782766725E+02  0.12555918235E+03  0.14008671451E+03  0.41800000000E+01 0.  1.
        -11    1    1    2    0    0  0.12874244817E+02 -0.35732207650E+02  0.95548963872E+02  0.10282091879E+03  0.00000000000E+00 0.  1.
         11    1    1    2    0    0  0.26882636249E+02  0.54166601342E+02  0.16140497378E+03  0.17236084936E+03  0.00000000000E+00 0. -1.
</event>
<event>
 7    1  0.1312490E-005  0.1089617E+03  0.7561462E-02  0.1262505E+00
          1   -1    0    0  501    0  0.00000000000E+00  0.00000000000E+00  0.18444131598E+02  0.18444131598E+02  0.00000000000E+00 0. -1.
         -1   -1    0    0    0  501 -0.00000000000E+00 -0.00000000000E+00 -0.10853955921E+04  0.10853955921E+04  0.00000000000E+00 0.  1.
         23    2    1    2    0    0 -0.84700815794E+01  0.67081489065E+02 -0.82443592736E+03  0.83660801413E+03  0.12508678001E+03 0.  0.
          5    1    3    3  502    0  0.11932167923E+02 -0.24125546485E+02 -0.44411338252E+03  0.44494784813E+03  0.41800000000E+01 0. -1.
         -5    1    3    3    0  502 -0.20402249503E+02  0.91207035550E+02 -0.38032254484E+03  0.39166016600E+03  0.41800000000E+01 0. -1.
        -11    1    1    2    0    0 -0.23845750419E+02 -0.59266698559E+02 -0.21431952482E+03  0.22363814543E+03  0.00000000000E+00 0.  1.
         11    1    1    2    0    0  0.32315831998E+02 -0.78147905064E+01 -0.28196008307E+02  0.43593564122E+02  0.00000000000E+00 0. -1.
</event>
<event>
 7    1  0.1312490E-005  0.1137811E+03  0.7561462E-02  0.1253724E+00
          1   -1    0    0  501    0  0.00000000000E+00  0.00000000000E+00  0.47372422801E+02  0.47372422801E+02  0.00000000000E+00 0. -1.
         -1   -1    0    0    0  501 -0.00000000000E+00 -0.00000000000E+00 -0.37645197032E+03  0.37645197032E+03  0.00000000000E+00 0.  1.
         23    2    1    2    0    0 -0.65319433423E+02  0.41852466343E+02 -0.17224994924E+03  0.22657391322E+03  0.12508971108E+03 0.  0.
          5    1    3    3  502    0 -0.56974019119E+02  0.67405070446E+02 -0.50392968833E+02  0.10171728508E+03  0.41800000000E+01 0. -1.
         -5    1    3    3    0  502 -0.83454143044E+01 -0.25552604104E+02 -0.12185698041E+03  0.12485662814E+03  0.41800000000E+01 0. -1.
        -11    1    1    2    0    0  0.37524818475E+02 -0.65513647253E+02 -0.13511500265E+03  0.15477795036E+03  0.00000000000E+00 0.  1.
         11    1    1    2    0    0  0.27794614949E+02  0.23661180910E+02 -0.21714595637E+02  0.42472529544E+02  0.00000000000E+00 0. -1.
</event>
<event>
 7    1  0.1312490E-005  0.8178433E+02  0.7561462E-02  0.1324063E+00
         -3   -1    0    0    0  501 -0.00000000000E+00  0.00000000000E+00  0.12594384377E+03  0.12594384377E+03  0.00000000000E+00 0.  1.
          3   -1    0    0  501    0  0.00000000000E+00 -0.00000000000E+00 -0.12450147491E+03  0.12450147491E+03  0.00000000000E+00 0. -1.
         23    2    1    2    0    0  0.39486190667E+02 -0.15160543761E+02  0.47415828907E+02  0.14030430396E+03  0.12509210822E+03 0.  0.
          5    1    3    3  502    0  0.18827867632E+02  0.29847788559E+02 -0.31204739672E+02  0.47292570870E+02  0.41800000000E+01 0. -1.
         -5    1    3    3    0  502  0.20658323035E+02 -0.45008332320E+02  0.78620568579E+02  0.93011733091E+02  0.41800000000E+01 0. -1.
        -11    1    1    2    0    0 -0.98018630494E+01  0.39030158067E+02  0.10898205266E+02  0.41691733425E+02  0.00000000000E+00 0.  1.
         11    1    1    2    0    0 -0.29684327618E+02 -0.23869614306E+02 -0.56871665313E+02  0.68449281287E+02  0.00000000000E+00 0. -1.
</event>
<event>
 7    1  0.1312490E-005  0.1321585E+03  0.7561462E-02  0.1224288E+00
          2   -1    0    0  501    0  0.00000000000E+00  0.00000000000E+00  0.27829941241E+03  0.27829941241E+03  0.00000000000E+00 0. -1.
         -2   -1    0    0    0  501 -0.00000000000E+00 -0.00000000000E+00 -0.78799136439E+02  0.78799136439E+02  0.00000000000E+00 0.  1.
         23    2    1    2    0    0 -0.45208731422E+01 -0.10008495061E+03  0.11834636025E+03  0.19922481665E+03  0.12508889221E+03 0.  0.
          5    1    3    3  502    0  0.29300264789E+02  0.10837895529E+02  0.63466277706E+02  0.70861881870E+02  0.41800000000E+01 0. -1.
         -5    1    3    3    0  502 -0.33821137932E+02 -0.11092284614E+03  0.54880082541E+02  0.12836293478E+03  0.41800000000E+01 0. -1.
        -11    1    1    2    0    0 -0.27280218135E+02  0.35523578336E+02 -0.56172852946E+01  0.45140766645E+02  0.00000000000E+00 0.  1.
         11    1    1    2    0    0  0.31801091277E+02  0.64561372272E+02  0.86771201019E+02  0.11273296555E+03  0.00000000000E+00 0. -1.
</event>
<event>
 7    1  0.1312490E-005  0.1045424E+03  0.7561462E-02  0.1271024E+00
         -2   -1    0    0    0  501 -0.00000000000E+00  0.00000000000E+00  0.97474219187E+02  0.97474219187E+02  0.00000000000E+00 0.  1.
          2   -1    0    0  501    0  0.00000000000E+00 -0.00000000000E+00 -0.22148905579E+03  0.22148905579E+03  0.00000000000E+00 0. -1.
         23    2    1    2    0    0  0.94908774151E+01  0.49039940686E+02  0.27110237118E+02  0.13739428637E+03  0.12508889813E+03 0.  0.
          5    1    3    3  502    0  0.26224825859E+02  0.86424141598E+02  0.32056627278E+02  0.95926917467E+02  0.41800000000E+01 0.  1.
         -5    1    3    3    0  502 -0.16733948443E+02 -0.37384200912E+02 -0.49463901595E+01  0.41467368905E+02  0.41800000000E+01 0.  1.
        -11    1    1    2    0    0 -0.14684439995E+02  0.10298752533E+02  0.12357338111E+01  0.17978434853E+02  0.00000000000E+00 0.  1.
         11    1    1    2    0    0  0.51935625803E+01 -0.59338693219E+02 -0.15236080753E+03  0.16359055375E+03  0.00000000000E+00 0. -1.
</event>
<event>
 7    1  0.1312490E-005  0.1011188E+03  0.7561462E-02  0.1277961E+00
          1   -1    0    0  501    0  0.00000000000E+00  0.00000000000E+00  0.69869209243E+02  0.69869209243E+02  0.00000000000E+00 0. -1.
         -1   -1    0    0    0  501 -0.00000000000E+00 -0.00000000000E+00 -0.24018644247E+03  0.24018644247E+03  0.00000000000E+00 0.  1.
         23    2    1    2    0    0  0.64012095250E+02 -0.25790545256E+02 -0.12039473370E+03  0.18682590552E+03  0.12508527695E+03 0.  0.
          5    1    3    3  502    0  0.82427477240E+02 -0.80933196655E+01 -0.13400122090E+03  0.15758677111E+03  0.41800000000E+01 0. -1.
         -5    1    3    3    0  502 -0.18415381990E+02 -0.17697225591E+02  0.13606487199E+02  0.29239134415E+02  0.41800000000E+01 0. -1.
        -11    1    1    2    0    0 -0.38647389666E+02  0.46656107675E+02 -0.63432074828E+02  0.87715684050E+02  0.00000000000E+00 0.  1.
         11    1    1    2    0    0 -0.25364705584E+02 -0.20865562419E+02  0.13509575302E+02  0.35514062134E+02  0.00000000000E+00 0. -1.
</event>
<event>
 7    1  0.1312490E-005  0.1168978E+03  0.7561462E-02  0.1248304E+00
          2   -1    0    0  501    0  0.00000000000E+00  0.00000000000E+00  0.35127032841E+03  0.35127032841E+03  0.00000000000E+00 0. -1.
         -2   -1    0    0    0  501 -0.00000000000E+00 -0.00000000000E+00 -0.42204234432E+02  0.42204234432E+02  0.00000000000E+00 0.  1.
         23    2    1    2    0    0 -0.48914676850E+02  0.28495858435E+02  0.16707728295E+03  0.21625942552E+03  0.12509460855E+03 0.  0.
          5    1    3    3  502    0 -0.69290666493E+01 -0.47046043442E+02  0.82181428863E+02  0.95040001147E+02  0.41800000000E+01 0. -1.
         -5    1    3    3    0  502 -0.41985610201E+02  0.75541901878E+02  0.84895854087E+02  0.12121942437E+03  0.41800000000E+01 0. -1.
        -11    1    1    2    0    0  0.58159879689E+02  0.10808000974E+02  0.52716252338E+02  0.79236277998E+02  0.00000000000E+00 0.  1.
         11    1    1    2    0    0 -0.92452028389E+01 -0.39303859409E+02  0.89272558685E+02  0.97978859323E+02  0.00000000000E+00 0. -1.
</event>
<event>
 6    1  0.1312490E-005  0.1196154E+03  0.7561462E-02  0.1243733E+00
          1   -1    0    0  501    0  0.00000000000E+00  0.00000000000E+00  0.66388854713E+03  0.66388854713E+03  0.00000000000E+00 0. -1.
         -1   -1    0    0    0  501 -0.00000000000E+00 -0.00000000000E+00 -0.16052419459E+03  0.16052419459E+03  0.00000000000E+00 0.  1.
          5    1    1    2  502    0 -0.28370211848E+02  0.40043301423E+02  0.65985251568E+02  0.82339909726E+02  0.41800000000E+01 0. -1.
         -5    1    1    2    0  502  0.80209969173E+01  0.58429580641E+02 -0.13895368771E+03  0.15100977457E+03  0.41800000000E+01 0.  1.
        -11    1    1    2    0    0 -0.31522371429E+02 -0.53995787827E+02  0.29475167272E+03  0.30131006219E+03  0.00000000000E+00 0.  1.
         11    1    1    2    0    0  0.51871586360E+02 -0.44477094237E+02  0.28158111597E+03  0.28975299524E+03  0.00000000000E+00 0. -1.
</event>
<event>
 7    1  0.1312490E-005  0.1113966E+03  0.7561462E-02  0.1258005E+00
         -1   -1    0    0    0  501 -0.00000000000E+00  0.00000000000E+00  0.39238161886E+03  0.39238161886E+03  0.00000000000E+00 0.  1.
          1   -1    0    0  501    0  0.00000000000E+00 -0.00000000000E+00 -0.35514856813E+02  0.35514856813E+02  0.00000000000E+00 0. -1.
         23    2    1    2    0    0  0.11672543822E+02  0.44245695041E+02  0.22173510091E+03  0.25866693356E+03  0.12509275651E+03 0.  0.
          5    1    3    3  502    0 -0.53945014737E+02  0.27711415462E+02  0.71546354603E+02  0.93884718772E+02  0.41800000000E+01 0.  1.
         -5    1    3    3    0  502  0.65617558559E+02  0.16534279579E+02  0.15018874631E+03  0.16478221478E+03  0.41800000000E+01 0.  1.
        -11    1    1    2    0    0  0.21094581592E+02 -0.55647147259E+02  0.11402192803E+03  0.12861798647E+03  0.00000000000E+00 0.  1.
         11    1    1    2    0    0 -0.32767125414E+02  0.11401452218E+02  0.21109733109E+02  0.40611555652E+02  0.00000000000E+00 0. -1.
</event>
<event>
 7    1  0.1312490E-005  0.1099328E+03  0.7561462E-02  0.1260694E+00
         -4   -1    0    0    0  501 -0.00000000000E+00  0.00000000000E+00  0.23064299702E+03  0.23064299702E+03  0.00000000000E+00 0.  1.
          4   -1    0    0  501    0  0.00000000000E+00 -0.00000000000E+00 -0.58937734227E+02  0.58937734227E+02  0.00000000000E+00 0. -1.
         23    2    1    2    0    0  0.12362503086E+02  0.30408087869E+02  0.12343561842E+03  0.17877863602E+03  0.12509182832E+03 0.  0.
          5    1    3    3  502    0 -0.49544598777E+02  0.31743943512E+02  0.28893682526E+02  0.65686090670E+02  0.41800000000E+01 0. -1.
         -5    1    3    3    0  502  0.61907101863E+02 -0.13358556432E+01  0.94541935895E+02  0.11309254535E+03  0.41800000000E+01 0. -1.
        -11    1    1    2    0    0 -0.20442492652E+02 -0.62479965582E+02  0.39068062343E+02  0.76471923607E+02  0.00000000000E+00 0. -1.
         11    1    1    2    0    0  0.80799895666E+01  0.32071877713E+02  0.92015820310E+01  0.34330171618E+02  0.00000000000E+00 0.  1.
</event>
<event>
 7    1  0.1312490E-005  0.2201264E+03  0.7561462E-02  0.1133789E+00
          2   -1    0    0  501    0  0.00000000000E+00  0.00000000000E+00  0.88585683599E+03  0.88585683599E+03  0.00000000000E+00 0. -1.
         -2   -1    0    0    0  501 -0.00000000000E+00 -0.00000000000E+00 -0.55561030457E+02  0.55561030457E+02  0.00000000000E+00 0.  1.
         23    2    1    2    0    0 -0.13259426015E+02 -0.19192817409E+03  0.38676904283E+03  0.44973173823E+03  0.12512436811E+03 0.  0.
          5    1    3    3  502    0  0.42039731645E+02 -0.15875726291E+03  0.26259246965E+03  0.30974745371E+03  0.41800000000E+01 0. -1.
         -5    1    3    3    0  502 -0.55299157661E+02 -0.33170911174E+02  0.12417657318E+03  0.13998428452E+03  0.41800000000E+01 0. -1.
        -11    1    1    2    0    0 -0.36371703724E+02  0.10664478839E+03  0.21409224150E+03  0.24193284108E+03  0.00000000000E+00 0.  1.
         11    1    1    2    0    0  0.49631129739E+02  0.85283385692E+02  0.22943452120E+03  0.24975328713E+03  0.00000000000E+00 0. -1.
</event>
<event>
 6    1  0.1312490E-005  0.7514952E+02  0.7561462E-02  0.1343409E+00
          4   -1    0    0  501    0  0.00000000000E+00  0.00000000000E+00  0.20243262289E+02  0.20243262289E+02  0.00000000000E+00 0.  1.
         -4   -1    0    0    0  501 -0.00000000000E+00 -0.00000000000E+00 -0.32296370792E+03  0.32296370792E+03  0.00000000000E+00 0. -1.
          5    1    1    2  502    0  0.62406814949E+02  0.84420855544E+01 -0.10897522929E+03  0.12593233246E+03  0.41800000000E+01 0. -1.
         -5    1    1    2    0  502 -0.59344812976E+02 -0.28727568770E+02 -0.18053666572E+03  0.19224474012E+03  0.41800000000E+01 0.  1.
        -11    1    1    2    0    0  0.95545117078E+00  0.10486142100E+02 -0.51488571194E+01  0.11721040599E+02  0.00000000000E+00 0.  1.
         11    1    1    2    0    0 -0.40174531432E+01  0.97993411154E+01 -0.80596935005E+01  0.13308857027E+02  0.00000000000E+00 0. -1.
</event>
<event>
 7    1  0.1312490E-005  0.1012984E+03  0.7561462E-02  0.1277589E+00
          2   -1    0    0  501    0  0.00000000000E+00  0.00000000000E+00  0.39267164918E+03  0.39267164918E+03  0.00000000000E+00 0. -1.
         -2   -1    0    0    0  501 -0.00000000000E+00 -0.00000000000E+00 -0.48743514206E+02  0.48743514206E+02  0.00000000000E+00 0.  1.
         23    2    1    2    0    0  0.23695689374E+02 -0.12649130405E+02  0.58500380579E+02  0.14065014890E+03  0.12505472267E+03 0.  0.
          5    1    3    3  502    0  0.69069870793E+02  0.17246265180E+01  0.61752100929E+02  0.92759990066E+02  0.41800000000E+01 0. -1.
         -5    1    3    3    0  502 -0.45374181419E+02 -0.14373756923E+02 -0.32517203499E+01  0.47890158830E+02  0.41800000000E+01 0. -1.
        -11    1    1    2    0    0 -0.11639151301E+02 -0.34772774255E+02  0.61913297094E+02  0.71957432065E+02  0.00000000000E+00 0.  1.
         11    1    1    2    0    0 -0.12056538073E+02  0.47421904660E+02  0.22351445731E+03  0.22880758243E+03  0.00000000000E+00 0. -1.
</event>
<event>
 7    1  0.1312490E-005  0.2525497E+03  0.7561462E-02  0.1111704E+00
         -1   -1    0    0    0  501 -0.00000000000E+00  0.00000000000E+00  0.18375992972E+03  0.18375992972E+03  0.00000000000E+00 0.  1.
          1   -1    0    0  501    0  0.00000000000E+00 -0.00000000000E+00 -0.39649845525E+03  0.39649845525E+03  0.00000000000E+00 0. -1.
         23    2    1    2    0    0 -0.12343185937E+03 -0.19924524394E+03 -0.19164900137E+03  0.32758235600E+03  0.12508704609E+03 0.  0.
          5    1    3    3  502    0 -0.22754490588E+02  0.14823144019E+02 -0.97938187996E+01  0.29169911334E+02  0.41800000000E+01 0. -1.
         -5    1    3    3    0  502 -0.10067736879E+03 -0.21406838796E+03 -0.18185518257E+03  0.29841244467E+03  0.41800000000E+01 0. -1.
        -11    1    1    2    0    0  0.12734773492E+03  0.17480989907E+03  0.55062963235E+01  0.21634755765E+03  0.00000000000E+00 0.  1.
         11    1    1    2    0    0 -0.39158755456E+01  0.24435344863E+02 -0.26595820494E+02  0.36328471309E+02  0.00000000000E+00 0. -1.
</event>
<event>
 7    1  0.1312490E-005  0.6840195E+02  0.7561462E-02  0.1365613E+00
         -2   -1    0    0    0  501 -0.00000000000E+00  0.00000000000E+00  0.29905539024E+03  0.29905539024E+03  0.00000000000E+00 0.  1.
          2   -1    0    0  501    0  0.00000000000E+00 -0.00000000000E+00 -0.39655119868E+02  0.39655119868E+02  0.00000000000E+00 0. -1.
         23    2    1    2    0    0  0.58960017441E+01 -0.47732885710E+01  0.17303428838E+03  0.21364595366E+03  0.12508469706E+03 0.  0.
          5    1    3    3  502    0  0.99456786141E+01 -0.38081322717E+02  0.23553841965E+01  0.39650017626E+02  0.41800000000E+01 0.  1.
         -5    1    3    3    0  502 -0.40496768700E+01  0.33308034146E+02  0.17067890418E+03  0.17399593603E+03  0.41800000000E+01 0.  1.
        -11    1    1    2    0    0  0.11068251121E+02 -0.26007744771E+02  0.85344760000E+02  0.89903487310E+02  0.00000000000E+00 0.  1.
         11    1    1    2    0    0 -0.16964252866E+02  0.30781033342E+02  0.10212219901E+01  0.35161069142E+02  0.00000000000E+00 0. -1.
</event>
<event>
 7    1  0.1312490E-005  0.7901317E+02  0.7561462E-02  0.1331875E+00
         -3   -1    0    0    0  501 -0.00000000000E+00  0.00000000000E+00  0.84025440923E+02  0.84025440923E+02  0.00000000000E+00 0.  1.
          3   -1    0    0  501    0  0.00000000000E+00 -0.00000000000E+00 -0.17143356876E+03  0.17143356876E+03  0.00000000000E+00 0. -1.
         23    2    1    2    0    0 -0.37963710892E+02 -0.52273433977E+01 -0.16111238152E+02  0.13181893625E+03  0.12509233188E+03 0.  0.
          5    1    3    3  502    0  0.24582486670E+02  0.97367425830E+00 -0.53169991114E+02  0.58734717565E+02  0.41800000000E+01 0. -1.
         -5    1    3    3    0  502 -0.62546197561E+02 -0.62010176560E+01  0.37058752961E+02  0.73084218682E+02  0.41800000000E+01 0. -1.
        -11    1    1    2    0    0  0.26949683358E+02 -0.25706666995E+02 -0.81207488486E+02  0.89340776509E+02  0.00000000000E+00 0. -1.
         11    1    1    2    0    0  0.11014027533E+02  0.30934010393E+02  0.99105987958E+01  0.34299296931E+02  0.00000000000E+00 0.  1.
</event>
<event>
 7    1  0.1312490E-005  0.1010901E+03  0.7561462E-02  0.1278020E+00
         -1   -1    0    0    0  501 -0.00000000000E+00  0.00000000000E+00  0.16122888130E+02  0.16122888130E+02  0.00000000000E+00 0.  1.
          1   -1    0    0  501    0  0.00000000000E+00 -0.00000000000E+00 -0.75665809856E+03  0.75665809856E+03  0.00000000000E+00 0. -1.
         23    2    1    2    0    0 -0.27045477223E+02 -0.68219674239E+01 -0.42189903606E+03  0.44093693797E+03  0.12509432262E+03 0.  0.
          5    1    3    3  502    0  0.34421579287E+02 -0.40467536459E+02 -0.12563589075E+03  0.13647093490E+03  0.41800000000E+01 0.  1.
         -5    1    3    3    0  502 -0.61467056510E+02  0.33645569035E+02 -0.29626314532E+03  0.30446600307E+03  0.41800000000E+01 0.  1.
        -11    1    1    2    0    0 -0.25649406492E+02  0.90241881493E+00 -0.35620135457E+02  0.43903308110E+02  0.00000000000E+00 0.  1.
         11    1    1    2    0    0  0.52694883715E+02  0.59195486090E+01 -0.28301603891E+03  0.28794074061E+03  0.00000000000E+00 0. -1.
</event>
<event>
 7    1  0.1312490E-005  0.1274207E+03  0.7561462E-02  0.1231334E+00
         -2   -1    0    0    0  501 -0.00000000000E+00  0.00000000000E+00  0.16761685501E+03  0.16761685501E+03  0.00000000000E+00 0.  1.
          2   -1    0    0  501    0  0.00000000000E+00 -0.00000000000E+00 -0.17305928294E+03  0.17305928294E+03  0.00000000000E+00 0. -1.
         23    2    1    2    0    0 -0.81127048483E+02  0.86173248026E+02  0.57386919410E+02  0.18151420846E+03  0.12508686055E+03 0.  0.
          5    1    3    3  502    0 -0.57854647332E+02  0.70627926342E+02 -0.24711233548E+02  0.94676193738E+02  0.41800000000E+01 0. -1.
         -5    1    3    3    0  502 -0.23272401152E+02  0.15545321684E+02  0.82098152957E+02  0.86838014721E+02  0.41800000000E+01 0. -1.
        -11    1    1    2    0    0  0.59858826689E+02 -0.16195207901E+02  0.11013953562E+01  0.62020778480E+02  0.00000000000E+00 0.  1.
         11    1    1    2    0    0  0.21268221794E+02 -0.69978040125E+02 -0.63930742697E+02  0.97141151011E+02  0.00000000000E+00 0. -1.
</event>
<event>
 7    1  0.1312490E-005  0.1004067E+03  0.7561462E-02  0.1279443E+00
          2   -1    0    0  501    0  0.00000000000E+00  0.00000000000E+00  0.69629003301E+03  0.69629003301E+03  0.00000000000E+00 0. -1.
         -2   -1    0    0    0  501 -0.00000000000E+00 -0.00000000000E+00 -0.18093448452E+02  0.18093448452E+02  0.00000000000E+00 0.  1.
         23    2    1    2    0    0  0.18583439306E+02 -0.24374749165E+01  0.30660812867E+03  0.33167570749E+03  0.12509574283E+03 0.  0.
          5    1    3    3  502    0  0.50482259207E+00  0.54869338153E+02  0.79314484705E+02  0.96535791286E+02  0.41800000000E+01 0. -1.
         -5    1    3    3    0  502  0.18078616714E+02 -0.57306813070E+02  0.22729364396E+03  0.23513991620E+03  0.41800000000E+01 0. -1.
        -11    1    1    2    0    0 -0.50987331426E+02  0.10717980091E+02  0.28803133232E+03  0.29270570794E+03  0.00000000000E+00 0. -1.
         11    1    1    2    0    0  0.32403892120E+02 -0.82805051748E+01  0.83557123574E+02  0.90002066035E+02  0.00000000000E+00 0.  1.
</event>
<event>
 7    1  0.1312490E-005  0.1478744E+03  0.7561462E-02  0.1203110E+00
          1   -1    0    0  501    0  0.00000000000E+00  0.00000000000E+00  0.52701845919E+03  0.52701845919E+03  0.00000000000E+00 0. -1.
         -1   -1    0    0    0  501 -0.00000000000E+00 -0.00000000000E+00 -0.66845360327E+02  0.66845360327E+02  0.00000000000E+00 0.  1.
         23    2    1    2    0    0 -0.84600426922E+02  0.93869950277E+02  0.10353182923E+03  0.20575414105E+03  0.12508847708E+03 0.  0.
          5    1    3    3  502    0  0.65421961188E+01  0.51771140464E+02  0.90336448746E+02  0.10440880081E+03  0.41800000000E+01 0. -1.
         -5    1    3    3    0  502 -0.91142623041E+02  0.42098809813E+02  0.13195380479E+02  0.10134534024E+03  0.41800000000E+01 0. -1.
        -11    1    1    2    0    0 -0.69986235047E+01 -0.31089734113E+02  0.32687015248E+02  0.45650775065E+02  0.00000000000E+00 0. -1.
         11    1    1    2    0    0  0.91599050427E+02 -0.62780216164E+02  0.32395425439E+03  0.34245890340E+03  0.00000000000E+00 0.  1.
</event>
<event>
 7    1  0.1312490E-005  0.7368554E+02  0.7561462E-02  0.1347990E+00
          1   -1    0    0  501    0  0.00000000000E+00  0.00000000000E+00  0.14697654591E+03  0.14697654591E+03  0.00000000000E+00 0. -1.
         -1   -1    0    0    0  501 -0.00000000000E+00 -0.00000000000E+00 -0.81078276806E+02  0.81078276806E+02  0.00000000000E+00 0.  1.
         23    2    1    2    0    0  0.16504479439E+02  0.70302315206E+01  0.40911447338E+02  0.13282842343E+03  0.12509125290E+03 0.  0.
          5    1    3    3  502    0  0.34404786848E+02  0.32496646749E+02  0.73532318389E+02  0.87545391973E+02  0.41800000000E+01 0.  1.
         -5    1    3    3    0  502 -0.17900307409E+02 -0.25466415228E+02 -0.32620871051E+02  0.45283031458E+02  0.41800000000E+01 0.  1.
        -11    1    1    2    0    0 -0.40485137430E+02  0.63696106119E+01 -0.17556171707E+02  0.44585170820E+02  0.00000000000E+00 0.  1.
         11    1    1    2    0    0  0.23980657991E+02 -0.13399842133E+02  0.42542993477E+02  0.50641228469E+02  0.00000000000E+00 0. -1.
</event>
<event>
 7    1  0.1312490E-005  0.1385203E+03  0.7561462E-02  0.1215334E+00
         -2   -1    0    0    0  501 -0.00000000000E+00  0.00000000000E+00  0.24245943740E+03  0.24245943740E+03  0.00000000000E+00 0.  1.
          2   -1    0    0  501    0  0.00000000000E+00 -0.00000000000E+00 -0.12211417986E+03  0.12211417986E+03  0.00000000000E+00 0. -1.
         23    2    1    2    0    0 -0.96785598918E+02 -0.86088953336E+02  0.94343767707E+02  0.20329366142E+03  0.12509518865E+03 0.  0.
          5    1    3    3  502    0  0.71144716533E+01 -0.26230072846E+02 -0.22715974898E+02  0.35666796099E+02  0.41800000000E+01 0.  1.
         -5    1    3    3    0  502 -0.10390007057E+03 -0.59858880490E+02  0.11705974261E+03  0.16762686532E+03  0.41800000000E+01 0.  1.
        -11    1    1    2    0    0  0.57685311120E+02  0.49537946843E+02 -0.31875181245E+02  0.82447743910E+02  0.00000000000E+00 0. -1.
         11    1    1    2    0    0  0.39100287797E+02  0.36551006492E+02  0.57876671079E+02  0.78832211923E+02  0.00000000000E+00 0.  1.
</event>
<event>
 7    1  0.1312490E-005  0.1027551E+03  0.7561462E-02  0.1274607E+00
         -2   -1    0    0    0  501 -0.00000000000E+00  0.00000000000E+00  0.18154053384E+03  0.18154053384E+03  0.00000000000E+00 0.  1.
          2   -1    0    0  501    0  0.00000000000E+00 -0.00000000000E+00 -0.80130720473E+02  0.80130720473E+02  0.00000000000E+00 0. -1.
         23    2    1    2    0    0 -0.15068928308E+02  0.53492210662E+02  0.27835710135E+02  0.13968564137E+03  0.12509501367E+03 0.  0.
          5    1    3    3  502    0  0.30496005207E+02  0.62930278013E+02  0.51849935570E+02  0.87155690824E+02  0.41800000000E+01 0.  1.
         -5    1    3    3    0  502 -0.45564933515E+02 -0.94380673509E+01 -0.24014225435E+02  0.52529950550E+02  0.41800000000E+01 0.  1.
        -11    1    1    2    0    0 -0.11845735559E+02 -0.59907175235E+02  0.71804217356E+02  0.94260472764E+02  0.00000000000E+00 0.  1.
         11    1    1    2    0    0  0.26914663867E+02  0.64149645728E+01  0.17698858726E+01  0.27725140172E+02  0.00000000000E+00 0. -1.
</event>
<event>
 7    1  0.1312490E-005  0.1062285E+03  0.7561462E-02  0.1267718E+00
          1   -1    0    0  501    0  0.00000000000E+00  0.00000000000E+00  0.22096890211E+02  0.22096890211E+02  0.00000000000E+00 0. -1.
         -1   -1    0    0    0  501 -0.00000000000E+00 -0.00000000000E+00 -0.53613970979E+03  0.53613970979E+03  0.00000000000E+00 0.  1.
         23    2    1    2    0    0 -0.86616194951E+01  0.15279676931E+01 -0.31429057831E+03  0.33838487948E+03  0.12509356780E+03 0.  0.
          5    1    3    3  502    0  0.35956869872E+02  0.48437585644E+02 -0.14650263914E+03  0.15849161451E+03  0.41800000000E+01 0.  1.
         -5    1    3    3    0  502 -0.44618489367E+02 -0.46909617951E+02 -0.16778793917E+03  0.17989326497E+03  0.41800000000E+01 0.  1.
        -11    1    1    2    0    0 -0.38742189023E+02  0.57045469001E+01 -0.56165084025E+02  0.68469085938E+02  0.00000000000E+00 0. -1.
         11    1    1    2    0    0  0.47403808518E+02 -0.72325145932E+01 -0.14358715725E+03  0.15138263459E+03  0.00000000000E+00 0.  1.
</event>
<event>
 7    1  0.1312490E-005  0.9390187E+02  0.7561462E-02  0.1293669E+00
         -1   -1    0    0    0  501 -0.00000000000E+00  0.00000000000E+00  0.44946854638E+02  0.44946854638E+02  0.00000000000E+00 0.  1.
          1   -1    0    0  501    0  0.00000000000E+00 -0.00000000000E+00 -0.33299837954E+03  0.33299837954E+03  0.00000000000E+00 0. -1.
         23    2    1    2    0    0  0.40072364241E+02 -0.28053300122E+02 -0.11798986625E+03  0.17877743487E+03  0.12508789173E+03 0.  0.
          5    1    3    3  502    0 -0.13056146757E+01  0.45789785208E+02 -0.62012597647E+02  0.77210386128E+02  0.41800000000E+01 0.  1.
         -5    1    3    3    0  502  0.41377978917E+02 -0.73843085330E+02 -0.55977268604E+02  0.10156704874E+03  0.41800000000E+01 0.  1.
        -11    1    1    2    0    0 -0.31159700955E+02  0.40134803276E+01 -0.17065432505E+03  0.17352214166E+03  0.00000000000E+00 0. -1.
         11    1    1    2    0    0 -0.89126632860E+01  0.24039819795E+02  0.59266639861E+00  0.25645657645E+02  0.00000000000E+00 0.  1.
</event>
<event>
 7    1  0.1312490E-005  0.1063110E+03  0.7561462E-02  0.1267558E+00
          2   -1    0    0  501    0  0.00000000000E+00  0.00000000000E+00  0.34241600428E+03  0.34241600428E+03  0.00000000000E+00 0. -1.
         -2   -1    0    0    0  501 -0.00000000000E+00 -0.00000000000E+00 -0.45465454000E+02  0.45465454000E+02  0.00000000000E+00 0.  1.
         23    2    1    2    0    0 -0.30501304458E+02  0.53828978562E+02  0.17629017811E+03  0.22484005702E+03  0.12508771258E+03 0.  0.
          5    1    3    3  502    0 -0.22745320769E+02  0.94727017633E+02  0.12886729623E+03  0.16160077328E+03  0.41800000000E+01 0. -1.
         -5    1    3    3    0  502 -0.77559836887E+01 -0.40898039071E+02  0.47422881878E+02  0.63239283744E+02  0.41800000000E+01 0. -1.
        -11    1    1    2    0    0 -0.21142782038E+01 -0.36084774489E+02 -0.67407101747E+00  0.36152945855E+02  0.00000000000E+00 0.  1.
         11    1    1    2    0    0  0.32615582662E+02 -0.17744204073E+02  0.12133444319E+03  0.12688845541E+03  0.00000000000E+00 0. -1.
</event>
<event>
 7    1  0.1312490E-005  0.3606634E+03  0.7561462E-02  0.1058322E+00
          2   -1    0    0  501    0  0.00000000000E+00  0.00000000000E+00  0.11836786302E+04  0.11836786302E+04  0.00000000000E+00 0. -1.
         -2   -1    0    0    0  501 -0.00000000000E+00 -0.00000000000E+00 -0.11661698168E+03  0.11661698168E+03  0.00000000000E+00 0.  1.
         23    2    1    2    0    0 -0.32078315182E+03 -0.15278290203E+03  0.52719927500E+03  0.64794529794E+03  0.12509831300E+03 0.  0.
          5    1    3    3  502    0 -0.10924948332E+03 -0.70529595321E+02  0.99691851385E+02  0.16390793469E+03  0.41800000000E+01 0. -1.
         -5    1    3    3    0  502 -0.21153366850E+03 -0.82253306712E+02  0.42750742362E+03  0.48403736325E+03  0.41800000000E+01 0. -1.
        -11    1    1    2    0    0  0.14658379913E+03  0.26249282617E+02  0.25465123458E+03  0.29499675639E+03  0.00000000000E+00 0.  1.
         11    1    1    2    0    0  0.17419935269E+03  0.12653361942E+03  0.28521113896E+03  0.35735355757E+03  0.00000000000E+00 0. -1.
</event>
<event>
 7    1  0.1312490E-005  0.1063995E+03  0.7561462E-02  0.1267387E+00
          1   -1    0    0  501    0  0.00000000000E+00  0.00000000000E+00  0.97911107358E+03  0.97911107358E+03  0.00000000000E+00 0. -1.
         -1   -1    0    0    0  501 -0.00000000000E+00 -0.00000000000E+00 -0.14381346433E+02  0.14381346433E+02  0.00000000000E+00 0.  1.
         23    2    1    2    0    0  0.18943732350E+02  0.47867622298E+02  0.52644898718E+03  0.54355124846E+03  0.12509695975E+03 0.  0.
          5    1    3    3  502    0  0.53822679041E+02  0.27425942463E+01  0.10361037314E+03  0.11686310121E+03  0.41800000000E+01 0.  1.
         -5    1    3    3    0  502 -0.34878946691E+02  0.45125028051E+02  0.42283861404E+03  0.42668814724E+03  0.41800000000E+01 0.  1.
        -11    1    1    2    0    0 -0.41460527884E+02  0.71852709785E+01  0.19602873138E+03  0.20049405731E+03  0.00000000000E+00 0. -1.
         11    1    1    2    0    0  0.22516795533E+02 -0.55052893276E+02  0.24225200859E+03  0.24944711424E+03  0.00000000000E+00 0.  1.
</event>
<event>
 7    1  0.1312490E-005  0.2092338E+03  0.7561462E-02  0.1142174E+00
         -1   -1    0    0    0  501 -0.00000000000E+00  0.00000000000E+00  0.48973612153E+02  0.48973612153E+02  0.00000000000E+00 0.  1.
          1   -1    0    0  501    0  0.00000000000E+00 -0.00000000000E+00 -0.96519236894E+03  0.96519236894E+03  0.00000000000E+00 0. -1.
         23    2    1    2    0    0 -0.18288156382E+03  0.23924499760E+02 -0.39229183828E+03  0.45117404148E+03  0.12508829379E+03 0.  0.
          5    1    3    3  502    0 -0.29176228544E+02 -0.43359262832E+02 -0.12508035525E+03  0.13562391255E+03  0.41800000000E+01 0.  1.
         -5    1    3    3    0  502 -0.15370533528E+03  0.67283762592E+02 -0.26721148303E+03  0.31555012893E+03  0.41800000000E+01 0.  1.
        -11    1    1    2    0    0  0.58989405375E+02 -0.42796984099E+02 -0.27230245337E+03  0.28188642732E+03  0.00000000000E+00 0. -1.
         11    1    1    2    0    0  0.12389215845E+03  0.18872484340E+02 -0.25162446513E+03  0.28110551230E+03  0.00000000000E+00 0.  1.
</event>
<event>
 7    1  0.1312490E-005  0.1711727E+03  0.7561462E-02  0.1176630E+00
         -3   -1    0    0    0  501 -0.00000000000E+00  0.00000000000E+00  0.13303687350E+03  0.13303687350E+03  0.00000000000E+00 0.  1.
          3   -1    0    0  501    0  0.00000000000E+00 -0.00000000000E+00 -0.27134826199E+03  0.27134826199E+03  0.00000000000E+00 0. -1.
         23    2    1    2    0    0 -0.10420975280E+03 -0.10754080870E+03 -0.29318605844E+02  0.19733317857E+03  0.12512435656E+03 0.  0.
          5    1    3    3  502    0 -0.94427697842E+02 -0.10874103889E+02 -0.31005700063E+02  0.10006828714E+03  0.41800000000E+01 0. -1.
         -5    1    3    3    0  502 -0.97820549533E+01 -0.96666704811E+02  0.16870942194E+01  0.97264891431E+02  0.41800000000E+01 0. -1.
        -11    1    1    2    0    0  0.29896421960E+02  0.25916298538E+02 -0.85475625584E+02  0.94188816453E+02  0.00000000000E+00 0. -1.
         11    1    1    2    0    0  0.74313330835E+02  0.81624510162E+02 -0.23517157065E+02  0.11286314046E+03  0.00000000000E+00 0.  1.
</event>
<event>
 7    1  0.1312490E-005  0.9095742E+02  0.7561462E-02  0.1300550E+00
          2   -1    0    0  501    0  0.00000000000E+00  0.00000000000E+00  0.11690375882E+03  0.11690375882E+03  0.00000000000E+00 0. -1.
         -2   -1    0    0    0  501 -0.00000000000E+00 -0.00000000000E+00 -0.10547356827E+03  0.10547356827E+03  0.00000000000E+00 0.  1.
         23    2    1    2    0    0 -0.10008593059E+02 -0.11807999494E+02 -0.21309254658E+02  0.12783314515E+03  0.12509047877E+03 0.  0.
          5    1    3    3  502    0 -0.12856457500E+02 -0.60704810808E+02  0.18162234910E+02  0.64789673032E+02  0.41800000000E+01 0.  1.
         -5    1    3    3    0  502  0.28478644404E+01  0.48896811314E+02 -0.39471489568E+02  0.63043472123E+02  0.41800000000E+01 0.  1.
        -11    1    1    2    0    0  0.32410410287E+02 -0.14929325409E+02  0.45124954851E+02  0.57528957947E+02  0.00000000000E+00 0. -1.
         11    1    1    2    0    0 -0.22401817228E+02  0.26737324903E+02 -0.12385509633E+02  0.37015223989E+02  0.00000000000E+00 0.  1.
</event>
<event>
 7    1  0.1312490E-005  0.1046631E+03  0.7561462E-02  0.1270785E+00
         -1   -1    0    0    0  501 -0.00000000000E+00  0.00000000000E+00  0.11626930294E+03  0.11626930294E+03  0.00000000000E+00 0. -1.
          1   -1    0    0  501    0  0.00000000000E+00 -0.00000000000E+00 -0.15521304057E+03  0.15521304057E+03  0.00000000000E+00 0.  1.
         23    2    1    2    0    0  0.25738217195E+02 -0.21502693385E+02  0.53178158709E+02  0.14001869587E+03  0.12510993958E+03 0.  0.
          5    1    3    3  502    0  0.75190071512E+02 -0.16146406450E+01  0.38410935106E+02  0.84551914551E+02  0.41800000000E+01 0. -1.
         -5    1    3    3    0  502 -0.49451854318E+02 -0.19888052740E+02  0.14767223602E+02  0.55466781321E+02  0.41800000000E+01 0. -1.
        -11    1    1    2    0    0 -0.18696117763E+02 -0.26272920640E+02 -0.72481251305E+02  0.79330592895E+02  0.00000000000E+00 0.  1.
         11    1    1    2    0    0 -0.70420994318E+01  0.47775614025E+02 -0.19640645027E+02  0.52133054744E+02  0.00000000000E+00 0. -1.
</event>
<event>
 6    1  0.1312490E-005  0.1271445E+03  0.7561462E-02  0.1231755E+00
          1   -1    0    0  501    0  0.00000000000E+00  0.00000000000E+00  0.44268694854E+02  0.44268694854E+02  0.00000000000E+00 0. -1.
         -1   -1    0    0    0  501 -0.00000000000E+00 -0.00000000000E+00 -0.63536231935E+03  0.63536231935E+03  0.00000000000E+00 0.  1.
          5    1    1    2  502    0  0.19149085730E+02  0.77072200139E+02 -0.14891247185E+03  0.16881708501E+03  0.41800000000E+01 0. -1.
         -5    1    1    2    0  502 -0.41330385380E+02 -0.67522070116E+02 -0.39757985335E+03  0.40540676228E+03  0.41800000000E+01 0.  1.
        -11    1    1    2    0    0  0.46277102722E+02  0.25587764238E+02 -0.25766274270E+02  0.58823505547E+02  0.00000000000E+00 0. -1.
         11    1    1    2    0    0 -0.24095803073E+02 -0.35137894261E+02 -0.18835025018E+02  0.46583661366E+02  0.00000000000E+00 0.  1.
</event>
<event>
 7    1  0.1312490E-005  0.1786357E+03  0.7561462E-02  0.1169130E+00
         -1   -1    0    0    0  501 -0.00000000000E+00  0.00000000000E+00  0.20345525319E+03  0.20345525319E+03  0.00000000000E+00 0.  1.
          1   -1    0    0  501    0  0.00000000000E+00 -0.00000000000E+00 -0.20860526090E+03  0.20860526090E+03  0.00000000000E+00 0. -1.
         23    2    1    2    0    0 -0.16538409145E+03 -0.34404687918E+02  0.44556436360E+02  0.21486842695E+03  0.12509030587E+03 0.  0.
          5    1    3    3  502    0 -0.15948361711E+03 -0.68477910860E+01  0.72130094575E+02  0.17522025943E+03  0.41800000000E+01 0. -1.
         -5    1    3    3    0  502 -0.59004743335E+01 -0.27556896832E+02 -0.27573658215E+02  0.39648167520E+02  0.41800000000E+01 0. -1.
        -11    1    1    2    0    0  0.72847784036E+02  0.11298982261E+02 -0.67750473641E+02  0.10012289108E+03  0.00000000000E+00 0. -1.
         11    1    1    2    0    0  0.92536307409E+02  0.23105705657E+02  0.18044029569E+02  0.97069196071E+02  0.00000000000E+00 0.  1.
</event>
<event>
 7    1  0.1312490E-005  0.1311533E+03  0.7561462E-02  0.1225754E+00
          2   -1    0    0  501    0  0.00000000000E+00  0.00000000000E+00  0.15891081641E+03  0.15891081641E+03  0.00000000000E+00 0. -1.
         -2   -1    0    0    0  501 -0.00000000000E+00 -0.00000000000E+00 -0.17738471935E+03  0.17738471935E+03  0.00000000000E+00 0.  1.
         23    2    1    2    0    0 -0.19435894718E+02  0.11338679663E+03 -0.65234067608E+02  0.18203864152E+03  0.12509302050E+03 0.  0.
          5    1    3    3  502    0 -0.48239026681E+02  0.85034353199E+02 -0.91244788222E+02  0.13379435226E+03  0.41800000000E+01 0.  1.
         -5    1    3    3    0  502  0.28803131963E+02  0.28352443429E+02  0.26010720614E+02  0.48244289260E+02  0.41800000000E+01 0.  1.
        -11    1    1    2    0    0  0.16798498844E+01 -0.10346954435E+03  0.23798428495E+00  0.10348345347E+03  0.00000000000E+00 0.  1.
         11    1    1    2    0    0  0.17756044834E+02 -0.99172522738E+01  0.46522180382E+02  0.50773440776E+02  0.00000000000E+00 0. -1.
</event>
<event>
 7    1  0.1312490E-005  0.8683124E+02  0.7561462E-02  0.1310712E+00
          1   -1    0    0  501    0  0.00000000000E+00  0.00000000000E+00  0.15443579105E+03  0.15443579105E+03  0.00000000000E+00 0. -1.
         -1   -1    0    0    0  501 -0.00000000000E+00 -0.00000000000E+00 -0.85444999525E+02  0.85444999525E+02  0.00000000000E+00 0.  1.
         23    2    1    2    0    0 -0.14508469762E+02  0.30043508903E+02  0.12663250191E+02  0.13007725567E+03  0.12508647575E+03 0.  0.
          5    1    3    3  502    0 -0.31022293360E+02  0.55717106588E+02 -0.35346164996E+02  0.73031516702E+02  0.41800000000E+01 0.  1.
         -5    1    3    3    0  502  0.16513823598E+02 -0.25673597684E+02  0.48009415187E+02  0.57045738968E+02  0.41800000000E+01 0.  1.
        -11    1    1    2    0    0  0.33670005688E+02  0.95148377999E+01 -0.39402337471E+01  0.35209755230E+02  0.00000000000E+00 0.  1.
         11    1    1    2    0    0 -0.19161535926E+02 -0.39558346703E+02  0.60267775080E+02  0.74593779674E+02  0.00000000000E+00 0. -1.
</event>
<event>
 7    1  0.1312490E-005  0.1437233E+03  0.7561462E-02  0.1208405E+00
          1   -1    0    0  501    0  0.00000000000E+00  0.00000000000E+00  0.12669810416E+03  0.12669810416E+03  0.00000000000E+00 0. -1.
         -1   -1    0    0    0  501 -0.00000000000E+00 -0.00000000000E+00 -0.22849306114E+03  0.22849306114E+03  0.00000000000E+00 0.  1.
         23    2    1    2    0    0  0.73261056110E+02  0.73401124779E+02 -0.12638168802E+03  0.20584954894E+03  0.12508716269E+03 0.  0.
          5    1    3    3  502    0 -0.25631934630E+02  0.18623803222E+02  0.51393466955E+01  0.32368617576E+02  0.41800000000E+01 0. -1.
         -5    1    3    3    0  502  0.98892990739E+02  0.54777321557E+02 -0.13152103471E+03  0.17348093136E+03  0.41800000000E+01 0. -1.
        -11    1    1    2    0    0 -0.91573289885E+02 -0.81264420435E+02  0.34336123641E+02  0.12715558515E+03  0.00000000000E+00 0. -1.
         11    1    1    2    0    0  0.18312233775E+02  0.78632956564E+01 -0.97493926098E+01  0.22186031206E+02  0.00000000000E+00 0.  1.
</event>
<event>
 7    1  0.1312490E-005  0.2215553E+03  0.7561462E-02  0.1132729E+00
          2   -1    0    0  501    0  0.00000000000E+00  0.00000000000E+00  0.61729851848E+03  0.61729851848E+03  0.00000000000E+00 0.  1.
         -2   -1    0    0    0  501 -0.00000000000E+00 -0.00000000000E+00 -0.96995938062E+02  0.96995938062E+02  0.00000000000E+00 0. -1.
         23    2    1    2    0    0 -0.16986095000E+03 -0.12004967300E+03  0.17743428216E+03  0.30065776977E+03  0.12508998247E+03 0.  0.
          5    1    3    3  502    0 -0.13533079266E+03 -0.63194972445E+02  0.18002882306E+03  0.23395699929E+03  0.41800000000E+01 0. -1.
         -5    1    3    3    0  502 -0.34530157342E+02 -0.56854700552E+02 -0.25945408934E+01  0.66700770486E+02  0.41800000000E+01 0. -1.
        -11    1    1    2    0    0 -0.85506592183E+01  0.21689709149E+02  0.65220610967E+02  0.69262438240E+02  0.00000000000E+00 0. -1.
         11    1    1    2    0    0  0.17841160922E+03  0.98359963847E+02  0.27764768729E+03  0.34437424853E+03  0.00000000000E+00 0.  1.
</event>
<event>
 7    1  0.1312490E-005  0.1159619E+03  0.7561462E-02  0.1249911E+00
         -1   -1    0    0    0  501 -0.00000000000E+00  0.00000000000E+00  0.97703033828E+02  0.97703033828E+02  0.00000000000E+00 0.  1.
          1   -1    0    0  501    0  0.00000000000E+00 -0.00000000000E+00 -0.21982835062E+03  0.21982835062E+03  0.00000000000E+00 0. -1.
         23    2    1    2    0    0  0.75051449501E+02 -0.44997871415E+02 -0.18200616989E+02  0.15374072064E+03  0.12508964074E+03 0.  0.
          5    1    3    3  502    0  0.96026293789E+02 -0.38049985916E+02 -0.49969423018E+02  0.11481840516E+03  0.41800000000E+01 0.  1.
         -5    1    3    3    0  502 -0.20974844288E+02 -0.69478854986E+01  0.31768806029E+02  0.38922315480E+02  0.41800000000E+01 0.  1.
        -11    1    1    2    0    0 -0.66570036929E+01 -0.14150711274E+02 -0.62325520618E+02  0.64257519778E+02  0.00000000000E+00 0. -1.
         11    1    1    2    0    0 -0.68394445808E+02  0.59148582689E+02 -0.41599179189E+02  0.99533144031E+02  0.00000000000E+00 0.  1.
</event>
<event>
 7    1  0.1312490E-005  0.1232255E+03  0.7561462E-02  0.1237869E+00
          1   -1    0    0  501    0  0.00000000000E+00  0.00000000000E+00  0.17557269256E+02  0.17557269256E+02  0.00000000000E+00 0. -1.
         -1   -1    0    0    0  501 -0.00000000000E+00 -0.00000000000E+00 -0.88539358621E+03  0.88539358621E+03  0.00000000000E+00 0.  1.
         23    2    1    2    0    0 -0.37521086490E+02  0.45143160691E+02 -0.46959484776E+03  0.48950947695E+03  0.12511782480E+03 0.  0.
          5    1    3    3  502    0  0.17466535089E+02 -0.34399273027E+02 -0.95181228634E+02  0.10278778389E+03  0.41800000000E+01 0. -1.
         -5    1    3    3    0  502 -0.54987621579E+02  0.79542433718E+02 -0.37441361913E+03  0.38672169305E+03  0.41800000000E+01 0. -1.
        -11    1    1    2    0    0  0.25328486730E+02 -0.74703439087E+02 -0.29476763355E+03  0.30513946621E+03  0.00000000000E+00 0. -1.
         11    1    1    2    0    0  0.12192599760E+02  0.29560278396E+02 -0.10347383563E+03  0.10830191230E+03  0.00000000000E+00 0.  1.
</event>
<event>
 7    1  0.1312490E-005  0.1248988E+03  0.7561462E-02  0.1235228E+00
          1   -1    0    0  501    0  0.00000000000E+00  0.00000000000E+00  0.11533243334E+03  0.11533243334E+03  0.00000000000E+00 0. -1.
         -1   -1    0    0    0  501 -0.00000000000E+00 -0.00000000000E+00 -0.13597474314E+03  0.13597474314E+03  0.00000000000E+00 0.  1.
         23    2    1    2    0    0 -0.45613818837E+02 -0.40495850426E+02 -0.16092797444E+02  0.14009564934E+03  0.12508908211E+03 0.  0.
          5    1    3    3  502    0 -0.41282685106E+02  0.40195356361E+02 -0.12460530299E+02  0.59098764605E+02  0.41800000000E+01 0.  1.
         -5    1    3    3    0  502 -0.43311337316E+01 -0.80691206787E+02 -0.36322671458E+01  0.80996884734E+02  0.41800000000E+01 0.  1.
        -11    1    1    2    0    0 -0.69508656940E+01 -0.25677570785E+02 -0.16040440246E+01  0.26650049391E+02  0.00000000000E+00 0. -1.
         11    1    1    2    0    0  0.52564684531E+02  0.66173421211E+02 -0.29454683329E+01  0.84561477744E+02  0.00000000000E+00 0.  1.
</event>
<event>
 7    1  0.1312490E-005  0.9777124E+02  0.7561462E-02  0.1285054E+00
         -3   -1    0    0    0  501 -0.00000000000E+00  0.00000000000E+00  0.67873037808E+02  0.67873037808E+02  0.00000000000E+00 0.  1.
          3   -1    0    0  501    0  0.00000000000E+00 -0.00000000000E+00 -0.24639370287E+03  0.24639370287E+03  0.00000000000E+00 0. -1.
         23    2    1    2    0    0  0.42191508894E+02 -0.42616533528E+02 -0.46201273975E+02  0.13967579190E+03  0.11738175656E+03 0.  0.
          5    1    3    3  502    0  0.62069773556E+02 -0.17629891870E-01  0.13415044947E+02  0.63640340437E+02  0.41800000000E+01 0. -1.
         -5    1    3    3    0  502 -0.19878264662E+02 -0.42598903636E+02 -0.59616318922E+02  0.76035451461E+02  0.41800000000E+01 0.  1.
        -11    1    1    2    0    0  0.21302539442E+01  0.41753524990E+02 -0.79497111739E+01  0.42556935260E+02  0.00000000000E+00 0.  1.
         11    1    1    2    0    0 -0.44321762838E+02  0.86300853772E+00 -0.12436967991E+03  0.13203401352E+03  0.00000000000E+00 0. -1.
</event>
<event>
 7    1  0.1312490E-005  0.6544789E+02  0.7561462E-02  0.1376295E+00
         -1   -1    0    0    0  501 -0.00000000000E+00  0.00000000000E+00  0.81956967161E+02  0.81956967161E+02  0.00000000000E+00 0.  1.
          1   -1    0    0  501    0  0.00000000000E+00 -0.00000000000E+00 -0.14881594270E+03  0.14881594270E+03  0.00000000000E+00 0. -1.
         23    2    1    2    0    0 -0.54418123818E+01 -0.13982070171E+02 -0.22016411072E+02  0.12789527184E+03  0.12508943439E+03 0.  0.
          5    1    3    3  502    0 -0.50458524715E+01  0.11535463313E+02 -0.71147482706E+02  0.72373781416E+02  0.41800000000E+01 0. -1.
         -5    1    3    3    0  502 -0.39595991028E+00 -0.25517533484E+02  0.49131071634E+02  0.55521490428E+02  0.41800000000E+01 0. -1.
        -11    1    1    2    0    0 -0.30332926744E+02 -0.24672259268E+02 -0.12401120542E+02  0.41019441890E+02  0.00000000000E+00 0.  1.
         11    1    1    2    0    0  0.35774739126E+02  0.38654329439E+02 -0.32441443920E+02  0.61858196123E+02  0.00000000000E+00 0. -1.
</event>
<event>
 7    1  0.1312490E-005  0.9790627E+02  0.7561462E-02  0.1284761E+00
         -1   -1    0    0    0  501 -0.00000000000E+00  0.00000000000E+00  0.38674688696E+03  0.38674688696E+03  0.00000000000E+00 0.  1.
          1   -1    0    0  501    0  0.00000000000E+00 -0.00000000000E+00 -0.49371638295E+02  0.49371638295E+02  0.00000000000E+00 0. -1.
         23    2    1    2    0    0  0.52699580313E+01 -0.25102309862E+02  0.31395591279E+03  0.33892071700E+03  0.12506413880E+03 0.  0.
          5    1    3    3  502    0  0.53272409479E+02  0.18250118360E+02  0.20002970573E+03  0.20784699182E+03  0.41800000000E+01 0. -1.
         -5    1    3    3    0  502 -0.48002451448E+02 -0.43352428222E+02  0.11392620706E+03  0.13107372518E+03  0.41800000000E+01 0. -1.
        -11    1    1    2    0    0 -0.37231005785E+02  0.19678417455E+02  0.42295228173E+02  0.59684790621E+02  0.00000000000E+00 0. -1.
         11    1    1    2    0    0  0.31961047754E+02  0.54238924074E+01 -0.18875892298E+02  0.37513017639E+02  0.00000000000E+00 0.  1.
</event>
<event>
 7    1  0.1312490E-005  0.1901473E+03  0.7561462E-02  0.1158329E+00
          3   -1    0    0  501    0  0.00000000000E+00  0.00000000000E+00  0.12832652995E+03  0.12832652995E+03  0.00000000000E+00 0. -1.
         -3   -1    0    0    0  501 -0.00000000000E+00 -0.00000000000E+00 -0.31910173800E+03  0.31910173800E+03  0.00000000000E+00 0.  1.
         23    2    1    2    0    0  0.11605150802E+03 -0.12053676174E+03 -0.13109495301E+03  0.24663852396E+03  0.12509041272E+03 0.  0.
          5    1    3    3  502    0  0.42864109525E+02  0.54917759315E+01  0.91139748561E+01  0.44362466410E+02  0.41800000000E+01 0. -1.
         -5    1    3    3    0  502  0.73187398496E+02 -0.12602853767E+03 -0.14020892787E+03  0.20227605755E+03  0.41800000000E+01 0. -1.
        -11    1    1    2    0    0 -0.12864579523E+03  0.87120475081E+02 -0.42024574245E+02  0.16095273421E+03  0.00000000000E+00 0.  1.
         11    1    1    2    0    0  0.12594287208E+02  0.33416286655E+02 -0.17655680786E+02  0.39837009778E+02  0.00000000000E+00 0. -1.
</event>
<event>
 7    1  0.1312490E-005  0.6675053E+02  0.7561462E-02  0.1371505E+00
          1   -1    0    0  501    0  0.00000000000E+00  0.00000000000E+00  0.43937949899E+03  0.43937949899E+03  0.00000000000E+00 0. -1.
         -1   -1    0    0    0  501 -0.00000000000E+00 -0.00000000000E+00 -0.11044116930E+03  0.11044116930E+03  0.00000000000E+00 0.  1.
         23    2    1    2    0    0  0.13100723608E+02  0.59740117739E+01 -0.61839580093E+02  0.14029029550E+03  0.12509962258E+03 0.  0.
          5    1    3    3  502    0 -0.52191580496E+01  0.16491797223E+01 -0.98567894564E+02  0.98808206356E+02  0.41800000000E+01 0.  1.
         -5    1    3    3    0  502  0.18319881657E+02  0.43248320516E+01  0.36728314471E+02  0.41482089148E+02  0.41800000000E+01 0.  1.
        -11    1    1    2    0    0  0.41507501594E+02  0.20896517035E+02  0.77253569249E+02  0.90153486202E+02  0.00000000000E+00 0.  1.
         11    1    1    2    0    0 -0.54608225202E+02 -0.26870528809E+02  0.31352434053E+03  0.31937688659E+03  0.00000000000E+00 0. -1.
</event>
<event>
 7    1  0.1312490E-005  0.1270476E+03  0.7561462E-02  0.1231904E+00
          2   -1    0    0  501    0  0.00000000000E+00  0.00000000000E+00  0.33709632102E+03  0.33709632102E+03  0.00000000000E+00 0. -1.
         -2   -1    0    0    0  501 -0.00000000000E+00 -0.00000000000E+00 -0.54865671583E+02  0.54865671583E+02  0.00000000000E+00 0.  1.
         23    2    1    2    0    0 -0.93773693971E+01  0.74140394892E+02  0.10718689614E+03  0.18088974980E+03  0.12508931876E+03 0.  0.
          5    1    3    3  502    0 -0.55401186434E+02 -0.29156160336E+01  0.36136867294E+02  0.66341072143E+02  0.41800000000E+01 0.  1.
         -5    1    3    3    0  502  0.46023817037E+02  0.77056010925E+02  0.71050028850E+02  0.11454867766E+03  0.41800000000E+01 0.  1.
        -11    1    1    2    0    0  0.42140502794E+02 -0.59031128213E+02  0.15156789745E+03  0.16802774655E+03  0.00000000000E+00 0. -1.
         11    1    1    2    0    0 -0.32763133397E+02 -0.15109266678E+02  0.23475855839E+02  0.43044496244E+02  0.00000000000E+00 0.  1.
</event>
<event>
 7    1  0.1312490E-005  0.2854762E+03  0.7561462E-02  0.1092735E+00
         -3   -1    0    0    0  501 -0.00000000000E+00  0.00000000000E+00  0.75365344614E+03  0.75365344614E+03  0.00000000000E+00 0.  1.
          3   -1    0    0  501    0  0.00000000000E+00 -0.00000000000E+00 -0.12233781914E+03  0.12233781914E+03  0.00000000000E+00 0. -1.
         23    2    1    2    0    0  0.26650335407E+03 -0.53876074404E+02  0.41771085779E+03  0.51386479840E+03  0.12509197094E+03 0.  0.
          5    1    3    3  502    0  0.22642827314E+03 -0.21431060103E+02  0.39816253471E+03  0.45856289609E+03  0.41800000000E+01 0.  1.
         -5    1    3    3    0  502  0.40075080928E+02 -0.32445014301E+02  0.19548323075E+02  0.55301902313E+02  0.41800000000E+01 0.  1.
        -11    1    1    2    0    0 -0.58208576682E+02  0.59680210545E+02  0.50122963492E+02  0.97274238107E+02  0.00000000000E+00 0. -1.
         11    1    1    2    0    0 -0.20829477739E+03 -0.58041361409E+01  0.16348180571E+03  0.26485222877E+03  0.00000000000E+00 0.  1.
</event>
<event>
 7    1  0.1312490E-005  0.9942659E+02  0.7561462E-02  0.1281506E+00
         -2   -1    0    0    0  501 -0.00000000000E+00  0.00000000000E+00  0.41736938881E+02  0.41736938881E+02  0.00000000000E+00 0.  1.
          2   -1    0    0  501    0  0.00000000000E+00 -0.00000000000E+00 -0.32303234992E+03  0.32303234992E+03  0.00000000000E+00 0. -1.
         23    2    1    2    0    0 -0.13439856831E+02 -0.97664155482E+01 -0.85445974599E+02  0.14947943337E+03  0.12151984941E+03 0.  0.
          5    1    3    3  502    0 -0.61216997411E+02  0.20504304798E+02 -0.56060720697E+02  0.85605047119E+02  0.41800000000E+01 0. -1.
         -5    1    3    3    0  502  0.47777140580E+02 -0.30270720347E+02 -0.29385253902E+02  0.63874386253E+02  0.41800000000E+01 0.  1.
        -11    1    1    2    0    0  0.32580037866E+02  0.33650072912E+02 -0.16621174924E+03  0.17268506554E+03  0.00000000000E+00 0.  1.
         11    1    1    2    0    0 -0.19140181035E+02 -0.23883657364E+02 -0.29637687198E+02  0.42604789890E+02  0.00000000000E+00 0. -1.
</event>
<event>
 7    1  0.1312490E-005  0.1094987E+03  0.7561462E-02  0.1261501E+00
          2   -1    0    0  501    0  0.00000000000E+00  0.00000000000E+00  0.38168196446E+03  0.38168196446E+03  0.00000000000E+00 0. -1.
         -2   -1    0    0    0  501 -0.00000000000E+00 -0.00000000000E+00 -0.46347448011E+02  0.46347448011E+02  0.00000000000E+00 0.  1.
         23    2    1    2    0    0  0.31438774168E+02 -0.16040699111E+02  0.74790156383E+02  0.14994439852E+03  0.12507619520E+03 0.  0.
          5    1    3    3  502    0 -0.15121490470E+02 -0.62041468170E+02  0.31201193569E+02  0.71195436138E+02  0.41800000000E+01 0. -1.
         -5    1    3    3    0  502  0.46560264638E+02  0.46000769059E+02  0.43588962814E+02  0.78748962383E+02  0.41800000000E+01 0. -1.
        -11    1    1    2    0    0  0.17721076243E+02 -0.21283021848E+02  0.13938213835E+03  0.14210694583E+03  0.00000000000E+00 0. -1.
         11    1    1    2    0    0 -0.49159850412E+02  0.37323720960E+02  0.12116222172E+03  0.13597806813E+03  0.00000000000E+00 0.  1.
</event>
<event>
 7    1  0.1312490E-005  0.7263590E+02  0.7561462E-02  0.1351352E+00
          2   -1    0    0  501    0  0.00000000000E+00  0.00000000000E+00  0.27219870563E+02  0.27219870563E+02  0.00000000000E+00 0. -1.
         -2   -1    0    0    0  501 -0.00000000000E+00 -0.00000000000E+00 -0.46291712063E+03  0.46291712063E+03  0.00000000000E+00 0.  1.
         23    2    1    2    0    0  0.25234004821E+02  0.88983929112E+01 -0.22649190970E+03  0.26012039727E+03  0.12509236396E+03 0.  0.
          5    1    3    3  502    0  0.13513974368E+02 -0.22776750021E+02 -0.22443058867E+03  0.22602647936E+03  0.41800000000E+01 0.  1.
         -5    1    3    3    0  502  0.11720030454E+02  0.31675142933E+02 -0.20613210285E+01  0.34093917904E+02  0.41800000000E+01 0.  1.
        -11    1    1    2    0    0  0.26024193421E+02 -0.18951655684E+02 -0.13800653210E+03  0.14171177368E+03  0.00000000000E+00 0.  1.
         11    1    1    2    0    0 -0.51258198242E+02  0.10053262773E+02 -0.71198808269E+02  0.88304820244E+02  0.00000000000E+00 0. -1.
</event>
<event>
 7    1  0.1312490E-005  0.1300676E+03  0.7561462E-02  0.1227355E+00
         -1   -1    0    0    0  501 -0.00000000000E+00  0.00000000000E+00  0.37221195667E+02  0.37221195667E+02  0.00000000000E+00 0.  1.
          1   -1    0    0  501    0  0.00000000000E+00 -0.00000000000E+00 -0.49085875006E+03  0.49085875006E+03  0.00000000000E+00 0. -1.
         23    2    1    2    0    0  0.82109257621E+02 -0.63718470093E+01 -0.26589227336E+03  0.30517049530E+03  0.12509116493E+03 0.  0.
          5    1    3    3  502    0  0.56743273056E+02 -0.62949308677E+02 -0.12385174772E+03  0.15013041768E+03  0.41800000000E+01 0. -1.
         -5    1    3    3    0  502  0.25365984566E+02  0.56577461667E+02 -0.14204052564E+03  0.15504007762E+03  0.41800000000E+01 0. -1.
        -11    1    1    2    0    0 -0.84179477896E+02 -0.20132657656E+02 -0.10542950041E+03  0.13640706712E+03  0.00000000000E+00 0.  1.
         11    1    1    2    0    0  0.20702202748E+01  0.26504504665E+02 -0.82315780619E+02  0.86502383311E+02  0.00000000000E+00 0. -1.
</event>
<event>
 7    1  0.1312490E-005  0.1098700E+03  0.7561462E-02  0.1260811E+00
         -2   -1    0    0    0  501 -0.00000000000E+00  0.00000000000E+00  0.22800789761E+03  0.22800789761E+03  0.00000000000E+00 0.  1.
          2   -1    0    0  501    0  0.00000000000E+00 -0.00000000000E+00 -0.11661158460E+03  0.11661158460E+03  0.00000000000E+00 0. -1.
         23    2    1    2    0    0  0.91618148537E+02  0.46241816441E+02  0.15234181910E+03  0.22223397987E+03  0.12509085192E+03 0.  0.
          5    1    3    3  502    0  0.56709534577E+02  0.18621124272E+02 -0.36650169978E+01  0.59946829196E+02  0.41800000000E+01 0.  1.
         -5    1    3    3    0  502  0.34908613960E+02  0.27620692169E+02  0.15600683610E+03  0.16228715067E+03  0.41800000000E+01 0.  1.
        -11    1    1    2    0    0 -0.26512039391E+02 -0.42361316336E+02 -0.20730886281E+02  0.54103040583E+02  0.00000000000E+00 0.  1.
         11    1    1    2    0    0 -0.65106109146E+02 -0.38805001047E+01 -0.20214619816E+02  0.68282461756E+02  0.00000000000E+00 0. -1.
</event>
<event>
 7    1  0.1312490E-005  0.7450259E+02  0.7561462E-02  0.1345418E+00
         -2   -1    0    0    0  501 -0.00000000000E+00  0.00000000000E+00  0.46595627784E+02  0.46595627784E+02  0.00000000000E+00 0. -1.
          2   -1    0    0  501    0  0.00000000000E+00 -0.00000000000E+00 -0.34100168348E+03  0.34100168348E+03  0.00000000000E+00 0.  1.
         23    2    1    2    0    0 -0.38798103722E+02  0.26122812441E+02 -0.96673767789E+02  0.16486736431E+03  0.12509091196E+03 0.  0.
          5    1    3    3  502    0 -0.28412202743E+02  0.46406798302E+02  0.10193259613E+02  0.55517737119E+02  0.41800000000E+01 0.  1.
         -5    1    3    3    0  502 -0.10385900979E+02 -0.20283985861E+02 -0.10686702740E+03  0.10934962719E+03  0.41800000000E+01 0.  1.
        -11    1    1    2    0    0  0.10813681493E+02  0.16826063665E+02 -0.16629291757E+01  0.20070312886E+02  0.00000000000E+00 0. -1.
         11    1    1    2    0    0  0.27984422229E+02 -0.42948876106E+02 -0.19606935874E+03  0.20265963407E+03  0.00000000000E+00 0.  1.
</event>
<event>
 7    1  0.1312490E-005  0.1057837E+03  0.7561462E-02  0.1268583E+00
          1   -1    0    0  501    0  0.00000000000E+00  0.00000000000E+00  0.42959227577E+02  0.42959227577E+02  0.00000000000E+00 0. -1.
         -1   -1    0    0    0  501 -0.00000000000E+00 -0.00000000000E+00 -0.35339642199E+03  0.35339642199E+03  0.00000000000E+00 0.  1.
         23    2    1    2    0    0  0.23583587416E+02 -0.48870179248E+02 -0.22606061804E+03  0.26031486235E+03  0.11711509089E+03 0.  0.
          5    1    3    3  502    0  0.23021169090E+02 -0.78606066094E+02 -0.93403037904E+02  0.12429999092E+03  0.41800000000E+01 0. -1.
         -5    1    3    3    0  502  0.56241832604E+00  0.29735886846E+02 -0.13265758014E+03  0.13601487143E+03  0.41800000000E+01 0.  1.
        -11    1    1    2    0    0  0.29444897951E+02  0.32869881720E+02 -0.62450957886E+02  0.76469296326E+02  0.00000000000E+00 0.  1.
         11    1    1    2    0    0 -0.53028485367E+02  0.16000297527E+02 -0.21925618480E+02  0.59571490891E+02  0.00000000000E+00 0. -1.
</event>
<event>
 7    1  0.1312490E-005  0.1288758E+03  0.7561462E-02  0.1229133E+00
          2   -1    0    0  501    0  0.00000000000E+00  0.00000000000E+00  0.25348733417E+03  0.25348733417E+03  0.00000000000E+00 0. -1.
         -2   -1    0    0    0  501 -0.00000000000E+00 -0.00000000000E+00 -0.17938722583E+03  0.17938722583E+03  0.00000000000E+00 0.  1.
         23    2    1    2    0    0 -0.26978964132E+02 -0.12114059707E+03 -0.97300715725E+02  0.20128596034E+03  0.12508277174E+03 0.  0.
          5    1    3    3  502    0 -0.28628039810E+02 -0.52899140584E+02  0.21661361346E+02  0.64066923707E+02  0.41800000000E+01 0. -1.
         -5    1    3    3    0  502  0.16490756783E+01 -0.68241456486E+02 -0.11896207707E+03  0.13721903663E+03  0.41800000000E+01 0. -1.
        -11    1    1    2    0    0  0.11460564575E+02  0.10836074924E+03  0.17944312767E+03  0.20993625838E+03  0.00000000000E+00 0. -1.
         11    1    1    2    0    0  0.15518399557E+02  0.12779847834E+02 -0.80423036000E+01  0.21652341275E+02  0.00000000000E+00 0.  1.
</event>
<event>
 7    1  0.1312490E-005  0.1264347E+03  0.7561462E-02  0.1232844E+00
         -2   -1    0    0    0  501 -0.00000000000E+00  0.00000000000E+00  0.12278823318E+03  0.12278823318E+03  0.00000000000E+00 0.  1.
          2   -1    0    0  501    0  0.00000000000E+00 -0.00000000000E+00 -0.14827488707E+03  0.14827488707E+03  0.00000000000E+00 0. -1.
         23    2    1    2    0    0  0.41790031051E+02 -0.49867581364E+02  0.26128036593E+02  0.14338585738E+03  0.12507456749E+03 0.  0.
          5    1    3    3  502    0 -0.37256947494E+02 -0.48382328267E+02  0.48206834221E+01  0.61397403966E+02  0.41800000000E+01 0.  1.
         -5    1    3    3    0  502  0.79046978544E+02 -0.14852530971E+01  0.21307353171E+02  0.81988453412E+02  0.41800000000E+01 0.  1.
        -11    1    1    2    0    0 -0.56647263007E+02 -0.38286241768E+01 -0.43175324318E+02  0.71327970665E+02  0.00000000000E+00 0.  1.
         11    1    1    2    0    0  0.14857231956E+02  0.53696205541E+02 -0.84393661601E+01  0.56349292206E+02  0.00000000000E+00 0. -1.
</event>
<event>
 7    1  0.1312490E-005  0.8198150E+02  0.7561462E-02  0.1323520E+00
         -1   -1    0    0    0  501 -0.00000000000E+00  0.00000000000E+00  0.69146839010E+02  0.69146839010E+02  0.00000000000E+00 0.  1.
          1   -1    0    0  501    0  0.00000000000E+00 -0.00000000000E+00 -0.20510974111E+03  0.20510974111E+03  0.00000000000E+00 0. -1.
         23    2    1    2    0    0 -0.29013249741E+02  0.36565259534E+02 -0.53413222854E+02  0.14380463993E+03  0.12509202703E+03 0.  0.
          5    1    3    3  502    0 -0.24155351256E+00  0.48565843211E+02 -0.85786044937E+02  0.98668218697E+02  0.41800000000E+01 0.  1.
         -5    1    3    3    0  502 -0.28771696228E+02 -0.12000583678E+02  0.32372822083E+02  0.45136421237E+02  0.41800000000E+01 0.  1.
        -11    1    1    2    0    0  0.26474572066E+02 -0.57170472172E+02 -0.22475968248E+02  0.66891965161E+02  0.00000000000E+00 0.  1.
         11    1    1    2    0    0  0.25386776743E+01  0.20605212638E+02 -0.60073711000E+02  0.63559975028E+02  0.00000000000E+00 0. -1.
</event>
<event>
 7    1  0.1312490E-005  0.9658059E+02  0.7561462E-02  0.1287655E+00
          1   -1    0    0  501    0  0.00000000000E+00  0.00000000000E+00  0.75806109469E+03  0.75806109469E+03  0.00000000000E+00 0. -1.
         -1   -1    0    0    0  501 -0.00000000000E+00 -0.00000000000E+00 -0.21956341944E+02  0.21956341944E+02  0.00000000000E+00 0.  1.
         23    2    1    2    0    0  0.61888533546E+02  0.30947241400E+02  0.42830272078E+03  0.45152905706E+03  0.12508935372E+03 0.  0.
          5    1    3    3  502    0  0.43747588862E+02 -0.28941146173E+00  0.40703963907E+03  0.40940527044E+03  0.41800000000E+01 0. -1.
         -5    1    3    3    0  502  0.18140944684E+02  0.31236652862E+02  0.21263081710E+02  0.42123786628E+02  0.41800000000E+01 0. -1.
        -11    1    1    2    0    0 -0.68466571593E+02  0.11906689610E+02  0.15957229150E+03  0.17404814534E+03  0.00000000000E+00 0.  1.
         11    1    1    2    0    0  0.65780380469E+01 -0.42853931011E+02  0.14822974047E+03  0.15444023423E+03  0.00000000000E+00 0. -1.
</event>
<event>
 7    1  0.1312490E-005  0.1155212E+03  0.7561462E-02  0.1250674E+00
          2   -1    0    0  501    0  0.00000000000E+00  0.00000000000E+00  0.51804957354E+03  0.51804957354E+03  0.00000000000E+00 0. -1.
         -2   -1    0    0    0  501 -0.00000000000E+00 -0.00000000000E+00 -0.26846747739E+02  0.26846747739E+02  0.00000000000E+00 0.  1.
         23    2    1    2    0    0  0.20195280326E+02  0.30969922143E+02  0.30531432940E+03  0.33201125549E+03  0.12509056162E+03 0.  0.
          5    1    3    3  502    0 -0.96450858468E+01  0.74137951525E+02  0.21249536057E+03  0.22530249488E+03  0.41800000000E+01 0. -1.
         -5    1    3    3    0  502  0.29840366173E+02 -0.43168029382E+02  0.92818968838E+02  0.10670876061E+03  0.41800000000E+01 0. -1.
        -11    1    1    2    0    0 -0.51479798947E+02  0.95181747491E+01  0.86795619293E+02  0.10136194986E+03  0.00000000000E+00 0. -1.
         11    1    1    2    0    0  0.31284518621E+02 -0.40488096892E+02  0.99092877102E+02  0.11152311593E+03  0.00000000000E+00 0.  1.
</event>
<event>
 7    1  0.1312490E-005  0.1455126E+03  0.7561462E-02  0.1206098E+00
         -2   -1    0    0    0  501 -0.00000000000E+00  0.00000000000E+00  0.60747191737E+02  0.60747191737E+02  0.00000000000E+00 0.  1.
          2   -1    0    0  501    0  0.00000000000E+00 -0.00000000000E+00 -0.51846981061E+03  0.51846981061E+03  0.00000000000E+00 0. -1.
         23    2    1    2    0    0  0.12839542574E+03  0.50881686674E+02 -0.27267106405E+03  0.33026249806E+03  0.12509786994E+03 0.  0.
          5    1    3    3  502    0  0.97714316873E+02  0.65958935292E+02 -0.27125154457E+03  0.29579307243E+03  0.41800000000E+01 0. -1.
         -5    1    3    3    0  502  0.30681108870E+02 -0.15077248619E+02 -0.14195194796E+01  0.34469425625E+02  0.41800000000E+01 0. -1.
        -11    1    1    2    0    0 -0.54839551853E+02 -0.15455478773E+02 -0.12890263495E+02  0.58415812624E+02  0.00000000000E+00 0.  1.
         11    1    1    2    0    0 -0.73555873889E+02 -0.35426207901E+02 -0.17216129133E+03  0.19053869167E+03  0.00000000000E+00 0. -1.
</event>
<event>
 7    1  0.1312490E-005  0.1130841E+03  0.7561462E-02  0.1254963E+00
         -1   -1    0    0    0  501 -0.00000000000E+00  0.00000000000E+00  0.11142949052E+03  0.11142949052E+03  0.00000000000E+00 0.  1.
          1   -1    0    0  501    0  0.00000000000E+00 -0.00000000000E+00 -0.16665181128E+03  0.16665181128E+03  0.00000000000E+00 0. -1.
         23    2    1    2    0    0 -0.38397684691E+02 -0.39784040937E+01  0.43444368081E+02  0.13793183064E+03  0.12509023502E+03 0.  0.
          5    1    3    3  502    0 -0.34411980121E+02  0.58314674501E+02  0.28678254961E+02  0.73652565098E+02  0.41800000000E+01 0. -1.
         -5    1    3    3    0  502 -0.39857045703E+01 -0.62293078594E+02  0.14766113120E+02  0.64279265540E+02  0.41800000000E+01 0. -1.
        -11    1    1    2    0    0  0.80160974763E+01 -0.40841848373E+02 -0.24421338567E+02  0.48256773355E+02  0.00000000000E+00 0.  1.
         11    1    1    2    0    0  0.30381587215E+02  0.44820252466E+02 -0.74245350274E+02  0.91892697806E+02  0.00000000000E+00 0. -1.
</event>
<event>
 7    1  0.1312490E-005  0.1172386E+03  0.7561462E-02  0.1247723E+00
         -2   -1    0    0    0  501 -0.00000000000E+00  0.00000000000E+00  0.16019297418E+03  0.16019297418E+03  0.00000000000E+00 0.  1.
          2   -1    0    0  501    0  0.00000000000E+00 -0.00000000000E+00 -0.11801900495E+03  0.11801900495E+03  0.00000000000E+00 0. -1.
         23    2    1    2    0    0  0.79164232387E+02  0.33256323303E+01  0.50700563088E+02  0.15651709410E+03  0.12509603562E+03 0.  0.
          5    1    3    3  502    0  0.56540477567E+02 -0.49362784303E+02  0.62577574642E+02  0.97810711712E+02  0.41800000000E+01 0. -1.
         -5    1    3    3    0  502  0.22623754820E+02  0.52688416633E+02 -0.11877011554E+02  0.58706382387E+02  0.41800000000E+01 0. -1.
        -11    1    1    2    0    0  0.37988493787E+01 -0.17271865253E+02  0.25428741765E+02  0.30973690346E+02  0.00000000000E+00 0.  1.
         11    1    1    2    0    0 -0.82963081766E+02  0.13946232923E+02 -0.33955335620E+02  0.90721194689E+02  0.00000000000E+00 0. -1.
</event>
<event>
 7    1  0.1312490E-005  0.9261331E+02  0.7561462E-02  0.1296644E+00
          1   -1    0    0  501    0  0.00000000000E+00  0.00000000000E+00  0.35441596116E+03  0.35441596116E+03  0.00000000000E+00 0. -1.
         -1   -1    0    0    0  501 -0.00000000000E+00 -0.00000000000E+00 -0.35298272370E+02  0.35298272370E+02  0.00000000000E+00 0.  1.
         23    2    1    2    0    0  0.71543370892E+01  0.37295900461E+02  0.17373727286E+03  0.21742709754E+03  0.12509090307E+03 0.  0.
          5    1    3    3  502    0 -0.38721548036E+02 -0.24715702830E+02  0.10226038655E+03  0.11218236628E+03  0.41800000000E+01 0.  1.
         -5    1    3    3    0  502  0.45875885125E+02  0.62011603291E+02  0.71476886317E+02  0.10524473125E+03  0.41800000000E+01 0.  1.
        -11    1    1    2    0    0  0.17741285293E+02 -0.31709686165E+02  0.14794241951E+02  0.39231709056E+02  0.00000000000E+00 0.  1.
         11    1    1    2    0    0 -0.24895622382E+02 -0.55862142956E+01  0.13058617398E+03  0.13305542694E+03  0.00000000000E+00 0. -1.
</event>
<event>
 7    1  0.1312490E-005  0.9047940E+02  0.7561462E-02  0.1301695E+00
          2   -1    0    0  501    0  0.00000000000E+00  0.00000000000E+00  0.50287449697E+03  0.50287449697E+03  0.00000000000E+00 0. -1.
         -2   -1    0    0    0  501 -0.00000000000E+00 -0.00000000000E+00 -0.47533792528E+02  0.47533792528E+02  0.00000000000E+00 0.  1.
         23    2    1    2    0    0  0.21169795727E+01  0.68159391113E+02  0.75394877006E+02  0.15375453735E+03  0.11535114251E+03 0.  0.
          5    1    3    3  502    0  0.10811757610E+02  0.37258083913E+02  0.10367162529E+03  0.11077155415E+03  0.41800000000E+01 0. -1.
         -5    1    3    3    0  502 -0.86947780370E+01  0.30901307200E+02 -0.28276748279E+02  0.42982983203E+02  0.41800000000E+01 0.  1.
        -11    1    1    2    0    0 -0.16111982226E+02  0.16908343364E+02  0.13437533232E+03  0.13638994824E+03  0.00000000000E+00 0.  1.
         11    1    1    2    0    0  0.13995002653E+02 -0.85067734477E+02  0.24557049512E+03  0.26026380391E+03  0.00000000000E+00 0. -1.
</event>
<event>
 7    1  0.1312490E-005  0.1151089E+03  0.7561462E-02  0.1251391E+00
         -4   -1    0    0    0  501 -0.00000000000E+00  0.00000000000E+00  0.45839069112E+03  0.45839069112E+03  0.00000000000E+00 0.  1.
          4   -1    0    0  501    0  0.00000000000E+00 -0.00000000000E+00 -0.44340395737E+02  0.44340395737E+02  0.00000000000E+00 0. -1.
         23    2    1    2    0    0  0.32175223757E+02  0.70886556822E+02  0.33413004188E+03  0.36278173101E+03  0.11793027815E+03 0.  0.
          5    1    3    3  502    0  0.45207291645E+02 -0.13130997436E+02  0.18623587394E+03  0.19213900035E+03  0.41800000000E+01 0. -1.
         -5    1    3    3    0  502 -0.13032067889E+02  0.84017554258E+02  0.14789416794E+03  0.17064273066E+03  0.41800000000E+01 0.  1.
        -11    1    1    2    0    0  0.17447553594E+02 -0.14212345127E+02 -0.82627574143E+01  0.23972505928E+02  0.00000000000E+00 0. -1.
         11    1    1    2    0    0 -0.49622777350E+02 -0.56674211696E+02  0.88183010919E+02  0.11597684992E+03  0.00000000000E+00 0.  1.
</event>
<event>
 7    1  0.1312490E-005  0.1362043E+03  0.7561462E-02  0.1218530E+00
          2   -1    0    0  501    0  0.00000000000E+00  0.00000000000E+00  0.26599180453E+03  0.26599180453E+03  0.00000000000E+00 0. -1.
         -2   -1    0    0    0  501 -0.00000000000E+00 -0.00000000000E+00 -0.10687578345E+03  0.10687578345E+03  0.00000000000E+00 0.  1.
         23    2    1    2    0    0  0.11189430842E+03  0.48919243729E+02  0.44176276875E+02  0.18031159568E+03  0.12508916593E+03 0.  0.
          5    1    3    3  502    0  0.81241135286E+02  0.62624018401E+02 -0.22899689805E+02  0.10518439968E+03  0.41800000000E+01 0.  1.
         -5    1    3    3    0  502  0.30653173133E+02 -0.13704774672E+02  0.67075966680E+02  0.75127195994E+02  0.41800000000E+01 0.  1.
        -11    1    1    2    0    0 -0.63322316595E+02  0.47809468816E+01  0.10025377976E+03  0.11867347466E+03  0.00000000000E+00 0. -1.
         11    1    1    2    0    0 -0.48571991823E+02 -0.53700190611E+02  0.14685964445E+02  0.73882517641E+02  0.00000000000E+00 0.  1.
</event>
<event>
 7    1  0.1312490E-005  0.1182466E+03  0.7561462E-02  0.1246018E+00
          4   -1    0    0  501    0  0.00000000000E+00  0.00000000000E+00  0.25056293877E+03  0.25056293877E+03  0.00000000000E+00 0. -1.
         -4   -1    0    0    0  501 -0.00000000000E+00 -0.00000000000E+00 -0.64177857669E+02  0.64177857669E+02  0.00000000000E+00 0.  1.
         23    2    1    2    0    0  0.41374292947E+02 -0.26212447082E+02  0.74936483586E+02  0.15411185841E+03  0.12544346867E+03 0.  0.
          5    1    3    3  502    0  0.11245604213E+01 -0.65373343534E+02  0.70277644287E+01  0.65892340631E+02  0.41800000000E+01 0. -1.
         -5    1    3    3    0  502  0.40249732526E+02  0.39160896452E+02  0.67908719158E+02  0.88219517778E+02  0.41800000000E+01 0. -1.
        -11    1    1    2    0    0 -0.70413251794E+02 -0.67487423078E+01  0.78834222306E+02  0.10591697766E+03  0.00000000000E+00 0. -1.
         11    1    1    2    0    0  0.29038958847E+02  0.32961189390E+02  0.32614375211E+02  0.54711960368E+02  0.00000000000E+00 0.  1.
</event>
<event>
 7    1  0.1312490E-005  0.9265044E+02  0.7561462E-02  0.1296557E+00
         -1   -1    0    0    0  501 -0.00000000000E+00  0.00000000000E+00  0.43700646406E+03  0.43700646406E+03  0.00000000000E+00 0. -1.
          1   -1    0    0  501    0  0.00000000000E+00 -0.00000000000E+00 -0.46465498259E+02  0.46465498259E+02  0.00000000000E+00 0.  1.
         23    2    1    2    0    0 -0.84984296619E+02  0.91106822852E+01  0.27215708136E+03  0.31148263679E+03  0.12508645364E+03 0.  0.
          5    1    3    3  502    0 -0.37091708247E+02  0.95201735227E+01  0.25870846391E+03  0.26156064349E+03  0.41800000000E+01 0. -1.
         -5    1    3    3    0  502 -0.47892588372E+02 -0.40949123756E+00  0.13448617453E+02  0.49921993304E+02  0.41800000000E+01 0. -1.
        -11    1    1    2    0    0  0.48729315674E+02 -0.29643412365E+02  0.11715939696E+03  0.13030580340E+03  0.00000000000E+00 0. -1.
         11    1    1    2    0    0  0.36254980946E+02  0.20532730080E+02  0.12244874829E+01  0.41683522134E+02  0.00000000000E+00 0.  1.
</event>
<event>
 7    1  0.1312490E-005  0.1462349E+03  0.7561462E-02  0.1205177E+00
          1   -1    0    0  501    0  0.00000000000E+00  0.00000000000E+00  0.51418262182E+03  0.51418262182E+03  0.00000000000E+00 0. -1.
         -1   -1    0    0    0  501 -0.00000000000E+00 -0.00000000000E+00 -0.47445194803E+02  0.47445194803E+02  0.00000000000E+00 0.  1.
         23    2    1    2    0    0  0.10494203825E+03  0.24876844100E+02  0.20038063526E+03  0.25967505359E+03  0.12508815175E+03 0.  0.
          5    1    3    3  502    0  0.59845377031E+02 -0.48523054884E+02  0.75879718247E+02  0.10821811331E+03  0.41800000000E+01 0. -1.
         -5    1    3    3    0  502  0.45096661218E+02  0.73399898983E+02  0.12450091701E+03  0.15145694028E+03  0.41800000000E+01 0. -1.
        -11    1    1    2    0    0 -0.60067118828E+02  0.22187498931E+02  0.68891056659E+02  0.94054885895E+02  0.00000000000E+00 0.  1.
         11    1    1    2    0    0 -0.44874919420E+02 -0.47064343030E+02  0.19746573511E+03  0.20789787714E+03  0.00000000000E+00 0. -1.
</event>
<event>
 7    1  0.1312490E-005  0.1182626E+03  0.7561462E-02  0.1245991E+00
         -2   -1    0    0    0  501 -0.00000000000E+00  0.00000000000E+00  0.48650791479E+02  0.48650791479E+02  0.00000000000E+00 0.  1.
          2   -1    0    0  501    0  0.00000000000E+00 -0.00000000000E+00 -0.30320866352E+03  0.30320866352E+03  0.00000000000E+00 0. -1.
         23    2    1    2    0    0 -0.21010324358E+02  0.43575204893E+02 -0.10429305666E+03  0.16989536955E+03  0.12508861945E+03 0.  0.
          5    1    3    3  502    0  0.52513098089E+02  0.23719427084E+02 -0.47717755816E+02  0.74931257244E+02  0.41800000000E+01 0. -1.
         -5    1    3    3    0  502 -0.73523422447E+02  0.19855777809E+02 -0.56575300849E+02  0.94964112310E+02  0.41800000000E+01 0. -1.
        -11    1    1    2    0    0  0.46030155966E+02 -0.57650994500E+02 -0.11238570496E+03  0.13443570621E+03  0.00000000000E+00 0. -1.
         11    1    1    2    0    0 -0.25019831608E+02  0.14075789607E+02 -0.37879110421E+02  0.47528379239E+02  0.00000000000E+00 0.  1.
</event>
<event>
 7    1  0.1312490E-005  0.1359730E+03  0.7561462E-02  0.1218853E+00
         -1   -1    0    0    0  501 -0.00000000000E+00  0.00000000000E+00  0.98936136166E+02  0.98936136166E+02  0.00000000000E+00 0.  1.
          1   -1    0    0  501    0  0.00000000000E+00 -0.00000000000E+00 -0.20064305699E+03  0.20064305699E+03  0.00000000000E+00 0. -1.
         23    2    1    2    0    0  0.30994996478E+02 -0.85163025868E+02 -0.55347276525E+02  0.16408476212E+03  0.12508819833E+03 0.  0.
          5    1    3    3  502    0 -0.21752769649E+02 -0.90711413185E+02 -0.59495507106E+02  0.11072005796E+03  0.41800000000E+01 0. -1.
         -5    1    3    3    0  502  0.52747766126E+02  0.55483873164E+01  0.41482305813E+01  0.53364704160E+02  0.41800000000E+01 0. -1.
        -11    1    1    2    0    0  0.15023971930E+02  0.77218369072E+02 -0.17475707216E+02  0.80584096430E+02  0.00000000000E+00 0.  1.
         11    1    1    2    0    0 -0.46018968407E+02  0.79446567961E+01 -0.28883937084E+02  0.54910334604E+02  0.00000000000E+00 0. -1.
</event>
<event>
 7    1  0.1312490E-005  0.1785642E+03  0.7561462E-02  0.1169200E+00
         -1   -1    0    0    0  501 -0.00000000000E+00  0.00000000000E+00  0.62229500222E+02  0.62229500222E+02  0.00000000000E+00 0.  1.
          1   -1    0    0  501    0  0.00000000000E+00 -0.00000000000E+00 -0.67855594254E+03  0.67855594254E+03  0.00000000000E+00 0. -1.
         23    2    1    2    0    0  0.15832481968E+03 -0.70586930231E+02 -0.29519581823E+03  0.36446805651E+03  0.12508848815E+03 0.  0.
          5    1    3    3  502    0  0.29221716722E+01 -0.10373787601E+02 -0.12743597713E+03  0.12795919359E+03  0.41800000000E+01 0. -1.
         -5    1    3    3    0  502  0.15540264801E+03 -0.60213142630E+02 -0.16775984110E+03  0.23650886292E+03  0.41800000000E+01 0. -1.
        -11    1    1    2    0    0 -0.44820525709E+02 -0.69336292806E+00 -0.25138464885E+02  0.51393605573E+02  0.00000000000E+00 0.  1.
         11    1    1    2    0    0 -0.11350429397E+03  0.71280293159E+02 -0.29599215920E+03  0.32492378068E+03  0.00000000000E+00 0. -1.
</event>
<event>
 7    1  0.1312490E-005  0.8848697E+02  0.7561462E-02  0.1306558E+00
         -1   -1    0    0    0  501 -0.00000000000E+00  0.00000000000E+00  0.22873135803E+02  0.22873135803E+02  0.00000000000E+00 0.  1.
          1   -1    0    0  501    0  0.00000000000E+00 -0.00000000000E+00 -0.62393332281E+03  0.62393332281E+03  0.00000000000E+00 0. -1.
         23    2    1    2    0    0 -0.10267498455E+02 -0.49806753412E+02 -0.33610588582E+03  0.36221699002E+03  0.12509135529E+03 0.  0.
          5    1    3    3  502    0 -0.41014321047E+02 -0.33867534398E+02 -0.47269178191E+02  0.71281358180E+02  0.41800000000E+01 0. -1.
         -5    1    3    3    0  502  0.30746822592E+02 -0.15939219015E+02 -0.28883670763E+03  0.29093563184E+03  0.41800000000E+01 0. -1.
        -11    1    1    2    0    0  0.36223526321E+02  0.51227708440E+02 -0.24170230731E+03  0.24971268957E+03  0.00000000000E+00 0. -1.
         11    1    1    2    0    0 -0.25956027866E+02 -0.14209550281E+01 -0.23251993872E+02  0.34876779020E+02  0.00000000000E+00 0.  1.
</event>
<event>
 7    1  0.1312490E-005  0.8626655E+02  0.7561462E-02  0.1312153E+00
          1   -1    0    0  501    0  0.00000000000E+00  0.00000000000E+00  0.15677432712E+03  0.15677432712E+03  0.00000000000E+00 0. -1.
         -1   -1    0    0    0  501 -0.00000000000E+00 -0.00000000000E+00 -0.11930898632E+03  0.11930898632E+03  0.00000000000E+00 0.  1.
         23    2    1    2    0    0 -0.27155442437E+01 -0.55444958311E+02 -0.39523258470E+02  0.14246650372E+03  0.12511234607E+03 0.  0.
          5    1    3    3  502    0 -0.18022886137E+02 -0.22394864675E+02  0.43156918779E+02  0.52022556906E+02  0.41800000000E+01 0. -1.
         -5    1    3    3    0  502  0.15307341894E+02 -0.33050093636E+02 -0.82680177249E+02  0.90443946813E+02  0.41800000000E+01 0. -1.
        -11    1    1    2    0    0  0.46189354420E+02  0.38615854877E+02  0.29401826239E+02  0.67000806680E+02  0.00000000000E+00 0.  1.
         11    1    1    2    0    0 -0.43473810176E+02  0.16829103434E+02  0.47586773037E+02  0.66616003045E+02  0.00000000000E+00 0. -1.
</event>
<event>
 7    1  0.1312490E-005  0.1411963E+03  0.7561462E-02  0.1211728E+00
         -4   -1    0    0    0  501 -0.00000000000E+00  0.00000000000E+00  0.58035431289E+02  0.58035431289E+02  0.00000000000E+00 0. -1.
          4   -1    0    0  501    0  0.00000000000E+00 -0.00000000000E+00 -0.47194698356E+03  0.47194698356E+03  0.00000000000E+00 0.  1.
         23    2    1    2    0    0 -0.25944096291E+02  0.12082798265E+03 -0.23091616412E+03  0.29024229840E+03  0.12508324990E+03 0.  0.
          5    1    3    3  502    0 -0.58142017562E+02  0.52795663879E+02 -0.47350304288E+02  0.91800871710E+02  0.41800000000E+01 0. -1.
         -5    1    3    3    0  502  0.32197921271E+02  0.68032318771E+02 -0.18356585983E+03  0.19844142669E+03  0.41800000000E+01 0. -1.
        -11    1    1    2    0    0 -0.66247731259E+01 -0.49618727828E+02 -0.11718154813E+02  0.51412264319E+02  0.00000000000E+00 0. -1.
         11    1    1    2    0    0  0.32568869417E+02 -0.71209254822E+02 -0.17127723334E+03  0.18832785213E+03  0.00000000000E+00 0.  1.
</event>
<event>
 7    1  0.1312490E-005  0.1135463E+03  0.7561462E-02  0.1254140E+00
         -2   -1    0    0    0  501 -0.00000000000E+00  0.00000000000E+00  0.38412887194E+03  0.38412887194E+03  0.00000000000E+00 0.  1.
          2   -1    0    0  501    0  0.00000000000E+00 -0.00000000000E+00 -0.78258959028E+02  0.78258959028E+02  0.00000000000E+00 0. -1.
         23    2    1    2    0    0  0.47668873492E+02  0.69639562818E+02  0.30748017392E+03  0.34251208315E+03  0.12509388291E+03 0.  0.
          5    1    3    3  502    0  0.58236452082E+01 -0.13483459075E+02 -0.52923524030E+01  0.16161680176E+02  0.41800000000E+01 0.  1.
         -5    1    3    3    0  502  0.41845228284E+02  0.83123021894E+02  0.31277252633E+03  0.32635040298E+03  0.41800000000E+01 0.  1.
        -11    1    1    2    0    0  0.22766905013E+02 -0.55422964078E+01 -0.70972557606E+01  0.24483056441E+02  0.00000000000E+00 0.  1.
         11    1    1    2    0    0 -0.70435778505E+02 -0.64097266410E+02  0.54869947433E+01  0.95392691367E+02  0.00000000000E+00 0. -1.
</event>
<event>
 7    1  0.1312490E-005  0.2740070E+03  0.7561462E-02  0.1099008E+00
          2   -1    0    0  501    0  0.00000000000E+00  0.00000000000E+00  0.15011822228E+04  0.15011822228E+04  0.00000000000E+00 0. -1.
         -2   -1    0    0    0  501 -0.00000000000E+00 -0.00000000000E+00 -0.64873007308E+02  0.64873007308E+02  0.00000000000E+00 0.  1.
         23    2    1    2    0    0 -0.30115494595E+02  0.25638714618E+03  0.38841345453E+03  0.48285826604E+03  0.12508309910E+03 0.  0.
          5    1    3    3  502    0 -0.77289721356E+02  0.18935626942E+03  0.28559561298E+03  0.35130019122E+03  0.41800000000E+01 0.  1.
         -5    1    3    3    0  502  0.47174226761E+02  0.67030876766E+02  0.10281784155E+03  0.13155807483E+03  0.41800000000E+01 0.  1.
        -11    1    1    2    0    0  0.39326345983E+02 -0.16954222535E+03  0.83755292112E+03  0.85544492712E+03  0.00000000000E+00 0. -1.
         11    1    1    2    0    0 -0.92108513879E+01 -0.86844920837E+02  0.21034283981E+03  0.22775203691E+03  0.00000000000E+00 0.  1.
</event>
<event>
 7    1  0.1312490E-005  0.1006195E+03  0.7561462E-02  0.1278999E+00
         -1   -1    0    0    0  501 -0.00000000000E+00  0.00000000000E+00  0.70223860347E+02  0.70223860347E+02  0.00000000000E+00 0.  1.
          1   -1    0    0  501    0  0.00000000000E+00 -0.00000000000E+00 -0.18490128596E+03  0.18490128596E+03  0.00000000000E+00 0. -1.
         23    2    1    2    0    0 -0.16181716361E+02 -0.10528398055E+02 -0.26986899047E+02  0.12556060174E+03  0.12109697304E+03 0.  0.
          5    1    3    3  502    0 -0.53744167252E+02 -0.42120731629E+02 -0.32966175291E+02  0.75939664602E+02  0.41800000000E+01 0. -1.
         -5    1    3    3    0  502  0.37562450891E+02  0.31592333574E+02  0.59792762446E+01  0.49620937134E+02  0.41800000000E+01 0.  1.
        -11    1    1    2    0    0 -0.23455761466E+02  0.31065996531E+02 -0.72712840466E+02  0.82476821320E+02  0.00000000000E+00 0. -1.
         11    1    1    2    0    0  0.39637477827E+02 -0.20537598476E+02 -0.14977686096E+02  0.47087723246E+02  0.00000000000E+00 0.  1.
</event>
<event>
 7    1  0.1312490E-005  0.9863957E+02  0.7561462E-02  0.1283183E+00
         -1   -1    0    0    0  501 -0.00000000000E+00  0.00000000000E+00  0.15713110865E+03  0.15713110865E+03  0.00000000000E+00 0.  1.
          1   -1    0    0  501    0  0.00000000000E+00 -0.00000000000E+00 -0.85357684007E+02  0.85357684007E+02  0.00000000000E+00 0. -1.
         23    2    1    2    0    0  0.29419311822E+02 -0.34906618665E+01  0.69028163035E+02  0.14591222211E+03  0.12509120129E+03 0.  0.
          5    1    3    3  502    0  0.67669307387E+02 -0.14802514602E+02  0.78425445391E+02  0.10471997176E+03  0.41800000000E+01 0.  1.
         -5    1    3    3    0  502 -0.38249995564E+02  0.11311852735E+02 -0.93972823563E+01  0.41192250347E+02  0.41800000000E+01 0.  1.
        -11    1    1    2    0    0  0.85521273862E+01  0.36485099361E+02  0.21127454673E+02  0.43019422348E+02  0.00000000000E+00 0.  1.
         11    1    1    2    0    0 -0.37971439209E+02 -0.32994437495E+02 -0.18382193067E+02  0.53557148198E+02  0.00000000000E+00 0. -1.
</event>
<event>
 7    1  0.1312490E-005  0.2716225E+03  0.7561462E-02  0.1100355E+00
          2   -1    0    0  501    0  0.00000000000E+00  0.00000000000E+00  0.59246690119E+02  0.59246690119E+02  0.00000000000E+00 0. -1.
         -2   -1    0    0    0  501 -0.00000000000E+00 -0.00000000000E+00 -0.22644804388E+04  0.22644804388E+04  0.00000000000E+00 0.  1.
         23    2    1    2    0    0 -0.12493941728E+03 -0.22689534300E+03 -0.18631497251E+04  0.18852228279E+04  0.12508740054E+03 0.  0.
          5    1    3    3  502    0 -0.90677546417E+02 -0.90238080628E+02 -0.12263203622E+04  0.12329819268E+04  0.41800000000E+01 0. -1.
         -5    1    3    3    0  502 -0.34261870860E+02 -0.13665726238E+03 -0.63682936295E+03  0.65224090110E+03  0.41800000000E+01 0. -1.
        -11    1    1    2    0    0 -0.40380797700E+01  0.74682668412E+02 -0.96753623421E+02  0.12229092646E+03  0.00000000000E+00 0.  1.
         11    1    1    2    0    0  0.12897749705E+03  0.15221267459E+03 -0.24533040016E+03  0.31621337463E+03  0.00000000000E+00 0. -1.
</event>
<event>
 7    1  0.1312490E-005  0.7477024E+02  0.7561462E-02  0.1344584E+00
         -2   -1    0    0    0  501 -0.00000000000E+00  0.00000000000E+00  0.96615533824E+02  0.96615533824E+02  0.00000000000E+00 0.  1.
          2   -1    0    0  501    0  0.00000000000E+00 -0.00000000000E+00 -0.12181699123E+03  0.12181699123E+03  0.00000000000E+00 0. -1.
         23    2    1    2    0    0  0.23452703240E+01 -0.13356160014E+02 -0.20801893526E+02  0.12752442414E+03  0.12508346283E+03 0.  0.
          5    1    3    3  502    0  0.48996929395E+02  0.19085841189E+02  0.21085957665E+02  0.56807204074E+02  0.41800000000E+01 0. -1.
         -5    1    3    3    0  502 -0.46651659072E+02 -0.32442001203E+02 -0.41887851191E+02  0.70717220064E+02  0.41800000000E+01 0. -1.
        -11    1    1    2    0    0 -0.16631421277E+02  0.18271138795E+02 -0.42924167798E+02  0.49526991305E+02  0.00000000000E+00 0. -1.
         11    1    1    2    0    0  0.14286150953E+02 -0.49149787809E+01  0.38524603919E+02  0.41381109611E+02  0.00000000000E+00 0.  1.
</event>
<event>
 7    1  0.1312490E-005  0.2094831E+03  0.7561462E-02  0.1141976E+00
         -1   -1    0    0    0  501 -0.00000000000E+00  0.00000000000E+00  0.20064206003E+03  0.20064206003E+03  0.00000000000E+00 0.  1.
          1   -1    0    0  501    0  0.00000000000E+00 -0.00000000000E+00 -0.22834231905E+03  0.22834231905E+03  0.00000000000E+00 0. -1.
         23    2    1    2    0    0 -0.13686049270E+03 -0.11983553592E+03 -0.19637714892E+02  0.22164325716E+03  0.12509493782E+03 0.  0.
          5    1    3    3  502    0  0.17836485132E+02  0.72396533895E+01 -0.73499494634E+01  0.21024912370E+02  0.41800000000E+01 0. -1.
         -5    1    3    3    0  502 -0.15469697783E+03 -0.12707518931E+03 -0.12287765428E+02  0.20061834479E+03  0.41800000000E+01 0. -1.
        -11    1    1    2    0    0  0.11211685282E+03  0.46055886014E+02 -0.33008767479E+02  0.12562210018E+03  0.00000000000E+00 0. -1.
         11    1    1    2    0    0  0.24743639878E+02  0.73779649909E+02  0.24946223347E+02  0.81719021742E+02  0.00000000000E+00 0.  1.
</event>
<event>
 7    1  0.1312490E-005  0.1317032E+03  0.7561462E-02  0.1224950E+00
         -1   -1    0    0    0  501 -0.00000000000E+00  0.00000000000E+00  0.25287032124E+03  0.25287032124E+03  0.00000000000E+00 0.  1.
          1   -1    0    0  501    0  0.00000000000E+00 -0.00000000000E+00 -0.13131486038E+03  0.13131486038E+03  0.00000000000E+00 0. -1.
         23    2    1    2    0    0  0.10063035134E+03  0.66700763809E+02  0.15166974007E+03  0.23070847344E+03  0.12508888904E+03 0.  0.
          5    1    3    3  502    0  0.30598357298E+02  0.34057696796E+02  0.14606179862E+03  0.15312644317E+03  0.41800000000E+01 0. -1.
         -5    1    3    3    0  502  0.70031994045E+02  0.32643067013E+02  0.56079414468E+01  0.77582030273E+02  0.41800000000E+01 0. -1.
        -11    1    1    2    0    0 -0.18223195563E+02 -0.53597093700E+02 -0.40193030455E+02  0.69427753866E+02  0.00000000000E+00 0.  1.
         11    1    1    2    0    0 -0.82407155780E+02 -0.13103670109E+02  0.10078751252E+02  0.84048954312E+02  0.00000000000E+00 0. -1.
</event>
<event>
 7    1  0.1312490E-005  0.1007457E+03  0.7561462E-02  0.1278736E+00
          1   -1    0    0  501    0  0.00000000000E+00  0.00000000000E+00  0.36435255474E+03  0.36435255474E+03  0.00000000000E+00 0. -1.
         -1   -1    0    0    0  501 -0.00000000000E+00 -0.00000000000E+00 -0.41993909385E+02  0.41993909385E+02  0.00000000000E+00 0.  1.
         23    2    1    2    0    0 -0.28952465876E+02  0.31329872308E+02  0.12355514021E+03  0.18092059957E+03  0.12508630820E+03 0.  0.
          5    1    3    3  502    0 -0.48827439013E+02 -0.12038460715E+02  0.22592361556E+01  0.50513561397E+02  0.41800000000E+01 0. -1.
         -5    1    3    3    0  502  0.19874973137E+02  0.43368333023E+02  0.12129590405E+03  0.13040703818E+03  0.41800000000E+01 0. -1.
        -11    1    1    2    0    0  0.34184196180E+02  0.27626476069E+02  0.58684773736E+02  0.73319056983E+02  0.00000000000E+00 0.  1.
         11    1    1    2    0    0 -0.52317303039E+01 -0.58956348377E+02  0.14011873141E+03  0.15210680757E+03  0.00000000000E+00 0. -1.
</event>
<event>
 7    1  0.1312490E-005  0.1335742E+03  0.7561462E-02  0.1222247E+00
         -1   -1    0    0    0  501 -0.00000000000E+00  0.00000000000E+00  0.38089766681E+02  0.38089766681E+02  0.00000000000E+00 0.  1.
          1   -1    0    0  501    0  0.00000000000E+00 -0.00000000000E+00 -0.74980080596E+03  0.74980080596E+03  0.00000000000E+00 0. -1.
         23    2    1    2    0    0 -0.43218324792E+02 -0.79209217096E+02 -0.16386530785E+03  0.22503653027E+03  0.12509067578E+03 0.  0.
          5    1    3    3  502    0 -0.65565419889E+02 -0.66008024990E+01 -0.12064768841E+03  0.13753447567E+03  0.41800000000E+01 0. -1.
         -5    1    3    3    0  502  0.22347095097E+02 -0.72608414597E+02 -0.43217619447E+02  0.87502054606E+02  0.41800000000E+01 0. -1.
        -11    1    1    2    0    0  0.69966996420E+02  0.58662478430E+02 -0.45501844641E+03  0.46408884229E+03  0.00000000000E+00 0. -1.
         11    1    1    2    0    0 -0.26748671629E+02  0.20546738666E+02 -0.92827285014E+02  0.98765200079E+02  0.00000000000E+00 0.  1.
</event>
<event>
 7    1  0.1312490E-005  0.1301056E+03  0.7561462E-02  0.1227299E+00
         -1   -1    0    0    0  501 -0.00000000000E+00  0.00000000000E+00  0.97536732642E+02  0.97536732642E+02  0.00000000000E+00 0.  1.
          1   -1    0    0  501    0  0.00000000000E+00 -0.00000000000E+00 -0.28312799469E+03  0.28312799469E+03  0.00000000000E+00 0. -1.
         23    2    1    2    0    0 -0.70430821795E+02  0.60250974729E+02 -0.16329174906E+01  0.15569892260E+03  0.12509519361E+03 0.  0.
          5    1    3    3  502    0 -0.81127623346E+02  0.88786478650E+02 -0.16616469581E+02  0.12148378296E+03  0.41800000000E+01 0. -1.
         -5    1    3    3    0  502  0.10696801551E+02 -0.28535503921E+02  0.14983552090E+02  0.34215139642E+02  0.41800000000E+01 0. -1.
        -11    1    1    2    0    0 -0.34115729595E+01 -0.28544435158E+02 -0.11665013121E+03  0.12014023772E+03  0.00000000000E+00 0. -1.
         11    1    1    2    0    0  0.73842394755E+02 -0.31706539570E+02 -0.67308213351E+02  0.10482556701E+03  0.00000000000E+00 0.  1.
</event>
<event>
 7    1  0.1312490E-005  0.1134389E+03  0.7561462E-02  0.1254331E+00
         -1   -1    0    0    0  501 -0.00000000000E+00  0.00000000000E+00  0.74346339235E+02  0.74346339235E+02  0.00000000000E+00 0.  1.
          1   -1    0    0  501    0  0.00000000000E+00 -0.00000000000E+00 -0.35562411908E+03  0.35562411908E+03  0.00000000000E+00 0. -1.
         23    2    1    2    0    0  0.33358005753E+02  0.46587298318E+02 -0.96122549912E+01  0.13792182490E+03  0.12508757502E+03 0.  0.
          5    1    3    3  502    0 -0.38340422452E+02  0.24870209598E+02  0.28238742707E+02  0.53883339809E+02  0.41800000000E+01 0. -1.
         -5    1    3    3    0  502  0.71698428206E+02  0.21717088720E+02 -0.37850997698E+02  0.84038485091E+02  0.41800000000E+01 0. -1.
        -11    1    1    2    0    0 -0.59222167424E+01  0.26883789994E+02 -0.52607553847E+02  0.59374788735E+02  0.00000000000E+00 0.  1.
         11    1    1    2    0    0 -0.27435789011E+02 -0.73471088312E+02 -0.21905797101E+03  0.23267384468E+03  0.00000000000E+00 0. -1.
</event>
<event>
 7    1  0.1312490E-005  0.1936534E+03  0.7561462E-02  0.1155207E+00
          2   -1    0    0  501    0  0.00000000000E+00  0.00000000000E+00  0.88218439193E+03  0.88218439193E+03  0.00000000000E+00 0. -1.
         -2   -1    0    0    0  501 -0.00000000000E+00 -0.00000000000E+00 -0.48637775254E+02  0.48637775254E+02  0.00000000000E+00 0.  1.
         23    2    1    2    0    0  0.82744657990E+02  0.15455865279E+03  0.39617343597E+03  0.45092852382E+03  0.12509231251E+03 0.  0.
          5    1    3    3  502    0  0.78161183670E+02  0.59491029724E+02  0.10180657626E+03  0.14152881198E+03  0.41800000000E+01 0. -1.
         -5    1    3    3    0  502  0.45834743199E+01  0.95067623062E+02  0.29436685971E+03  0.30939971184E+03  0.41800000000E+01 0. -1.
        -11    1    1    2    0    0 -0.88234468567E+02 -0.80432737929E+02  0.22221449532E+03  0.25225786153E+03  0.00000000000E+00 0. -1.
         11    1    1    2    0    0  0.54898105772E+01 -0.74125914858E+02  0.21515868538E+03  0.22763578183E+03  0.00000000000E+00 0.  1.
</event>
<event>
 7    1  0.1312490E-005  0.2173305E+03  0.7561462E-02  0.1135889E+00
         -1   -1    0    0    0  501 -0.00000000000E+00  0.00000000000E+00  0.14331066127E+03  0.14331066127E+03  0.00000000000E+00 0.  1.
          1   -1    0    0  501    0  0.00000000000E+00 -0.00000000000E+00 -0.43111457812E+03  0.43111457812E+03  0.00000000000E+00 0. -1.
         23    2    1    2    0    0  0.18619648275E+03  0.95145624551E+02 -0.57113700078E+02  0.25026346096E+03  0.12509198654E+03 0.  0.
          5    1    3    3  502    0  0.17608760452E+03  0.10142386512E+03 -0.12205263452E+02  0.20361749861E+03  0.41800000000E+01 0.  1.
         -5    1    3    3    0  502  0.10108878224E+02 -0.62782405739E+01 -0.44908436626E+02  0.46645962353E+02  0.41800000000E+01 0.  1.
        -11    1    1    2    0    0 -0.66396752493E+02 -0.69818829283E+02 -0.14730966719E+03  0.17602083885E+03  0.00000000000E+00 0.  1.
         11    1    1    2    0    0 -0.11979973025E+03 -0.25326795268E+02 -0.83380549588E+02  0.14814093957E+03  0.00000000000E+00 0. -1.
</event>
<event>
 7    1  0.1312490E-005  0.1119545E+03  0.7561462E-02  0.1256993E+00
         -1   -1    0    0    0  501 -0.00000000000E+00  0.00000000000E+00  0.34184436918E+02  0.34184436918E+02  0.00000000000E+00 0.  1.
          1   -1    0    0  501    0  0.00000000000E+00 -0.00000000000E+00 -0.48630854430E+03  0.48630854430E+03  0.00000000000E+00 0. -1.
         23    2    1    2    0    0  0.63712369624E+02  0.14382538682E+02 -0.19333612342E+03  0.23935786235E+03  0.12508879322E+03 0.  0.
          5    1    3    3  502    0 -0.34391946357E+02  0.24427151293E+02 -0.59859802511E+02  0.73349574308E+02  0.41800000000E+01 0.  1.
         -5    1    3    3    0  502  0.98104315980E+02 -0.10044612611E+02 -0.13347632091E+03  0.16600828805E+03  0.41800000000E+01 0.  1.
        -11    1    1    2    0    0  0.56221065335E+01 -0.12212144759E+02 -0.24338954628E+00  0.13446330353E+02  0.00000000000E+00 0.  1.
         11    1    1    2    0    0 -0.69334476157E+02 -0.21703939234E+01 -0.25854459441E+03  0.26768878851E+03  0.00000000000E+00 0. -1.
</event>
<event>
 7    1  0.1312490E-005  0.1695516E+03  0.7561462E-02  0.1178316E+00
         -3   -1    0    0    0  501 -0.00000000000E+00  0.00000000000E+00  0.53638792184E+03  0.53638792184E+03  0.00000000000E+00 0.  1.
          3   -1    0    0  501    0  0.00000000000E+00 -0.00000000000E+00 -0.81598712868E+02  0.81598712868E+02  0.00000000000E+00 0. -1.
         23    2    1    2    0    0  0.12521644187E+03 -0.68563718484E+02  0.39243534406E+03  0.43592852922E+03  0.12509213608E+03 0.  0.
          5    1    3    3  502    0  0.46093866676E+02  0.19064055319E+02  0.22815287142E+03  0.23357929679E+03  0.41800000000E+01 0.  1.
         -5    1    3    3    0  502  0.79122575190E+02 -0.87627773804E+02  0.16428247264E+03  0.20234923243E+03  0.41800000000E+01 0.  1.
        -11    1    1    2    0    0  0.15518703591E+02  0.37382136487E+01  0.79884958893E+01  0.17849943109E+02  0.00000000000E+00 0. -1.
         11    1    1    2    0    0 -0.14073514546E+03  0.64825504836E+02  0.54365369016E+02  0.16420816238E+03  0.00000000000E+00 0.  1.
</event>
<event>
 7    1  0.3657901E-005  0.3138694E+03  0.7561462E-02  0.1078506E+00
         -1   -1    0    0    0  501 -0.00000000000E+00  0.00000000000E+00  0.23626910391E+03  0.23626910391E+03  0.00000000000E+00 0.  1.
          1   -1    0    0  501    0  0.00000000000E+00 -0.00000000000E+00 -0.46789122972E+03  0.46789122972E+03  0.00000000000E+00 0. -1.
         23    2    1    2    0    0 -0.18665147539E+03 -0.24690174777E+03 -0.62503837665E+02  0.33963692580E+03  0.12508902959E+03 0.  0.
          5    1    3    3  502    0 -0.42199055553E+02 -0.18094197280E+02  0.28405329899E+02  0.54152520084E+02  0.41800000000E+01 0. -1.
         -5    1    3    3    0  502 -0.14445241984E+03 -0.22880755049E+03 -0.90909167564E+02  0.28548440571E+03  0.41800000000E+01 0. -1.
        -11    1    1    2    0    0  0.65211674563E+02  0.11115073900E+03 -0.11948909723E+03  0.17574041549E+03  0.00000000000E+00 0. -1.
         11    1    1    2    0    0  0.12143980083E+03  0.13575100877E+03 -0.49629190922E+02  0.18878299235E+03  0.00000000000E+00 0.  1.
</event>
<event>
 7    1  0.1312490E-005  0.9742325E+02  0.7561462E-02  0.1285810E+00
          2   -1    0    0  501    0  0.00000000000E+00  0.00000000000E+00  0.75117919775E+02  0.75117919775E+02  0.00000000000E+00 0. -1.
         -2   -1    0    0    0  501 -0.00000000000E+00 -0.00000000000E+00 -0.18052821431E+03  0.18052821431E+03  0.00000000000E+00 0.  1.
         23    2    1    2    0    0 -0.28864473912E+02  0.28479310402E+02 -0.78043045584E+02  0.15291428065E+03  0.12509129181E+03 0.  0.
          5    1    3    3  502    0  0.10404541403E+02  0.56224592172E+02 -0.86640074797E+02  0.10389145397E+03  0.41800000000E+01 0.  1.
         -5    1    3    3    0  502 -0.39269015315E+02 -0.27745281769E+02  0.85970292127E+01  0.49022826679E+02  0.41800000000E+01 0.  1.
        -11    1    1    2    0    0  0.25739349945E+01  0.27387323460E+02  0.11454543351E+02  0.29797603780E+02  0.00000000000E+00 0.  1.
         11    1    1    2    0    0  0.26290538918E+02 -0.55866633862E+02 -0.38821792301E+02  0.72934249657E+02  0.00000000000E+00 0. -1.
</event>
<event>
 6    1  0.1312490E-005  0.1485799E+03  0.7561462E-02  0.1202229E+00
          1   -1    0    0  501    0  0.00000000000E+00  0.00000000000E+00  0.69734607062E+03  0.69734607062E+03  0.00000000000E+00 0. -1.
         -1   -1    0    0    0  501 -0.00000000000E+00 -0.00000000000E+00 -0.35266809472E+02  0.35266809472E+02  0.00000000000E+00 0.  1.
          5    1    1    2  502    0  0.12693574354E+02 -0.48375869802E+02  0.48634636851E+02  0.69886707681E+02  0.41800000000E+01 0. -1.
         -5    1    1    2    0  502 -0.10821133081E+03  0.50043216073E+02  0.28842198992E+03  0.31211974026E+03  0.41800000000E+01 0.  1.
        -11    1    1    2    0    0  0.65012084138E+02  0.39776908174E+02  0.15114889530E+03  0.16927717524E+03  0.00000000000E+00 0. -1.
         11    1    1    2    0    0  0.30505672317E+02 -0.41444254445E+02  0.17387373909E+03  0.18132925692E+03  0.00000000000E+00 0.  1.
</event>
<event>
 7    1  0.1312490E-005  0.1110135E+03  0.7561462E-02  0.1258704E+00
         -2   -1    0    0    0  501 -0.00000000000E+00  0.00000000000E+00  0.30335321165E+03  0.30335321165E+03  0.00000000000E+00 0.  1.
          2   -1    0    0  501    0  0.00000000000E+00 -0.00000000000E+00 -0.44468970813E+02  0.44468970813E+02  0.00000000000E+00 0. -1.
         23    2    1    2    0    0 -0.21575725531E+02 -0.15440260733E+02  0.19648426904E+03  0.23442819032E+03  0.12508634960E+03 0.  0.
          5    1    3    3  502    0 -0.44463996349E+01  0.54882235825E+02  0.79370265487E+02  0.96689925651E+02  0.41800000000E+01 0.  1.
         -5    1    3    3    0  502 -0.17129325896E+02 -0.70322496559E+02  0.11711400355E+03  0.13773826467E+03  0.41800000000E+01 0.  1.
        -11    1    1    2    0    0 -0.32823476735E+02 -0.99163905638E+01  0.27595913804E+02  0.44014200952E+02  0.00000000000E+00 0. -1.
         11    1    1    2    0    0  0.54399202265E+02  0.25356651297E+02  0.34804057997E+02  0.69379791187E+02  0.00000000000E+00 0.  1.
</event>
<event>
 7    1  0.1312490E-005  0.9818488E+02  0.7561462E-02  0.1284160E+00
         -2   -1    0    0    0  501 -0.00000000000E+00  0.00000000000E+00  0.34807316044E+02  0.34807316044E+02  0.00000000000E+00 0.  1.
          2   -1    0    0  501    0  0.00000000000E+00 -0.00000000000E+00 -0.50731423551E+03  0.50731423551E+03  0.00000000000E+00 0. -1.
         23    2    1    2    0    0 -0.54756046365E+02  0.46176760881E+02 -0.20397621460E+03  0.24976410119E+03  0.12508114272E+03 0.  0.
          5    1    3    3  502    0 -0.81294999581E+02  0.41232530375E+02 -0.75554744085E+02  0.11846936427E+03  0.41800000000E+01 0.  1.
         -5    1    3    3    0  502  0.26538953216E+02  0.49442305060E+01 -0.12842147051E+03  0.13129473692E+03  0.41800000000E+01 0.  1.
        -11    1    1    2    0    0  0.10110236975E+02 -0.27695469258E+02 -0.12868558402E+02  0.32169173201E+02  0.00000000000E+00 0.  1.
         11    1    1    2    0    0  0.44645809390E+02 -0.18481291623E+02 -0.25566214647E+03  0.26018827716E+03  0.00000000000E+00 0. -1.
</event>
<event>
 7    1  0.1312490E-005  0.8388451E+02  0.7561462E-02  0.1318376E+00
         -1   -1    0    0    0  501 -0.00000000000E+00  0.00000000000E+00  0.14941068768E+03  0.14941068768E+03  0.00000000000E+00 0.  1.
          1   -1    0    0  501    0  0.00000000000E+00 -0.00000000000E+00 -0.16881950253E+03  0.16881950253E+03  0.00000000000E+00 0. -1.
         23    2    1    2    0    0  0.67678700083E+01  0.10015526250E+02  0.10383913817E+03  0.16299718734E+03  0.12505759327E+03 0.  0.
          5    1    3    3  502    0 -0.21702941140E+02  0.37302605012E+02  0.11407812141E+03  0.12204012528E+03  0.41800000000E+01 0.  1.
         -5    1    3    3    0  502  0.28470811149E+02 -0.27287078762E+02 -0.10238983239E+02  0.40957062060E+02  0.41800000000E+01 0.  1.
        -11    1    1    2    0    0 -0.44516740279E+02  0.35100714069E+01 -0.30188119401E+02  0.53901607762E+02  0.00000000000E+00 0.  1.
         11    1    1    2    0    0  0.37748870271E+02 -0.13525597657E+02 -0.93059833629E+02  0.10133139510E+03  0.00000000000E+00 0. -1.
</event>
<event>
 7    1  0.1312490E-005  0.1220666E+03  0.7561462E-02  0.1239726E+00
         -1   -1    0    0    0  501 -0.00000000000E+00  0.00000000000E+00  0.20307167620E+02  0.20307167620E+02  0.00000000000E+00 0.  1.
          1   -1    0    0  501    0  0.00000000000E+00 -0.00000000000E+00 -0.91328669166E+03  0.91328669166E+03  0.00000000000E+00 0. -1.
         23    2    1    2    0    0  0.77070035744E+02 -0.24502953588E+02 -0.41573803720E+03  0.44163101704E+03  0.12513854120E+03 0.  0.
          5    1    3    3  502    0 -0.16958277997E+02 -0.47844434442E+02 -0.11873952539E+03  0.12920224607E+03  0.41800000000E+01 0. -1.
         -5    1    3    3    0  502  0.94028313741E+02  0.23341480854E+02 -0.29699851181E+03  0.31242877097E+03  0.41800000000E+01 0. -1.
        -11    1    1    2    0    0 -0.75874892913E+01 -0.14632181094E+02 -0.13193222807E+02  0.21112362382E+02  0.00000000000E+00 0.  1.
         11    1    1    2    0    0 -0.69482546453E+02  0.39135134682E+02 -0.46404826403E+03  0.47085047985E+03  0.00000000000E+00 0. -1.
</event>
<event>
 7    1  0.1312490E-005  0.4890604E+02  0.7561462E-02  0.1451333E+00
          1   -1    0    0  501    0  0.00000000000E+00  0.00000000000E+00  0.38345990797E+03  0.38345990797E+03  0.00000000000E+00 0. -1.
         -1   -1    0    0    0  501 -0.00000000000E+00 -0.00000000000E+00 -0.32973322301E+02  0.32973322301E+02  0.00000000000E+00 0.  1.
         23    2    1    2    0    0 -0.10835483161E+01 -0.25594896148E+02  0.18105565033E+03  0.22155073686E+03  0.12508919897E+03 0.  0.
          5    1    3    3  502    0  0.10214962934E+02 -0.28576291187E+02 -0.83402000113E+01  0.31748720006E+02  0.41800000000E+01 0. -1.
         -5    1    3    3    0  502 -0.11298511250E+02  0.29813950392E+01  0.18939585035E+03  0.18980201685E+03  0.41800000000E+01 0. -1.
        -11    1    1    2    0    0 -0.22449313067E+02  0.21101898008E+02  0.16808646201E+03  0.17088686453E+03  0.00000000000E+00 0. -1.
         11    1    1    2    0    0  0.23532861383E+02  0.44929981398E+01  0.13444733240E+01  0.23995628887E+02  0.00000000000E+00 0.  1.
</event>
<event>
 7    1  0.1312490E-005  0.2087846E+03  0.7561462E-02  0.1142532E+00
         -2   -1    0    0    0  501 -0.00000000000E+00  0.00000000000E+00  0.53872899830E+02  0.53872899830E+02  0.00000000000E+00 0. -1.
          2   -1    0    0  501    0  0.00000000000E+00 -0.00000000000E+00 -0.10794940485E+04  0.10794940485E+04  0.00000000000E+00 0.  1.
         23    2    1    2    0    0  0.17812270547E+03 -0.18238272593E+02 -0.24918028729E+03  0.33135729902E+03  0.12508601540E+03 0.  0.
          5    1    3    3  502    0 -0.17898294165E+02  0.76411241297E+01 -0.31433198095E+02  0.37205564832E+02  0.41800000000E+01 0. -1.
         -5    1    3    3    0  502  0.19602099964E+03 -0.25879396723E+02 -0.21774708920E+03  0.29415173419E+03  0.41800000000E+01 0. -1.
        -11    1    1    2    0    0 -0.39259725569E+02 -0.33600081057E+02 -0.23757228838E+03  0.24312729938E+03  0.00000000000E+00 0.  1.
         11    1    1    2    0    0 -0.13886297990E+03  0.51838353650E+02 -0.53886857304E+03  0.55888234997E+03  0.00000000000E+00 0. -1.
</event>
<event>
 7    1  0.1312490E-005  0.1824536E+03  0.7561462E-02  0.1165449E+00
         -2   -1    0    0    0  501 -0.00000000000E+00  0.00000000000E+00  0.34258847486E+02  0.34258847486E+02  0.00000000000E+00 0.  1.
          2   -1    0    0  501    0  0.00000000000E+00 -0.00000000000E+00 -0.11417079910E+04  0.11417079910E+04  0.00000000000E+00 0. -1.
         23    2    1    2    0    0  0.10024482398E+03  0.13197158052E+03 -0.45580244357E+03  0.49735426664E+03  0.11018110627E+03 0.  0.
          5    1    3    3  502    0  0.11798039492E+03  0.78285663595E+02 -0.30650817648E+03  0.33765774589E+03  0.41800000000E+01 0. -1.
         -5    1    3    3    0  502 -0.17735570945E+02  0.53685916928E+02 -0.14929426709E+03  0.15969652075E+03  0.41800000000E+01 0.  1.
        -11    1    1    2    0    0 -0.10782943462E+02 -0.24214558719E+02 -0.24762169534E+02  0.36273706231E+02  0.00000000000E+00 0. -1.
         11    1    1    2    0    0 -0.89461880515E+02 -0.10775702180E+03 -0.62688453038E+03  0.64233886558E+03  0.00000000000E+00 0.  1.
</event>
<event>
 7    1  0.1312490E-005  0.9432118E+02  0.7561462E-02  0.1292712E+00
          1   -1    0    0  501    0  0.00000000000E+00  0.00000000000E+00  0.19941660291E+03  0.19941660291E+03  0.00000000000E+00 0. -1.
         -1   -1    0    0    0  501 -0.00000000000E+00 -0.00000000000E+00 -0.78744074661E+02  0.78744074661E+02  0.00000000000E+00 0.  1.
         23    2    1    2    0    0  0.49483418578E+02 -0.20707128531E+02  0.26444083528E+02  0.13863552008E+03  0.12507247494E+03 0.  0.
          5    1    3    3  502    0 -0.26283238832E+02 -0.22326594745E+02 -0.28502443119E+02  0.44934921166E+02  0.41800000000E+01 0.  1.
         -5    1    3    3    0  502  0.75766657411E+02  0.16194662145E+01  0.54946526647E+02  0.93700598912E+02  0.41800000000E+01 0.  1.
        -11    1    1    2    0    0 -0.15884675441E+02  0.37293143574E+02  0.93655430774E+02  0.10205116944E+03  0.00000000000E+00 0. -1.
         11    1    1    2    0    0 -0.33598743137E+02 -0.16586015043E+02  0.57301394938E+00  0.37473988050E+02  0.00000000000E+00 0.  1.
</event>
<event>
 7    1  0.1312490E-005  0.9845250E+02  0.7561462E-02  0.1283584E+00
         -2   -1    0    0    0  501 -0.00000000000E+00  0.00000000000E+00  0.50415740950E+03  0.50415740950E+03  0.00000000000E+00 0.  1.
          2   -1    0    0  501    0  0.00000000000E+00 -0.00000000000E+00 -0.34440209683E+02  0.34440209683E+02  0.00000000000E+00 0. -1.
         23    2    1    2    0    0 -0.66617689084E+02  0.37748404948E+02  0.24426451901E+03  0.28491293409E+03  0.12508943277E+03 0.  0.
          5    1    3    3  502    0 -0.25281955269E+02  0.43953287419E+02  0.23685420261E+03  0.24225700079E+03  0.41800000000E+01 0.  1.
         -5    1    3    3    0  502 -0.41335733815E+02 -0.62048824709E+01  0.74103163938E+01  0.42655933298E+02  0.41800000000E+01 0.  1.
        -11    1    1    2    0    0 -0.79086245606E+01 -0.27714968632E+02  0.20489760024E+02  0.35362354200E+02  0.00000000000E+00 0. -1.
         11    1    1    2    0    0  0.74526313645E+02 -0.10033436316E+02  0.20496292078E+03  0.21832233089E+03  0.00000000000E+00 0.  1.
</event>
<event>
 7    1  0.1312490E-005  0.1288633E+03  0.7561462E-02  0.1229152E+00
          1   -1    0    0  501    0  0.00000000000E+00  0.00000000000E+00  0.25342985033E+03  0.25342985033E+03  0.00000000000E+00 0. -1.
         -1   -1    0    0    0  501 -0.00000000000E+00 -0.00000000000E+00 -0.12433199543E+03  0.12433199543E+03  0.00000000000E+00 0.  1.
         23    2    1    2    0    0  0.12022878437E+03  0.45596888258E+02  0.14076434502E+02  0.17994329890E+03  0.12508959989E+03 0.  0.
          5    1    3    3  502    0  0.99728169233E+02  0.39462464855E+02  0.64349948022E+02  0.12514544371E+03  0.41800000000E+01 0.  1.
         -5    1    3    3    0  502  0.20500615140E+02  0.61344234027E+01 -0.50273513520E+02  0.54797855188E+02  0.41800000000E+01 0.  1.
        -11    1    1    2    0    0 -0.53862171603E+02 -0.21049729515E+02  0.11310551779E+03  0.12703181805E+03  0.00000000000E+00 0. -1.
         11    1    1    2    0    0 -0.66366612770E+02 -0.24547158743E+02  0.19159025996E+01  0.70786728810E+02  0.00000000000E+00 0.  1.
</event>
<event>
 7    1  0.1312490E-005  0.1308447E+03  0.7561462E-02  0.1226208E+00
          1   -1    0    0  501    0  0.00000000000E+00  0.00000000000E+00  0.83177507957E+02  0.83177507957E+02  0.00000000000E+00 0. -1.
         -1   -1    0    0    0  501 -0.00000000000E+00 -0.00000000000E+00 -0.20801066492E+03  0.20801066492E+03  0.00000000000E+00 0.  1.
         23    2    1    2    0    0 -0.60228736902E+02 -0.46177462460E+02 -0.75430097402E+02  0.16461452017E+03  0.12509349251E+03 0.  0.
          5    1    3    3  502    0  0.84172392147E+01 -0.72116489961E+02 -0.34676178882E+02  0.80570142250E+02  0.41800000000E+01 0. -1.
         -5    1    3    3    0  502 -0.68645976117E+02  0.25939027501E+02 -0.40753918520E+02  0.84044377917E+02  0.41800000000E+01 0. -1.
        -11    1    1    2    0    0  0.29409112735E+02  0.70377769239E+02 -0.40615271383E+02  0.86414851643E+02  0.00000000000E+00 0.  1.
         11    1    1    2    0    0  0.30819624167E+02 -0.24200306779E+02 -0.87877881770E+01  0.40158801066E+02  0.00000000000E+00 0. -1.
</event>
<event>
 7    1  0.1312490E-005  0.2111610E+03  0.7561462E-02  0.1140650E+00
         -2   -1    0    0    0  501 -0.00000000000E+00  0.00000000000E+00  0.55790910297E+02  0.55790910297E+02  0.00000000000E+00 0.  1.
          2   -1    0    0  501    0  0.00000000000E+00 -0.00000000000E+00 -0.90429351701E+03  0.90429351701E+03  0.00000000000E+00 0. -1.
         23    2    1    2    0    0  0.11017905457E+03  0.14845487013E+03 -0.29875039500E+03  0.37293116931E+03  0.12509031138E+03 0.  0.
          5    1    3    3  502    0  0.12661415442E+03  0.15582229013E+03 -0.28929035632E+03  0.35216205482E+03  0.41800000000E+01 0.  1.
         -5    1    3    3    0  502 -0.16435099850E+02 -0.73674200042E+01 -0.94600386822E+01  0.20769114484E+02  0.41800000000E+01 0.  1.
        -11    1    1    2    0    0 -0.14829492822E+02 -0.89905446665E+02 -0.19639146287E+03  0.21650060020E+03  0.00000000000E+00 0.  1.
         11    1    1    2    0    0 -0.95349561743E+02 -0.58549423461E+02 -0.35336074884E+03  0.37065265780E+03  0.00000000000E+00 0. -1.
</event>
<event>
 7    1  0.1312490E-005  0.8297885E+02  0.7561462E-02  0.1320804E+00
         -2   -1    0    0    0  501 -0.00000000000E+00  0.00000000000E+00  0.12043087636E+03  0.12043087636E+03  0.00000000000E+00 0. -1.
          2   -1    0    0  501    0  0.00000000000E+00 -0.00000000000E+00 -0.15417848562E+03  0.15417848562E+03  0.00000000000E+00 0.  1.
         23    2    1    2    0    0  0.46877830839E+02 -0.22106508664E+02  0.45865474152E+02  0.14295862274E+03  0.12508915759E+03 0.  0.
          5    1    3    3  502    0  0.22667936931E+02 -0.48836275387E+02  0.77733475002E+02  0.94650846242E+02  0.41800000000E+01 0.  1.
         -5    1    3    3    0  502  0.24209893908E+02  0.26729766723E+02 -0.31868000850E+02  0.48307776499E+02  0.41800000000E+01 0.  1.
        -11    1    1    2    0    0 -0.59284892522E+02  0.22020523124E+02 -0.13867895162E+02  0.64745041789E+02  0.00000000000E+00 0. -1.
         11    1    1    2    0    0  0.12407061683E+02  0.85985539696E-01 -0.65745188248E+02  0.66905697447E+02  0.00000000000E+00 0.  1.
</event>
<event>
 7    1  0.1312490E-005  0.1069778E+03  0.7561462E-02  0.1266271E+00
          2   -1    0    0  501    0  0.00000000000E+00  0.00000000000E+00  0.46777854788E+03  0.46777854788E+03  0.00000000000E+00 0. -1.
         -2   -1    0    0    0  501 -0.00000000000E+00 -0.00000000000E+00 -0.26095156547E+02  0.26095156547E+02  0.00000000000E+00 0.  1.
         23    2    1    2    0    0 -0.32622684766E+01  0.15529199093E+02  0.26630552591E+03  0.29463826305E+03  0.12506508108E+03 0.  0.
          5    1    3    3  502    0 -0.60798872670E+02  0.63069092927E-02  0.17696360704E+03  0.18716328052E+03  0.41800000000E+01 0.  1.
         -5    1    3    3    0  502  0.57536604193E+02  0.15522892183E+02  0.89341918864E+02  0.10747498253E+03  0.41800000000E+01 0.  1.
        -11    1    1    2    0    0 -0.43521921786E+02 -0.16322605809E+02  0.71166874875E+02  0.85001818897E+02  0.00000000000E+00 0.  1.
         11    1    1    2    0    0  0.46784190263E+02  0.79340671613E+00  0.10421099055E+03  0.11423362247E+03  0.00000000000E+00 0. -1.
</event>
<event>
 7    1  0.1312490E-005  0.9391494E+02  0.7561462E-02  0.1293639E+00
          1   -1    0    0  501    0  0.00000000000E+00  0.00000000000E+00  0.38022965306E+03  0.38022965306E+03  0.00000000000E+00 0. -1.
         -1   -1    0    0    0  501 -0.00000000000E+00 -0.00000000000E+00 -0.41615026614E+02  0.41615026614E+02  0.00000000000E+00 0.  1.
         23    2    1    2    0    0 -0.12251301726E+02 -0.59968471800E+02  0.15868808416E+03  0.21113180067E+03  0.12509363373E+03 0.  0.
          5    1    3    3  502    0  0.22174298515E+02 -0.49755465620E+01  0.14219257985E+03  0.14405782778E+03  0.41800000000E+01 0. -1.
         -5    1    3    3    0  502 -0.34425600240E+02 -0.54992925238E+02  0.16495504304E+02  0.67073972898E+02  0.41800000000E+01 0. -1.
        -11    1    1    2    0    0 -0.32065392119E+02  0.11577318618E+02  0.24437914087E+02  0.41945623407E+02  0.00000000000E+00 0. -1.
         11    1    1    2    0    0  0.44316693845E+02  0.48391153182E+02  0.15548862820E+03  0.16876725559E+03  0.00000000000E+00 0.  1.
</event>
<event>
 7    1  0.1312490E-005  0.1206111E+03  0.7561462E-02  0.1242092E+00
         -1   -1    0    0    0  501 -0.00000000000E+00  0.00000000000E+00  0.28554091533E+02  0.28554091533E+02  0.00000000000E+00 0.  1.
          1   -1    0    0  501    0  0.00000000000E+00 -0.00000000000E+00 -0.64496836328E+03  0.64496836328E+03  0.00000000000E+00 0. -1.
         23    2    1    2    0    0 -0.64798792271E+02  0.11432370191E+02 -0.17358816666E+03  0.21631120349E+03  0.11103198900E+03 0.  0.
          5    1    3    3  502    0  0.13736734235E+01  0.50605352358E+02 -0.84079044357E+02  0.98232106594E+02  0.41800000000E+01 0. -1.
         -5    1    3    3    0  502 -0.66172465695E+02 -0.39172982167E+02 -0.89509122303E+02  0.11807909689E+03  0.41800000000E+01 0.  1.
        -11    1    1    2    0    0 -0.23776111977E+02  0.18550128816E+01 -0.78888424292E+02  0.82414368049E+02  0.00000000000E+00 0.  1.
         11    1    1    2    0    0  0.88574904248E+02 -0.13287383072E+02 -0.36393768080E+03  0.37479688328E+03  0.00000000000E+00 0. -1.
</event>
<event>
 7    1  0.1312490E-005  0.1230173E+03  0.7561462E-02  0.1238201E+00
         -2   -1    0    0    0  501 -0.00000000000E+00  0.00000000000E+00  0.47946385533E+02  0.47946385533E+02  0.00000000000E+00 0. -1.
          2   -1    0    0  501    0  0.00000000000E+00 -0.00000000000E+00 -0.52120324715E+03  0.52120324715E+03  0.00000000000E+00 0.  1.
         23    2    1    2    0    0  0.83392957359E+02 -0.66154085413E+02 -0.17526789549E+03  0.24020547939E+03  0.12509631802E+03 0.  0.
          5    1    3    3  502    0  0.22884206078E+02 -0.25735053663E+02  0.13983956778E+02  0.37403252826E+02  0.41800000000E+01 0.  1.
         -5    1    3    3    0  502  0.60508751281E+02 -0.40419031751E+02 -0.18925185227E+03  0.20280222656E+03  0.41800000000E+01 0.  1.
        -11    1    1    2    0    0  0.18832987478E+02  0.15385026239E+02 -0.67394227305E+02  0.71647486514E+02  0.00000000000E+00 0.  1.
         11    1    1    2    0    0 -0.10222594484E+03  0.50769059174E+02 -0.23059473882E+03  0.25729666678E+03  0.00000000000E+00 0. -1.
</event>
<event>
 7    1  0.1312490E-005  0.8266433E+02  0.7561462E-02  0.1321656E+00
          3   -1    0    0  501    0  0.00000000000E+00  0.00000000000E+00  0.11965541464E+03  0.11965541464E+03  0.00000000000E+00 0. -1.
         -3   -1    0    0    0  501 -0.00000000000E+00 -0.00000000000E+00 -0.12071987870E+03  0.12071987870E+03  0.00000000000E+00 0.  1.
         23    2    1    2    0    0 -0.40167651821E+01  0.45517042275E+02 -0.23062968651E+02  0.13515889728E+03  0.12509233170E+03 0.  0.
          5    1    3    3  502    0 -0.26256009020E+02 -0.30225660294E+02 -0.37249954821E+02  0.54845237569E+02  0.41800000000E+01 0. -1.
         -5    1    3    3    0  502  0.22239243838E+02  0.75742702569E+02  0.14186986170E+02  0.80313659706E+02  0.41800000000E+01 0. -1.
        -11    1    1    2    0    0  0.53769205228E+01 -0.33387053231E+02  0.58034945623E+02  0.67168902858E+02  0.00000000000E+00 0. -1.
         11    1    1    2    0    0 -0.13601553406E+01 -0.12129989043E+02 -0.36036441038E+02  0.38047493209E+02  0.00000000000E+00 0.  1.
</event>
<event>
 7    1  0.1312490E-005  0.1063872E+03  0.7561462E-02  0.1267410E+00
          1   -1    0    0  501    0  0.00000000000E+00  0.00000000000E+00  0.35556297786E+02  0.35556297786E+02  0.00000000000E+00 0. -1.
         -1   -1    0    0    0  501 -0.00000000000E+00 -0.00000000000E+00 -0.37658446257E+03  0.37658446257E+03  0.00000000000E+00 0.  1.
         23    2    1    2    0    0  0.11696241902E+02 -0.23071785808E+02 -0.23158807601E+03  0.26447726056E+03  0.12508427170E+03 0.  0.
          5    1    3    3  502    0  0.63341449637E+01  0.47798330899E+02 -0.50741248337E+02  0.70120956296E+02  0.41800000000E+01 0. -1.
         -5    1    3    3    0  502  0.53620969385E+01 -0.70870116707E+02 -0.18084682767E+03  0.19435630426E+03  0.41800000000E+01 0. -1.
        -11    1    1    2    0    0 -0.27240894687E+02  0.52924914234E+02 -0.43817229929E+02  0.73912532960E+02  0.00000000000E+00 0.  1.
         11    1    1    2    0    0  0.15544652785E+02 -0.29853128426E+02 -0.65622858845E+02  0.73750966841E+02  0.00000000000E+00 0. -1.
</event>
<event>
 7    1  0.1312490E-005  0.1463360E+03  0.7561462E-02  0.1205049E+00
         -2   -1    0    0    0  501 -0.00000000000E+00  0.00000000000E+00  0.32960925047E+03  0.32960925047E+03  0.00000000000E+00 0.  1.
          2   -1    0    0  501    0  0.00000000000E+00 -0.00000000000E+00 -0.22999351559E+03  0.22999351559E+03  0.00000000000E+00 0. -1.
         23    2    1    2    0    0  0.20612596687E+02  0.11483976834E+03  0.27860112097E+03  0.32692201754E+03  0.12508544845E+03 0.  0.
          5    1    3    3  502    0 -0.37101691989E+02  0.60826275222E+02  0.21127809219E+03  0.22300734504E+03  0.41800000000E+01 0.  1.
         -5    1    3    3    0  502  0.57714288677E+02  0.54013493114E+02  0.67323028787E+02  0.10391467250E+03  0.41800000000E+01 0.  1.
        -11    1    1    2    0    0  0.17805517028E+02 -0.98999588816E+02 -0.15476785934E+03  0.18458343725E+03  0.00000000000E+00 0. -1.
         11    1    1    2    0    0 -0.38418113715E+02 -0.15840179519E+02 -0.24217526750E+02  0.48097311261E+02  0.00000000000E+00 0.  1.
</event>
<event>
 7    1  0.1312490E-005  0.1025972E+03  0.7561462E-02  0.1274927E+00
         -2   -1    0    0    0  501 -0.00000000000E+00  0.00000000000E+00  0.13138777118E+03  0.13138777118E+03  0.00000000000E+00 0.  1.
          2   -1    0    0  501    0  0.00000000000E+00 -0.00000000000E+00 -0.11250884927E+03  0.11250884927E+03  0.00000000000E+00 0. -1.
         23    2    1    2    0    0 -0.57359302067E+01  0.51312700748E+02  0.30218018630E+02  0.13866010653E+03  0.12509037669E+03 0.  0.
          5    1    3    3  502    0  0.33878740062E+02 -0.29387757959E+02  0.14363447118E+02  0.47277799856E+02  0.41800000000E+01 0. -1.
         -5    1    3    3    0  502 -0.39614670269E+02  0.80700458708E+02  0.15854571512E+02  0.91382306679E+02  0.41800000000E+01 0. -1.
        -11    1    1    2    0    0  0.23191812281E+02 -0.99056736987E+01  0.33383381036E+02  0.41838172256E+02  0.00000000000E+00 0.  1.
         11    1    1    2    0    0 -0.17455882074E+02 -0.41407027050E+02 -0.44722477762E+02  0.63398341660E+02  0.00000000000E+00 0. -1.
</event>
<event>
 7    1  0.1312490E-005  0.1646368E+03  0.7561462E-02  0.1183559E+00
          3   -1    0    0  501    0  0.00000000000E+00  0.00000000000E+00  0.64242333636E+03  0.64242333636E+03  0.00000000000E+00 0. -1.
         -3   -1    0    0    0  501 -0.00000000000E+00 -0.00000000000E+00 -0.66163912334E+02  0.66163912334E+02  0.00000000000E+00 0.  1.
         23    2    1    2    0    0  0.47811405442E+02  0.15028637196E+03  0.17181259306E+03  0.26464760097E+03  0.12508741535E+03 0.  0.
          5    1    3    3  502    0  0.15237104167E+00 -0.62956927801E+01  0.73047250527E+02  0.73437266930E+02  0.41800000000E+01 0.  1.
         -5    1    3    3    0  502  0.47659034400E+02  0.15658206474E+03  0.98765342528E+02  0.19121033404E+03  0.41800000000E+01 0.  1.
        -11    1    1    2    0    0 -0.12471478065E+02 -0.53969364374E+02  0.26551874947E+03  0.27123502056E+03  0.00000000000E+00 0. -1.
         11    1    1    2    0    0 -0.35339927376E+02 -0.96317007584E+02  0.13892808150E+03  0.17270462717E+03  0.00000000000E+00 0.  1.
</event>
<event>
 7    1  0.1312490E-005  0.1040576E+03  0.7561462E-02  0.1271988E+00
          2   -1    0    0  501    0  0.00000000000E+00  0.00000000000E+00  0.21003478906E+02  0.21003478906E+02  0.00000000000E+00 0. -1.
         -2   -1    0    0    0  501 -0.00000000000E+00 -0.00000000000E+00 -0.91922351201E+03  0.91922351201E+03  0.00000000000E+00 0.  1.
         23    2    1    2    0    0  0.78933661158E+02  0.30244153782E+02 -0.41634142435E+03  0.44286770026E+03  0.12508551716E+03 0.  0.
          5    1    3    3  502    0  0.30465537728E+02  0.13013237055E+02 -0.37568971706E+03  0.37717068978E+03  0.41800000000E+01 0.  1.
         -5    1    3    3    0  502  0.48468123430E+02  0.17230916728E+02 -0.40651707290E+02  0.65697010478E+02  0.41800000000E+01 0.  1.
        -11    1    1    2    0    0 -0.27808972547E+02 -0.58447937411E+02 -0.25044157064E+03  0.25867060260E+03  0.00000000000E+00 0. -1.
         11    1    1    2    0    0 -0.51124688612E+02  0.28203783628E+02 -0.23143703811E+03  0.23868868806E+03  0.00000000000E+00 0.  1.
</event>
<event>
 7    1  0.1312490E-005  0.1158930E+03  0.7561462E-02  0.1250030E+00
          1   -1    0    0  501    0  0.00000000000E+00  0.00000000000E+00  0.68251472705E+02  0.68251472705E+02  0.00000000000E+00 0. -1.
         -1   -1    0    0    0  501 -0.00000000000E+00 -0.00000000000E+00 -0.25045281518E+03  0.25045281518E+03  0.00000000000E+00 0.  1.
         23    2    1    2    0    0  0.60591487442E+02  0.26773238374E+02 -0.13841652936E+03  0.19797821117E+03  0.12509237329E+03 0.  0.
          5    1    3    3  502    0  0.20555432308E+02 -0.46646598922E+02 -0.83255553225E+02  0.97710749312E+02  0.41800000000E+01 0. -1.
         -5    1    3    3    0  502  0.40036055133E+02  0.73419837296E+02 -0.55160976137E+02  0.10026746186E+03  0.41800000000E+01 0. -1.
        -11    1    1    2    0    0  0.53741939745E+01  0.16941676796E+02 -0.37308401507E+02  0.41325769159E+02  0.00000000000E+00 0.  1.
         11    1    1    2    0    0 -0.65965681416E+02 -0.43714915170E+02 -0.64764116085E+01  0.79400307558E+02  0.00000000000E+00 0. -1.
</event>
<event>
 7    1  0.1312490E-005  0.1392514E+03  0.7561462E-02  0.1214340E+00
         -2   -1    0    0    0  501 -0.00000000000E+00  0.00000000000E+00  0.87810693058E+03  0.87810693058E+03  0.00000000000E+00 0.  1.
          2   -1    0    0  501    0  0.00000000000E+00 -0.00000000000E+00 -0.30623585293E+02  0.30623585293E+02  0.00000000000E+00 0. -1.
         23    2    1    2    0    0 -0.72841039591E+02 -0.74028311049E+02  0.63217984363E+03  0.65275310096E+03  0.12509695535E+03 0.  0.
          5    1    3    3  502    0  0.13335065456E+02 -0.71565509024E+02  0.35636527159E+03  0.36374871168E+03  0.41800000000E+01 0. -1.
         -5    1    3    3    0  502 -0.86176105047E+02 -0.24628020244E+01  0.27581457204E+03  0.28900438928E+03  0.41800000000E+01 0. -1.
        -11    1    1    2    0    0  0.23542509664E+02  0.65029550615E+02  0.18478400116E+03  0.19730235502E+03  0.00000000000E+00 0.  1.
         11    1    1    2    0    0  0.49298529927E+02  0.89987604331E+01  0.30519500506E+02  0.58675059893E+02  0.00000000000E+00 0. -1.
</event>
<event>
 7    1  0.1312490E-005  0.9503823E+02  0.7561462E-02  0.1291090E+00
          3   -1    0    0  501    0  0.00000000000E+00  0.00000000000E+00  0.23627303314E+03  0.23627303314E+03  0.00000000000E+00 0. -1.
         -3   -1    0    0    0  501 -0.00000000000E+00 -0.00000000000E+00 -0.66107654545E+02  0.66107654545E+02  0.00000000000E+00 0.  1.
         23    2    1    2    0    0 -0.40409721314E+02  0.46913700717E+02  0.92565566178E+02  0.16747961819E+03  0.12508875879E+03 0.  0.
          5    1    3    3  502    0 -0.44563446510E+01  0.44802282935E+02 -0.19834901573E+02  0.49376100334E+02  0.41800000000E+01 0. -1.
         -5    1    3    3    0  502 -0.35953376663E+02  0.21114177821E+01  0.11240046775E+03  0.11810351785E+03  0.41800000000E+01 0. -1.
        -11    1    1    2    0    0 -0.24286606343E+02  0.60073931813E+01  0.84064760571E+01  0.26393121456E+02  0.00000000000E+00 0.  1.
         11    1    1    2    0    0  0.64696327657E+02 -0.52921093898E+02  0.69193336359E+02  0.10850794804E+03  0.00000000000E+00 0. -1.
</event>
<event>
 7    1  0.1312490E-005  0.9333365E+02  0.7561462E-02  0.1294974E+00
         -1   -1    0    0    0  501 -0.00000000000E+00  0.00000000000E+00  0.29842716962E+03  0.29842716962E+03  0.00000000000E+00 0.  1.
          1   -1    0    0  501    0  0.00000000000E+00 -0.00000000000E+00 -0.57442621854E+02  0.57442621854E+02  0.00000000000E+00 0. -1.
         23    2    1    2    0    0  0.28907349064E+02 -0.43445851748E+02  0.20519781895E+03  0.24592059093E+03  0.12509042841E+03 0.  0.
          5    1    3    3  502    0  0.20405561384E+02 -0.60999833498E+02  0.32708999829E+02  0.72282208682E+02  0.41800000000E+01 0. -1.
         -5    1    3    3    0  502  0.85017876796E+01  0.17553981750E+02  0.17248881912E+03  0.17363838225E+03  0.41800000000E+01 0. -1.
        -11    1    1    2    0    0 -0.21431205879E+02 -0.25273690659E+02  0.25110490499E+01  0.33231933321E+02  0.00000000000E+00 0.  1.
         11    1    1    2    0    0 -0.74761431850E+01  0.68719542407E+02  0.33275679764E+02  0.76717267217E+02  0.00000000000E+00 0. -1.
</event>
<event>
 7    1  0.1312490E-005  0.1325595E+03  0.7561462E-02  0.1223707E+00
          2   -1    0    0  501    0  0.00000000000E+00  0.00000000000E+00  0.68674954367E+02  0.68674954367E+02  0.00000000000E+00 0. -1.
         -2   -1    0    0    0  501 -0.00000000000E+00 -0.00000000000E+00 -0.34316288690E+03  0.34316288690E+03  0.00000000000E+00 0.  1.
         23    2    1    2    0    0 -0.13036172658E+02 -0.10207794975E+03 -0.11229210221E+03  0.19709530450E+03  0.12508874135E+03 0.  0.
          5    1    3    3  502    0 -0.62462710622E+02 -0.20692577508E+02 -0.36789619740E+02  0.75503122470E+02  0.41800000000E+01 0.  1.
         -5    1    3    3    0  502  0.49426537964E+02 -0.81385372246E+02 -0.75502482473E+02  0.12159218203E+03  0.41800000000E+01 0.  1.
        -11    1    1    2    0    0  0.15279864328E+02  0.66772554536E+02 -0.24775094626E+02  0.72841290536E+02  0.00000000000E+00 0. -1.
         11    1    1    2    0    0 -0.22436916699E+01  0.35305395218E+02 -0.13742073570E+03  0.14190124624E+03  0.00000000000E+00 0.  1.
</event>
<event>
 7    1  0.1312490E-005  0.7497890E+02  0.7561462E-02  0.1343936E+00
          2   -1    0    0  501    0  0.00000000000E+00  0.00000000000E+00  0.67731410541E+02  0.67731410541E+02  0.00000000000E+00 0. -1.
         -2   -1    0    0    0  501 -0.00000000000E+00 -0.00000000000E+00 -0.18525743152E+03  0.18525743152E+03  0.00000000000E+00 0.  1.
         23    2    1    2    0    0 -0.19443029230E+02  0.15516000507E+02 -0.82619734688E+02  0.15196336514E+03  0.12509223049E+03 0.  0.
          5    1    3    3  502    0 -0.40089403667E+01  0.32759680799E+02 -0.11055243758E+03  0.11544947875E+03  0.41800000000E+01 0.  1.
         -5    1    3    3    0  502 -0.15434088863E+02 -0.17243680292E+02  0.27932702890E+02  0.36513886397E+02  0.41800000000E+01 0.  1.
        -11    1    1    2    0    0  0.28666081003E+02  0.33044077945E+02 -0.25734564348E+02  0.50753552481E+02  0.00000000000E+00 0.  1.
         11    1    1    2    0    0 -0.92230517725E+01 -0.48560078452E+02 -0.91717219462E+01  0.50271924438E+02  0.00000000000E+00 0. -1.
</event>
<event>
 7    1  0.1312490E-005  0.6744417E+02  0.7561462E-02  0.1369006E+00
         -2   -1    0    0    0  501 -0.00000000000E+00  0.00000000000E+00  0.71470819207E+02  0.71470819207E+02  0.00000000000E+00 0.  1.
          2   -1    0    0  501    0  0.00000000000E+00 -0.00000000000E+00 -0.29485756863E+03  0.29485756863E+03  0.00000000000E+00 0. -1.
         23    2    1    2    0    0  0.42216925492E+02 -0.17555380390E+02 -0.13830671184E+02  0.13389705897E+03  0.12508666899E+03 0.  0.
          5    1    3    3  502    0  0.24697122867E+02  0.13441754115E+02 -0.65273237710E+02  0.71194779252E+02  0.41800000000E+01 0. -1.
         -5    1    3    3    0  502  0.17519802626E+02 -0.30997134505E+02  0.51442566526E+02  0.62702279722E+02  0.41800000000E+01 0. -1.
        -11    1    1    2    0    0  0.13049849824E+02  0.46854961889E+01  0.14379167204E+01  0.13939873007E+02  0.00000000000E+00 0.  1.
         11    1    1    2    0    0 -0.55266775317E+02  0.12869884201E+02 -0.21099399495E+03  0.21849145585E+03  0.00000000000E+00 0. -1.
</event>
<event>
 7    1  0.1312490E-005  0.7652119E+02  0.7561462E-02  0.1339224E+00
         -1   -1    0    0    0  501 -0.00000000000E+00  0.00000000000E+00  0.65495541783E+02  0.65495541783E+02  0.00000000000E+00 0.  1.
          1   -1    0    0  501    0  0.00000000000E+00 -0.00000000000E+00 -0.30612555030E+03  0.30612555030E+03  0.00000000000E+00 0. -1.
         23    2    1    2    0    0 -0.31592684646E+02  0.26225575943E+02 -0.24242362328E+02  0.13385219151E+03  0.12507133359E+03 0.  0.
          5    1    3    3  502    0 -0.47842546966E+02  0.37332086547E+02 -0.64615568814E+02  0.88742538387E+02  0.41800000000E+01 0.  1.
         -5    1    3    3    0  502  0.16249862320E+02 -0.11106510605E+02  0.40373206486E+02  0.45109653127E+02  0.41800000000E+01 0.  1.
        -11    1    1    2    0    0 -0.16635738664E+02 -0.15387914048E+02 -0.86905092243E+01  0.24270571691E+02  0.00000000000E+00 0.  1.
         11    1    1    2    0    0  0.48228423310E+02 -0.10837661894E+02 -0.20769713697E+03  0.21349832888E+03  0.00000000000E+00 0. -1.
</event>
<event>
 7    1  0.1312490E-005  0.9767139E+02  0.7561462E-02  0.1285270E+00
         -2   -1    0    0    0  501 -0.00000000000E+00  0.00000000000E+00  0.17025117877E+02  0.17025117877E+02  0.00000000000E+00 0.  1.
          2   -1    0    0  501    0  0.00000000000E+00 -0.00000000000E+00 -0.84754064296E+03  0.84754064296E+03  0.00000000000E+00 0. -1.
         23    2    1    2    0    0  0.43129894207E+02 -0.20970880924E+02 -0.42984112439E+03  0.45023428652E+03  0.12509018718E+03 0.  0.
          5    1    3    3  502    0  0.58410206684E+02 -0.35925728055E+02 -0.11026409685E+03  0.12991556348E+03  0.41800000000E+01 0.  1.
         -5    1    3    3    0  502 -0.15280312476E+02  0.14954847131E+02 -0.31957702754E+03  0.32031872304E+03  0.41800000000E+01 0.  1.
        -11    1    1    2    0    0 -0.66010334629E+02 -0.95641372794E+01 -0.27623891610E+03  0.28417736675E+03  0.00000000000E+00 0. -1.
         11    1    1    2    0    0  0.22880440422E+02  0.30535018203E+02 -0.12443548459E+03  0.13015410757E+03  0.00000000000E+00 0.  1.
</event>
<event>
 7    1  0.1312490E-005  0.8641659E+02  0.7561462E-02  0.1311769E+00
         -1   -1    0    0    0  501 -0.00000000000E+00  0.00000000000E+00  0.29695788851E+03  0.29695788851E+03  0.00000000000E+00 0.  1.
          1   -1    0    0  501    0  0.00000000000E+00 -0.00000000000E+00 -0.66242523918E+02  0.66242523918E+02  0.00000000000E+00 0. -1.
         23    2    1    2    0    0  0.48254136417E+02 -0.33334566798E+02  0.21380548095E+03  0.25455755757E+03  0.12508841435E+03 0.  0.
          5    1    3    3  502    0  0.31965807486E+02 -0.54900309108E+02  0.21780526937E+03  0.22691951118E+03  0.41800000000E+01 0.  1.
         -5    1    3    3    0  502  0.16288328931E+02  0.21565742310E+02 -0.39997884189E+01  0.27638046388E+02  0.41800000000E+01 0.  1.
        -11    1    1    2    0    0  0.11839264005E+02 -0.21491129029E+01 -0.24641192315E+02  0.27422166529E+02  0.00000000000E+00 0. -1.
         11    1    1    2    0    0 -0.60093400422E+02  0.35483679701E+02  0.41551075950E+02  0.81220688325E+02  0.00000000000E+00 0.  1.
</event>
<event>
 7    1  0.1312490E-005  0.8850378E+02  0.7561462E-02  0.1306516E+00
          2   -1    0    0  501    0  0.00000000000E+00  0.00000000000E+00  0.52586421031E+02  0.52586421031E+02  0.00000000000E+00 0.  1.
         -2   -1    0    0    0  501 -0.00000000000E+00 -0.00000000000E+00 -0.33339220451E+03  0.33339220451E+03  0.00000000000E+00 0. -1.
         23    2    1    2    0    0  0.43433468859E+02 -0.27070071238E+02 -0.23275529119E+03  0.26916055623E+03  0.12511244735E+03 0.  0.
          5    1    3    3  502    0 -0.86883514228E+01 -0.13354872921E+02 -0.20977522363E+03  0.21042090421E+03  0.41800000000E+01 0. -1.
         -5    1    3    3    0  502  0.52121820282E+02 -0.13715198317E+02 -0.22980067558E+02  0.58739652020E+02  0.41800000000E+01 0. -1.
        -11    1    1    2    0    0 -0.31221296625E+02  0.62031285762E+02 -0.31441625612E+02  0.76231395090E+02  0.00000000000E+00 0. -1.
         11    1    1    2    0    0 -0.12212172235E+02 -0.34961214524E+02 -0.16608866679E+02  0.40586674218E+02  0.00000000000E+00 0.  1.
</event>
<event>
 7    1  0.1312490E-005  0.1282484E+03  0.7561462E-02  0.1230078E+00
         -2   -1    0    0    0  501 -0.00000000000E+00  0.00000000000E+00  0.45206419896E+02  0.45206419896E+02  0.00000000000E+00 0.  1.
          2   -1    0    0  501    0  0.00000000000E+00 -0.00000000000E+00 -0.50962869819E+03  0.50962869819E+03  0.00000000000E+00 0. -1.
         23    2    1    2    0    0  0.92917990352E+02 -0.57055165429E+02 -0.25921693020E+03  0.30778428499E+03  0.12509478147E+03 0.  0.
          5    1    3    3  502    0  0.59523166120E+02 -0.13148370195E+01 -0.22779896362E+03  0.23548795368E+03  0.41800000000E+01 0.  1.
         -5    1    3    3    0  502  0.33394824233E+02 -0.55740328409E+02 -0.31417966571E+02  0.72296331305E+02  0.41800000000E+01 0.  1.
        -11    1    1    2    0    0 -0.50660483863E+02  0.70982167117E+02 -0.16702909621E+03  0.18842418012E+03  0.00000000000E+00 0.  1.
         11    1    1    2    0    0 -0.42257506489E+02 -0.13927001688E+02 -0.38176251882E+02  0.58626652970E+02  0.00000000000E+00 0. -1.
</event>
<event>
 7    1  0.1312490E-005  0.7259344E+02  0.7561462E-02  0.1351490E+00
         -1   -1    0    0    0  501 -0.00000000000E+00  0.00000000000E+00  0.44601330295E+03  0.44601330295E+03  0.00000000000E+00 0.  1.
          1   -1    0    0  501    0  0.00000000000E+00 -0.00000000000E+00 -0.33296819164E+02  0.33296819164E+02  0.00000000000E+00 0. -1.
         23    2    1    2    0    0  0.48197270146E+02  0.27457018562E+02  0.24894574868E+03  0.28407373169E+03  0.12508810706E+03 0.  0.
          5    1    3    3  502    0  0.96696063032E+01  0.21247118634E+02  0.24326309568E+03  0.24441634040E+03  0.41800000000E+01 0.  1.
         -5    1    3    3    0  502  0.38527663843E+02  0.62098999273E+01  0.56826530069E+01  0.39657391285E+02  0.41800000000E+01 0.  1.
        -11    1    1    2    0    0  0.17608566161E+01  0.15947049960E+02 -0.25383628890E+01  0.16243531162E+02  0.00000000000E+00 0. -1.
         11    1    1    2    0    0 -0.49958126763E+02 -0.43404068522E+02  0.16630909799E+03  0.17899285927E+03  0.00000000000E+00 0.  1.
</event>
<event>
 7    1  0.1312490E-005  0.7808000E+02  0.7561462E-02  0.1334590E+00
          2   -1    0    0  501    0  0.00000000000E+00  0.00000000000E+00  0.90983779635E+02  0.90983779635E+02  0.00000000000E+00 0. -1.
         -2   -1    0    0    0  501 -0.00000000000E+00 -0.00000000000E+00 -0.15523427327E+03  0.15523427327E+03  0.00000000000E+00 0.  1.
         23    2    1    2    0    0 -0.29341326379E+01 -0.60706175778E+00 -0.76675395582E+02  0.14672532119E+03  0.12506088889E+03 0.  0.
          5    1    3    3  502    0  0.49943315706E+02  0.19035982305E+02 -0.28022379031E+01  0.53684526107E+02  0.41800000000E+01 0.  1.
         -5    1    3    3    0  502 -0.52877448344E+02 -0.19643044063E+02 -0.73873157679E+02  0.93040795079E+02  0.41800000000E+01 0.  1.
        -11    1    1    2    0    0 -0.15698842745E+02  0.15553514916E+02 -0.37851486895E+02  0.43830361052E+02  0.00000000000E+00 0.  1.
         11    1    1    2    0    0  0.18632975383E+02 -0.14946453158E+02  0.50276388840E+02  0.55662370669E+02  0.00000000000E+00 0. -1.
</event>
<event>
 7    1  0.1312490E-005  0.8860214E+02  0.7561462E-02  0.1306273E+00
          2   -1    0    0  501    0  0.00000000000E+00  0.00000000000E+00  0.28062229141E+03  0.28062229141E+03  0.00000000000E+00 0.  1.
         -2   -1    0    0    0  501 -0.00000000000E+00 -0.00000000000E+00 -0.64181093360E+02  0.64181093360E+02  0.00000000000E+00 0. -1.
         23    2    1    2    0    0  0.92415565779E+01 -0.55053616936E+02  0.48854604338E+02  0.14543348811E+03  0.12509124667E+03 0.  0.
          5    1    3    3  502    0 -0.25100593557E+02 -0.31621726404E+02  0.82397123727E+02  0.91851683578E+02  0.41800000000E+01 0. -1.
         -5    1    3    3    0  502  0.34342150135E+02 -0.23431890532E+02 -0.33542519389E+02  0.53581804530E+02  0.41800000000E+01 0. -1.
        -11    1    1    2    0    0 -0.11009470230E+02 -0.18353895968E+02  0.65501620270E+01  0.22382550224E+02  0.00000000000E+00 0. -1.
         11    1    1    2    0    0  0.17679136524E+01  0.73407512904E+02  0.16103643168E+03  0.17698734644E+03  0.00000000000E+00 0.  1.
</event>
<event>
 6    1  0.1312490E-005  0.1355529E+03  0.7561462E-02  0.1219441E+00
         -1   -1    0    0    0  501 -0.00000000000E+00  0.00000000000E+00  0.15991568382E+03  0.15991568382E+03  0.00000000000E+00 0.  1.
          1   -1    0    0  501    0  0.00000000000E+00 -0.00000000000E+00 -0.17953019082E+03  0.17953019082E+03  0.00000000000E+00 0. -1.
          5    1    1    2  502    0 -0.27974221796E+02 -0.75708128516E+02  0.79130835792E+02  0.11310808716E+03  0.41800000000E+01 0. -1.
         -5    1    1    2    0  502 -0.54795150397E+02  0.54020704846E+02 -0.21608249006E+02  0.80032080344E+02  0.41800000000E+01 0.  1.
        -11    1    1    2    0    0  0.96946703312E+02  0.19319243809E+02 -0.84598489788E+02  0.13011072569E+03  0.00000000000E+00 0. -1.
         11    1    1    2    0    0 -0.14177331119E+02  0.23681798606E+01  0.74613960051E+01  0.16194981441E+02  0.00000000000E+00 0.  1.
</event>
<event>
 7    1  0.1312490E-005  0.9829107E+02  0.7561462E-02  0.1283931E+00
          2   -1    0    0  501    0  0.00000000000E+00  0.00000000000E+00  0.19789697385E+03  0.19789697385E+03  0.00000000000E+00 0. -1.
         -2   -1    0    0    0  501 -0.00000000000E+00 -0.00000000000E+00 -0.10453789677E+03  0.10453789677E+03  0.00000000000E+00 0.  1.
         23    2    1    2    0    0  0.10652422847E+02  0.66379286251E+02 -0.17009698179E+02  0.14302671739E+03  0.12509048045E+03 0.  0.
          5    1    3    3  502    0  0.18837923225E+02  0.74347148843E+02 -0.60557932477E+02  0.97811561067E+02  0.41800000000E+01 0. -1.
         -5    1    3    3    0  502 -0.81855003783E+01 -0.79678625923E+01  0.43548234298E+02  0.45215156322E+02  0.41800000000E+01 0. -1.
        -11    1    1    2    0    0  0.36636566539E+02 -0.36231261598E+02  0.25011489098E+02  0.57275796910E+02  0.00000000000E+00 0.  1.
         11    1    1    2    0    0 -0.47288989386E+02 -0.30148024652E+02  0.85357286163E+02  0.10213235633E+03  0.00000000000E+00 0. -1.
</event>
<event>
 7    1  0.1312490E-005  0.1297744E+03  0.7561462E-02  0.1227791E+00
          1   -1    0    0  501    0  0.00000000000E+00  0.00000000000E+00  0.12828949825E+02  0.12828949825E+02  0.00000000000E+00 0. -1.
         -1   -1    0    0    0  501 -0.00000000000E+00 -0.00000000000E+00 -0.13645616527E+04  0.13645616527E+04  0.00000000000E+00 0.  1.
         23    2    1    2    0    0  0.34651986265E+01 -0.76471806587E+02 -0.80631763181E+03  0.81954623478E+03  0.12509181735E+03 0.  0.
          5    1    3    3  502    0 -0.47204013986E+02  0.44560740166E+01 -0.35832529547E+03  0.36147277256E+03  0.41800000000E+01 0. -1.
         -5    1    3    3    0  502  0.50669212613E+02 -0.80927880603E+02 -0.44799233635E+03  0.45807346222E+03  0.41800000000E+01 0. -1.
        -11    1    1    2    0    0  0.31127870021E+02  0.75618516879E+02 -0.41020877323E+03  0.41828021950E+03  0.00000000000E+00 0.  1.
         11    1    1    2    0    0 -0.34593068648E+02  0.85328970785E+00 -0.13520629779E+03  0.13956414821E+03  0.00000000000E+00 0. -1.
</event>
<event>
 7    1  0.1312490E-005  0.1894033E+03  0.7561462E-02  0.1159001E+00
         -3   -1    0    0    0  501 -0.00000000000E+00  0.00000000000E+00  0.15559740929E+04  0.15559740929E+04  0.00000000000E+00 0.  1.
          3   -1    0    0  501    0  0.00000000000E+00 -0.00000000000E+00 -0.39953618824E+02  0.39953618824E+02  0.00000000000E+00 0. -1.
         23    2    1    2    0    0  0.13929788626E+03  0.94464191044E+02  0.12531602696E+04  0.12705847510E+04  0.12509022198E+03 0.  0.
          5    1    3    3  502    0 -0.21815444065E+02  0.26789119181E+02  0.22325335258E+03  0.22594933579E+03  0.41800000000E+01 0. -1.
         -5    1    3    3    0  502  0.16111333032E+03  0.67675071863E+02  0.10299069171E+04  0.10446354152E+04  0.41800000000E+01 0. -1.
        -11    1    1    2    0    0 -0.37557983260E+02 -0.16465212034E+02  0.14677454472E+03  0.15239577518E+03  0.00000000000E+00 0.  1.
         11    1    1    2    0    0 -0.10173990300E+03 -0.77998979010E+02  0.11608565973E+03  0.17294718554E+03  0.00000000000E+00 0. -1.
</event>
<event>
 7    1  0.1312490E-005  0.1291457E+03  0.7561462E-02  0.1228729E+00
          1   -1    0    0  501    0  0.00000000000E+00  0.00000000000E+00  0.41203251172E+03  0.41203251172E+03  0.00000000000E+00 0. -1.
         -1   -1    0    0    0  501 -0.00000000000E+00 -0.00000000000E+00 -0.52244636802E+02  0.52244636802E+02  0.00000000000E+00 0.  1.
         23    2    1    2    0    0 -0.65148462094E+02  0.51367461488E+02  0.11057571341E+03  0.18643416550E+03  0.12509105266E+03 0.  0.
          5    1    3    3  502    0 -0.81298986138E+02  0.72549456832E+02  0.11570183370E+03  0.15898847617E+03  0.41800000000E+01 0.  1.
         -5    1    3    3    0  502  0.16150524043E+02 -0.21181995344E+02 -0.51261202846E+01  0.27445689330E+02  0.41800000000E+01 0.  1.
        -11    1    1    2    0    0  0.56616862977E+02 -0.76826655785E+02  0.20481338382E+03  0.22595647016E+03  0.00000000000E+00 0.  1.
         11    1    1    2    0    0  0.85315991176E+01  0.25459194296E+02  0.44398777679E+02  0.51886512864E+02  0.00000000000E+00 0. -1.
</event>
<event>
 7    1  0.1312490E-005  0.1289955E+03  0.7561462E-02  0.1228954E+00
          2   -1    0    0  501    0  0.00000000000E+00  0.00000000000E+00  0.59510270746E+02  0.59510270746E+02  0.00000000000E+00 0. -1.
         -2   -1    0    0    0  501 -0.00000000000E+00 -0.00000000000E+00 -0.32097831410E+03  0.32097831410E+03  0.00000000000E+00 0.  1.
         23    2    1    2    0    0  0.76641028449E+02  0.33449577843E+02 -0.12343558648E+03  0.19462045044E+03  0.12509218288E+03 0.  0.
          5    1    3    3  502    0 -0.58197979192E+01  0.61961219505E+02 -0.61051361486E+02  0.87280031563E+02  0.41800000000E+01 0. -1.
         -5    1    3    3    0  502  0.82460826369E+02 -0.28511641663E+02 -0.62384224999E+02  0.10734041888E+03  0.41800000000E+01 0. -1.
        -11    1    1    2    0    0 -0.10753030014E+02  0.20473364897E+02 -0.78869534880E+02  0.82189962020E+02  0.00000000000E+00 0.  1.
         11    1    1    2    0    0 -0.65887998436E+02 -0.53922942739E+02 -0.59162921994E+02  0.10367817239E+03  0.00000000000E+00 0. -1.
</event>
<event>
 6    1  0.1312490E-005  0.1115221E+03  0.7561462E-02  0.1257777E+00
          2   -1    0    0  501    0  0.00000000000E+00  0.00000000000E+00  0.46606744583E+03  0.46606744583E+03  0.00000000000E+00 0. -1.
         -2   -1    0    0    0  501 -0.00000000000E+00 -0.00000000000E+00 -0.60260726464E+02  0.60260726464E+02  0.00000000000E+00 0.  1.
          5    1    1    2  502    0 -0.27318214622E+02 -0.21884391760E+02  0.16347877173E+03  0.16723633774E+03  0.41800000000E+01 0. -1.
         -5    1    1    2    0  502 -0.30872256537E+02  0.71947855443E+02 -0.10722055149E+02  0.79132957692E+02  0.41800000000E+01 0.  1.
        -11    1    1    2    0    0  0.52699387108E+02  0.60159736464E+01  0.18029434203E+03  0.18793474162E+03  0.00000000000E+00 0.  1.
         11    1    1    2    0    0  0.54910840503E+01 -0.56079437329E+02  0.72755660749E+02  0.92024135238E+02  0.00000000000E+00 0. -1.
</event>
<event>
 7    1  0.1312490E-005  0.1224605E+03  0.7561462E-02  0.1239092E+00
         -2   -1    0    0    0  501 -0.00000000000E+00  0.00000000000E+00  0.37403503017E+02  0.37403503017E+02  0.00000000000E+00 0.  1.
          2   -1    0    0  501    0  0.00000000000E+00 -0.00000000000E+00 -0.52211499083E+03  0.52211499083E+03  0.00000000000E+00 0. -1.
         23    2    1    2    0    0 -0.65368248126E+02  0.56447460092E+01 -0.14854980698E+03  0.20498522067E+03  0.12508806704E+03 0.  0.
          5    1    3    3  502    0 -0.28997503458E+02 -0.55475689367E+02 -0.10242591605E+03  0.12011223084E+03  0.41800000000E+01 0.  1.
         -5    1    3    3    0  502 -0.36370744667E+02  0.61120435376E+02 -0.46123890933E+02  0.84872989831E+02  0.41800000000E+01 0.  1.
        -11    1    1    2    0    0  0.15779669553E+02  0.40335854050E+02 -0.16237900266E+03  0.16805629889E+03  0.00000000000E+00 0. -1.
         11    1    1    2    0    0  0.49588578573E+02 -0.45980600060E+02 -0.17378267817E+03  0.18647697429E+03  0.00000000000E+00 0.  1.
</event>
<event>
 7    1  0.1312490E-005  0.1005275E+03  0.7561462E-02  0.1279191E+00
         -1   -1    0    0    0  501 -0.00000000000E+00  0.00000000000E+00  0.85673672347E+02  0.85673672347E+02  0.00000000000E+00 0.  1.
          1   -1    0    0  501    0  0.00000000000E+00 -0.00000000000E+00 -0.17227473177E+03  0.17227473177E+03  0.00000000000E+00 0. -1.
         23    2    1    2    0    0 -0.21019528248E+02  0.40959537255E+02 -0.96682889202E+01  0.13364029869E+03  0.12508696720E+03 0.  0.
          5    1    3    3  502    0  0.42006534712E+02 -0.77995551870E+01  0.21454092615E+02  0.47990962791E+02  0.41800000000E+01 0. -1.
         -5    1    3    3    0  502 -0.63026062960E+02  0.48759092442E+02 -0.31122381535E+02  0.85649335902E+02  0.41800000000E+01 0. -1.
        -11    1    1    2    0    0 -0.17841183846E+02  0.46249616958E+01  0.82332857495E+01  0.20186260326E+02  0.00000000000E+00 0.  1.
         11    1    1    2    0    0  0.38860712094E+02 -0.45584498951E+02 -0.85166056256E+02  0.10412184510E+03  0.00000000000E+00 0. -1.
</event>
<event>
 7    1  0.1312490E-005  0.9175132E+02  0.7561462E-02  0.1298665E+00
          2   -1    0    0  501    0  0.00000000000E+00  0.00000000000E+00  0.66237070869E+02  0.66237070869E+02  0.00000000000E+00 0. -1.
         -2   -1    0    0    0  501 -0.00000000000E+00 -0.00000000000E+00 -0.20268967358E+03  0.20268967358E+03  0.00000000000E+00 0.  1.
         23    2    1    2    0    0 -0.31814029262E+01  0.36779250930E+02 -0.10444495565E+03  0.16708897683E+03  0.12508853982E+03 0.  0.
          5    1    3    3  502    0 -0.33991982893E+02  0.67014478287E+02 -0.97499491061E+02  0.12316662843E+03  0.41800000000E+01 0. -1.
         -5    1    3    3    0  502  0.30810579966E+02 -0.30235227357E+02 -0.69454645893E+01  0.43922348407E+02  0.41800000000E+01 0. -1.
        -11    1    1    2    0    0  0.12602552262E+02 -0.48342909706E+02 -0.55081412051E+02  0.74362780986E+02  0.00000000000E+00 0.  1.
         11    1    1    2    0    0 -0.94211493359E+01  0.11563658776E+02  0.23073764994E+02  0.27474986626E+02  0.00000000000E+00 0. -1.
</event>
<event>
 6    1  0.1312490E-005  0.1296293E+03  0.7561462E-02  0.1228007E+00
         -3   -1    0    0    0  501 -0.00000000000E+00  0.00000000000E+00  0.68474044127E+03  0.68474044127E+03  0.00000000000E+00 0.  1.
          3   -1    0    0  501    0  0.00000000000E+00 -0.00000000000E+00 -0.33132850501E+02  0.33132850501E+02  0.00000000000E+00 0. -1.
          5    1    1    2  502    0 -0.92354145192E+02  0.52819590418E+02  0.20681860862E+03  0.23261686641E+03  0.41800000000E+01 0. -1.
         -5    1    1    2    0  502  0.62141600198E+02 -0.47435576392E+02  0.31836003257E+03  0.32784492542E+03  0.41800000000E+01 0.  1.
        -11    1    1    2    0    0  0.43956011815E+02 -0.24981924850E+02  0.12330994967E+03  0.13327254493E+03  0.00000000000E+00 0.  1.
         11    1    1    2    0    0 -0.13743466821E+02  0.19597910824E+02  0.31189999057E+01  0.24138955017E+02  0.00000000000E+00 0. -1.
</event>
<event>
 7    1  0.1312490E-005  0.1154769E+03  0.7561462E-02  0.1250751E+00
         -4   -1    0    0    0  501 -0.00000000000E+00  0.00000000000E+00  0.18766473892E+03  0.18766473892E+03  0.00000000000E+00 0.  1.
          4   -1    0    0  501    0  0.00000000000E+00 -0.00000000000E+00 -0.15258775841E+03  0.15258775841E+03  0.00000000000E+00 0. -1.
         23    2    1    2    0    0 -0.25828823055E+02  0.10593520257E+03  0.92408220352E+02  0.18993303853E+03  0.12508351088E+03 0.  0.
          5    1    3    3  502    0 -0.92708563542E+01  0.14318246910E+02  0.95091262876E+02  0.96699439748E+02  0.41800000000E+01 0.  1.
         -5    1    3    3    0  502 -0.16557966701E+02  0.91616955657E+02 -0.26830425245E+01  0.93233598785E+02  0.41800000000E+01 0.  1.
        -11    1    1    2    0    0  0.38771658290E+02 -0.97020289647E+02 -0.15488105375E+02  0.10562224907E+03  0.00000000000E+00 0.  1.
         11    1    1    2    0    0 -0.12942835235E+02 -0.89149129211E+01 -0.41843134459E+02  0.44697209731E+02  0.00000000000E+00 0. -1.
</event>
<event>
 7    1  0.1312490E-005  0.1130770E+03  0.7561462E-02  0.1254976E+00
          1   -1    0    0  501    0  0.00000000000E+00  0.00000000000E+00  0.81759574723E+03  0.81759574723E+03  0.00000000000E+00 0. -1.
         -1   -1    0    0    0  501 -0.00000000000E+00 -0.00000000000E+00 -0.20503683822E+02  0.20503683822E+02  0.00000000000E+00 0.  1.
         23    2    1    2    0    0 -0.59224466419E+02  0.37934696652E+02  0.45758667578E+03  0.47956175825E+03  0.12508931008E+03 0.  0.
          5    1    3    3  502    0 -0.49898448276E+02  0.83196059496E+02  0.30833631202E+03  0.32326489628E+03  0.41800000000E+01 0. -1.
         -5    1    3    3    0  502 -0.93260181431E+01 -0.45261362844E+02  0.14925036376E+03  0.15629686198E+03  0.41800000000E+01 0. -1.
        -11    1    1    2    0    0  0.18315994932E+02  0.89852236961E+01  0.91336107959E+01  0.22352466561E+02  0.00000000000E+00 0.  1.
         11    1    1    2    0    0  0.40908471488E+02 -0.46919920348E+02  0.33037177683E+03  0.33618520624E+03  0.00000000000E+00 0. -1.
</event>
<event>
 7    1  0.1312490E-005  0.9737213E+02  0.7561462E-02  0.1285921E+00
          2   -1    0    0  501    0  0.00000000000E+00  0.00000000000E+00  0.28436440013E+03  0.28436440013E+03  0.00000000000E+00 0. -1.
         -2   -1    0    0    0  501 -0.00000000000E+00 -0.00000000000E+00 -0.60314436808E+02  0.60314436808E+02  0.00000000000E+00 0.  1.
         23    2    1    2    0    0  0.66367137082E+01  0.39992614261E+02  0.43376871090E+02  0.13845958522E+03  0.12508416619E+03 0.  0.
          5    1    3    3  502    0  0.48379035897E+02 -0.24603103502E+02  0.16495426285E+02  0.56880711182E+02  0.41800000000E+01 0.  1.
         -5    1    3    3    0  502 -0.41742322189E+02  0.64595717763E+02  0.26881444805E+02  0.81578874041E+02  0.41800000000E+01 0.  1.
        -11    1    1    2    0    0 -0.20136219964E+02  0.96588494368E+00 -0.31727879937E+00  0.20161868812E+02  0.00000000000E+00 0.  1.
         11    1    1    2    0    0  0.13499506256E+02 -0.40958499205E+02  0.18099037103E+03  0.18605738290E+03  0.00000000000E+00 0. -1.
</event>
<event>
 6    1  0.1312490E-005  0.3686286E+03  0.7561462E-02  0.1055219E+00
         -1   -1    0    0    0  501 -0.00000000000E+00  0.00000000000E+00  0.47835362778E+03  0.47835362778E+03  0.00000000000E+00 0.  1.
          1   -1    0    0  501    0  0.00000000000E+00 -0.00000000000E+00 -0.48046778397E+03  0.48046778397E+03  0.00000000000E+00 0. -1.
          5    1    1    2  502    0 -0.86872058103E+01  0.46880776802E+02  0.11569021906E+03  0.12519973628E+03  0.41800000000E+01 0. -1.
         -5    1    1    2    0  502 -0.56821375803E+02  0.31025142974E+03  0.17170268472E+03  0.35914328999E+03  0.41800000000E+01 0.  1.
        -11    1    1    2    0    0 -0.19207980099E+02 -0.13240391325E+03 -0.12723192192E+03  0.18462855873E+03  0.00000000000E+00 0.  1.
         11    1    1    2    0    0  0.84716561712E+02 -0.22472829329E+03 -0.16227513806E+03  0.28984982675E+03  0.00000000000E+00 0. -1.
</event>
<event>
 7    1  0.1312490E-005  0.1336761E+03  0.7561462E-02  0.1222101E+00
         -2   -1    0    0    0  501 -0.00000000000E+00  0.00000000000E+00  0.85127815410E+02  0.85127815410E+02  0.00000000000E+00 0. -1.
          2   -1    0    0  501    0  0.00000000000E+00 -0.00000000000E+00 -0.23462088737E+03  0.23462088737E+03  0.00000000000E+00 0.  1.
         23    2    1    2    0    0  0.64900467355E+01  0.87541606398E+02 -0.97720861319E+02  0.18138658502E+03  0.12508426332E+03 0.  0.
          5    1    3    3  502    0  0.14318146691E+02  0.11217584912E+03 -0.10482756040E+03  0.15425537356E+03  0.41800000000E+01 0. -1.
         -5    1    3    3    0  502 -0.78280999554E+01 -0.24634242726E+02  0.71066990828E+01  0.27131211463E+02  0.41800000000E+01 0. -1.
        -11    1    1    2    0    0  0.41792602649E+02 -0.23976356404E+02 -0.24144689899E+02  0.53892980553E+02  0.00000000000E+00 0.  1.
         11    1    1    2    0    0 -0.48282649385E+02 -0.63565249994E+02 -0.27627520742E+02  0.84469137208E+02  0.00000000000E+00 0. -1.
</event>
<event>
 7    1  0.1312490E-005  0.2233577E+03  0.7561462E-02  0.1131404E+00
          1   -1    0    0  501    0  0.00000000000E+00  0.00000000000E+00  0.60987710868E+03  0.60987710868E+03  0.00000000000E+00 0. -1.
         -1   -1    0    0    0  501 -0.00000000000E+00 -0.00000000000E+00 -0.90792144314E+02  0.90792144314E+02  0.00000000000E+00 0.  1.
         23    2    1    2    0    0  0.20308248582E+03 -0.30447125921E+02  0.26004310815E+03  0.35417255823E+03  0.12508500862E+03 0.  0.
          5    1    3    3  502    0  0.69022483650E+02 -0.72032453050E+02  0.10145870588E+03  0.14235209496E+03  0.41800000000E+01 0. -1.
         -5    1    3    3    0  502  0.13406000217E+03  0.41585327129E+02  0.15858440227E+03  0.21182046327E+03  0.41800000000E+01 0. -1.
        -11    1    1    2    0    0 -0.54689352153E+02  0.17782485660E+02  0.13108256343E+02  0.58982780704E+02  0.00000000000E+00 0.  1.
         11    1    1    2    0    0 -0.14839313367E+03  0.12664640261E+02  0.24593359987E+03  0.28751391406E+03  0.00000000000E+00 0. -1.
</event>
<event>
 7    1  0.1312490E-005  0.1518497E+03  0.7561462E-02  0.1198218E+00
          1   -1    0    0  501    0  0.00000000000E+00  0.00000000000E+00  0.49146112821E+02  0.49146112821E+02  0.00000000000E+00 0. -1.
         -1   -1    0    0    0  501 -0.00000000000E+00 -0.00000000000E+00 -0.69906725476E+03  0.69906725476E+03  0.00000000000E+00 0.  1.
         23    2    1    2    0    0  0.99275449176E+02 -0.61466837120E+02 -0.52872835667E+03  0.55573019272E+03  0.12509430474E+03 0.  0.
          5    1    3    3  502    0  0.36554883139E+02  0.33527142618E+02 -0.94483246968E+02  0.10679365679E+03  0.41800000000E+01 0.  1.
         -5    1    3    3    0  502  0.62720566037E+02 -0.94993979738E+02 -0.43424510970E+03  0.44893653592E+03  0.41800000000E+01 0.  1.
        -11    1    1    2    0    0 -0.26961274402E+02  0.62095585698E+02 -0.92628679309E+02  0.11472943960E+03  0.00000000000E+00 0.  1.
         11    1    1    2    0    0 -0.72314174774E+02 -0.62874857805E+00 -0.28564105964E+02  0.77753735264E+02  0.00000000000E+00 0. -1.
</event>
<event>
 7    1  0.1312490E-005  0.1410348E+03  0.7561462E-02  0.1211943E+00
          3   -1    0    0  501    0  0.00000000000E+00  0.00000000000E+00  0.20432269886E+03  0.20432269886E+03  0.00000000000E+00 0. -1.
         -3   -1    0    0    0  501 -0.00000000000E+00 -0.00000000000E+00 -0.12247492995E+03  0.12247492995E+03  0.00000000000E+00 0.  1.
         23    2    1    2    0    0  0.10975518920E+03 -0.12101795902E+02  0.12582564632E+02  0.16731366701E+03  0.12507152839E+03 0.  0.
          5    1    3    3  502    0 -0.36798418627E+00 -0.36801371388E+02 -0.28920061309E+02  0.46992751511E+02  0.41800000000E+01 0.  1.
         -5    1    3    3    0  502  0.11012317339E+03  0.24699575486E+02  0.41502625941E+02  0.12032091550E+03  0.41800000000E+01 0.  1.
        -11    1    1    2    0    0 -0.88105991969E+02  0.40016224000E+02  0.76586391515E+02  0.12340761471E+03  0.00000000000E+00 0. -1.
         11    1    1    2    0    0 -0.21649197233E+02 -0.27914428098E+02 -0.73211872295E+01  0.36076347090E+02  0.00000000000E+00 0.  1.
</event>
<event>
 7    1  0.1312490E-005  0.9620405E+02  0.7561462E-02  0.1288487E+00
         -1   -1    0    0    0  501 -0.00000000000E+00  0.00000000000E+00  0.18505869789E+02  0.18505869789E+02  0.00000000000E+00 0.  1.
          1   -1    0    0  501    0  0.00000000000E+00 -0.00000000000E+00 -0.82524489501E+03  0.82524489501E+03  0.00000000000E+00 0. -1.
         23    2    1    2    0    0  0.54993833159E+02  0.19279702834E+02 -0.48928246162E+03  0.50837090116E+03  0.12509043638E+03 0.  0.
          5    1    3    3  502    0  0.24985143581E+02  0.52395492387E+02 -0.94066444213E+02  0.11061425473E+03  0.41800000000E+01 0.  1.
         -5    1    3    3    0  502  0.30008689579E+02 -0.33115789552E+02 -0.39521601740E+03  0.39775664643E+03  0.41800000000E+01 0.  1.
        -11    1    1    2    0    0 -0.63152895072E+02  0.53501140725E+01 -0.29282018705E+03  0.29960069062E+03  0.00000000000E+00 0. -1.
         11    1    1    2    0    0  0.81590619122E+01 -0.24629816907E+02 -0.24636376553E+02  0.35779173017E+02  0.00000000000E+00 0.  1.
</event>
<event>
 7    1  0.1312490E-005  0.8606703E+02  0.7561462E-02  0.1312665E+00
         -1   -1    0    0    0  501 -0.00000000000E+00  0.00000000000E+00  0.12947732402E+03  0.12947732402E+03  0.00000000000E+00 0.  1.
          1   -1    0    0  501    0  0.00000000000E+00 -0.00000000000E+00 -0.10499561445E+03  0.10499561445E+03  0.00000000000E+00 0. -1.
         23    2    1    2    0    0  0.12009194149E+02 -0.71682070256E+01  0.53709816929E+02  0.13684752928E+03  0.12508756093E+03 0.  0.
          5    1    3    3  502    0  0.57365948057E+02  0.21652854376E+01  0.67155520070E+02  0.88447027838E+02  0.41800000000E+01 0.  1.
         -5    1    3    3    0  502 -0.45356753908E+02 -0.93334924632E+01 -0.13445703141E+02  0.48400501440E+02  0.41800000000E+01 0.  1.
        -11    1    1    2    0    0  0.23839576759E+02  0.18833030532E+02  0.19436889693E+02  0.36066620856E+02  0.00000000000E+00 0.  1.
         11    1    1    2    0    0 -0.35848770907E+02 -0.11664823506E+02 -0.48664997051E+02  0.61558788332E+02  0.00000000000E+00 0. -1.
</event>
<event>
 7    1  0.1312490E-005  0.1064501E+03  0.7561462E-02  0.1267289E+00
         -2   -1    0    0    0  501 -0.00000000000E+00  0.00000000000E+00  0.13808223845E+03  0.13808223845E+03  0.00000000000E+00 0.  1.
          2   -1    0    0  501    0  0.00000000000E+00 -0.00000000000E+00 -0.10016079085E+03  0.10016079085E+03  0.00000000000E+00 0. -1.
         23    2    1    2    0    0 -0.13147421277E+02  0.40488861118E+02  0.35657049609E+02  0.13686313464E+03  0.12509152599E+03 0.  0.
          5    1    3    3  502    0 -0.42230891112E+02  0.62752368323E+02  0.56509447864E+02  0.94509777231E+02  0.41800000000E+01 0.  1.
         -5    1    3    3    0  502  0.29083469836E+02 -0.22263507205E+02 -0.20852398255E+02  0.42353357408E+02  0.41800000000E+01 0.  1.
        -11    1    1    2    0    0 -0.38946650526E+02 -0.23497507207E+02  0.83564839353E+01  0.46247218899E+02  0.00000000000E+00 0.  1.
         11    1    1    2    0    0  0.52094071803E+02 -0.16991353911E+02 -0.60920859465E+01  0.55132675755E+02  0.00000000000E+00 0. -1.
</event>
<event>
 7    1  0.1312490E-005  0.9702006E+02  0.7561462E-02  0.1286690E+00
         -2   -1    0    0    0  501 -0.00000000000E+00  0.00000000000E+00  0.34887218945E+02  0.34887218945E+02  0.00000000000E+00 0. -1.
          2   -1    0    0  501    0  0.00000000000E+00 -0.00000000000E+00 -0.40954705262E+03  0.40954705262E+03  0.00000000000E+00 0.  1.
         23    2    1    2    0    0  0.20156490301E+02 -0.46762286351E+02 -0.23501991575E+03  0.27106273538E+03  0.12509056793E+03 0.  0.
          5    1    3    3  502    0  0.48116526203E+02 -0.68461922929E+02 -0.95408484690E+02  0.12697435306E+03  0.41800000000E+01 0. -1.
         -5    1    3    3    0  502 -0.27960035903E+02  0.21699636578E+02 -0.13961143106E+03  0.14408838231E+03  0.41800000000E+01 0. -1.
        -11    1    1    2    0    0 -0.28808670536E+02  0.18372469541E+01 -0.12027613176E+03  0.12369180589E+03  0.00000000000E+00 0.  1.
         11    1    1    2    0    0  0.86521802350E+01  0.44925039397E+02 -0.19363786171E+02  0.49679730299E+02  0.00000000000E+00 0. -1.
</event>
<event>
 7    1  0.1312490E-005  0.1022725E+03  0.7561462E-02  0.1275589E+00
         -1   -1    0    0    0  501 -0.00000000000E+00  0.00000000000E+00  0.50366559209E+02  0.50366559209E+02  0.00000000000E+00 0.  1.
          1   -1    0    0  501    0  0.00000000000E+00 -0.00000000000E+00 -0.24817613097E+03  0.24817613097E+03  0.00000000000E+00 0. -1.
         23    2    1    2    0    0  0.20757000825E+02  0.25257431973E+02 -0.10636440458E+03  0.16741653968E+03  0.12508445244E+03 0.  0.
          5    1    3    3  502    0  0.46488656029E+02 -0.29823449739E+02 -0.87620929334E+02  0.10366066251E+03  0.41800000000E+01 0.  1.
         -5    1    3    3    0  502 -0.25731655204E+02  0.55080881712E+02 -0.18743475247E+02  0.63755877173E+02  0.41800000000E+01 0.  1.
        -11    1    1    2    0    0 -0.26959369067E+01  0.29979908326E+02 -0.11352322312E+02  0.32170455405E+02  0.00000000000E+00 0.  1.
         11    1    1    2    0    0 -0.18061063918E+02 -0.55237340299E+02 -0.80092844869E+02  0.98955695098E+02  0.00000000000E+00 0. -1.
</event>
<event>
 7    1  0.1312490E-005  0.1536019E+03  0.7561462E-02  0.1196116E+00
         -2   -1    0    0    0  501 -0.00000000000E+00  0.00000000000E+00  0.49940725139E+02  0.49940725139E+02  0.00000000000E+00 0.  1.
          2   -1    0    0  501    0  0.00000000000E+00 -0.00000000000E+00 -0.73605073982E+03  0.73605073982E+03  0.00000000000E+00 0. -1.
         23    2    1    2    0    0  0.41115999650E+02 -0.13410503611E+03 -0.21292811321E+03  0.28400660216E+03  0.12508670007E+03 0.  0.
          5    1    3    3  502    0  0.16717900815E+02 -0.78923893000E+01  0.13726396604E+02  0.23402230241E+02  0.41800000000E+01 0. -1.
         -5    1    3    3    0  502  0.24398098836E+02 -0.12621264681E+03 -0.22665450981E+03  0.26060437192E+03  0.41800000000E+01 0. -1.
        -11    1    1    2    0    0 -0.62834306176E+02  0.11330097141E+03 -0.43187430958E+03  0.45088876614E+03  0.00000000000E+00 0. -1.
         11    1    1    2    0    0  0.21718306526E+02  0.20804064702E+02 -0.41307591893E+02  0.51096096665E+02  0.00000000000E+00 0.  1.
</event>
<event>
 7    1  0.1312490E-005  0.1609586E+03  0.7561462E-02  0.1187619E+00
         -2   -1    0    0    0  501 -0.00000000000E+00  0.00000000000E+00  0.67394708250E+02  0.67394708250E+02  0.00000000000E+00 0.  1.
          2   -1    0    0  501    0  0.00000000000E+00 -0.00000000000E+00 -0.41583773892E+03  0.41583773892E+03  0.00000000000E+00 0. -1.
         23    2    1    2    0    0 -0.15551630338E+02  0.12325771164E+03 -0.13994422498E+03  0.22509242733E+03  0.12509155868E+03 0.  0.
          5    1    3    3  502    0  0.42306553570E+02  0.98891509040E+02 -0.59590099382E+02  0.12303587842E+03  0.41800000000E+01 0.  1.
         -5    1    3    3    0  502 -0.57858183909E+02  0.24366202596E+02 -0.80354125600E+02  0.10205654891E+03  0.41800000000E+01 0.  1.
        -11    1    1    2    0    0 -0.34987288255E+02 -0.67996482946E+02 -0.11889014557E+03  0.14135946642E+03  0.00000000000E+00 0.  1.
         11    1    1    2    0    0  0.50538918593E+02 -0.55261228689E+02 -0.89608660120E+02  0.11678055342E+03  0.00000000000E+00 0. -1.
</event>
<event>
 7    1  0.1312490E-005  0.2030085E+03  0.7561462E-02  0.1147225E+00
         -1   -1    0    0    0  501 -0.00000000000E+00  0.00000000000E+00  0.66236158977E+03  0.66236158977E+03  0.00000000000E+00 0.  1.
          1   -1    0    0  501    0  0.00000000000E+00 -0.00000000000E+00 -0.64813732080E+02  0.64813732080E+02  0.00000000000E+00 0. -1.
         23    2    1    2    0    0 -0.16612078857E+03  0.52234777148E+02  0.35787472215E+03  0.41719039895E+03  0.12509565894E+03 0.  0.
          5    1    3    3  502    0 -0.10616211917E+03  0.92580682505E+02  0.21582047546E+03  0.25775478336E+03  0.41800000000E+01 0. -1.
         -5    1    3    3    0  502 -0.59958669400E+02 -0.40345905357E+02  0.14205424669E+03  0.15943561559E+03  0.41800000000E+01 0. -1.
        -11    1    1    2    0    0  0.17331286469E+03 -0.39006851933E+02  0.23422428635E+03  0.29397261757E+03  0.00000000000E+00 0.  1.
         11    1    1    2    0    0 -0.71920761183E+01 -0.13227925215E+02  0.54488491928E+01  0.16012305328E+02  0.00000000000E+00 0. -1.
</event>
<event>
 7    1  0.1312490E-005  0.1246362E+03  0.7561462E-02  0.1235639E+00
         -3   -1    0    0    0  501 -0.00000000000E+00  0.00000000000E+00  0.48971511335E+03  0.48971511335E+03  0.00000000000E+00 0.  1.
          3   -1    0    0  501    0  0.00000000000E+00 -0.00000000000E+00 -0.45705390381E+02  0.45705390381E+02  0.00000000000E+00 0. -1.
         23    2    1    2    0    0 -0.67253514539E+02 -0.41573234013E+02  0.36001814060E+03  0.38924562548E+03  0.12509087253E+03 0.  0.
          5    1    3    3  502    0 -0.24893092026E+02  0.36608896954E+02  0.51011060984E+02  0.67671841334E+02  0.41800000000E+01 0.  1.
         -5    1    3    3    0  502 -0.42360422513E+02 -0.78182130968E+02  0.30900707962E+03  0.32157378415E+03  0.41800000000E+01 0.  1.
        -11    1    1    2    0    0 -0.31350767507E+01  0.45196015378E+02  0.51419123767E+02  0.68530539187E+02  0.00000000000E+00 0.  1.
         11    1    1    2    0    0  0.70388591289E+02 -0.36227813645E+01  0.32572458596E+02  0.77644339056E+02  0.00000000000E+00 0. -1.
</event>
<event>
 7    1  0.1312490E-005  0.1472890E+03  0.7561462E-02  0.1203844E+00
         -1   -1    0    0    0  501 -0.00000000000E+00  0.00000000000E+00  0.92431373609E+02  0.92431373609E+02  0.00000000000E+00 0.  1.
          1   -1    0    0  501    0  0.00000000000E+00 -0.00000000000E+00 -0.26938427135E+03  0.26938427135E+03  0.00000000000E+00 0. -1.
         23    2    1    2    0    0  0.10650199572E+03 -0.16959017446E+02 -0.64989297949E+02  0.17748634134E+03  0.12509000419E+03 0.  0.
          5    1    3    3  502    0  0.10866217835E+03  0.24266687465E+02 -0.75616275172E+02  0.13465375819E+03  0.41800000000E+01 0.  1.
         -5    1    3    3    0  502 -0.21601826269E+01 -0.41225704912E+02  0.10626977223E+02  0.42832583150E+02  0.41800000000E+01 0.  1.
        -11    1    1    2    0    0 -0.20754581621E+02 -0.35517416171E+02 -0.12704868784E+02  0.43054072985E+02  0.00000000000E+00 0.  1.
         11    1    1    2    0    0 -0.85747414099E+02  0.52476433618E+02 -0.99258731010E+02  0.14127523064E+03  0.00000000000E+00 0. -1.
</event>
<event>
 7    1  0.1312490E-005  0.2658218E+03  0.7561462E-02  0.1103695E+00
         -2   -1    0    0    0  501 -0.00000000000E+00  0.00000000000E+00  0.57263512611E+02  0.57263512611E+02  0.00000000000E+00 0. -1.
          2   -1    0    0  501    0  0.00000000000E+00 -0.00000000000E+00 -0.16777475884E+04  0.16777475884E+04  0.00000000000E+00 0.  1.
         23    2    1    2    0    0  0.17498807551E+03  0.19514456569E+03 -0.47767867210E+03  0.55904176249E+03  0.12509416589E+03 0.  0.
          5    1    3    3  502    0  0.92395018409E+02  0.13120942180E+03 -0.39297750547E+03  0.42450152415E+03  0.41800000000E+01 0. -1.
         -5    1    3    3    0  502  0.82593057099E+02  0.63935143892E+02 -0.84701166627E+02  0.13454023834E+03  0.41800000000E+01 0. -1.
        -11    1    1    2    0    0 -0.10044745058E+03 -0.75668639783E+02 -0.70328108539E+03  0.71443664411E+03  0.00000000000E+00 0.  1.
         11    1    1    2    0    0 -0.74540624926E+02 -0.11947592591E+03 -0.43952431827E+03  0.46153269438E+03  0.00000000000E+00 0. -1.
</event>
<event>
 7    1  0.1312490E-005  0.1649565E+03  0.7561462E-02  0.1183212E+00
          1   -1    0    0  501    0  0.00000000000E+00  0.00000000000E+00  0.96945696680E+03  0.96945696680E+03  0.00000000000E+00 0. -1.
         -1   -1    0    0    0  501 -0.00000000000E+00 -0.00000000000E+00 -0.31142928610E+02  0.31142928610E+02  0.00000000000E+00 0.  1.
         23    2    1    2    0    0  0.41138289184E+02 -0.12470974684E+03  0.39555973117E+03  0.43515448631E+03  0.12508815387E+03 0.  0.
          5    1    3    3  502    0  0.65873513922E+02 -0.24252093608E+02  0.10217936458E+03  0.12403861829E+03  0.41800000000E+01 0. -1.
         -5    1    3    3    0  502 -0.24735224737E+02 -0.10045765323E+03  0.29338036659E+03  0.31111586802E+03  0.41800000000E+01 0. -1.
        -11    1    1    2    0    0 -0.61323442182E+02  0.51410615285E+02  0.32834604855E+03  0.33795671842E+03  0.00000000000E+00 0. -1.
         11    1    1    2    0    0  0.20185152998E+02  0.73299131554E+02  0.21440825847E+03  0.22748869068E+03  0.00000000000E+00 0.  1.
</event>
<event>
 7    1  0.1312490E-005  0.1172417E+03  0.7561462E-02  0.1247718E+00
         -1   -1    0    0    0  501 -0.00000000000E+00  0.00000000000E+00  0.13456021865E+03  0.13456021865E+03  0.00000000000E+00 0.  1.
          1   -1    0    0  501    0  0.00000000000E+00 -0.00000000000E+00 -0.21926758854E+03  0.21926758854E+03  0.00000000000E+00 0. -1.
         23    2    1    2    0    0 -0.54120839979E+02  0.11746792560E+02  0.79519720170E+02  0.15823496005E+03  0.12509142348E+03 0.  0.
          5    1    3    3  502    0  0.35480961471E+02 -0.16309948187E+02  0.78707980840E+01  0.40054149588E+02  0.41800000000E+01 0.  1.
         -5    1    3    3    0  502 -0.89601801450E+02  0.28056740747E+02  0.71648922086E+02  0.11818081046E+03  0.41800000000E+01 0.  1.
        -11    1    1    2    0    0  0.51593937892E+02 -0.44646140832E+02 -0.13606157112E+03  0.15221026068E+03  0.00000000000E+00 0.  1.
         11    1    1    2    0    0  0.25269020868E+01  0.32899348272E+02 -0.28165518937E+02  0.43382586459E+02  0.00000000000E+00 0. -1.
</event>
<event>
 7    1  0.1312490E-005  0.1384714E+03  0.7561462E-02  0.1215401E+00
         -1   -1    0    0    0  501 -0.00000000000E+00  0.00000000000E+00  0.71402356509E+03  0.71402356509E+03  0.00000000000E+00 0.  1.
          1   -1    0    0  501    0  0.00000000000E+00 -0.00000000000E+00 -0.49472706296E+02  0.49472706296E+02  0.00000000000E+00 0. -1.
         23    2    1    2    0    0  0.17553182241E+01 -0.11115247530E+03  0.56342905902E+03  0.58775677418E+03  0.12509103537E+03 0.  0.
          5    1    3    3  502    0 -0.54224795854E+02 -0.79668537129E+02  0.25389005127E+03  0.27159719223E+03  0.41800000000E+01 0.  1.
         -5    1    3    3    0  502  0.55980114078E+02 -0.31483938172E+02  0.30953900775E+03  0.31615958194E+03  0.41800000000E+01 0.  1.
        -11    1    1    2    0    0 -0.14297990328E+02  0.23024088753E+02 -0.13768729845E+02  0.30399327490E+02  0.00000000000E+00 0. -1.
         11    1    1    2    0    0  0.12542672104E+02  0.88128386548E+02  0.11489052962E+03  0.14534016972E+03  0.00000000000E+00 0.  1.
</event>
<event>
 7    1  0.1312490E-005  0.9378894E+02  0.7561462E-02  0.1293927E+00
         -1   -1    0    0    0  501 -0.00000000000E+00  0.00000000000E+00  0.27890910381E+03  0.27890910381E+03  0.00000000000E+00 0. -1.
          1   -1    0    0  501    0  0.00000000000E+00 -0.00000000000E+00 -0.40915388369E+02  0.40915388369E+02  0.00000000000E+00 0.  1.
         23    2    1    2    0    0  0.14816173184E+02  0.17939693369E+02  0.16182148241E+03  0.20586327122E+03  0.12510852362E+03 0.  0.
          5    1    3    3  502    0  0.25500163515E+02 -0.37867425834E+02  0.13560903361E+03  0.14314846375E+03  0.41800000000E+01 0. -1.
         -5    1    3    3    0  502 -0.10683990331E+02  0.55807119203E+02  0.26212448798E+02  0.62714807463E+02  0.41800000000E+01 0. -1.
        -11    1    1    2    0    0  0.23520073963E+02 -0.35506754372E+02  0.37696139061E+02  0.56876378096E+02  0.00000000000E+00 0. -1.
         11    1    1    2    0    0 -0.38336247147E+02  0.17567061003E+02  0.38476093972E+02  0.57084842865E+02  0.00000000000E+00 0.  1.
</event>
<event>
 7    1  0.1312490E-005  0.2583967E+03  0.7561462E-02  0.1108110E+00
         -2   -1    0    0    0  501 -0.00000000000E+00  0.00000000000E+00  0.68683890363E+02  0.68683890363E+02  0.00000000000E+00 0.  1.
          2   -1    0    0  501    0  0.00000000000E+00 -0.00000000000E+00 -0.11228611972E+04  0.11228611972E+04  0.00000000000E+00 0. -1.
         23    2    1    2    0    0 -0.21218722037E+03 -0.14186492864E+03 -0.54251210731E+03  0.61246750228E+03  0.12509188743E+03 0.  0.
          5    1    3    3  502    0 -0.85108623953E+02 -0.65518560212E+02 -0.36836274977E+03  0.38372483295E+03  0.41800000000E+01 0. -1.
         -5    1    3    3    0  502 -0.12707859642E+03 -0.76346368430E+02 -0.17414935754E+03  0.22874266933E+03  0.41800000000E+01 0. -1.
        -11    1    1    2    0    0  0.13992621014E+03  0.61272407923E+02 -0.37372116773E+03  0.40373402565E+03  0.00000000000E+00 0. -1.
         11    1    1    2    0    0  0.72261010228E+02  0.80592520720E+02 -0.13794403176E+03  0.17534355960E+03  0.00000000000E+00 0.  1.
</event>
<event>
 7    1  0.1312490E-005  0.1205618E+03  0.7561462E-02  0.1242173E+00
          2   -1    0    0  501    0  0.00000000000E+00  0.00000000000E+00  0.51949628409E+02  0.51949628409E+02  0.00000000000E+00 0. -1.
         -2   -1    0    0    0  501 -0.00000000000E+00 -0.00000000000E+00 -0.42688749210E+03  0.42688749210E+03  0.00000000000E+00 0.  1.
         23    2    1    2    0    0 -0.13686465762E+02  0.72080898238E+02 -0.31636744656E+03  0.34802062811E+03  0.12508805342E+03 0.  0.
          5    1    3    3  502    0 -0.67455893925E+02  0.21534105250E+02 -0.16330681074E+03  0.17804662914E+03  0.41800000000E+01 0.  1.
         -5    1    3    3    0  502  0.53769428164E+02  0.50546792988E+02 -0.15306063583E+03  0.16997399897E+03  0.41800000000E+01 0.  1.
        -11    1    1    2    0    0  0.35947913512E+02 -0.23811185569E+02  0.97953292029E+01  0.44217344088E+02  0.00000000000E+00 0. -1.
         11    1    1    2    0    0 -0.22261447750E+02 -0.48269712669E+02 -0.68365746327E+02  0.86599148309E+02  0.00000000000E+00 0.  1.
</event>
<event>
 7    1  0.1312490E-005  0.1600851E+03  0.7561462E-02  0.1188601E+00
          2   -1    0    0  501    0  0.00000000000E+00  0.00000000000E+00  0.51993772678E+02  0.51993772678E+02  0.00000000000E+00 0. -1.
         -2   -1    0    0    0  501 -0.00000000000E+00 -0.00000000000E+00 -0.68407911757E+03  0.68407911757E+03  0.00000000000E+00 0.  1.
         23    2    1    2    0    0 -0.13364550222E+03 -0.21346310744E+02 -0.47037798603E+03  0.50519310586E+03  0.12509132352E+03 0.  0.
          5    1    3    3  502    0 -0.15759521407E+03 -0.24983486693E+02 -0.40191843997E+03  0.43245384828E+03  0.41800000000E+01 0.  1.
         -5    1    3    3    0  502  0.23949711846E+02  0.36371759498E+01 -0.68459546064E+02  0.72739257583E+02  0.41800000000E+01 0.  1.
        -11    1    1    2    0    0  0.10387759905E+03  0.11014321251E+02 -0.16886883381E+03  0.19856624560E+03  0.00000000000E+00 0.  1.
         11    1    1    2    0    0  0.29767903167E+02  0.10331989493E+02  0.71614749489E+01  0.32313538792E+02  0.00000000000E+00 0. -1.
</event>
<event>
 7    1  0.1312490E-005  0.1241612E+03  0.7561462E-02  0.1236386E+00
          1   -1    0    0  501    0  0.00000000000E+00  0.00000000000E+00  0.11391451965E+04  0.11391451965E+04  0.00000000000E+00 0. -1.
         -1   -1    0    0    0  501 -0.00000000000E+00 -0.00000000000E+00 -0.19297246965E+02  0.19297246965E+02  0.00000000000E+00 0.  1.
         23    2    1    2    0    0  0.89334287984E+02  0.58685950888E+02  0.57906348890E+03  0.60198568849E+03  0.12509032386E+03 0.  0.
          5    1    3    3  502    0  0.30910367769E+02 -0.81596611731E+01  0.24891438392E+02  0.40731891821E+02  0.41800000000E+01 0. -1.
         -5    1    3    3    0  502  0.58423920215E+02  0.66845612061E+02  0.55417205051E+03  0.56125379667E+03  0.41800000000E+01 0. -1.
        -11    1    1    2    0    0 -0.58293955917E+02  0.27636612439E+01  0.18202644273E+03  0.19115294655E+03  0.00000000000E+00 0.  1.
         11    1    1    2    0    0 -0.31040332067E+02 -0.61449612132E+02  0.35875801792E+03  0.36530380845E+03  0.00000000000E+00 0. -1.
</event>
<event>
 7    1  0.1312490E-005  0.1040715E+03  0.7561462E-02  0.1271960E+00
          3   -1    0    0  501    0  0.00000000000E+00  0.00000000000E+00  0.46886306295E+02  0.46886306295E+02  0.00000000000E+00 0. -1.
         -3   -1    0    0    0  501 -0.00000000000E+00 -0.00000000000E+00 -0.28812240824E+03  0.28812240824E+03  0.00000000000E+00 0.  1.
         23    2    1    2    0    0 -0.34835775768E+02 -0.19240791103E+02 -0.15847310158E+03  0.20578155649E+03  0.12509430743E+03 0.  0.
          5    1    3    3  502    0 -0.61843785269E+02  0.19122976526E+02 -0.35171428810E+02  0.73789184927E+02  0.41800000000E+01 0. -1.
         -5    1    3    3    0  502  0.27008009501E+02 -0.38363767629E+02 -0.12330167277E+03  0.13199237156E+03  0.41800000000E+01 0. -1.
        -11    1    1    2    0    0 -0.21785275729E+02 -0.18120078834E+02 -0.40061125348E+02  0.49069636841E+02  0.00000000000E+00 0.  1.
         11    1    1    2    0    0  0.56621051497E+02  0.37360869937E+02 -0.42701875019E+02  0.80157521202E+02  0.00000000000E+00 0. -1.
</event>
<event>
 7    1  0.1312490E-005  0.9775632E+02  0.7561462E-02  0.1285086E+00
          1   -1    0    0  501    0  0.00000000000E+00  0.00000000000E+00  0.39401636044E+02  0.39401636044E+02  0.00000000000E+00 0. -1.
         -1   -1    0    0    0  501 -0.00000000000E+00 -0.00000000000E+00 -0.37536865876E+03  0.37536865876E+03  0.00000000000E+00 0.  1.
         23    2    1    2    0    0  0.55937922173E+02  0.11750365529E+02 -0.16790371626E+03  0.21703989156E+03  0.12509010500E+03 0.  0.
          5    1    3    3  502    0  0.35737086578E+02 -0.29193396577E+02 -0.16468631609E+03  0.17108024102E+03  0.41800000000E+01 0.  1.
         -5    1    3    3    0  502  0.20200835595E+02  0.40943762105E+02 -0.32174001676E+01  0.45959650542E+02  0.41800000000E+01 0.  1.
        -11    1    1    2    0    0  0.23993335298E+01 -0.38908502029E+02 -0.51570337302E+02  0.64646175610E+02  0.00000000000E+00 0. -1.
         11    1    1    2    0    0 -0.58337255703E+02  0.27158136501E+02 -0.11649296915E+03  0.13308422763E+03  0.00000000000E+00 0.  1.
</event>
<event>
 7    1  0.1312490E-005  0.8502330E+02  0.7561462E-02  0.1315372E+00
         -1   -1    0    0    0  501 -0.00000000000E+00  0.00000000000E+00  0.56868364634E+02  0.56868364634E+02  0.00000000000E+00 0.  1.
          1   -1    0    0  501    0  0.00000000000E+00 -0.00000000000E+00 -0.20397474125E+03  0.20397474125E+03  0.00000000000E+00 0. -1.
         23    2    1    2    0    0  0.10318553625E+02  0.11841625739E+02 -0.73456064759E+02  0.14591324627E+03  0.12509270697E+03 0.  0.
          5    1    3    3  502    0  0.50142368960E+02  0.19675447589E+02 -0.87437835320E+02  0.10278242967E+03  0.41800000000E+01 0. -1.
         -5    1    3    3    0  502 -0.39823815334E+02 -0.78338218506E+01  0.13981770561E+02  0.43130816600E+02  0.41800000000E+01 0. -1.
        -11    1    1    2    0    0 -0.41992225184E+02 -0.19550689883E+01 -0.69860708492E+02  0.81533354289E+02  0.00000000000E+00 0. -1.
         11    1    1    2    0    0  0.31673671558E+02 -0.98865567502E+01 -0.37896033637E+01  0.33396505326E+02  0.00000000000E+00 0.  1.
</event>
<event>
 6    1  0.1312490E-005  0.1347008E+03  0.7561462E-02  0.1220643E+00
          1   -1    0    0  501    0  0.00000000000E+00  0.00000000000E+00  0.12833580074E+03  0.12833580074E+03  0.00000000000E+00 0. -1.
         -1   -1    0    0    0  501 -0.00000000000E+00 -0.00000000000E+00 -0.26262979736E+03  0.26262979736E+03  0.00000000000E+00 0.  1.
          5    1    1    2  502    0 -0.48777579769E+02  0.18535136755E+01 -0.76178821485E+02  0.90572473985E+02  0.41800000000E+01 0. -1.
         -5    1    1    2    0  502  0.13312702067E+03 -0.15310283296E+02 -0.10424419188E+03  0.16982794926E+03  0.41800000000E+01 0.  1.
        -11    1    1    2    0    0 -0.33795745733E+02 -0.83307644603E+00 -0.25066515023E+02  0.42085349250E+02  0.00000000000E+00 0.  1.
         11    1    1    2    0    0 -0.50553695169E+02  0.14289846067E+02  0.71195531768E+02  0.88479825608E+02  0.00000000000E+00 0. -1.
</event>
<event>
 7    1  0.1312490E-005  0.2477072E+03  0.7561462E-02  0.1114762E+00
         -2   -1    0    0    0  501 -0.00000000000E+00  0.00000000000E+00  0.44488468343E+02  0.44488468343E+02  0.00000000000E+00 0.  1.
          2   -1    0    0  501    0  0.00000000000E+00 -0.00000000000E+00 -0.15253222399E+04  0.15253222399E+04  0.00000000000E+00 0. -1.
         23    2    1    2    0    0  0.23014908390E+03 -0.47145466442E+02 -0.83179699230E+03  0.87334153901E+03  0.12509161258E+03 0.  0.
          5    1    3    3  502    0  0.21038511013E+03 -0.23387490827E+02 -0.54221876853E+03  0.58208894049E+03  0.41800000000E+01 0. -1.
         -5    1    3    3    0  502  0.19763973762E+02 -0.23757975615E+02 -0.28957822376E+03  0.29125259852E+03  0.41800000000E+01 0. -1.
        -11    1    1    2    0    0 -0.50209289276E+02  0.52290639884E+02 -0.19620461174E+03  0.20916867217E+03  0.00000000000E+00 0. -1.
         11    1    1    2    0    0 -0.17993979462E+03 -0.51451734420E+01 -0.45283216749E+03  0.48730049704E+03  0.00000000000E+00 0.  1.
</event>
<event>
 7    1  0.1312490E-005  0.1126486E+03  0.7561462E-02  0.1255742E+00
          1   -1    0    0  501    0  0.00000000000E+00  0.00000000000E+00  0.20627047249E+03  0.20627047249E+03  0.00000000000E+00 0. -1.
         -1   -1    0    0    0  501 -0.00000000000E+00 -0.00000000000E+00 -0.62145786309E+02  0.62145786309E+02  0.00000000000E+00 0.  1.
         23    2    1    2    0    0  0.42147565613E+02  0.12018465734E+02  0.89219747932E+02  0.15977395404E+03  0.12508673856E+03 0.  0.
          5    1    3    3  502    0  0.23530024560E+01  0.65349051463E+02  0.38462765085E+02  0.75979548865E+02  0.41800000000E+01 0.  1.
         -5    1    3    3    0  502  0.39794563157E+02 -0.53330585729E+02  0.50756982846E+02  0.83794405176E+02  0.41800000000E+01 0.  1.
        -11    1    1    2    0    0 -0.33561093003E+02 -0.46622900026E+02  0.39989756284E+02  0.69994445337E+02  0.00000000000E+00 0. -1.
         11    1    1    2    0    0 -0.85864726097E+01  0.34604434292E+02  0.14915181961E+02  0.38647859417E+02  0.00000000000E+00 0.  1.
</event>
<event>
 7    1  0.1312490E-005  0.1145335E+03  0.7561462E-02  0.1252398E+00
         -3   -1    0    0    0  501 -0.00000000000E+00  0.00000000000E+00  0.78961907765E+03  0.78961907765E+03  0.00000000000E+00 0.  1.
          3   -1    0    0  501    0  0.00000000000E+00 -0.00000000000E+00 -0.24717405288E+02  0.24717405288E+02  0.00000000000E+00 0. -1.
         23    2    1    2    0    0  0.14656325362E+01 -0.83075075155E+02  0.47912113631E+03  0.50210329622E+03  0.12508813142E+03 0.  0.
          5    1    3    3  502    0  0.23792424954E+02 -0.95134363552E+02  0.45919951181E+03  0.46957245517E+03  0.41800000000E+01 0. -1.
         -5    1    3    3    0  502 -0.22326792418E+02  0.12059288397E+02  0.19921624509E+02  0.32530841049E+02  0.41800000000E+01 0. -1.
        -11    1    1    2    0    0 -0.23216503514E+02  0.44773226654E+01  0.11902314299E+02  0.26471069856E+02  0.00000000000E+00 0. -1.
         11    1    1    2    0    0  0.21750870977E+02  0.78597752490E+02  0.27387822175E+03  0.28576211686E+03  0.00000000000E+00 0.  1.
</event>
<event>
 7    1  0.1312490E-005  0.1106695E+03  0.7561462E-02  0.1259335E+00
         -1   -1    0    0    0  501 -0.00000000000E+00  0.00000000000E+00  0.29144431986E+03  0.29144431986E+03  0.00000000000E+00 0.  1.
          1   -1    0    0  501    0  0.00000000000E+00 -0.00000000000E+00 -0.59749334499E+02  0.59749334499E+02  0.00000000000E+00 0. -1.
         23    2    1    2    0    0 -0.74180699039E+02 -0.47275598361E+01  0.14890472712E+03  0.20819396380E+03  0.12508790057E+03 0.  0.
          5    1    3    3  502    0  0.13016948533E+02  0.26691766472E+02 -0.30601225450E+01  0.30145117291E+02  0.41800000000E+01 0.  1.
         -5    1    3    3    0  502 -0.87197647572E+02 -0.31419326308E+02  0.15196484967E+03  0.17804884651E+03  0.41800000000E+01 0.  1.
        -11    1    1    2    0    0  0.50128518891E+02  0.34084136406E+02  0.10736054894E+02  0.61561835868E+02  0.00000000000E+00 0. -1.
         11    1    1    2    0    0  0.24052180148E+02 -0.29356576569E+02  0.72054203346E+02  0.81437854697E+02  0.00000000000E+00 0.  1.
</event>
<event>
 7    1  0.1312490E-005  0.1031115E+03  0.7561462E-02  0.1273886E+00
          1   -1    0    0  501    0  0.00000000000E+00  0.00000000000E+00  0.19399334869E+03  0.19399334869E+03  0.00000000000E+00 0. -1.
         -1   -1    0    0    0  501 -0.00000000000E+00 -0.00000000000E+00 -0.75108444028E+02  0.75108444028E+02  0.00000000000E+00 0.  1.
         23    2    1    2    0    0 -0.52170718383E+02  0.18938826984E+01  0.53278090879E+02  0.14564098209E+03  0.12508944819E+03 0.  0.
          5    1    3    3  502    0 -0.66881544917E+02  0.31574004541E+02  0.75311399193E+02  0.10563776816E+03  0.41800000000E+01 0.  1.
         -5    1    3    3    0  502  0.14710826534E+02 -0.29680121842E+02 -0.22033308313E+02  0.40003213935E+02  0.41800000000E+01 0.  1.
        -11    1    1    2    0    0  0.67152621217E+02 -0.24630969644E+02  0.27513882056E+02  0.76636629021E+02  0.00000000000E+00 0.  1.
         11    1    1    2    0    0 -0.14981902834E+02  0.22737086945E+02  0.38092931724E+02  0.46824181601E+02  0.00000000000E+00 0. -1.
</event>
<event>
 7    1  0.1312490E-005  0.1043184E+03  0.7561462E-02  0.1271468E+00
          1   -1    0    0  501    0  0.00000000000E+00  0.00000000000E+00  0.16944621078E+03  0.16944621078E+03  0.00000000000E+00 0. -1.
         -1   -1    0    0    0  501 -0.00000000000E+00 -0.00000000000E+00 -0.70707274968E+02  0.70707274968E+02  0.00000000000E+00 0.  1.
         23    2    1    2    0    0 -0.37346026411E+01  0.95308569263E+01  0.46790866088E+02  0.13394798082E+03  0.12509153419E+03 0.  0.
          5    1    3    3  502    0  0.57875393208E+02  0.22667136876E+02  0.20849562879E+02  0.65692746215E+02  0.41800000000E+01 0. -1.
         -5    1    3    3    0  502 -0.61609995849E+02 -0.13136279950E+02  0.25941303210E+02  0.68255234610E+02  0.41800000000E+01 0. -1.
        -11    1    1    2    0    0  0.35361692942E+02 -0.29288412527E+02  0.49082981000E+01  0.46177395187E+02  0.00000000000E+00 0.  1.
         11    1    1    2    0    0 -0.31627090301E+02  0.19757555601E+02  0.47039771628E+02  0.60028109740E+02  0.00000000000E+00 0. -1.
</event>
<event>
 7    1  0.1312490E-005  0.6711886E+02  0.7561462E-02  0.1370174E+00
         -1   -1    0    0    0  501 -0.00000000000E+00  0.00000000000E+00  0.33289585877E+03  0.33289585877E+03  0.00000000000E+00 0.  1.
          1   -1    0    0  501    0  0.00000000000E+00 -0.00000000000E+00 -0.40558985424E+02  0.40558985424E+02  0.00000000000E+00 0. -1.
         23    2    1    2    0    0  0.37224228718E+02  0.10809136688E+02  0.18127046252E+03  0.22362649684E+03  0.12508936353E+03 0.  0.
          5    1    3    3  502    0  0.42674337539E+02 -0.71595041318E+00  0.19776683545E+03  0.20236305313E+03  0.41800000000E+01 0.  1.
         -5    1    3    3    0  502 -0.54501088211E+01  0.11525087102E+02 -0.16496372925E+02  0.21263443713E+02  0.41800000000E+01 0.  1.
        -11    1    1    2    0    0 -0.90576196151E+01  0.28314845248E+02  0.94159987192E+02  0.98741450883E+02  0.00000000000E+00 0.  1.
         11    1    1    2    0    0 -0.28166609103E+02 -0.39123981936E+02  0.16906423634E+02  0.51086896470E+02  0.00000000000E+00 0. -1.
</event>
<event>
 7    1  0.1312490E-005  0.1042961E+03  0.7561462E-02  0.1271513E+00
          2   -1    0    0  501    0  0.00000000000E+00  0.00000000000E+00  0.30398099769E+03  0.30398099769E+03  0.00000000000E+00 0. -1.
         -2   -1    0    0    0  501 -0.00000000000E+00 -0.00000000000E+00 -0.39374056445E+02  0.39374056445E+02  0.00000000000E+00 0.  1.
         23    2    1    2    0    0  0.34890462164E+01 -0.15808998363E+02  0.15065787082E+03  0.19648771522E+03  0.12509008882E+03 0.  0.
          5    1    3    3  502    0 -0.19813213420E+02 -0.66852296887E+02  0.84969105407E+02  0.10999551945E+03  0.41800000000E+01 0.  1.
         -5    1    3    3    0  502  0.23302259636E+02  0.51043298524E+02  0.65688765409E+02  0.86492195771E+02  0.41800000000E+01 0.  1.
        -11    1    1    2    0    0 -0.17983374894E+02  0.45778379336E+02  0.98647334773E+02  0.11022866435E+03  0.00000000000E+00 0.  1.
         11    1    1    2    0    0  0.14494328678E+02 -0.29969380973E+02  0.15301735658E+02  0.36638674565E+02  0.00000000000E+00 0. -1.
</event>
<event>
 7    1  0.1312490E-005  0.1283149E+03  0.7561462E-02  0.1229978E+00
          1   -1    0    0  501    0  0.00000000000E+00  0.00000000000E+00  0.55271225987E+03  0.55271225987E+03  0.00000000000E+00 0. -1.
         -1   -1    0    0    0  501 -0.00000000000E+00 -0.00000000000E+00 -0.47134364510E+02  0.47134364510E+02  0.00000000000E+00 0.  1.
         23    2    1    2    0    0 -0.10490802224E+03  0.23175994169E+02  0.17699006197E+03  0.24190362006E+03  0.12509620108E+03 0.  0.
          5    1    3    3  502    0 -0.11432692312E+02 -0.22249012309E+02 -0.10536566767E+02  0.27463004960E+02  0.41800000000E+01 0. -1.
         -5    1    3    3    0  502 -0.93475329929E+02  0.45425006478E+02  0.18752662874E+03  0.21444061510E+03  0.41800000000E+01 0. -1.
        -11    1    1    2    0    0  0.34645617061E+02 -0.42068236980E+02  0.66684871055E+02  0.86121584820E+02  0.00000000000E+00 0.  1.
         11    1    1    2    0    0  0.70262405179E+02  0.18892242811E+02  0.26190296233E+03  0.27182141950E+03  0.00000000000E+00 0. -1.
</event>
<event>
 7    1  0.1312490E-005  0.3378516E+03  0.7561462E-02  0.1067715E+00
          2   -1    0    0  501    0  0.00000000000E+00  0.00000000000E+00  0.25731210974E+03  0.25731210974E+03  0.00000000000E+00 0. -1.
         -2   -1    0    0    0  501 -0.00000000000E+00 -0.00000000000E+00 -0.48403797718E+03  0.48403797718E+03  0.00000000000E+00 0.  1.
         23    2    1    2    0    0  0.26464391496E+02 -0.32165485417E+03 -0.21033294691E+03  0.40503115743E+03  0.12509228876E+03 0.  0.
          5    1    3    3  502    0 -0.28904489067E+02 -0.26559337170E+03 -0.15990137322E+03  0.31138598257E+03  0.41800000000E+01 0. -1.
         -5    1    3    3    0  502  0.55368880563E+02 -0.56061482468E+02 -0.50431573688E+02  0.93645174868E+02  0.41800000000E+01 0. -1.
        -11    1    1    2    0    0  0.21996621688E+02  0.13392734862E+03 -0.38768994518E+02  0.14115034895E+03  0.00000000000E+00 0.  1.
         11    1    1    2    0    0 -0.48461013185E+02  0.18772750555E+03  0.22376073980E+02  0.19516858053E+03  0.00000000000E+00 0. -1.
</event>
<event>
 7    1  0.1312490E-005  0.9375069E+02  0.7561462E-02  0.1294015E+00
         -1   -1    0    0    0  501 -0.00000000000E+00  0.00000000000E+00  0.31015508642E+02  0.31015508642E+02  0.00000000000E+00 0.  1.
          1   -1    0    0  501    0  0.00000000000E+00 -0.00000000000E+00 -0.43356274937E+03  0.43356274937E+03  0.00000000000E+00 0. -1.
         23    2    1    2    0    0 -0.36102220590E+02  0.28360515930E+01 -0.20023726687E+03  0.23886062035E+03  0.12509204367E+03 0.  0.
          5    1    3    3  502    0 -0.10320822531E+02 -0.52282388496E+02 -0.38136285875E+02  0.65664421302E+02  0.41800000000E+01 0. -1.
         -5    1    3    3    0  502 -0.25781398058E+02  0.55118440089E+02 -0.16210098100E+03  0.17319619905E+03  0.41800000000E+01 0. -1.
        -11    1    1    2    0    0 -0.17320174900E+01  0.25640896131E+02 -0.98575002357E+01  0.27525002268E+02  0.00000000000E+00 0.  1.
         11    1    1    2    0    0  0.37834238080E+02 -0.28476947724E+02 -0.19245247362E+03  0.19819263540E+03  0.00000000000E+00 0. -1.
</event>
<event>
 7    1  0.1312490E-005  0.1203275E+03  0.7561462E-02  0.1242558E+00
          2   -1    0    0  501    0  0.00000000000E+00  0.00000000000E+00  0.88352063159E+03  0.88352063159E+03  0.00000000000E+00 0.  1.
         -2   -1    0    0    0  501 -0.00000000000E+00 -0.00000000000E+00 -0.22015833075E+02  0.22015833075E+02  0.00000000000E+00 0. -1.
         23    2    1    2    0    0 -0.56638341942E+02  0.51804143899E+02  0.38276710380E+03  0.40993649196E+03  0.12508277494E+03 0.  0.
          5    1    3    3  502    0  0.14221238046E+02 -0.19077025925E+02  0.19996922769E+03  0.20142328801E+03  0.41800000000E+01 0. -1.
         -5    1    3    3    0  502 -0.70859579989E+02  0.70881169825E+02  0.18279787611E+03  0.20851320395E+03  0.41800000000E+01 0. -1.
        -11    1    1    2    0    0 -0.23677314095E+02 -0.11527343814E+02  0.40945488114E+02  0.48682931866E+02  0.00000000000E+00 0. -1.
         11    1    1    2    0    0  0.80315656038E+02 -0.40276800085E+02  0.43779220661E+03  0.44691704084E+03  0.00000000000E+00 0.  1.
</event>
<event>
 6    1  0.1312490E-005  0.2910424E+03  0.7561462E-02  0.1089806E+00
          2   -1    0    0  501    0  0.00000000000E+00  0.00000000000E+00  0.63616391971E+03  0.63616391971E+03  0.00000000000E+00 0. -1.
         -2   -1    0    0    0  501 -0.00000000000E+00 -0.00000000000E+00 -0.14475663961E+03  0.14475663961E+03  0.00000000000E+00 0.  1.
          5    1    1    2  502    0  0.27743358337E+02  0.25905749847E+03  0.27017152666E+03  0.37535397648E+03  0.41800000000E+01 0. -1.
         -5    1    1    2    0  502  0.24857457580E+02 -0.19716714758E+03  0.69900188567E+02  0.21070426204E+03  0.41800000000E+01 0.  1.
        -11    1    1    2    0    0 -0.61316540238E+02 -0.10977977392E+01  0.74100365986E+02  0.96186212661E+02  0.00000000000E+00 0.  1.
         11    1    1    2    0    0  0.87157243213E+01 -0.60792553158E+02  0.77235198882E+02  0.98676108133E+02  0.00000000000E+00 0. -1.
</event>
<event>
 7    1  0.1312490E-005  0.1335848E+03  0.7561462E-02  0.1222231E+00
         -2   -1    0    0    0  501 -0.00000000000E+00  0.00000000000E+00  0.37847897031E+03  0.37847897031E+03  0.00000000000E+00 0. -1.
          2   -1    0    0  501    0  0.00000000000E+00 -0.00000000000E+00 -0.74987169768E+02  0.74987169768E+02  0.00000000000E+00 0.  1.
         23    2    1    2    0    0 -0.94383160024E+02  0.16199639686E+02  0.27761829803E+03  0.31920253458E+03  0.12509088481E+03 0.  0.
          5    1    3    3  502    0 -0.58213307258E+02  0.70854002801E+02  0.15712637841E+03  0.18197596008E+03  0.41800000000E+01 0.  1.
         -5    1    3    3    0  502 -0.36169852766E+02 -0.54654363115E+02  0.12049191962E+03  0.13722657451E+03  0.41800000000E+01 0.  1.
        -11    1    1    2    0    0  0.31893181704E+02  0.19842767377E+02  0.45982450706E+02  0.59374205084E+02  0.00000000000E+00 0. -1.
         11    1    1    2    0    0  0.62489978320E+02 -0.36042407063E+02 -0.20108948188E+02  0.74889400415E+02  0.00000000000E+00 0.  1.
</event>
<event>
 7    1  0.1312490E-005  0.2133365E+03  0.7561462E-02  0.1138951E+00
          1   -1    0    0  501    0  0.00000000000E+00  0.00000000000E+00  0.90306584958E+02  0.90306584958E+02  0.00000000000E+00 0. -1.
         -1   -1    0    0    0  501 -0.00000000000E+00 -0.00000000000E+00 -0.55349600574E+03  0.55349600574E+03  0.00000000000E+00 0.  1.
         23    2    1    2    0    0 -0.16618383907E+03  0.85531973752E+02 -0.31096557389E+03  0.38377065506E+03  0.12509013006E+03 0.  0.
          5    1    3    3  502    0 -0.42124660929E+02  0.86370423164E+02 -0.98319053071E+02  0.13754434068E+03  0.41800000000E+01 0. -1.
         -5    1    3    3    0  502 -0.12405917814E+03 -0.83844941179E+00 -0.21264652082E+03  0.24622631438E+03  0.41800000000E+01 0. -1.
        -11    1    1    2    0    0  0.11941043998E+03 -0.13091950673E+02 -0.11435975323E+03  0.16585658114E+03  0.00000000000E+00 0.  1.
         11    1    1    2    0    0  0.46773399085E+02 -0.72440023079E+02 -0.37864093661E+02  0.94175354496E+02  0.00000000000E+00 0. -1.
</event>
<event>
 7    1  0.1312490E-005  0.2130552E+03  0.7561462E-02  0.1139169E+00
          2   -1    0    0  501    0  0.00000000000E+00  0.00000000000E+00  0.43890238899E+03  0.43890238899E+03  0.00000000000E+00 0.  1.
         -2   -1    0    0    0  501 -0.00000000000E+00 -0.00000000000E+00 -0.12297630387E+03  0.12297630387E+03  0.00000000000E+00 0. -1.
         23    2    1    2    0    0 -0.15648947108E+03  0.10156449179E+03  0.60732810618E+02  0.23267951933E+03  0.12508790461E+03 0.  0.
          5    1    3    3  502    0 -0.93863357431E+02  0.12048340681E+03  0.66986791527E+02  0.16682710758E+03  0.41800000000E+01 0.  1.
         -5    1    3    3    0  502 -0.62626113647E+02 -0.18918915019E+02 -0.62539809088E+01  0.65852411750E+02  0.41800000000E+01 0.  1.
        -11    1    1    2    0    0  0.22049830868E+02 -0.64716890308E+02  0.90751497620E+02  0.11362352420E+03  0.00000000000E+00 0. -1.
         11    1    1    2    0    0  0.13443964021E+03 -0.36847601483E+02  0.16444177688E+03  0.21557564932E+03  0.00000000000E+00 0.  1.
</event>
<event>
 7    1  0.1312490E-005  0.2427029E+03  0.7561462E-02  0.1118005E+00
         -2   -1    0    0    0  501 -0.00000000000E+00  0.00000000000E+00  0.20776577180E+03  0.20776577180E+03  0.00000000000E+00 0.  1.
          2   -1    0    0  501    0  0.00000000000E+00 -0.00000000000E+00 -0.31676809932E+03  0.31676809932E+03  0.00000000000E+00 0. -1.
         23    2    1    2    0    0 -0.11404358350E+03 -0.19525156562E+03 -0.98950861392E+01  0.25870063570E+03  0.12529562390E+03 0.  0.
          5    1    3    3  502    0 -0.49831326516E+02 -0.16644701625E+03  0.31960943452E+02  0.17671090693E+03  0.41800000000E+01 0. -1.
         -5    1    3    3    0  502 -0.64212256985E+02 -0.28804549366E+02 -0.41856029591E+02  0.81989728774E+02  0.41800000000E+01 0. -1.
        -11    1    1    2    0    0  0.12241618789E+03  0.14322440530E+03 -0.52771211878E+02  0.19566234725E+03  0.00000000000E+00 0.  1.
         11    1    1    2    0    0 -0.83726043847E+01  0.52027160319E+02 -0.46336029506E+02  0.70170888162E+02  0.00000000000E+00 0. -1.
</event>
<event>
 7    1  0.1312490E-005  0.2005727E+03  0.7561462E-02  0.1149257E+00
          2   -1    0    0  501    0  0.00000000000E+00  0.00000000000E+00  0.35262132931E+02  0.35262132931E+02  0.00000000000E+00 0.  1.
         -2   -1    0    0    0  501 -0.00000000000E+00 -0.00000000000E+00 -0.12328193899E+04  0.12328193899E+04  0.00000000000E+00 0. -1.
         23    2    1    2    0    0  0.16887817814E+03 -0.53122976090E+02 -0.67625293774E+03  0.71014565587E+03  0.12508767768E+03 0.  0.
          5    1    3    3  502    0  0.43299783863E+02 -0.70042642008E+02 -0.36222563265E+03  0.37149121703E+03  0.41800000000E+01 0.  1.
         -5    1    3    3    0  502  0.12557839427E+03  0.16919665918E+02 -0.31402730509E+03  0.33865443884E+03  0.41800000000E+01 0.  1.
        -11    1    1    2    0    0 -0.15581165357E+03  0.69794540279E+02 -0.40179011525E+03  0.43655909789E+03  0.00000000000E+00 0.  1.
         11    1    1    2    0    0 -0.13066524561E+02 -0.16671564189E+02 -0.11951420403E+03  0.12137676912E+03  0.00000000000E+00 0. -1.
</event>
<event>
 6    1  0.1312490E-005  0.1506255E+03  0.7561462E-02  0.1199707E+00
         -2   -1    0    0    0  501 -0.00000000000E+00  0.00000000000E+00  0.15103606906E+03  0.15103606906E+03  0.00000000000E+00 0.  1.
          2   -1    0    0  501    0  0.00000000000E+00 -0.00000000000E+00 -0.51025035877E+03  0.51025035877E+03  0.00000000000E+00 0. -1.
          5    1    1    2  502    0  0.40326964964E+02 -0.32905900991E+02 -0.73296055890E+02  0.89993592173E+02  0.41800000000E+01 0. -1.
         -5    1    1    2    0  502  0.10093383713E+03  0.16872104919E+02  0.10814980553E+03  0.14895019382E+03  0.41800000000E+01 0.  1.
        -11    1    1    2    0    0 -0.12494858279E+03  0.17933403259E+01 -0.28570999674E+03  0.31184221434E+03  0.00000000000E+00 0. -1.
         11    1    1    2    0    0 -0.16312219309E+02  0.14240455746E+02 -0.10835804261E+03  0.11050042750E+03  0.00000000000E+00 0.  1.
</event>
<event>
 7    1  0.1312490E-005  0.1459123E+03  0.7561462E-02  0.1205588E+00
          1   -1    0    0  501    0  0.00000000000E+00  0.00000000000E+00  0.85890095199E+03  0.85890095199E+03  0.00000000000E+00 0. -1.
         -1   -1    0    0    0  501 -0.00000000000E+00 -0.00000000000E+00 -0.35939689348E+02  0.35939689348E+02  0.00000000000E+00 0.  1.
         23    2    1    2    0    0  0.55590812035E+02 -0.12548537053E+03  0.46953546774E+03  0.50492510088E+03  0.12509550527E+03 0.  0.
          5    1    3    3  502    0  0.33736848357E+02 -0.87402010532E+02  0.11845033048E+03  0.15108024216E+03  0.41800000000E+01 0.  1.
         -5    1    3    3    0  502  0.21853963678E+02 -0.38083359997E+02  0.35108513726E+03  0.35384485872E+03  0.41800000000E+01 0.  1.
        -11    1    1    2    0    0  0.14350075292E+02  0.45383026060E+02  0.53055445744E+02  0.71277093363E+02  0.00000000000E+00 0.  1.
         11    1    1    2    0    0 -0.69940887328E+02  0.80102344469E+02  0.30037034916E+03  0.31863844709E+03  0.00000000000E+00 0. -1.
</event>
<event>
 7    1  0.1312490E-005  0.1307116E+03  0.7561462E-02  0.1226404E+00
          2   -1    0    0  501    0  0.00000000000E+00  0.00000000000E+00  0.80539284797E+03  0.80539284797E+03  0.00000000000E+00 0. -1.
         -2   -1    0    0    0  501 -0.00000000000E+00 -0.00000000000E+00 -0.25743020115E+02  0.25743020115E+02  0.00000000000E+00 0.  1.
         23    2    1    2    0    0 -0.84418563902E+02 -0.16385264106E+02  0.53415399490E+03  0.55562403730E+03  0.12650142196E+03 0.  0.
          5    1    3    3  502    0 -0.32246620177E+02  0.50730755200E+02  0.14053631915E+03  0.15290972315E+03  0.41800000000E+01 0.  1.
         -5    1    3    3    0  502 -0.52171943725E+02 -0.67116019307E+02  0.39361767575E+03  0.40271431415E+03  0.41800000000E+01 0.  1.
        -11    1    1    2    0    0 -0.70211533140E+01  0.23318404622E+02  0.10463351253E+03  0.10743005414E+03  0.00000000000E+00 0. -1.
         11    1    1    2    0    0  0.91439717216E+02 -0.69331405158E+01  0.14086232043E+03  0.16808177664E+03  0.00000000000E+00 0.  1.
</event>
<event>
 7    1  0.1312490E-005  0.1825391E+03  0.7561462E-02  0.1165368E+00
          3   -1    0    0  501    0  0.00000000000E+00  0.00000000000E+00  0.34570795719E+02  0.34570795719E+02  0.00000000000E+00 0. -1.
         -3   -1    0    0    0  501 -0.00000000000E+00 -0.00000000000E+00 -0.12096692613E+04  0.12096692613E+04  0.00000000000E+00 0.  1.
         23    2    1    2    0    0 -0.16376348542E+03  0.21344107639E+02 -0.77356059262E+03  0.80082334972E+03  0.12509195384E+03 0.  0.
          5    1    3    3  502    0 -0.29007192463E+02  0.35291199580E+02 -0.41452305889E+03  0.41705362333E+03  0.41800000000E+01 0. -1.
         -5    1    3    3    0  502 -0.13475629296E+03 -0.13947091941E+02 -0.35903753372E+03  0.38376972638E+03  0.41800000000E+01 0. -1.
        -11    1    1    2    0    0  0.12216328087E+03  0.21394197785E+02 -0.31288450177E+03  0.33656840366E+03  0.00000000000E+00 0.  1.
         11    1    1    2    0    0  0.41600204549E+02 -0.42738305424E+02 -0.88653371229E+02  0.10684830368E+03  0.00000000000E+00 0. -1.
</event>
<event>
 7    1  0.1312490E-005  0.1146390E+03  0.7561462E-02  0.1252213E+00
          2   -1    0    0  501    0  0.00000000000E+00  0.00000000000E+00  0.78251952269E+02  0.78251952269E+02  0.00000000000E+00 0. -1.
         -2   -1    0    0    0  501 -0.00000000000E+00 -0.00000000000E+00 -0.19927501556E+03  0.19927501556E+03  0.00000000000E+00 0.  1.
         23    2    1    2    0    0 -0.57755760040E+02 -0.31234204795E+01 -0.11441681986E+03  0.17911582358E+03  0.12508311643E+03 0.  0.
          5    1    3    3  502    0  0.38516588212E+02 -0.91125077927E+01 -0.45747481224E+02  0.60637198188E+02  0.41800000000E+01 0. -1.
         -5    1    3    3    0  502 -0.96272348252E+02  0.59890873132E+01 -0.68669338638E+02  0.11847862539E+03  0.41800000000E+01 0. -1.
        -11    1    1    2    0    0 -0.13019470691E+02  0.16379069812E+02  0.11892759453E+02  0.24066953949E+02  0.00000000000E+00 0.  1.
         11    1    1    2    0    0  0.70775230731E+02 -0.13255649332E+02 -0.18499002882E+02  0.74344190304E+02  0.00000000000E+00 0. -1.
</event>
<event>
 7    1  0.1312490E-005  0.1483805E+03  0.7561462E-02  0.1202477E+00
         -4   -1    0    0    0  501 -0.00000000000E+00  0.00000000000E+00  0.15359287661E+03  0.15359287661E+03  0.00000000000E+00 0. -1.
          4   -1    0    0  501    0  0.00000000000E+00 -0.00000000000E+00 -0.18838628904E+03  0.18838628904E+03  0.00000000000E+00 0.  1.
         23    2    1    2    0    0  0.18252873526E+02  0.10584253187E+03  0.57219557678E+02  0.17448458205E+03  0.12503992422E+03 0.  0.
          5    1    3    3  502    0  0.43563079874E+02 -0.11054322016E+02  0.16867488753E+02  0.48186352219E+02  0.41800000000E+01 0. -1.
         -5    1    3    3    0  502 -0.25310206348E+02  0.11689685388E+03  0.40352068925E+02  0.12629822983E+03  0.41800000000E+01 0. -1.
        -11    1    1    2    0    0 -0.46659125577E+02 -0.84085433705E+02 -0.89915718676E+02  0.13165208174E+03  0.00000000000E+00 0.  1.
         11    1    1    2    0    0  0.28406252051E+02 -0.21757098160E+02 -0.20972514339E+01  0.35842501859E+02  0.00000000000E+00 0. -1.
</event>
<event>
 7    1  0.1312490E-005  0.1032566E+03  0.7561462E-02  0.1273593E+00
         -2   -1    0    0    0  501 -0.00000000000E+00  0.00000000000E+00  0.21218605016E+03  0.21218605016E+03  0.00000000000E+00 0.  1.
          2   -1    0    0  501    0  0.00000000000E+00 -0.00000000000E+00 -0.67331129513E+02  0.67331129513E+02  0.00000000000E+00 0. -1.
         23    2    1    2    0    0  0.13737162880E+02 -0.56202650498E+02  0.73260537610E+02  0.15608325508E+03  0.12508968214E+03 0.  0.
          5    1    3    3  502    0 -0.15288340894E+02 -0.84250108774E+02  0.18121859401E+02  0.87622419413E+02  0.41800000000E+01 0.  1.
         -5    1    3    3    0  502  0.29025503773E+02  0.28047458276E+02  0.55138678209E+02  0.68460835663E+02  0.41800000000E+01 0.  1.
        -11    1    1    2    0    0 -0.12821576919E+01 -0.11397221588E+02  0.50126490963E+02  0.51421840540E+02  0.00000000000E+00 0.  1.
         11    1    1    2    0    0 -0.12455005188E+02  0.67599872085E+02  0.21467892075E+02  0.72012084058E+02  0.00000000000E+00 0. -1.
</event>
<event>
 7    1  0.1312490E-005  0.1066138E+03  0.7561462E-02  0.1266972E+00
         -2   -1    0    0    0  501 -0.00000000000E+00  0.00000000000E+00  0.54108492008E+02  0.54108492008E+02  0.00000000000E+00 0.  1.
          2   -1    0    0  501    0  0.00000000000E+00 -0.00000000000E+00 -0.28139895391E+03  0.28139895391E+03  0.00000000000E+00 0. -1.
         23    2    1    2    0    0 -0.31901185138E+02  0.50311033001E+02 -0.13113865634E+03  0.19077334550E+03  0.12509291151E+03 0.  0.
          5    1    3    3  502    0 -0.15080448016E+02 -0.36194114216E+02 -0.95905540424E+01  0.40581830208E+02  0.41800000000E+01 0. -1.
         -5    1    3    3    0  502 -0.16820737122E+02  0.86505147217E+02 -0.12154810230E+03  0.15019151529E+03  0.41800000000E+01 0. -1.
        -11    1    1    2    0    0  0.40368923425E+02 -0.60243706539E+02 -0.10596541631E+03  0.12840414172E+03  0.00000000000E+00 0. -1.
         11    1    1    2    0    0 -0.84677382866E+01  0.99326735377E+01  0.98136107506E+01  0.16329958704E+02  0.00000000000E+00 0.  1.
</event>
<event>
 7    1  0.1312490E-005  0.1328597E+03  0.7561462E-02  0.1223273E+00
          1   -1    0    0  501    0  0.00000000000E+00  0.00000000000E+00  0.21082962388E+02  0.21082962388E+02  0.00000000000E+00 0. -1.
         -1   -1    0    0    0  501 -0.00000000000E+00 -0.00000000000E+00 -0.10205370440E+04  0.10205370440E+04  0.00000000000E+00 0.  1.
         23    2    1    2    0    0 -0.14682864054E+02 -0.76779059099E+02 -0.76258556209E+03  0.77672147391E+03  0.12509555594E+03 0.  0.
          5    1    3    3  502    0  0.30198543752E+02  0.22889785198E+02 -0.19763683494E+03  0.20128011634E+03  0.41800000000E+01 0.  1.
         -5    1    3    3    0  502 -0.44881407805E+02 -0.99668844298E+02 -0.56494872715E+03  0.57544135757E+03  0.41800000000E+01 0.  1.
        -11    1    1    2    0    0 -0.10065320472E+02 -0.17798135414E+02 -0.49564706101E+02  0.53616642857E+02  0.00000000000E+00 0.  1.
         11    1    1    2    0    0  0.24748184526E+02  0.94577194514E+02 -0.18730381345E+03  0.21128188965E+03  0.00000000000E+00 0. -1.
</event>
<event>
 7    1  0.1312490E-005  0.1969230E+03  0.7561462E-02  0.1152361E+00
          1   -1    0    0  501    0  0.00000000000E+00  0.00000000000E+00  0.10342913452E+04  0.10342913452E+04  0.00000000000E+00 0. -1.
         -1   -1    0    0    0  501 -0.00000000000E+00 -0.00000000000E+00 -0.41186030843E+02  0.41186030843E+02  0.00000000000E+00 0.  1.
         23    2    1    2    0    0 -0.13898999995E+03 -0.10865877533E+03  0.52513892088E+03  0.56792835422E+03  0.12508708872E+03 0.  0.
          5    1    3    3  502    0 -0.12521020947E+03 -0.21373224060E+02  0.28665141981E+03  0.31356166880E+03  0.41800000000E+01 0. -1.
         -5    1    3    3    0  502 -0.13779790481E+02 -0.87285551267E+02  0.23848750108E+03  0.25436668543E+03  0.41800000000E+01 0. -1.
        -11    1    1    2    0    0  0.10541792062E+03  0.67501428840E+02  0.21257485302E+03  0.24669302588E+03  0.00000000000E+00 0.  1.
         11    1    1    2    0    0  0.33572079330E+02  0.41157346487E+02  0.25539154048E+03  0.26085599596E+03  0.00000000000E+00 0. -1.
</event>
<event>
 7    1  0.1312490E-005  0.1012865E+03  0.7561462E-02  0.1277614E+00
         -1   -1    0    0    0  501 -0.00000000000E+00  0.00000000000E+00  0.39436105433E+03  0.39436105433E+03  0.00000000000E+00 0.  1.
          1   -1    0    0  501    0  0.00000000000E+00 -0.00000000000E+00 -0.54838180401E+02  0.54838180401E+02  0.00000000000E+00 0. -1.
         23    2    1    2    0    0  0.15818180139E+01 -0.46948159988E+02  0.31741044270E+03  0.34438881691E+03  0.12509051204E+03 0.  0.
          5    1    3    3  502    0  0.92607444477E+01  0.29877162818E+02  0.20632631223E+02  0.37703900554E+02  0.41800000000E+01 0.  1.
         -5    1    3    3    0  502 -0.76789264339E+01 -0.76825322806E+02  0.29677781148E+03  0.30668491636E+03  0.41800000000E+01 0.  1.
        -11    1    1    2    0    0  0.30421913124E+02  0.53012208922E+02 -0.64861147126E+01  0.61464272361E+02  0.00000000000E+00 0. -1.
         11    1    1    2    0    0 -0.32003731137E+02 -0.60640489336E+01  0.28598545936E+02  0.43346145455E+02  0.00000000000E+00 0.  1.
</event>
<event>
 7    1  0.1312490E-005  0.1712082E+03  0.7561462E-02  0.1176594E+00
          1   -1    0    0  501    0  0.00000000000E+00  0.00000000000E+00  0.93313880310E+03  0.93313880310E+03  0.00000000000E+00 0. -1.
         -1   -1    0    0    0  501 -0.00000000000E+00 -0.00000000000E+00 -0.42792933749E+02  0.42792933749E+02  0.00000000000E+00 0.  1.
         23    2    1    2    0    0  0.53291161846E+02 -0.14681693910E+03  0.32000617603E+03  0.37742035184E+03  0.12508800000E+03 0.  0.
          5    1    3    3  502    0  0.38558231854E+01  0.95306404073E+01  0.11186161320E+03  0.11241082415E+03  0.41800000000E+01 0.  1.
         -5    1    3    3    0  502  0.49435338661E+02 -0.15634757950E+03  0.20814456284E+03  0.26500952768E+03  0.41800000000E+01 0.  1.
        -11    1    1    2    0    0 -0.62274715733E+02  0.88099908072E+02  0.24368397015E+03  0.26649880174E+03  0.00000000000E+00 0.  1.
         11    1    1    2    0    0  0.89835538871E+01  0.58717031026E+02  0.32665572317E+03  0.33201258327E+03  0.00000000000E+00 0. -1.
</event>
<event>
 7    1  0.1312490E-005  0.1951179E+03  0.7561462E-02  0.1153925E+00
          1   -1    0    0  501    0  0.00000000000E+00  0.00000000000E+00  0.29060247293E+03  0.29060247293E+03  0.00000000000E+00 0. -1.
         -1   -1    0    0    0  501 -0.00000000000E+00 -0.00000000000E+00 -0.15119955183E+03  0.15119955183E+03  0.00000000000E+00 0.  1.
         23    2    1    2    0    0  0.69784659235E+02 -0.16235014515E+03  0.10292878660E+03  0.23974543332E+03  0.12512421585E+03 0.  0.
          5    1    3    3  502    0  0.74272901374E+02 -0.17584982718E+03  0.11295457805E+03  0.22184642143E+03  0.41800000000E+01 0.  1.
         -5    1    3    3    0  502 -0.44882421390E+01  0.13499682030E+02 -0.10025791451E+02  0.17899011890E+02  0.41800000000E+01 0.  1.
        -11    1    1    2    0    0  0.61795661185E+01  0.39870248468E+02  0.41452902865E+02  0.57846062150E+02  0.00000000000E+00 0. -1.
         11    1    1    2    0    0 -0.75964225354E+02  0.12247989669E+03 -0.49787683582E+01  0.14421052930E+03  0.00000000000E+00 0.  1.
</event>
<event>
 7    1  0.1312490E-005  0.1204955E+03  0.7561462E-02  0.1242282E+00
         -1   -1    0    0    0  501 -0.00000000000E+00  0.00000000000E+00  0.21172857920E+03  0.21172857920E+03  0.00000000000E+00 0.  1.
          1   -1    0    0  501    0  0.00000000000E+00 -0.00000000000E+00 -0.97736108960E+02  0.97736108960E+02  0.00000000000E+00 0. -1.
         23    2    1    2    0    0  0.64086755625E+02 -0.65720323505E+02  0.32262529727E+02  0.15847704300E+03  0.12509128333E+03 0.  0.
          5    1    3    3  502    0  0.15009213330E+02  0.17997118109E+02 -0.33558431472E+02  0.41143814455E+02  0.41800000000E+01 0.  1.
         -5    1    3    3    0  502  0.49077542294E+02 -0.83717441613E+02  0.65820961198E+02  0.11733322855E+03  0.41800000000E+01 0.  1.
        -11    1    1    2    0    0 -0.82273735754E+02  0.54389347311E+02  0.83853225382E+02  0.12945474925E+03  0.00000000000E+00 0.  1.
         11    1    1    2    0    0  0.18186980129E+02  0.11330976193E+02 -0.21232848676E+01  0.21532895912E+02  0.00000000000E+00 0. -1.
</event>
<event>
 7    1  0.1312490E-005  0.1225834E+03  0.7561462E-02  0.1238895E+00
          1   -1    0    0  501    0  0.00000000000E+00  0.00000000000E+00  0.22220929600E+02  0.22220929600E+02  0.00000000000E+00 0. -1.
         -1   -1    0    0    0  501 -0.00000000000E+00 -0.00000000000E+00 -0.77678245435E+03  0.77678245435E+03  0.00000000000E+00 0.  1.
         23    2    1    2    0    0  0.56359884054E+02 -0.18959785182E+02 -0.52855169898E+03  0.54640162356E+03  0.12510765667E+03 0.  0.
          5    1    3    3  502    0  0.30567276983E+02  0.49921346264E+02 -0.31707859662E+03  0.32246365387E+03  0.41800000000E+01 0.  1.
         -5    1    3    3    0  502  0.25792607071E+02 -0.68881131446E+02 -0.21147310236E+03  0.22393796969E+03  0.41800000000E+01 0.  1.
        -11    1    1    2    0    0 -0.48983200631E+02 -0.33816052818E+02 -0.11819198766E+03  0.13233376485E+03  0.00000000000E+00 0. -1.
         11    1    1    2    0    0 -0.73766834230E+01  0.52775838001E+02 -0.10781783812E+03  0.12026799554E+03  0.00000000000E+00 0.  1.
</event>
<event>
 7    1  0.1312490E-005  0.1302499E+03  0.7561462E-02  0.1227085E+00
         -1   -1    0    0    0  501 -0.00000000000E+00  0.00000000000E+00  0.18319869206E+03  0.18319869206E+03  0.00000000000E+00 0.  1.
          1   -1    0    0  501    0  0.00000000000E+00 -0.00000000000E+00 -0.96619909130E+02  0.96619909130E+02  0.00000000000E+00 0. -1.
         23    2    1    2    0    0 -0.72448871433E+02 -0.85241158606E+01  0.67467984720E+02  0.15974323483E+03  0.12507786610E+03 0.  0.
          5    1    3    3  502    0 -0.57882531927E+02 -0.64137436696E+02  0.47888948358E+02  0.98867699796E+02  0.41800000000E+01 0.  1.
         -5    1    3    3    0  502 -0.14566339506E+02  0.55613320835E+02  0.19579036363E+02  0.60875535035E+02  0.41800000000E+01 0.  1.
        -11    1    1    2    0    0 -0.21492237091E+02  0.62971325742E+01 -0.52470669885E+01  0.23002213933E+02  0.00000000000E+00 0. -1.
         11    1    1    2    0    0  0.93941108524E+02  0.22269832864E+01  0.24357865201E+02  0.97073152429E+02  0.00000000000E+00 0.  1.
</event>
<event>
 7    1  0.1312490E-005  0.1216102E+03  0.7561462E-02  0.1240464E+00
          2   -1    0    0  501    0  0.00000000000E+00  0.00000000000E+00  0.80069401933E+03  0.80069401933E+03  0.00000000000E+00 0.  1.
         -2   -1    0    0    0  501 -0.00000000000E+00 -0.00000000000E+00 -0.19531743130E+02  0.19531743130E+02  0.00000000000E+00 0. -1.
         23    2    1    2    0    0  0.16544841076E+02  0.55497944287E+02  0.36415062519E+03  0.38936954310E+03  0.12509680123E+03 0.  0.
          5    1    3    3  502    0  0.23640684823E+02  0.94583400906E+02  0.27016118853E+03  0.28724456809E+03  0.41800000000E+01 0.  1.
         -5    1    3    3    0  502 -0.70958437465E+01 -0.39085456619E+02  0.93989436661E+02  0.10212497501E+03  0.41800000000E+01 0.  1.
        -11    1    1    2    0    0  0.36540868286E+02 -0.27071814391E+02  0.13391857919E+03  0.14142950203E+03  0.00000000000E+00 0. -1.
         11    1    1    2    0    0 -0.53085709362E+02 -0.28426129896E+02  0.28309307181E+03  0.28942671733E+03  0.00000000000E+00 0.  1.
</event>
<event>
 7    1  0.1312490E-005  0.7734736E+02  0.7561462E-02  0.1336752E+00
          1   -1    0    0  501    0  0.00000000000E+00  0.00000000000E+00  0.17040697235E+03  0.17040697235E+03  0.00000000000E+00 0. -1.
         -1   -1    0    0    0  501 -0.00000000000E+00 -0.00000000000E+00 -0.80085680449E+02  0.80085680449E+02  0.00000000000E+00 0.  1.
         23    2    1    2    0    0 -0.30997960060E+02 -0.66199061312E+00  0.16967558906E+02  0.12998555190E+03  0.12508810450E+03 0.  0.
          5    1    3    3  502    0  0.21069001990E+02  0.23013714566E+02  0.53438439351E+02  0.62021553538E+02  0.41800000000E+01 0. -1.
         -5    1    3    3    0  502 -0.52066962050E+02 -0.23675705179E+02 -0.36470880445E+02  0.67963998362E+02  0.41800000000E+01 0. -1.
        -11    1    1    2    0    0  0.33358606904E+02  0.24827897242E+02  0.84203816874E+02  0.93912213860E+02  0.00000000000E+00 0. -1.
         11    1    1    2    0    0 -0.23606468444E+01 -0.24165906629E+02 -0.10850083876E+02  0.26594887043E+02  0.00000000000E+00 0.  1.
</event>
<event>
 7    1  0.1312490E-005  0.5419510E+02  0.7561462E-02  0.1423944E+00
          2   -1    0    0  501    0  0.00000000000E+00  0.00000000000E+00  0.40898835006E+02  0.40898835006E+02  0.00000000000E+00 0. -1.
         -2   -1    0    0    0  501 -0.00000000000E+00 -0.00000000000E+00 -0.35008932409E+03  0.35008932409E+03  0.00000000000E+00 0.  1.
         23    2    1    2    0    0  0.53470332029E+01 -0.19244626338E+02 -0.25124590911E+03  0.28136640355E+03  0.12507437705E+03 0.  0.
          5    1    3    3  502    0 -0.26998801556E+02 -0.29083426010E+01 -0.24224081005E+03  0.24379392158E+03  0.41800000000E+01 0.  1.
         -5    1    3    3    0  502  0.32345834759E+02 -0.16336283737E+02 -0.90050990545E+01  0.37572481972E+02  0.41800000000E+01 0.  1.
        -11    1    1    2    0    0 -0.21317976284E+02  0.27775319405E+01 -0.76909483367E+02  0.79857619726E+02  0.00000000000E+00 0.  1.
         11    1    1    2    0    0  0.15970943081E+02  0.16467094397E+02  0.18964903389E+02  0.29764135824E+02  0.00000000000E+00 0. -1.
</event>
<event>
 7    1  0.1312490E-005  0.1069755E+03  0.7561462E-02  0.1266276E+00
          2   -1    0    0  501    0  0.00000000000E+00  0.00000000000E+00  0.27888237418E+02  0.27888237418E+02  0.00000000000E+00 0. -1.
         -2   -1    0    0    0  501 -0.00000000000E+00 -0.00000000000E+00 -0.52426312098E+03  0.52426312098E+03  0.00000000000E+00 0.  1.
         23    2    1    2    0    0  0.19611312722E+02  0.34154655298E+02 -0.35670635716E+03  0.38005119798E+03  0.12509334028E+03 0.  0.
          5    1    3    3  502    0  0.50402199827E+02 -0.19552483042E+02 -0.81172281190E+02  0.97617073169E+02  0.41800000000E+01 0. -1.
         -5    1    3    3    0  502 -0.30790887105E+02  0.53707138340E+02 -0.27553407597E+03  0.28243412481E+03  0.41800000000E+01 0. -1.
        -11    1    1    2    0    0 -0.53375581627E+02 -0.59905096330E+01 -0.96739742234E+02  0.11064997355E+03  0.00000000000E+00 0. -1.
         11    1    1    2    0    0  0.33764268905E+02 -0.28164145665E+02 -0.42928784171E+02  0.61450186869E+02  0.00000000000E+00 0.  1.
</event>
<event>
 7    1  0.1312490E-005  0.1121694E+03  0.7561462E-02  0.1256604E+00
         -2   -1    0    0    0  501 -0.00000000000E+00  0.00000000000E+00  0.84689799130E+03  0.84689799130E+03  0.00000000000E+00 0. -1.
          2   -1    0    0  501    0  0.00000000000E+00 -0.00000000000E+00 -0.18485522366E+02  0.18485522366E+02  0.00000000000E+00 0.  1.
         23    2    1    2    0    0  0.41108892320E+01 -0.36597435470E+02  0.62061904458E+03  0.63416931043E+03  0.12508574698E+03 0.  0.
          5    1    3    3  502    0 -0.22880952196E+02 -0.77518736945E+02  0.40516088545E+03  0.41316523093E+03  0.41800000000E+01 0.  1.
         -5    1    3    3    0  502  0.26991841428E+02  0.40921301476E+02  0.21545815913E+03  0.22100407950E+03  0.41800000000E+01 0.  1.
        -11    1    1    2    0    0 -0.38775004810E+02  0.44117949835E+02  0.84418068196E+02  0.10284116264E+03  0.00000000000E+00 0.  1.
         11    1    1    2    0    0  0.34664115578E+02 -0.75205143653E+01  0.12337535616E+03  0.12837304060E+03  0.00000000000E+00 0. -1.
</event>
<event>
 7    1  0.1312490E-005  0.9379753E+02  0.7561462E-02  0.1293908E+00
         -2   -1    0    0    0  501 -0.00000000000E+00  0.00000000000E+00  0.17024360205E+03  0.17024360205E+03  0.00000000000E+00 0.  1.
          2   -1    0    0  501    0  0.00000000000E+00 -0.00000000000E+00 -0.91651210580E+02  0.91651210580E+02  0.00000000000E+00 0. -1.
         23    2    1    2    0    0  0.32475540871E+02 -0.14907774459E+02  0.97335134198E+02  0.16247613420E+03  0.12508982109E+03 0.  0.
          5    1    3    3  502    0 -0.47967959893E+02 -0.11337973429E+01  0.40585439869E+02  0.62983021538E+02  0.41800000000E+01 0.  1.
         -5    1    3    3    0  502  0.80443500764E+02 -0.13773977116E+02  0.56749694329E+02  0.99493112662E+02  0.41800000000E+01 0.  1.
        -11    1    1    2    0    0  0.75890728204E+01  0.15916830745E+02 -0.47120454281E+02  0.50311795226E+02  0.00000000000E+00 0. -1.
         11    1    1    2    0    0 -0.40064613691E+02 -0.10090562861E+01  0.28377711552E+02  0.49106883201E+02  0.00000000000E+00 0.  1.
</event>
<event>
 7    1  0.1312490E-005  0.7295826E+02  0.7561462E-02  0.1350313E+00
          4   -1    0    0  501    0  0.00000000000E+00  0.00000000000E+00  0.10223466244E+03  0.10223466244E+03  0.00000000000E+00 0. -1.
         -4   -1    0    0    0  501 -0.00000000000E+00 -0.00000000000E+00 -0.13030734098E+03  0.13030734098E+03  0.00000000000E+00 0.  1.
         23    2    1    2    0    0  0.36566788671E+02  0.16710334046E+02 -0.15519786614E+02  0.13230580280E+03  0.12509035287E+03 0.  0.
          5    1    3    3  502    0 -0.84002373128E+01  0.13509054915E+02 -0.63936987800E+02  0.66018704626E+02  0.41800000000E+01 0.  1.
         -5    1    3    3    0  502  0.44967025984E+02  0.32012791307E+01  0.48417201185E+02  0.66287098175E+02  0.41800000000E+01 0.  1.
        -11    1    1    2    0    0 -0.32687949778E+02  0.25716102108E+02 -0.32893240064E+02  0.53026269058E+02  0.00000000000E+00 0. -1.
         11    1    1    2    0    0 -0.38788388926E+01 -0.42426436154E+02  0.20340348138E+02  0.47209931564E+02  0.00000000000E+00 0.  1.
</event>
<event>
 7    1  0.1312490E-005  0.1213176E+03  0.7561462E-02  0.1240939E+00
          1   -1    0    0  501    0  0.00000000000E+00  0.00000000000E+00  0.14658001098E+03  0.14658001098E+03  0.00000000000E+00 0. -1.
         -1   -1    0    0    0  501 -0.00000000000E+00 -0.00000000000E+00 -0.10419654213E+03  0.10419654213E+03  0.00000000000E+00 0.  1.
         23    2    1    2    0    0 -0.24650812216E+02  0.53716335437E+02  0.82466042936E+01  0.13859431789E+03  0.12508905321E+03 0.  0.
          5    1    3    3  502    0 -0.73095070819E+02  0.50449827509E+02 -0.13556759579E+01  0.88923476827E+02  0.41800000000E+01 0. -1.
         -5    1    3    3    0  502  0.48444258603E+02  0.32665079276E+01  0.96022802515E+01  0.49670841060E+02  0.41800000000E+01 0. -1.
        -11    1    1    2    0    0  0.48677415019E+02 -0.62664434113E+02  0.16455210314E+02  0.81037620782E+02  0.00000000000E+00 0.  1.
         11    1    1    2    0    0 -0.24026602803E+02  0.89480986761E+01  0.17681654237E+02  0.31144614442E+02  0.00000000000E+00 0. -1.
</event>
<event>
 7    1  0.1312490E-005  0.1265195E+03  0.7561462E-02  0.1232713E+00
         -2   -1    0    0    0  501 -0.00000000000E+00  0.00000000000E+00  0.29324365640E+02  0.29324365640E+02  0.00000000000E+00 0. -1.
          2   -1    0    0  501    0  0.00000000000E+00 -0.00000000000E+00 -0.73878373073E+03  0.73878373073E+03  0.00000000000E+00 0.  1.
         23    2    1    2    0    0  0.37761310868E+00  0.94456566936E+02 -0.31565958122E+03  0.35243594730E+03  0.12509172676E+03 0.  0.
          5    1    3    3  502    0 -0.40864943241E+02 -0.11744838876E+02 -0.83601923962E+02  0.93886308461E+02  0.41800000000E+01 0.  1.
         -5    1    3    3    0  502  0.41242556349E+02  0.10620140581E+03 -0.23205765726E+03  0.25854963884E+03  0.41800000000E+01 0.  1.
        -11    1    1    2    0    0  0.89222740052E+01 -0.34443050616E+02 -0.29139608849E+02  0.45989645715E+02  0.00000000000E+00 0. -1.
         11    1    1    2    0    0 -0.92998871139E+01 -0.60013516320E+02 -0.36466017501E+03  0.36968250335E+03  0.00000000000E+00 0.  1.
</event>
<event>
 7    1  0.1312490E-005  0.1161136E+03  0.7561462E-02  0.1249650E+00
         -2   -1    0    0    0  501 -0.00000000000E+00  0.00000000000E+00  0.49025694416E+03  0.49025694416E+03  0.00000000000E+00 0.  1.
          2   -1    0    0  501    0  0.00000000000E+00 -0.00000000000E+00 -0.45446297653E+02  0.45446297653E+02  0.00000000000E+00 0. -1.
         23    2    1    2    0    0  0.80368556050E+02 -0.45536907053E+02  0.30597382197E+03  0.34322083163E+03  0.12509134594E+03 0.  0.
          5    1    3    3  502    0  0.58723942496E+02 -0.86089570770E+01  0.29200012163E+03  0.29800026677E+03  0.41800000000E+01 0. -1.
         -5    1    3    3    0  502  0.21644613554E+02 -0.36927949976E+02  0.13973700346E+02  0.45220564865E+02  0.41800000000E+01 0. -1.
        -11    1    1    2    0    0  0.77441145449E+01 -0.18989696581E+02  0.78992314644E+01  0.21976754629E+02  0.00000000000E+00 0. -1.
         11    1    1    2    0    0 -0.88112670594E+02  0.64526603634E+02  0.13093759307E+03  0.17050565555E+03  0.00000000000E+00 0.  1.
</event>
<event>
 7    1  0.1312490E-005  0.1389097E+03  0.7561462E-02  0.1214804E+00
          1   -1    0    0  501    0  0.00000000000E+00  0.00000000000E+00  0.33287646005E+03  0.33287646005E+03  0.00000000000E+00 0. -1.
         -1   -1    0    0    0  501 -0.00000000000E+00 -0.00000000000E+00 -0.79869771060E+02  0.79869771060E+02  0.00000000000E+00 0.  1.
         23    2    1    2    0    0  0.29525614093E+01  0.94117597430E+02  0.37816158680E+02  0.16107034164E+03  0.12508698307E+03 0.  0.
          5    1    3    3  502    0  0.46782931085E+02  0.92197637591E+02  0.50600892564E+02  0.11518233261E+03  0.41800000000E+01 0.  1.
         -5    1    3    3    0  502 -0.43830369675E+02  0.19199598391E+01 -0.12784733884E+02  0.45888009024E+02  0.41800000000E+01 0.  1.
        -11    1    1    2    0    0  0.29441256655E+02 -0.93339642412E+02  0.15490375310E+03  0.18323277317E+03  0.00000000000E+00 0.  1.
         11    1    1    2    0    0 -0.32393818065E+02 -0.77795501827E+00  0.60286777209E+02  0.68443116301E+02  0.00000000000E+00 0. -1.
</event>
<event>
 7    1  0.1312490E-005  0.1056988E+03  0.7561462E-02  0.1268749E+00
         -2   -1    0    0    0  501 -0.00000000000E+00  0.00000000000E+00  0.35348699169E+02  0.35348699169E+02  0.00000000000E+00 0.  1.
          2   -1    0    0  501    0  0.00000000000E+00 -0.00000000000E+00 -0.33278868453E+03  0.33278868453E+03  0.00000000000E+00 0. -1.
         23    2    1    2    0    0 -0.10801330552E+02 -0.58472807208E+01 -0.18611952749E+03  0.22458573293E+03  0.12508962183E+03 0.  0.
          5    1    3    3  502    0 -0.65304834854E+02  0.59684431065E+01 -0.71862553412E+02  0.97375781134E+02  0.41800000000E+01 0.  1.
         -5    1    3    3    0  502  0.54503504302E+02 -0.11815723827E+02 -0.11425697407E+03  0.12720995179E+03  0.41800000000E+01 0.  1.
        -11    1    1    2    0    0 -0.39008965671E+02 -0.31855259347E+01 -0.58540614297E+02  0.70419106075E+02  0.00000000000E+00 0.  1.
         11    1    1    2    0    0  0.49810296223E+02  0.90328066555E+01 -0.52779843583E+02  0.73132544701E+02  0.00000000000E+00 0. -1.
</event>
<event>
 7    1  0.1312490E-005  0.3636498E+03  0.7561462E-02  0.1057148E+00
         -1   -1    0    0    0  501 -0.00000000000E+00  0.00000000000E+00  0.75480080610E+03  0.75480080610E+03  0.00000000000E+00 0.  1.
          1   -1    0    0  501    0  0.00000000000E+00 -0.00000000000E+00 -0.26180240127E+03  0.26180240127E+03  0.00000000000E+00 0. -1.
         23    2    1    2    0    0 -0.36194286244E+03 -0.27036636804E+02  0.51399966519E+03  0.64154291324E+03  0.12509211933E+03 0.  0.
          5    1    3    3  502    0 -0.23360602902E+03 -0.31521973476E+02  0.22784007943E+03  0.32786275452E+03  0.41800000000E+01 0.  1.
         -5    1    3    3    0  502 -0.12833683343E+03  0.44853366717E+01  0.28615958575E+03  0.31368015873E+03  0.41800000000E+01 0.  1.
        -11    1    1    2    0    0  0.12064375764E+03  0.48892806677E+01 -0.50657435772E+02  0.13093890607E+03  0.00000000000E+00 0. -1.
         11    1    1    2    0    0  0.24129910480E+03  0.22147356137E+02  0.29656175415E+02  0.24412138804E+03  0.00000000000E+00 0.  1.
</event>
<event>
 7    1  0.1312490E-005  0.1347576E+03  0.7561462E-02  0.1220562E+00
          1   -1    0    0  501    0  0.00000000000E+00  0.00000000000E+00  0.72109613702E+03  0.72109613702E+03  0.00000000000E+00 0. -1.
         -1   -1    0    0    0  501 -0.00000000000E+00 -0.00000000000E+00 -0.32910116901E+02  0.32910116901E+02  0.00000000000E+00 0.  1.
         23    2    1    2    0    0  0.67568439392E+02  0.73013047572E+02  0.26332966518E+03  0.30803587393E+03  0.12508872030E+03 0.  0.
          5    1    3    3  502    0  0.58741125094E+02 -0.38745368703E+01  0.39112933007E+02  0.70801311723E+02  0.41800000000E+01 0.  1.
         -5    1    3    3    0  502  0.88273142978E+01  0.76887584442E+02  0.22421673217E+03  0.23723456220E+03  0.41800000000E+01 0.  1.
        -11    1    1    2    0    0 -0.74598003813E+02 -0.16961190214E+02  0.28619389698E+03  0.29624228398E+03  0.00000000000E+00 0. -1.
         11    1    1    2    0    0  0.70295644208E+01 -0.56051857358E+02  0.13866245796E+03  0.14972809602E+03  0.00000000000E+00 0.  1.
</event>
<event>
 7    1  0.1312490E-005  0.1473062E+03  0.7561462E-02  0.1203823E+00
          2   -1    0    0  501    0  0.00000000000E+00  0.00000000000E+00  0.45323631498E+03  0.45323631498E+03  0.00000000000E+00 0. -1.
         -2   -1    0    0    0  501 -0.00000000000E+00 -0.00000000000E+00 -0.61897021412E+02  0.61897021412E+02  0.00000000000E+00 0.  1.
         23    2    1    2    0    0  0.63471970809E+02  0.92203273519E+02  0.11648581075E+03  0.20431995633E+03  0.12509023032E+03 0.  0.
          5    1    3    3  502    0  0.51806710779E+02 -0.72617827573E+01  0.83827272030E+02  0.98899710346E+02  0.41800000000E+01 0. -1.
         -5    1    3    3    0  502  0.11665260030E+02  0.99465056276E+02  0.32658538719E+02  0.10542024598E+03  0.41800000000E+01 0. -1.
        -11    1    1    2    0    0 -0.77738834632E+02 -0.39305631789E+02  0.13559835583E+03  0.16116815196E+03  0.00000000000E+00 0. -1.
         11    1    1    2    0    0  0.14266863824E+02 -0.52897641729E+02  0.13925512698E+03  0.14964522811E+03  0.00000000000E+00 0.  1.
</event>
<event>
 7    1  0.1312490E-005  0.1162564E+03  0.7561462E-02  0.1249404E+00
         -2   -1    0    0    0  501 -0.00000000000E+00  0.00000000000E+00  0.53348362750E+02  0.53348362750E+02  0.00000000000E+00 0.  1.
          2   -1    0    0  501    0  0.00000000000E+00 -0.00000000000E+00 -0.31607880205E+03  0.31607880205E+03  0.00000000000E+00 0. -1.
         23    2    1    2    0    0 -0.59264136511E+02 -0.33540183633E+02 -0.12725805849E+03  0.19099752292E+03  0.12509299947E+03 0.  0.
          5    1    3    3  502    0 -0.13526697312E+02  0.46089998582E+02 -0.28196934486E+02  0.55855161121E+02  0.41800000000E+01 0.  1.
         -5    1    3    3    0  502 -0.45737439199E+02 -0.79630182215E+02 -0.99061124008E+02  0.13514236180E+03  0.41800000000E+01 0.  1.
        -11    1    1    2    0    0  0.13231294907E+02 -0.18595182297E+02 -0.95547744911E+02  0.98235530879E+02  0.00000000000E+00 0. -1.
         11    1    1    2    0    0  0.46032841604E+02  0.52135365930E+02 -0.39924635890E+02  0.80194110992E+02  0.00000000000E+00 0.  1.
</event>
<event>
 7    1  0.1312490E-005  0.7478544E+02  0.7561462E-02  0.1344537E+00
          1   -1    0    0  501    0  0.00000000000E+00  0.00000000000E+00  0.12243814524E+03  0.12243814524E+03  0.00000000000E+00 0. -1.
         -1   -1    0    0    0  501 -0.00000000000E+00 -0.00000000000E+00 -0.10754090190E+03  0.10754090190E+03  0.00000000000E+00 0.  1.
         23    2    1    2    0    0  0.38692220600E+02 -0.79919216675E+01  0.53812434405E+01  0.13129103586E+03  0.12508964614E+03 0.  0.
          5    1    3    3  502    0 -0.15521126868E+02  0.54598219178E+01 -0.49829331130E+02  0.52641710415E+02  0.41800000000E+01 0.  1.
         -5    1    3    3    0  502  0.54213347469E+02 -0.13451743585E+02  0.55210574570E+02  0.78649325449E+02  0.41800000000E+01 0.  1.
        -11    1    1    2    0    0 -0.53222539235E+02 -0.92637974456E+01 -0.23326998882E+02  0.58843907948E+02  0.00000000000E+00 0.  1.
         11    1    1    2    0    0  0.14530318634E+02  0.17255719113E+02  0.32842998778E+02  0.39844103334E+02  0.00000000000E+00 0. -1.
</event>
<event>
 7    1  0.1312490E-005  0.2783859E+03  0.7561462E-02  0.1096574E+00
          3   -1    0    0  501    0  0.00000000000E+00  0.00000000000E+00  0.20027292942E+03  0.20027292942E+03  0.00000000000E+00 0. -1.
         -3   -1    0    0    0  501 -0.00000000000E+00 -0.00000000000E+00 -0.42134771689E+03  0.42134771689E+03  0.00000000000E+00 0.  1.
         23    2    1    2    0    0 -0.31136736434E+02 -0.26226726814E+03 -0.43348402489E+02  0.29033653880E+03  0.11252824298E+03 0.  0.
          5    1    3    3  502    0 -0.57074985515E+02 -0.24267974442E+03 -0.55405710110E+02  0.25541784870E+03  0.41800000000E+01 0. -1.
         -5    1    3    3    0  502  0.25938249082E+02 -0.19587523726E+02  0.12057307620E+02  0.34918690098E+02  0.41800000000E+01 0.  1.
        -11    1    1    2    0    0 -0.25198004403E+02  0.76443458554E+02 -0.25124003127E+02  0.84319376864E+02  0.00000000000E+00 0. -1.
         11    1    1    2    0    0  0.56334740837E+02  0.18582380959E+03 -0.15260238186E+03  0.24696473065E+03  0.00000000000E+00 0.  1.
</event>
<event>
 7    1  0.1312490E-005  0.1154694E+03  0.7561462E-02  0.1250764E+00
         -1   -1    0    0    0  501 -0.00000000000E+00  0.00000000000E+00  0.48146763922E+02  0.48146763922E+02  0.00000000000E+00 0.  1.
          1   -1    0    0  501    0  0.00000000000E+00 -0.00000000000E+00 -0.38338203501E+03  0.38338203501E+03  0.00000000000E+00 0. -1.
         23    2    1    2    0    0  0.43301203380E+02  0.19221362342E+01 -0.90397127336E+02  0.16031132844E+03  0.12509753224E+03 0.  0.
          5    1    3    3  502    0  0.94609493072E+01 -0.59194569829E+02 -0.56769765118E+02  0.82666712107E+02  0.41800000000E+01 0. -1.
         -5    1    3    3    0  502  0.33840254072E+02  0.61116706063E+02 -0.33627362218E+02  0.77644616332E+02  0.41800000000E+01 0. -1.
        -11    1    1    2    0    0  0.51946947983E+01  0.37812268711E+02 -0.33526700883E+02  0.50801497923E+02  0.00000000000E+00 0.  1.
         11    1    1    2    0    0 -0.48495898178E+02 -0.39734404946E+02 -0.21131144287E+03  0.22041597257E+03  0.00000000000E+00 0. -1.
</event>
<event>
 7    1  0.1312490E-005  0.1042955E+03  0.7561462E-02  0.1271514E+00
          2   -1    0    0  501    0  0.00000000000E+00  0.00000000000E+00  0.67872919430E+02  0.67872919430E+02  0.00000000000E+00 0. -1.
         -2   -1    0    0    0  501 -0.00000000000E+00 -0.00000000000E+00 -0.23923252621E+03  0.23923252621E+03  0.00000000000E+00 0.  1.
         23    2    1    2    0    0 -0.54519642732E+02  0.27018755436E+02 -0.13248579124E+03  0.19209658287E+03  0.12508480197E+03 0.  0.
          5    1    3    3  502    0 -0.54307648069E+02 -0.34562068049E+02 -0.27107497911E+02  0.69972466225E+02  0.41800000000E+01 0.  1.
         -5    1    3    3    0  502 -0.21199466259E+00  0.61580823484E+02 -0.10537829333E+03  0.12212411665E+03  0.41800000000E+01 0.  1.
        -11    1    1    2    0    0  0.60373606673E+02 -0.36984829448E+02 -0.58759406360E+02  0.92008248694E+02  0.00000000000E+00 0.  1.
         11    1    1    2    0    0 -0.58539639414E+01  0.99660740121E+01  0.19885590823E+02  0.23000614066E+02  0.00000000000E+00 0. -1.
</event>
<event>
 7    1  0.1312490E-005  0.1280715E+03  0.7561462E-02  0.1230346E+00
          1   -1    0    0  501    0  0.00000000000E+00  0.00000000000E+00  0.36420366223E+03  0.36420366223E+03  0.00000000000E+00 0. -1.
         -1   -1    0    0    0  501 -0.00000000000E+00 -0.00000000000E+00 -0.48681439005E+02  0.48681439005E+02  0.00000000000E+00 0.  1.
         23    2    1    2    0    0 -0.42891270117E+02 -0.60374328088E+02  0.13217224246E+03  0.19647027126E+03  0.12508535194E+03 0.  0.
          5    1    3    3  502    0 -0.72538134727E+02 -0.78714929974E+02  0.80502111852E+02  0.13399956568E+03  0.41800000000E+01 0.  1.
         -5    1    3    3    0  502  0.29646864610E+02  0.18340601886E+02  0.51670130609E+02  0.62470705582E+02  0.41800000000E+01 0.  1.
        -11    1    1    2    0    0 -0.19268529156E+02 -0.85631011395E+01  0.23538622894E+02  0.31601735470E+02  0.00000000000E+00 0.  1.
         11    1    1    2    0    0  0.62159799273E+02  0.68937429228E+02  0.15981135787E+03  0.18481309450E+03  0.00000000000E+00 0. -1.
</event>
<event>
 7    1  0.1312490E-005  0.1167461E+03  0.7561462E-02  0.1248564E+00
          1   -1    0    0  501    0  0.00000000000E+00  0.00000000000E+00  0.40262378794E+02  0.40262378794E+02  0.00000000000E+00 0. -1.
         -1   -1    0    0    0  501 -0.00000000000E+00 -0.00000000000E+00 -0.36402579335E+03  0.36402579335E+03  0.00000000000E+00 0.  1.
         23    2    1    2    0    0 -0.38640532501E+02  0.23768842613E+02 -0.23549638248E+03  0.27048815816E+03  0.12508896399E+03 0.  0.
          5    1    3    3  502    0 -0.55661928113E+02 -0.38866316646E+02 -0.12128991802E+03  0.13905954633E+03  0.41800000000E+01 0.  1.
         -5    1    3    3    0  502  0.17021395613E+02  0.62635159259E+02 -0.11420646446E+03  0.13142861183E+03  0.41800000000E+01 0.  1.
        -11    1    1    2    0    0 -0.11908524224E+02 -0.44301396854E+02 -0.37053025040E+02  0.58969088318E+02  0.00000000000E+00 0. -1.
         11    1    1    2    0    0  0.50549056724E+02  0.20532554242E+02 -0.51214007032E+02  0.74830925664E+02  0.00000000000E+00 0.  1.
</event>
<event>
 7    1  0.1312490E-005  0.1286123E+03  0.7561462E-02  0.1229530E+00
         -2   -1    0    0    0  501 -0.00000000000E+00  0.00000000000E+00  0.68497450344E+02  0.68497450344E+02  0.00000000000E+00 0.  1.
          2   -1    0    0  501    0  0.00000000000E+00 -0.00000000000E+00 -0.29914802194E+03  0.29914802194E+03  0.00000000000E+00 0. -1.
         23    2    1    2    0    0  0.91410979548E+02  0.20242360132E+02 -0.11708874444E+03  0.19525531501E+03  0.12509653727E+03 0.  0.
          5    1    3    3  502    0  0.92544953848E+02 -0.31045409369E+02 -0.10283424868E+03  0.14184759789E+03  0.41800000000E+01 0. -1.
         -5    1    3    3    0  502 -0.11339743000E+01  0.51287769500E+02 -0.14254495760E+02  0.53407717115E+02  0.41800000000E+01 0. -1.
        -11    1    1    2    0    0 -0.34408422223E+02 -0.35091640660E+02 -0.56787821720E+01  0.49473339599E+02  0.00000000000E+00 0.  1.
         11    1    1    2    0    0 -0.57002557325E+02  0.14849280529E+02 -0.10788304499E+03  0.12291681768E+03  0.00000000000E+00 0. -1.
</event>
<event>
 7    1  0.1312490E-005  0.1020861E+03  0.7561462E-02  0.1275969E+00
         -1   -1    0    0    0  501 -0.00000000000E+00  0.00000000000E+00  0.21594865558E+02  0.21594865558E+02  0.00000000000E+00 0.  1.
          1   -1    0    0  501    0  0.00000000000E+00 -0.00000000000E+00 -0.55943186140E+03  0.55943186140E+03  0.00000000000E+00 0. -1.
         23    2    1    2    0    0 -0.39451893425E+01 -0.17141539976E+02 -0.27231850277E+03  0.30018923361E+03  0.12508721802E+03 0.  0.
          5    1    3    3  502    0 -0.58822979896E+02  0.57940616675E+01 -0.85040370982E+02  0.10364869131E+03  0.41800000000E+01 0. -1.
         -5    1    3    3    0  502  0.54877790554E+02 -0.22935601644E+02 -0.18727813179E+03  0.19654054229E+03  0.41800000000E+01 0. -1.
        -11    1    1    2    0    0  0.33074657980E+02 -0.19568048780E+02 -0.70780295767E+02  0.80540001256E+02  0.00000000000E+00 0. -1.
         11    1    1    2    0    0 -0.29129468637E+02  0.36709588757E+02 -0.19473819730E+03  0.20029749209E+03  0.00000000000E+00 0.  1.
</event>
<event>
 7    1  0.1312490E-005  0.1216077E+03  0.7561462E-02  0.1240468E+00
         -2   -1    0    0    0  501 -0.00000000000E+00  0.00000000000E+00  0.80668112006E+02  0.80668112006E+02  0.00000000000E+00 0.  1.
          2   -1    0    0  501    0  0.00000000000E+00 -0.00000000000E+00 -0.19539626717E+03  0.19539626717E+03  0.00000000000E+00 0. -1.
         23    2    1    2    0    0 -0.56006430150E+02 -0.12834007322E+01 -0.40019549475E+02  0.14278151742E+03  0.12508649024E+03 0.  0.
          5    1    3    3  502    0 -0.96855075829E+01 -0.60234199654E+02 -0.10235531794E+02  0.62001664302E+02  0.41800000000E+01 0.  1.
         -5    1    3    3    0  502 -0.46320922567E+02  0.58950798922E+02 -0.29784017681E+02  0.80779853120E+02  0.41800000000E+01 0.  1.
        -11    1    1    2    0    0  0.13157012465E+02 -0.43231149107E+02 -0.15682366218E+02  0.47832790430E+02  0.00000000000E+00 0.  1.
         11    1    1    2    0    0  0.42849417685E+02  0.44514549839E+02 -0.59026239475E+02  0.85450071328E+02  0.00000000000E+00 0. -1.
</event>
<event>
 7    1  0.1312490E-005  0.1635018E+03  0.7561462E-02  0.1184799E+00
          2   -1    0    0  501    0  0.00000000000E+00  0.00000000000E+00  0.75406334078E+03  0.75406334078E+03  0.00000000000E+00 0. -1.
         -2   -1    0    0    0  501 -0.00000000000E+00 -0.00000000000E+00 -0.39694080284E+02  0.39694080284E+02  0.00000000000E+00 0.  1.
         23    2    1    2    0    0  0.57879389218E+02  0.12087149475E+03  0.35259358943E+03  0.39740357753E+03  0.12508965660E+03 0.  0.
          5    1    3    3  502    0  0.16729651367E+01  0.12555716667E+03  0.26271841461E+03  0.29121442047E+03  0.41800000000E+01 0.  1.
         -5    1    3    3    0  502  0.56206424081E+02 -0.46856719113E+01  0.89875174821E+02  0.10618915707E+03  0.41800000000E+01 0.  1.
        -11    1    1    2    0    0 -0.28273709810E+02 -0.10950632845E+03  0.33884099285E+03  0.35721738070E+03  0.00000000000E+00 0. -1.
         11    1    1    2    0    0 -0.29605679408E+02 -0.11365166300E+02  0.22934678221E+02  0.39136462836E+02  0.00000000000E+00 0.  1.
</event>
<event>
 7    1  0.1312490E-005  0.9848800E+02  0.7561462E-02  0.1283508E+00
         -1   -1    0    0    0  501 -0.00000000000E+00  0.00000000000E+00  0.83086372087E+02  0.83086372087E+02  0.00000000000E+00 0.  1.
          1   -1    0    0  501    0  0.00000000000E+00 -0.00000000000E+00 -0.24116324412E+03  0.24116324412E+03  0.00000000000E+00 0. -1.
         23    2    1    2    0    0  0.61709840457E+02 -0.35426104626E+02 -0.20457578555E+02  0.14536257644E+03  0.12509457547E+03 0.  0.
          5    1    3    3  502    0  0.28600183594E+02  0.34708483236E+02 -0.45148038281E+02  0.63862877095E+02  0.41800000000E+01 0.  1.
         -5    1    3    3    0  502  0.33109656863E+02 -0.70134587863E+02  0.24690459726E+02  0.81499699347E+02  0.41800000000E+01 0.  1.
        -11    1    1    2    0    0 -0.18167284405E+02  0.22086885021E+02 -0.12951084668E+03  0.13263084151E+03  0.00000000000E+00 0. -1.
         11    1    1    2    0    0 -0.43542556052E+02  0.13339219605E+02 -0.81084467961E+01  0.46256198251E+02  0.00000000000E+00 0.  1.
</event>
<event>
 7    1  0.1312490E-005  0.1807155E+03  0.7561462E-02  0.1167112E+00
         -2   -1    0    0    0  501 -0.00000000000E+00  0.00000000000E+00  0.88393913587E+02  0.88393913587E+02  0.00000000000E+00 0.  1.
          2   -1    0    0  501    0  0.00000000000E+00 -0.00000000000E+00 -0.49156612041E+03  0.49156612041E+03  0.00000000000E+00 0. -1.
         23    2    1    2    0    0  0.13711962532E+03  0.81990930567E+02 -0.10142371543E+03  0.22683745675E+03  0.12507660610E+03 0.  0.
          5    1    3    3  502    0 -0.10829839584E+01 -0.25868769659E+02 -0.22415610211E+02  0.34500696791E+02  0.41800000000E+01 0.  1.
         -5    1    3    3    0  502  0.13820260928E+03  0.10785970023E+03 -0.79008105217E+02  0.19233675996E+03  0.41800000000E+01 0.  1.
        -11    1    1    2    0    0 -0.11635268105E+03 -0.67408448988E+02 -0.15945923043E+03  0.20858833034E+03  0.00000000000E+00 0.  1.
         11    1    1    2    0    0 -0.20766944268E+02 -0.14582481578E+02 -0.14228926096E+03  0.14453424690E+03  0.00000000000E+00 0. -1.
</event>
<event>
 7    1  0.1312490E-005  0.1590461E+03  0.7561462E-02  0.1189778E+00
         -2   -1    0    0    0  501 -0.00000000000E+00  0.00000000000E+00  0.29319559850E+02  0.29319559850E+02  0.00000000000E+00 0.  1.
          2   -1    0    0  501    0  0.00000000000E+00 -0.00000000000E+00 -0.89539022397E+03  0.89539022397E+03  0.00000000000E+00 0. -1.
         23    2    1    2    0    0  0.72841547503E+02  0.90869737874E+02 -0.38020142418E+03  0.41685005363E+03  0.12509054304E+03 0.  0.
          5    1    3    3  502    0  0.26150226528E+02 -0.30733195046E+02 -0.92782109208E+02  0.10126379320E+03  0.41800000000E+01 0. -1.
         -5    1    3    3    0  502  0.46691320976E+02  0.12160293292E+03 -0.28741931497E+03  0.31558626042E+03  0.41800000000E+01 0. -1.
        -11    1    1    2    0    0 -0.72675214199E+02 -0.18719974898E+02 -0.27106737102E+03  0.28126436648E+03  0.00000000000E+00 0.  1.
         11    1    1    2    0    0 -0.16633330465E+00 -0.72149762977E+02 -0.21480186893E+03  0.22659536372E+03  0.00000000000E+00 0. -1.
</event>
<event>
 7    1  0.1312490E-005  0.2035042E+03  0.7561462E-02  0.1146816E+00
          4   -1    0    0  501    0  0.00000000000E+00  0.00000000000E+00  0.11434265558E+03  0.11434265558E+03  0.00000000000E+00 0. -1.
         -4   -1    0    0    0  501 -0.00000000000E+00 -0.00000000000E+00 -0.48381607737E+03  0.48381607737E+03  0.00000000000E+00 0.  1.
         23    2    1    2    0    0  0.23845792154E+02 -0.17484882035E+03 -0.33258449622E+03  0.39673662587E+03  0.12508705527E+03 0.  0.
          5    1    3    3  502    0 -0.24256258232E+02 -0.15519142794E+03 -0.20049631731E+03  0.25473317614E+03  0.41800000000E+01 0. -1.
         -5    1    3    3    0  502  0.48102050387E+02 -0.19657392412E+02 -0.13208817891E+03  0.14200344973E+03  0.41800000000E+01 0. -1.
        -11    1    1    2    0    0  0.29929006658E+02  0.10735463355E+03 -0.25996314158E+02  0.11444025137E+03  0.00000000000E+00 0.  1.
         11    1    1    2    0    0 -0.53774798812E+02  0.67494186800E+02 -0.10892611416E+02  0.86981855709E+02  0.00000000000E+00 0. -1.
</event>
<event>
 7    1  0.1312490E-005  0.8632862E+02  0.7561462E-02  0.1311994E+00
         -2   -1    0    0    0  501 -0.00000000000E+00  0.00000000000E+00  0.45388932478E+02  0.45388932478E+02  0.00000000000E+00 0.  1.
          2   -1    0    0  501    0  0.00000000000E+00 -0.00000000000E+00 -0.52658606106E+03  0.52658606106E+03  0.00000000000E+00 0. -1.
         23    2    1    2    0    0  0.47428115663E+02  0.35428845485E+02 -0.86994076664E+02  0.16346306198E+03  0.12509026345E+03 0.  0.
          5    1    3    3  502    0 -0.72658118862E+01  0.32225402125E+02 -0.10134337356E+03  0.10667342841E+03  0.41800000000E+01 0.  1.
         -5    1    3    3    0  502  0.54693927549E+02  0.32034433603E+01  0.14349296892E+02  0.56789633573E+02  0.41800000000E+01 0.  1.
        -11    1    1    2    0    0  0.12826084976E+02 -0.17210960181E+02 -0.20969879825E+02  0.30007690115E+02  0.00000000000E+00 0.  1.
         11    1    1    2    0    0 -0.60254200638E+02 -0.18217885304E+02 -0.37323317209E+03  0.37850424144E+03  0.00000000000E+00 0. -1.
</event>
<event>
 7    1  0.1312490E-005  0.1091552E+03  0.7561462E-02  0.1262142E+00
         -3   -1    0    0    0  501 -0.00000000000E+00  0.00000000000E+00  0.29338352432E+03  0.29338352432E+03  0.00000000000E+00 0.  1.
          3   -1    0    0  501    0  0.00000000000E+00 -0.00000000000E+00 -0.41628738981E+02  0.41628738981E+02  0.00000000000E+00 0. -1.
         23    2    1    2    0    0 -0.15933048064E+02 -0.69346088148E+00  0.15751712101E+03  0.20177575654E+03  0.12508984614E+03 0.  0.
          5    1    3    3  502    0 -0.48657449976E+02 -0.47823120115E+02  0.91455554507E+02  0.11417613194E+03  0.41800000000E+01 0.  1.
         -5    1    3    3    0  502  0.32724401912E+02  0.47129659234E+02  0.66061566504E+02  0.87599624594E+02  0.41800000000E+01 0.  1.
        -11    1    1    2    0    0  0.51358047720E+02  0.16066253700E+02  0.67222300176E+02  0.86108136750E+02  0.00000000000E+00 0. -1.
         11    1    1    2    0    0 -0.35424999656E+02 -0.15372792818E+02  0.27015364150E+02  0.47128370010E+02  0.00000000000E+00 0.  1.
</event>
<event>
 7    1  0.1312490E-005  0.7666369E+02  0.7561462E-02  0.1338795E+00
          1   -1    0    0  501    0  0.00000000000E+00  0.00000000000E+00  0.20186987841E+03  0.20186987841E+03  0.00000000000E+00 0. -1.
         -1   -1    0    0    0  501 -0.00000000000E+00 -0.00000000000E+00 -0.77518224150E+02  0.77518224150E+02  0.00000000000E+00 0.  1.
         23    2    1    2    0    0  0.48195231142E+02  0.99677129208E+01  0.25845563950E+02  0.13685749762E+03  0.12505936939E+03 0.  0.
          5    1    3    3  502    0  0.58590916954E+02  0.43417098726E+01  0.69695328870E+02  0.91250519234E+02  0.41800000000E+01 0. -1.
         -5    1    3    3    0  502 -0.10395685813E+02  0.56260030482E+01 -0.43849764920E+02  0.45606978384E+02  0.41800000000E+01 0. -1.
        -11    1    1    2    0    0 -0.33047994604E+02  0.26526204966E+02  0.71236093399E+01  0.42971563938E+02  0.00000000000E+00 0.  1.
         11    1    1    2    0    0 -0.15147236537E+02 -0.36493917887E+02  0.91382480971E+02  0.99559041005E+02  0.00000000000E+00 0. -1.
</event>
<event>
 7    1  0.1312490E-005  0.9134651E+02  0.7561462E-02  0.1299623E+00
          1   -1    0    0  501    0  0.00000000000E+00  0.00000000000E+00  0.35108369403E+03  0.35108369403E+03  0.00000000000E+00 0. -1.
         -1   -1    0    0    0  501 -0.00000000000E+00 -0.00000000000E+00 -0.41778347629E+02  0.41778347629E+02  0.00000000000E+00 0.  1.
         23    2    1    2    0    0 -0.34399164453E+02  0.37637917963E+02  0.15283468225E+03  0.20397548316E+03  0.12509053620E+03 0.  0.
          5    1    3    3  502    0 -0.61286443379E+02  0.24776998516E+02  0.15988650094E+03  0.17306384192E+03  0.41800000000E+01 0.  1.
         -5    1    3    3    0  502  0.26887278926E+02  0.12860919448E+02 -0.70518186888E+01  0.30911641236E+02  0.41800000000E+01 0.  1.
        -11    1    1    2    0    0  0.53512705647E+02 -0.40395238710E+02  0.58346813296E+02  0.88880456782E+02  0.00000000000E+00 0.  1.
         11    1    1    2    0    0 -0.19113541194E+02  0.27573207464E+01  0.98123850855E+02  0.10000610172E+03  0.00000000000E+00 0. -1.
</event>
<event>
 7    1  0.1312490E-005  0.1385801E+03  0.7561462E-02  0.1215252E+00
          1   -1    0    0  501    0  0.00000000000E+00  0.00000000000E+00  0.38983539210E+03  0.38983539210E+03  0.00000000000E+00 0. -1.
         -1   -1    0    0    0  501 -0.00000000000E+00 -0.00000000000E+00 -0.57579108901E+02  0.57579108901E+02  0.00000000000E+00 0.  1.
         23    2    1    2    0    0 -0.58139236057E+01 -0.98979197480E+02  0.13729836937E+03  0.21055654072E+03  0.12511007701E+03 0.  0.
          5    1    3    3  502    0 -0.26593213607E+02  0.12472503932E+02  0.76044532470E+02  0.81627236159E+02  0.41800000000E+01 0.  1.
         -5    1    3    3    0  502  0.20779290001E+02 -0.11145170141E+03  0.61253836901E+02  0.12892930457E+03  0.41800000000E+01 0.  1.
        -11    1    1    2    0    0 -0.53154225012E+01  0.11467658730E+03  0.17343793260E+03  0.20798963881E+03  0.00000000000E+00 0.  1.
         11    1    1    2    0    0  0.11129346107E+02 -0.15697389817E+02  0.21519981226E+02  0.28868321458E+02  0.00000000000E+00 0. -1.
</event>
<event>
 6    1  0.1312490E-005  0.2402310E+03  0.7561462E-02  0.1119639E+00
          1   -1    0    0  501    0  0.00000000000E+00  0.00000000000E+00  0.52874274073E+03  0.52874274073E+03  0.00000000000E+00 0. -1.
         -1   -1    0    0    0  501 -0.00000000000E+00 -0.00000000000E+00 -0.18482481600E+03  0.18482481600E+03  0.00000000000E+00 0.  1.
          5    1    1    2  502    0 -0.40000724801E+02 -0.58946354829E+02  0.32295144968E+01  0.71432715867E+02  0.41800000000E+01 0. -1.
         -5    1    1    2    0  502 -0.14246209038E+03  0.14393031290E+03 -0.36917050324E+02  0.20589250392E+03  0.41800000000E+01 0.  1.
        -11    1    1    2    0    0  0.57194629053E+02 -0.51295707937E+02  0.76668854268E+02  0.10853841928E+03  0.00000000000E+00 0.  1.
         11    1    1    2    0    0  0.12526818612E+03 -0.33688250131E+02  0.30093660628E+03  0.32770391766E+03  0.00000000000E+00 0. -1.
</event>
<event>
 7    1  0.1312490E-005  0.8752774E+02  0.7561462E-02  0.1308952E+00
         -1   -1    0    0    0  501 -0.00000000000E+00  0.00000000000E+00  0.23342865697E+02  0.23342865697E+02  0.00000000000E+00 0.  1.
          1   -1    0    0  501    0  0.00000000000E+00 -0.00000000000E+00 -0.57084337173E+03  0.57084337173E+03  0.00000000000E+00 0. -1.
         23    2    1    2    0    0 -0.19650064412E+02 -0.74016664425E+01 -0.39003609432E+03  0.41112236091E+03  0.12826742015E+03 0.  0.
          5    1    3    3  502    0 -0.37497652320E+02 -0.47058559889E+02 -0.33725316465E+03  0.34260436578E+03  0.41800000000E+01 0. -1.
         -5    1    3    3    0  502  0.17847587908E+02  0.39656893447E+02 -0.52782929675E+02  0.68517995133E+02  0.41800000000E+01 0.  1.
        -11    1    1    2    0    0  0.44191670025E+01 -0.30179071940E+02 -0.13132175369E+03  0.13481731496E+03  0.00000000000E+00 0. -1.
         11    1    1    2    0    0  0.15230897410E+02  0.37580738383E+02 -0.26142658018E+02  0.48246561552E+02  0.00000000000E+00 0.  1.
</event>
<event>
 7    1  0.1312490E-005  0.9945916E+02  0.7561462E-02  0.1281437E+00
         -1   -1    0    0    0  501 -0.00000000000E+00  0.00000000000E+00  0.31194704809E+03  0.31194704809E+03  0.00000000000E+00 0.  1.
          1   -1    0    0  501    0  0.00000000000E+00 -0.00000000000E+00 -0.70637933448E+02  0.70637933448E+02  0.00000000000E+00 0. -1.
         23    2    1    2    0    0 -0.44635744454E+02  0.39209171085E+02  0.23500133144E+03  0.27276865872E+03  0.12508959437E+03 0.  0.
          5    1    3    3  502    0 -0.16590287628E+02 -0.37086224934E+02  0.14841344186E+03  0.15393065922E+03  0.41800000000E+01 0. -1.
         -5    1    3    3    0  502 -0.28045456827E+02  0.76295396019E+02  0.86587889581E+02  0.11883799950E+03  0.41800000000E+01 0. -1.
        -11    1    1    2    0    0  0.29029336781E+01  0.11009626219E+02 -0.32101751875E+02  0.34061141596E+02  0.00000000000E+00 0. -1.
         11    1    1    2    0    0  0.41732810776E+02 -0.50218797304E+02  0.38409535080E+02  0.75755181229E+02  0.00000000000E+00 0.  1.
</event>
<event>
 7    1  0.1312490E-005  0.1555370E+03  0.7561462E-02  0.1193830E+00
         -2   -1    0    0    0  501 -0.00000000000E+00  0.00000000000E+00  0.42650503085E+02  0.42650503085E+02  0.00000000000E+00 0.  1.
          2   -1    0    0  501    0  0.00000000000E+00 -0.00000000000E+00 -0.65082703722E+03  0.65082703722E+03  0.00000000000E+00 0. -1.
         23    2    1    2    0    0 -0.11760683824E+03 -0.47731304460E+02 -0.25777995178E+03  0.30968773362E+03  0.11552637357E+03 0.  0.
          5    1    3    3  502    0 -0.78152765020E+01 -0.45315379654E+02 -0.25560777992E+02  0.52776774737E+02  0.41800000000E+01 0. -1.
         -5    1    3    3    0  502 -0.10979156173E+03 -0.24159248054E+01 -0.23221917379E+03  0.25691095888E+03  0.41800000000E+01 0.  1.
        -11    1    1    2    0    0  0.68531744001E+02  0.72726338590E+02 -0.19886006270E+03  0.22255571167E+03  0.00000000000E+00 0.  1.
         11    1    1    2    0    0  0.49075094234E+02 -0.24995034130E+02 -0.15153651966E+03  0.16123409501E+03  0.00000000000E+00 0. -1.
</event>
<event>
 7    1  0.1312490E-005  0.1663417E+03  0.7561462E-02  0.1181717E+00
          2   -1    0    0  501    0  0.00000000000E+00  0.00000000000E+00  0.84907219311E+03  0.84907219311E+03  0.00000000000E+00 0. -1.
         -2   -1    0    0    0  501 -0.00000000000E+00 -0.00000000000E+00 -0.45583595442E+02  0.45583595442E+02  0.00000000000E+00 0.  1.
         23    2    1    2    0    0 -0.62630188858E+02 -0.14088876880E+03  0.29630994988E+03  0.35667737959E+03  0.12508789303E+03 0.  0.
          5    1    3    3  502    0 -0.51525151784E+01 -0.27550915168E+02  0.18660180052E+03  0.18874137251E+03  0.41800000000E+01 0. -1.
         -5    1    3    3    0  502 -0.57477673680E+02 -0.11333785363E+03  0.10970814936E+03  0.16793600708E+03  0.41800000000E+01 0. -1.
        -11    1    1    2    0    0  0.45029720201E+02  0.11310283685E+02  0.98620775333E+02  0.10900300705E+03  0.00000000000E+00 0.  1.
         11    1    1    2    0    0  0.17600468657E+02  0.12957848512E+03  0.40855787246E+03  0.42897540192E+03  0.00000000000E+00 0. -1.
</event>
<event>
 7    1  0.1312490E-005  0.5483182E+02  0.7561462E-02  0.1420896E+00
         -1   -1    0    0    0  501 -0.00000000000E+00  0.00000000000E+00  0.15339759514E+03  0.15339759514E+03  0.00000000000E+00 0.  1.
          1   -1    0    0  501    0  0.00000000000E+00 -0.00000000000E+00 -0.11835162949E+03  0.11835162949E+03  0.00000000000E+00 0. -1.
         23    2    1    2    0    0 -0.29806881849E+02  0.13224984243E+02  0.93041076161E+02  0.15926949115E+03  0.12508708384E+03 0.  0.
          5    1    3    3  502    0 -0.42484531408E+02  0.31992655892E+00 -0.18258769206E+02  0.46431592853E+02  0.41800000000E+01 0. -1.
         -5    1    3    3    0  502  0.12677649560E+02  0.12905057684E+02  0.11129984537E+03  0.11283789829E+03  0.41800000000E+01 0. -1.
        -11    1    1    2    0    0  0.26845683066E+02  0.71781728354E+01 -0.78578046959E+02  0.83347023512E+02  0.00000000000E+00 0. -1.
         11    1    1    2    0    0  0.29611987831E+01 -0.20403157078E+02  0.20582936450E+02  0.29132709965E+02  0.00000000000E+00 0.  1.
</event>
<event>
 7    1  0.1312490E-005  0.1190051E+03  0.7561462E-02  0.1244747E+00
          2   -1    0    0  501    0  0.00000000000E+00  0.00000000000E+00  0.55462767784E+03  0.55462767784E+03  0.00000000000E+00 0. -1.
         -2   -1    0    0    0  501 -0.00000000000E+00 -0.00000000000E+00 -0.45928090604E+02  0.45928090604E+02  0.00000000000E+00 0.  1.
         23    2    1    2    0    0 -0.55420495746E+02 -0.22723065922E+02  0.81151611369E+02  0.15967551790E+03  0.12378577428E+03 0.  0.
          5    1    3    3  502    0 -0.70709816158E+02 -0.59707593777E+02  0.74523524026E+02  0.11889534427E+03  0.41800000000E+01 0. -1.
         -5    1    3    3    0  502  0.15289320411E+02  0.36984527855E+02  0.66280873428E+01  0.40780173628E+02  0.41800000000E+01 0.  1.
        -11    1    1    2    0    0 -0.59196054826E+01 -0.26081230140E+02  0.15473430536E+03  0.15702858832E+03  0.00000000000E+00 0.  1.
         11    1    1    2    0    0  0.61340101229E+02  0.48804296062E+02  0.27281367050E+03  0.28385166222E+03  0.00000000000E+00 0. -1.
</event>
<event>
 7    1  0.1312490E-005  0.1746781E+03  0.7561462E-02  0.1173055E+00
         -3   -1    0    0    0  501 -0.00000000000E+00  0.00000000000E+00  0.12093349615E+03  0.12093349615E+03  0.00000000000E+00 0.  1.
          3   -1    0    0  501    0  0.00000000000E+00 -0.00000000000E+00 -0.35724548706E+03  0.35724548706E+03  0.00000000000E+00 0. -1.
         23    2    1    2    0    0  0.41420015854E+02  0.16859716566E+03 -0.82795492406E+02  0.22943861262E+03  0.12508541648E+03 0.  0.
          5    1    3    3  502    0  0.11570593140E+02  0.20281857875E+02  0.31749334680E+02  0.39632373599E+02  0.41800000000E+01 0. -1.
         -5    1    3    3    0  502  0.29849422714E+02  0.14831530779E+03 -0.11454482709E+03  0.18980623902E+03  0.41800000000E+01 0. -1.
        -11    1    1    2    0    0 -0.42381594329E+02 -0.15601772032E+03 -0.16548496932E+03  0.23135039153E+03  0.00000000000E+00 0. -1.
         11    1    1    2    0    0  0.96157847468E+00 -0.12579445337E+02  0.11968470807E+02  0.17389979057E+02  0.00000000000E+00 0.  1.
</event>
<event>
 7    1  0.1312490E-005  0.1011804E+03  0.7561462E-02  0.1277833E+00
         -1   -1    0    0    0  501 -0.00000000000E+00  0.00000000000E+00  0.99712871287E+02  0.99712871287E+02  0.00000000000E+00 0.  1.
          1   -1    0    0  501    0  0.00000000000E+00 -0.00000000000E+00 -0.13055549909E+03  0.13055549909E+03  0.00000000000E+00 0. -1.
         23    2    1    2    0    0  0.31264994084E+00 -0.11349292419E+02  0.14243117464E+02  0.12640916163E+03  0.12508998985E+03 0.  0.
          5    1    3    3  502    0 -0.56968255318E+02 -0.12079118141E+02 -0.17281978739E+02  0.60888639320E+02  0.41800000000E+01 0.  1.
         -5    1    3    3    0  502  0.57280905259E+02  0.72982572154E+00  0.31525096203E+02  0.65520522308E+02  0.41800000000E+01 0.  1.
        -11    1    1    2    0    0  0.36933133243E+02 -0.16080584894E+02 -0.40912647100E+02  0.57415034916E+02  0.00000000000E+00 0.  1.
         11    1    1    2    0    0 -0.37245783184E+02  0.27429877314E+02 -0.41730981623E+01  0.46444173829E+02  0.00000000000E+00 0. -1.
</event>
<event>
 7    1  0.1312490E-005  0.7697144E+02  0.7561462E-02  0.1337873E+00
         -3   -1    0    0    0  501 -0.00000000000E+00  0.00000000000E+00  0.15748690345E+03  0.15748690345E+03  0.00000000000E+00 0.  1.
          3   -1    0    0  501    0  0.00000000000E+00 -0.00000000000E+00 -0.97344562499E+02  0.97344562499E+02  0.00000000000E+00 0. -1.
         23    2    1    2    0    0 -0.29320519477E+02 -0.45829439056E+02  0.45675038339E+02  0.14385588017E+03  0.12509306450E+03 0.  0.
          5    1    3    3  502    0 -0.52360874802E+02 -0.36600772334E+02  0.79259732393E+02  0.10188648254E+03  0.41800000000E+01 0.  1.
         -5    1    3    3    0  502  0.23040355325E+02 -0.92286667224E+01 -0.33584694054E+02  0.41969397633E+02  0.41800000000E+01 0.  1.
        -11    1    1    2    0    0  0.30124921110E+02  0.14536592705E+02  0.52169784399E+02  0.61971846863E+02  0.00000000000E+00 0.  1.
         11    1    1    2    0    0 -0.80440163352E+00  0.31292846351E+02 -0.37702481786E+02  0.49003738914E+02  0.00000000000E+00 0. -1.
</event>
<event>
 7    1  0.1312490E-005  0.7924835E+02  0.7561462E-02  0.1331198E+00
         -1   -1    0    0    0  501 -0.00000000000E+00  0.00000000000E+00  0.32026889436E+02  0.32026889436E+02  0.00000000000E+00 0.  1.
          1   -1    0    0  501    0  0.00000000000E+00 -0.00000000000E+00 -0.39833582853E+03  0.39833582853E+03  0.00000000000E+00 0. -1.
         23    2    1    2    0    0  0.28153486694E+01 -0.24085890969E+02 -0.20643280208E+03  0.24259250429E+03  0.12509422461E+03 0.  0.
          5    1    3    3  502    0 -0.10883593845E+02  0.32002544920E+02 -0.17178191180E+03  0.17512599212E+03  0.41800000000E+01 0. -1.
         -5    1    3    3    0  502  0.13698942514E+02 -0.56088435889E+02 -0.34650890278E+02  0.67466512164E+02  0.41800000000E+01 0. -1.
        -11    1    1    2    0    0  0.29312022995E+02  0.68998996410E+01 -0.74106356576E+01  0.31011624079E+02  0.00000000000E+00 0.  1.
         11    1    1    2    0    0 -0.32127371665E+02  0.17185991328E+02 -0.15246550136E+03  0.15675858960E+03  0.00000000000E+00 0. -1.
</event>
<event>
 7    1  0.1312490E-005  0.1687787E+03  0.7561462E-02  0.1179127E+00
         -2   -1    0    0    0  501 -0.00000000000E+00  0.00000000000E+00  0.32334698520E+03  0.32334698520E+03  0.00000000000E+00 0. -1.
          2   -1    0    0  501    0  0.00000000000E+00 -0.00000000000E+00 -0.11953004976E+03  0.11953004976E+03  0.00000000000E+00 0.  1.
         23    2    1    2    0    0 -0.11624036225E+03 -0.98988861384E+02  0.17293965379E+03  0.26241705484E+03  0.12507585827E+03 0.  0.
          5    1    3    3  502    0 -0.13576070916E+03 -0.83479323126E+02  0.17538764552E+03  0.23701912611E+03  0.41800000000E+01 0. -1.
         -5    1    3    3    0  502  0.19520346909E+02 -0.15509538258E+02 -0.24479917230E+01  0.25397928732E+02  0.41800000000E+01 0. -1.
        -11    1    1    2    0    0  0.50516784076E+02  0.47757951033E+02 -0.31545729923E+02  0.76340686640E+02  0.00000000000E+00 0.  1.
         11    1    1    2    0    0  0.65723578170E+02  0.51230910351E+02  0.62423011570E+02  0.10411929349E+03  0.00000000000E+00 0. -1.
</event>
<event>
 7    1  0.1312490E-005  0.8179900E+02  0.7561462E-02  0.1324022E+00
         -2   -1    0    0    0  501 -0.00000000000E+00  0.00000000000E+00  0.93568290634E+02  0.93568290634E+02  0.00000000000E+00 0.  1.
          2   -1    0    0  501    0  0.00000000000E+00 -0.00000000000E+00 -0.16946276851E+03  0.16946276851E+03  0.00000000000E+00 0. -1.
         23    2    1    2    0    0  0.16681147819E+02  0.55961480686E+02 -0.21599222290E+02  0.13972108680E+03  0.12508200382E+03 0.  0.
          5    1    3    3  502    0 -0.14543901158E+01  0.37258229151E+02  0.50518847088E+02  0.62927873006E+02  0.41800000000E+01 0.  1.
         -5    1    3    3    0  502  0.18135537934E+02  0.18703251535E+02 -0.72118069378E+02  0.76793213795E+02  0.41800000000E+01 0.  1.
        -11    1    1    2    0    0 -0.48722675999E+02 -0.23546279253E+02 -0.55768679826E+02  0.77707606273E+02  0.00000000000E+00 0. -1.
         11    1    1    2    0    0  0.32041528180E+02 -0.32415201433E+02  0.14734242406E+01  0.45602366069E+02  0.00000000000E+00 0.  1.
</event>
<event>
 7    1  0.1312490E-005  0.1295596E+03  0.7561462E-02  0.1228111E+00
         -4   -1    0    0    0  501 -0.00000000000E+00  0.00000000000E+00  0.61464653837E+03  0.61464653837E+03  0.00000000000E+00 0.  1.
          4   -1    0    0  501    0  0.00000000000E+00 -0.00000000000E+00 -0.49774362180E+02  0.49774362180E+02  0.00000000000E+00 0. -1.
         23    2    1    2    0    0 -0.90754513223E+02 -0.48163783961E+02  0.46843677568E+03  0.49518861110E+03  0.12337996597E+03 0.  0.
          5    1    3    3  502    0 -0.43342587795E+02  0.13156324182E+02  0.42554126266E+02  0.62289604631E+02  0.41800000000E+01 0. -1.
         -5    1    3    3    0  502 -0.47411925428E+02 -0.61320108143E+02  0.42588264941E+03  0.43289900647E+03  0.41800000000E+01 0.  1.
        -11    1    1    2    0    0  0.70685640571E+02 -0.12791061405E+02  0.68441992017E+02  0.99218835440E+02  0.00000000000E+00 0.  1.
         11    1    1    2    0    0  0.20068872652E+02  0.60954845366E+02  0.27993408500E+02  0.70013454011E+02  0.00000000000E+00 0. -1.
</event>
<event>
 7    1  0.1312490E-005  0.5895976E+02  0.7561462E-02  0.1402250E+00
         -1   -1    0    0    0  501 -0.00000000000E+00  0.00000000000E+00  0.17538193925E+03  0.17538193925E+03  0.00000000000E+00 0.  1.
          1   -1    0    0  501    0  0.00000000000E+00 -0.00000000000E+00 -0.75425068413E+02  0.75425068413E+02  0.00000000000E+00 0. -1.
         23    2    1    2    0    0  0.63455965539E+01 -0.22434809331E+02  0.88418818235E+02  0.15494979314E+03  0.12509182112E+03 0.  0.
          5    1    3    3  502    0  0.13614352190E+02 -0.28985168047E+02 -0.25119518576E+02  0.40913972744E+02  0.41800000000E+01 0.  1.
         -5    1    3    3    0  502 -0.72687556365E+01  0.65503587161E+01  0.11353833681E+03  0.11403582040E+03  0.41800000000E+01 0.  1.
        -11    1    1    2    0    0  0.32302104990E+02  0.15055852068E+02  0.35079236481E+02  0.50006574572E+02  0.00000000000E+00 0.  1.
         11    1    1    2    0    0 -0.38647701544E+02  0.73789572624E+01 -0.23541183883E+02  0.45850639946E+02  0.00000000000E+00 0. -1.
</event>
<event>
 7    1  0.1312490E-005  0.1510360E+03  0.7561462E-02  0.1199206E+00
          1   -1    0    0  501    0  0.00000000000E+00  0.00000000000E+00  0.38645990285E+03  0.38645990285E+03  0.00000000000E+00 0. -1.
         -1   -1    0    0    0  501 -0.00000000000E+00 -0.00000000000E+00 -0.13771816890E+03  0.13771816890E+03  0.00000000000E+00 0.  1.
         23    2    1    2    0    0 -0.83966428861E+02  0.81401767760E+02 -0.61732465527E+02  0.18203133647E+03  0.12509157121E+03 0.  0.
          5    1    3    3  502    0 -0.64192798761E+02 -0.20321510714E+02 -0.21788418221E+02  0.70893488975E+02  0.41800000000E+01 0. -1.
         -5    1    3    3    0  502 -0.19773630101E+02  0.10172327847E+03 -0.39944047305E+02  0.11113784750E+03  0.41800000000E+01 0. -1.
        -11    1    1    2    0    0  0.67326667682E+02 -0.24552749240E+02  0.23794638023E+03  0.24850391856E+03  0.00000000000E+00 0. -1.
         11    1    1    2    0    0  0.16639761179E+02 -0.56849018520E+02  0.72527819246E+02  0.93642816721E+02  0.00000000000E+00 0.  1.
</event>
<event>
 7    1  0.1312490E-005  0.1569397E+03  0.7561462E-02  0.1192196E+00
          1   -1    0    0  501    0  0.00000000000E+00  0.00000000000E+00  0.10899471301E+03  0.10899471301E+03  0.00000000000E+00 0. -1.
         -1   -1    0    0    0  501 -0.00000000000E+00 -0.00000000000E+00 -0.63634587714E+03  0.63634587714E+03  0.00000000000E+00 0.  1.
         23    2    1    2    0    0 -0.33223831742E+02  0.12269140478E+03 -0.55680950585E+03  0.58467174625E+03  0.12508885345E+03 0.  0.
          5    1    3    3  502    0 -0.63900881656E+02  0.97515270520E+02 -0.25726147583E+03  0.28247741504E+03  0.41800000000E+01 0. -1.
         -5    1    3    3    0  502  0.30677049914E+02  0.25176134259E+02 -0.29954803002E+03  0.30219433121E+03  0.41800000000E+01 0. -1.
        -11    1    1    2    0    0  0.54250509943E+02 -0.29447686332E+02  0.18600175972E+02  0.64468989488E+02  0.00000000000E+00 0. -1.
         11    1    1    2    0    0 -0.21026678201E+02 -0.93243718448E+02  0.10858165745E+02  0.96199854415E+02  0.00000000000E+00 0.  1.
</event>
<event>
 7    1  0.1312490E-005  0.1198222E+03  0.7561462E-02  0.1243391E+00
          1   -1    0    0  501    0  0.00000000000E+00  0.00000000000E+00  0.90269937640E+03  0.90269937640E+03  0.00000000000E+00 0. -1.
         -1   -1    0    0    0  501 -0.00000000000E+00 -0.00000000000E+00 -0.28264136109E+02  0.28264136109E+02  0.00000000000E+00 0.  1.
         23    2    1    2    0    0 -0.32785073851E+02  0.83232300302E+02  0.25272359705E+03  0.29583203211E+03  0.12507956601E+03 0.  0.
          5    1    3    3  502    0 -0.26325175510E+02  0.38633828791E+00  0.18941677572E+03  0.19128343224E+03  0.41800000000E+01 0. -1.
         -5    1    3    3    0  502 -0.64598983402E+01  0.82845962014E+02  0.63306821332E+02  0.10454859987E+03  0.41800000000E+01 0. -1.
        -11    1    1    2    0    0 -0.32897578753E+02 -0.19388289710E+02  0.17247959401E+03  0.17665606929E+03  0.00000000000E+00 0. -1.
         11    1    1    2    0    0  0.65682652604E+02 -0.63844010592E+02  0.44923204922E+03  0.45847541111E+03  0.00000000000E+00 0.  1.
</event>
<event>
 7    1  0.1312490E-005  0.1326667E+03  0.7561462E-02  0.1223552E+00
          2   -1    0    0  501    0  0.00000000000E+00  0.00000000000E+00  0.70266568745E+03  0.70266568745E+03  0.00000000000E+00 0. -1.
         -2   -1    0    0    0  501 -0.00000000000E+00 -0.00000000000E+00 -0.26994273698E+02  0.26994273698E+02  0.00000000000E+00 0.  1.
         23    2    1    2    0    0 -0.83473106164E+02  0.39828281247E+01  0.30366917840E+03  0.33888917934E+03  0.12508910262E+03 0.  0.
          5    1    3    3  502    0 -0.55091047601E+02 -0.59186040180E+02  0.15762553819E+03  0.17720410144E+03  0.41800000000E+01 0. -1.
         -5    1    3    3    0  502 -0.28382058563E+02  0.63168868304E+02  0.14604364021E+03  0.16168507790E+03  0.41800000000E+01 0. -1.
        -11    1    1    2    0    0  0.19352768017E-01 -0.28116136984E+02  0.14526084158E+03  0.14795685057E+03  0.00000000000E+00 0.  1.
         11    1    1    2    0    0  0.83453753396E+02  0.24133308860E+02  0.22674139378E+03  0.24281393124E+03  0.00000000000E+00 0. -1.
</event>
<event>
 7    1  0.1312490E-005  0.8858766E+02  0.7561462E-02  0.1306308E+00
         -2   -1    0    0    0  501 -0.00000000000E+00  0.00000000000E+00  0.29154523030E+02  0.29154523030E+02  0.00000000000E+00 0.  1.
          2   -1    0    0  501    0  0.00000000000E+00 -0.00000000000E+00 -0.41468311172E+03  0.41468311172E+03  0.00000000000E+00 0. -1.
         23    2    1    2    0    0 -0.15833279645E+02 -0.93913400371E+01 -0.16244464670E+03  0.20160694754E+03  0.11797545527E+03 0.  0.
          5    1    3    3  502    0  0.16085487713E+02 -0.45253483575E+02 -0.14071377494E+03  0.14874293109E+03  0.41800000000E+01 0. -1.
         -5    1    3    3    0  502 -0.31918767358E+02  0.35862143538E+02 -0.21730871759E+02  0.52864016459E+02  0.41800000000E+01 0.  1.
        -11    1    1    2    0    0 -0.27329849664E+02  0.22785073269E+02 -0.39488549888E+02  0.53154734679E+02  0.00000000000E+00 0.  1.
         11    1    1    2    0    0  0.43163129309E+02 -0.13393733232E+02 -0.18359539211E+03  0.18907595253E+03  0.00000000000E+00 0. -1.
</event>
<event>
 7    1  0.1312490E-005  0.1074666E+03  0.7561462E-02  0.1265335E+00
          3   -1    0    0  501    0  0.00000000000E+00  0.00000000000E+00  0.12395353951E+03  0.12395353951E+03  0.00000000000E+00 0. -1.
         -3   -1    0    0    0  501 -0.00000000000E+00 -0.00000000000E+00 -0.14180526514E+03  0.14180526514E+03  0.00000000000E+00 0.  1.
         23    2    1    2    0    0  0.47057734336E+02  0.50562643036E+02 -0.41919584751E+02  0.14892482991E+03  0.12510132751E+03 0.  0.
          5    1    3    3  502    0  0.23951794545E+02  0.91381601966E+02 -0.37136543356E+02  0.10159173634E+03  0.41800000000E+01 0.  1.
         -5    1    3    3    0  502  0.23105939791E+02 -0.40818958930E+02 -0.47830413951E+01  0.47333093568E+02  0.41800000000E+01 0.  1.
        -11    1    1    2    0    0 -0.46479576819E+02 -0.36216042738E+02 -0.26251241837E+02  0.64506437747E+02  0.00000000000E+00 0.  1.
         11    1    1    2    0    0 -0.57815751688E+00 -0.14346600298E+02  0.50319100959E+02  0.52327536991E+02  0.00000000000E+00 0. -1.
</event>
<event>
 7    1  0.1312490E-005  0.1169401E+03  0.7561462E-02  0.1248232E+00
          1   -1    0    0  501    0  0.00000000000E+00  0.00000000000E+00  0.16435521928E+03  0.16435521928E+03  0.00000000000E+00 0. -1.
         -1   -1    0    0    0  501 -0.00000000000E+00 -0.00000000000E+00 -0.84589261651E+02  0.84589261651E+02  0.00000000000E+00 0.  1.
         23    2    1    2    0    0 -0.50421774185E+02 -0.80798154729E+01  0.40195898335E+02  0.14096385433E+03  0.12508980476E+03 0.  0.
          5    1    3    3  502    0 -0.49170755035E+02 -0.62981692251E+02  0.25122876757E+02  0.83863508429E+02  0.41800000000E+01 0.  1.
         -5    1    3    3    0  502 -0.12510191502E+01  0.54901876778E+02  0.15073021578E+02  0.57100345903E+02  0.41800000000E+01 0.  1.
        -11    1    1    2    0    0  0.27753742635E+02  0.46518354189E+02  0.31408769551E+02  0.62615799216E+02  0.00000000000E+00 0.  1.
         11    1    1    2    0    0  0.22668031550E+02 -0.38438538716E+02  0.81612897401E+01  0.45364827380E+02  0.00000000000E+00 0. -1.
</event>
<event>
 7    1  0.1312490E-005  0.1051356E+03  0.7561462E-02  0.1269853E+00
         -2   -1    0    0    0  501 -0.00000000000E+00  0.00000000000E+00  0.79696756314E+03  0.79696756314E+03  0.00000000000E+00 0. -1.
          2   -1    0    0  501    0  0.00000000000E+00 -0.00000000000E+00 -0.17105370120E+02  0.17105370120E+02  0.00000000000E+00 0.  1.
         23    2    1    2    0    0  0.81420993646E+01 -0.33332337964E+02  0.49793773619E+03  0.51455404399E+03  0.12508611646E+03 0.  0.
          5    1    3    3  502    0  0.32878401892E+02 -0.70288484689E+02  0.39125946639E+03  0.39890212187E+03  0.41800000000E+01 0. -1.
         -5    1    3    3    0  502 -0.24736302527E+02  0.36956146725E+02  0.10667826979E+03  0.11565192212E+03  0.41800000000E+01 0. -1.
        -11    1    1    2    0    0  0.16598037139E+02  0.53474487832E+02  0.98163975664E+02  0.11300965359E+03  0.00000000000E+00 0.  1.
         11    1    1    2    0    0 -0.24740136504E+02 -0.20142149868E+02  0.18376048117E+03  0.18650923569E+03  0.00000000000E+00 0. -1.
</event>
<event>
 7    1  0.1312490E-005  0.1145042E+03  0.7561462E-02  0.1252449E+00
         -2   -1    0    0    0  501 -0.00000000000E+00  0.00000000000E+00  0.53236096629E+02  0.53236096629E+02  0.00000000000E+00 0.  1.
          2   -1    0    0  501    0  0.00000000000E+00 -0.00000000000E+00 -0.33281630852E+03  0.33281630852E+03  0.00000000000E+00 0. -1.
         23    2    1    2    0    0  0.60703776428E+00 -0.37178094142E+02 -0.56720251882E+02  0.14229393748E+03  0.12509116073E+03 0.  0.
          5    1    3    3  502    0  0.56529481363E+02 -0.46816172675E+02 -0.29461196192E+02  0.79200825553E+02  0.41800000000E+01 0.  1.
         -5    1    3    3    0  502 -0.55922443599E+02  0.96380785328E+01 -0.27259055689E+02  0.63093111930E+02  0.41800000000E+01 0.  1.
        -11    1    1    2    0    0 -0.73773827174E+01  0.67307016491E+02 -0.15935576432E+03  0.17314421696E+03  0.00000000000E+00 0. -1.
         11    1    1    2    0    0  0.67703449532E+01 -0.30128922349E+02 -0.63504195690E+02  0.70614250707E+02  0.00000000000E+00 0.  1.
</event>
<event>
 7    1  0.1312490E-005  0.6706288E+02  0.7561462E-02  0.1370376E+00
         -2   -1    0    0    0  501 -0.00000000000E+00  0.00000000000E+00  0.80393297002E+02  0.80393297002E+02  0.00000000000E+00 0.  1.
          2   -1    0    0  501    0  0.00000000000E+00 -0.00000000000E+00 -0.15257294707E+03  0.15257294707E+03  0.00000000000E+00 0. -1.
         23    2    1    2    0    0 -0.15291524469E+02  0.13345912436E+02 -0.41315940449E+02  0.13328906436E+03  0.12508806356E+03 0.  0.
          5    1    3    3  502    0  0.45367585670E+02  0.48608084409E+01  0.16752599654E+02  0.48784908357E+02  0.41800000000E+01 0.  1.
         -5    1    3    3    0  502 -0.60659110139E+02  0.84851039954E+01 -0.58068540103E+02  0.84504156006E+02  0.41800000000E+01 0.  1.
        -11    1    1    2    0    0  0.20285739261E+01 -0.13499890323E+02  0.32336555146E+02  0.35100070508E+02  0.00000000000E+00 0.  1.
         11    1    1    2    0    0  0.13262950543E+02  0.15397788644E+00 -0.63200264768E+02  0.64577109203E+02  0.00000000000E+00 0. -1.
</event>
<event>
 6    1  0.1312490E-005  0.9805602E+02  0.7561462E-02  0.1284438E+00
          1   -1    0    0  501    0  0.00000000000E+00  0.00000000000E+00  0.25655832525E+03  0.25655832525E+03  0.00000000000E+00 0. -1.
         -1   -1    0    0    0  501 -0.00000000000E+00 -0.00000000000E+00 -0.10918000322E+03  0.10918000322E+03  0.00000000000E+00 0.  1.
          5    1    1    2  502    0 -0.13318329801E+02  0.46935326902E+01  0.86206340348E+02  0.87455203813E+02  0.41800000000E+01 0. -1.
         -5    1    1    2    0  502 -0.58949707428E+02 -0.43268374777E+02 -0.67361892463E+02  0.99510387487E+02  0.41800000000E+01 0.  1.
        -11    1    1    2    0    0 -0.57272351906E+01  0.29000270308E+02  0.17508680044E+01  0.29612200858E+02  0.00000000000E+00 0.  1.
         11    1    1    2    0    0  0.77995272420E+02  0.95745717786E+01  0.12678300615E+03  0.14916053631E+03  0.00000000000E+00 0. -1.
</event>
<event>
 7    1  0.1312490E-005  0.1676620E+03  0.7561462E-02  0.1180308E+00
          1   -1    0    0  501    0  0.00000000000E+00  0.00000000000E+00  0.65827323662E+03  0.65827323662E+03  0.00000000000E+00 0. -1.
         -1   -1    0    0    0  501 -0.00000000000E+00 -0.00000000000E+00 -0.55366815079E+02  0.55366815079E+02  0.00000000000E+00 0.  1.
         23    2    1    2    0    0 -0.53090364183E+02 -0.12950101681E+03  0.18423437913E+03  0.26301226569E+03  0.12507615810E+03 0.  0.
          5    1    3    3  502    0 -0.24537695664E+02  0.11989819319E+02  0.80781000089E+02  0.85375035293E+02  0.41800000000E+01 0.  1.
         -5    1    3    3    0  502 -0.28552668520E+02 -0.14149083613E+03  0.10345337904E+03  0.17763723040E+03  0.41800000000E+01 0.  1.
        -11    1    1    2    0    0 -0.18996526029E+01  0.10162009471E+03  0.21471827619E+03  0.23755881474E+03  0.00000000000E+00 0.  1.
         11    1    1    2    0    0  0.54990016786E+02  0.27880922103E+02  0.20395376622E+03  0.21306897127E+03  0.00000000000E+00 0. -1.
</event>
<event>
 7    1  0.1312490E-005  0.8455631E+02  0.7561462E-02  0.1316597E+00
          2   -1    0    0  501    0  0.00000000000E+00  0.00000000000E+00  0.74241409756E+03  0.74241409756E+03  0.00000000000E+00 0. -1.
         -2   -1    0    0    0  501 -0.00000000000E+00 -0.00000000000E+00 -0.14191576444E+02  0.14191576444E+02  0.00000000000E+00 0.  1.
         23    2    1    2    0    0 -0.74094336954E+01  0.28217796194E+01  0.32774630045E+03  0.34591660032E+03  0.11035304605E+03 0.  0.
          5    1    3    3  502    0  0.49117534555E+01  0.39070838413E+02  0.28748981947E+03  0.29020428053E+03  0.41800000000E+01 0. -1.
         -5    1    3    3    0  502 -0.12321187151E+02 -0.36249058794E+02  0.40256480975E+02  0.55712319793E+02  0.41800000000E+01 0.  1.
        -11    1    1    2    0    0 -0.31944875484E+02 -0.29477884456E+02  0.18715810930E+03  0.19213947699E+03  0.00000000000E+00 0.  1.
         11    1    1    2    0    0  0.39354309180E+02  0.26656104837E+02  0.21331811136E+03  0.21854959668E+03  0.00000000000E+00 0. -1.
</event>
<event>
 7    1  0.1312490E-005  0.1572754E+03  0.7561462E-02  0.1191808E+00
         -2   -1    0    0    0  501 -0.00000000000E+00  0.00000000000E+00  0.29507517699E+02  0.29507517699E+02  0.00000000000E+00 0.  1.
          2   -1    0    0  501    0  0.00000000000E+00 -0.00000000000E+00 -0.10339950439E+04  0.10339950439E+04  0.00000000000E+00 0. -1.
         23    2    1    2    0    0 -0.11280176727E+03  0.76808221305E+02 -0.48554208028E+03  0.51963550795E+03  0.12508480263E+03 0.  0.
          5    1    3    3  502    0 -0.22115235592E+02  0.54291963602E+02 -0.35032599487E+03  0.35522172800E+03  0.41800000000E+01 0.  1.
         -5    1    3    3    0  502 -0.90686531673E+02  0.22516257702E+02 -0.13521608540E+03  0.16441377996E+03  0.41800000000E+01 0.  1.
        -11    1    1    2    0    0  0.47318884718E+01 -0.50891631838E+02 -0.18393229730E+03  0.19090164732E+03  0.00000000000E+00 0.  1.
         11    1    1    2    0    0  0.10806987879E+03 -0.25916589467E+02 -0.33501314864E+03  0.35296540634E+03  0.00000000000E+00 0. -1.
</event>
<event>
 7    1  0.1312490E-005  0.1223793E+03  0.7561462E-02  0.1239223E+00
          1   -1    0    0  501    0  0.00000000000E+00  0.00000000000E+00  0.27296267895E+03  0.27296267895E+03  0.00000000000E+00 0. -1.
         -1   -1    0    0    0  501 -0.00000000000E+00 -0.00000000000E+00 -0.70098244091E+02  0.70098244091E+02  0.00000000000E+00 0.  1.
         23    2    1    2    0    0 -0.19294696028E+02 -0.84622989147E+02  0.11334256123E+03  0.18980839492E+03  0.12508938808E+03 0.  0.
          5    1    3    3  502    0 -0.56885469761E+02 -0.25887767704E+01  0.67813478115E+02  0.88649865477E+02  0.41800000000E+01 0.  1.
         -5    1    3    3    0  502  0.37590773733E+02 -0.82034212376E+02  0.45529083118E+02  0.10115852945E+03  0.41800000000E+01 0.  1.
        -11    1    1    2    0    0 -0.12809299163E+02  0.42355489770E+02 -0.53199435784E+01  0.44568682485E+02  0.00000000000E+00 0.  1.
         11    1    1    2    0    0  0.32103995191E+02  0.42267499376E+02  0.94841817200E+02  0.10868384563E+03  0.00000000000E+00 0. -1.
</event>
<event>
 7    1  0.1312490E-005  0.1570803E+03  0.7561462E-02  0.1192033E+00
         -1   -1    0    0    0  501 -0.00000000000E+00  0.00000000000E+00  0.33267611813E+02  0.33267611813E+02  0.00000000000E+00 0.  1.
          1   -1    0    0  501    0  0.00000000000E+00 -0.00000000000E+00 -0.93059942476E+03  0.93059942476E+03  0.00000000000E+00 0. -1.
         23    2    1    2    0    0  0.77813647057E+02 -0.11061416571E+03 -0.51954177102E+03  0.55123638347E+03  0.12508973303E+03 0.  0.
          5    1    3    3  502    0  0.64995923451E+02 -0.40107778055E+02 -0.10159391156E+03  0.12716878230E+03  0.41800000000E+01 0. -1.
         -5    1    3    3    0  502  0.12817723605E+02 -0.70506387654E+02 -0.41794785946E+03  0.42406760117E+03  0.41800000000E+01 0. -1.
        -11    1    1    2    0    0 -0.86761241752E+02  0.41462406863E+02 -0.22446088754E+03  0.24419118389E+03  0.00000000000E+00 0. -1.
         11    1    1    2    0    0  0.89475946948E+01  0.69151758847E+02 -0.15332915439E+03  0.16843946921E+03  0.00000000000E+00 0.  1.
</event>
<event>
 7    1  0.1312490E-005  0.1950695E+03  0.7561462E-02  0.1153967E+00
         -4   -1    0    0    0  501 -0.00000000000E+00  0.00000000000E+00  0.24983684367E+03  0.24983684367E+03  0.00000000000E+00 0. -1.
          4   -1    0    0  501    0  0.00000000000E+00 -0.00000000000E+00 -0.18784407515E+03  0.18784407515E+03  0.00000000000E+00 0.  1.
         23    2    1    2    0    0  0.15983465892E+03 -0.30392896086E+02  0.12613482219E+03  0.24089014648E+03  0.12508886033E+03 0.  0.
          5    1    3    3  502    0  0.56481565360E+02  0.48506922297E+02  0.37464743015E+02  0.83451591389E+02  0.41800000000E+01 0.  1.
         -5    1    3    3    0  502  0.10335309356E+03 -0.78899818383E+02  0.88670079179E+02  0.15743855509E+03  0.41800000000E+01 0.  1.
        -11    1    1    2    0    0 -0.11312741969E+03  0.62072763215E+02 -0.51625192878E+02  0.13898201883E+03  0.00000000000E+00 0. -1.
         11    1    1    2    0    0 -0.46707239225E+02 -0.31679867129E+02 -0.12516860789E+02  0.57808753501E+02  0.00000000000E+00 0.  1.
</event>
<event>
 7    1  0.1312490E-005  0.8111697E+02  0.7561462E-02  0.1325911E+00
          1   -1    0    0  501    0  0.00000000000E+00  0.00000000000E+00  0.15914041795E+03  0.15914041795E+03  0.00000000000E+00 0. -1.
         -1   -1    0    0    0  501 -0.00000000000E+00 -0.00000000000E+00 -0.79433484564E+02  0.79433484564E+02  0.00000000000E+00 0.  1.
         23    2    1    2    0    0  0.94472572331E+01  0.16194655511E+01  0.13749545406E+02  0.12620944741E+03  0.12509157158E+03 0.  0.
          5    1    3    3  502    0 -0.49750859946E+02 -0.26126995181E+02  0.21350504381E+02  0.60258479734E+02  0.41800000000E+01 0.  1.
         -5    1    3    3    0  502  0.59198117179E+02  0.27746460732E+02 -0.76009589752E+01  0.65950967680E+02  0.41800000000E+01 0.  1.
        -11    1    1    2    0    0 -0.81603700728E+01 -0.20180306187E+02  0.83803093992E+02  0.86584034095E+02  0.00000000000E+00 0. -1.
         11    1    1    2    0    0 -0.12868871603E+01  0.18560840636E+02 -0.17845706016E+02  0.25780420999E+02  0.00000000000E+00 0.  1.
</event>
