<event>
 8    1  0.6703334E-009  0.8871830E+02  0.7561462E-02  0.1305986E+00
          1   -1    0    0  501    0  0.00000000000E+00  0.00000000000E+00  0.25318021643E+02  0.25318021643E+02  0.00000000000E+00 0. -1.
         -1   -1    0    0    0  501 -0.00000000000E+00 -0.00000000000E+00 -0.46972794598E+03  0.46972794598E+03  0.00000000000E+00 0.  1.
         25    2    1    2    0    0 -0.61973531757E+01 -0.11536770274E+02 -0.27997942585E+03  0.30692605781E+03  0.12507446507E+03 0.  0.
         23    2    1    2    0    0  0.61973531757E+01  0.11536770274E+02 -0.16443049849E+03  0.18811990981E+03  0.90444498889E+02 0.  0.
          5    1    3    3  502    0  0.73496894398E+01  0.55538473906E+02 -0.14575857496E+03  0.15621003359E+03  0.41800000000E+01 0.  1.
         -5    1    3    3    0  502 -0.13547042615E+02 -0.67075244180E+02 -0.13422085089E+03  0.15071602422E+03  0.41800000000E+01 0.  1.
        -11    1    4    4    0    0 -0.22602317235E+02  0.43293165589E+01 -0.21132418238E+01  0.23110030664E+02  0.00000000000E+00 0. -1.
         11    1    4    4    0    0  0.28799670411E+02  0.72074537154E+01 -0.16231725667E+03  0.16500987915E+03  0.00000000000E+00 0.  1.
</event>
<event>
 8    1  0.6703334E-009  0.1067649E+03  0.7561462E-02  0.1266681E+00
          2   -1    0    0  501    0  0.00000000000E+00  0.00000000000E+00  0.12602488828E+04  0.12602488828E+04  0.00000000000E+00 0. -1.
         -2   -1    0    0    0  501 -0.00000000000E+00 -0.00000000000E+00 -0.11646515852E+02  0.11646515852E+02  0.00000000000E+00 0.  1.
         25    2    1    2    0    0 -0.55317686473E+01  0.31046322835E+02  0.91056311037E+03  0.91965651572E+03  0.12509378212E+03 0.  0.
         23    2    1    2    0    0  0.55317686473E+01 -0.31046322835E+02  0.33803925657E+03  0.35223888291E+03  0.93846774219E+02 0.  0.
          5    1    3    3  502    0  0.10615084241E+02 -0.40003141448E+02  0.56187556305E+03  0.56341330485E+03  0.41800000000E+01 0.  1.
         -5    1    3    3    0  502 -0.16146852889E+02  0.71049464283E+02  0.34868754732E+03  0.35624321087E+03  0.41800000000E+01 0.  1.
        -11    1    4    4    0    0 -0.44210508043E+02 -0.14873387691E+02  0.15362355569E+03  0.16054900668E+03  0.00000000000E+00 0.  1.
         11    1    4    4    0    0  0.49742276691E+02 -0.16172935144E+02  0.18441570087E+03  0.19168987623E+03  0.00000000000E+00 0. -1.
</event>
<event>
 8    1  0.6703334E-009  0.1097483E+03  0.7561462E-02  0.1261037E+00
         -1   -1    0    0    0  501 -0.00000000000E+00  0.00000000000E+00  0.13945827717E+03  0.13945827717E+03  0.00000000000E+00 0.  1.
          1   -1    0    0  501    0  0.00000000000E+00 -0.00000000000E+00 -0.13167495713E+03  0.13167495713E+03  0.00000000000E+00 0. -1.
         25    2    1    2    0    0 -0.43025507158E+02  0.42994019218E+02  0.58249603233E+02  0.15079667720E+03  0.12508773570E+03 0.  0.
         23    2    1    2    0    0  0.43025507158E+02 -0.42994019218E+02 -0.50466283192E+02  0.12033655711E+03  0.90743381484E+02 0.  0.
          5    1    3    3  502    0  0.23646675471E+02  0.64208279553E+02  0.34861729528E+02  0.76906963337E+02  0.41800000000E+01 0.  1.
         -5    1    3    3    0  502 -0.66672182629E+02 -0.21214260336E+02  0.23387873705E+02  0.73889713862E+02  0.41800000000E+01 0.  1.
        -11    1    4    4    0    0  0.10486545480E+02  0.12627513325E+02  0.19318420523E+02  0.25350011842E+02  0.00000000000E+00 0.  1.
         11    1    4    4    0    0  0.32538961678E+02 -0.55621532543E+02 -0.69784703715E+02  0.94986545268E+02  0.00000000000E+00 0. -1.
</event>
<event>
 8    1  0.6703334E-009  0.1430941E+03  0.7561462E-02  0.1209225E+00
          1   -1    0    0  501    0  0.00000000000E+00  0.00000000000E+00  0.79325824645E+02  0.79325824645E+02  0.00000000000E+00 0. -1.
         -1   -1    0    0    0  501 -0.00000000000E+00 -0.00000000000E+00 -0.32191532162E+03  0.32191532162E+03  0.00000000000E+00 0.  1.
         25    2    1    2    0    0 -0.59939581274E+02 -0.98444113383E+02 -0.11983669917E+03  0.20807096774E+03  0.12509474923E+03 0.  0.
         23    2    1    2    0    0  0.59939581274E+02  0.98444113383E+02 -0.12275279780E+03  0.19317017852E+03  0.94670331356E+02 0.  0.
          5    1    3    3  502    0 -0.97979107082E+02 -0.55940612926E+02 -0.79085855701E+02  0.13784521236E+03  0.41800000000E+01 0.  1.
         -5    1    3    3    0  502  0.38039525808E+02 -0.42503500458E+02 -0.40750843473E+02  0.70225755379E+02  0.41800000000E+01 0.  1.
        -11    1    4    4    0    0  0.40594476664E+02  0.78102865474E+02 -0.25054221819E+02  0.91518758524E+02  0.00000000000E+00 0. -1.
         11    1    4    4    0    0  0.19345104610E+02  0.20341247910E+02 -0.97698575978E+02  0.10165142000E+03  0.00000000000E+00 0.  1.
</event>
<event>
 8    1  0.6703334E-009  0.1351089E+03  0.7561462E-02  0.1220066E+00
          2   -1    0    0  501    0  0.00000000000E+00  0.00000000000E+00  0.53247077068E+03  0.53247077068E+03  0.00000000000E+00 0.  1.
         -2   -1    0    0    0  501 -0.00000000000E+00 -0.00000000000E+00 -0.36890250985E+02  0.36890250985E+02  0.00000000000E+00 0. -1.
         25    2    1    2    0    0 -0.49172727499E+02 -0.73612468601E+02  0.29308297877E+03  0.33072991715E+03  0.12509153845E+03 0.  0.
         23    2    1    2    0    0  0.49172727499E+02  0.73612468601E+02  0.20249754093E+03  0.23863110452E+03  0.90015539195E+02 0.  0.
          5    1    3    3  502    0 -0.86052525763E+01  0.33591382840E+02  0.41550991299E+02  0.54280647113E+02  0.41800000000E+01 0.  1.
         -5    1    3    3    0  502 -0.40567474922E+02 -0.10720385144E+03  0.25153198747E+03  0.27644927004E+03  0.41800000000E+01 0.  1.
        -11    1    4    4    0    0  0.11400803555E+01  0.72538067772E+02  0.15467145961E+03  0.17084007573E+03  0.00000000000E+00 0.  1.
         11    1    4    4    0    0  0.48032647143E+02  0.10744008291E+01  0.47826081321E+02  0.67791028781E+02  0.00000000000E+00 0. -1.
</event>
<event>
 8    1  0.6703334E-009  0.8043430E+02  0.7561462E-02  0.1327823E+00
          2   -1    0    0  501    0  0.00000000000E+00  0.00000000000E+00  0.23484921316E+02  0.23484921316E+02  0.00000000000E+00 0. -1.
         -2   -1    0    0    0  501 -0.00000000000E+00 -0.00000000000E+00 -0.54947898622E+03  0.54947898622E+03  0.00000000000E+00 0.  1.
         25    2    1    2    0    0 -0.25979532969E+02  0.34753036307E+01 -0.33864282665E+03  0.36195747855E+03  0.12508892183E+03 0.  0.
         23    2    1    2    0    0  0.25979532969E+02 -0.34753036307E+01 -0.18735123825E+03  0.21100642899E+03  0.93467709564E+02 0.  0.
          5    1    3    3  502    0 -0.45286598642E+02  0.27515614542E+02 -0.54548507541E+02  0.76164277290E+02  0.41800000000E+01 0.  1.
         -5    1    3    3    0  502  0.19307065673E+02 -0.24040310912E+02 -0.28409431911E+03  0.28579320126E+03  0.41800000000E+01 0.  1.
        -11    1    4    4    0    0  0.46047082937E+02  0.15888805574E+02 -0.17283398684E+03  0.17956718797E+03  0.00000000000E+00 0.  1.
         11    1    4    4    0    0 -0.20067549968E+02 -0.19364109204E+02 -0.14517251411E+02  0.31439241014E+02  0.00000000000E+00 0. -1.
</event>
<event>
 8    1  0.6703334E-009  0.1447122E+03  0.7561462E-02  0.1207125E+00
         -2   -1    0    0    0  501 -0.00000000000E+00  0.00000000000E+00  0.33743396873E+02  0.33743396873E+02  0.00000000000E+00 0.  1.
          2   -1    0    0  501    0  0.00000000000E+00 -0.00000000000E+00 -0.62854833642E+03  0.62854833642E+03  0.00000000000E+00 0. -1.
         25    2    1    2    0    0  0.53902503375E+02  0.80584734636E+02 -0.31166940321E+03  0.34954953181E+03  0.12509068297E+03 0.  0.
         23    2    1    2    0    0 -0.53902503375E+02 -0.80584734636E+02 -0.28313553634E+03  0.31274220149E+03  0.90788618919E+02 0.  0.
          5    1    3    3  502    0 -0.10563062095E+02 -0.28027845980E+02 -0.42182675461E+02  0.51903650548E+02  0.41800000000E+01 0. -1.
         -5    1    3    3    0  502  0.64465565470E+02  0.10861258062E+03 -0.26948672775E+03  0.29764588126E+03  0.41800000000E+01 0. -1.
        -11    1    4    4    0    0 -0.79391323926E+02 -0.67236021932E+02 -0.21994401866E+03  0.24330852082E+03  0.00000000000E+00 0.  1.
         11    1    4    4    0    0  0.25488820551E+02 -0.13348712704E+02 -0.63191517680E+02  0.69433680664E+02  0.00000000000E+00 0. -1.
</event>
<event>
 8    1  0.6703334E-009  0.6890526E+02  0.7561462E-02  0.1363856E+00
          2   -1    0    0  501    0  0.00000000000E+00  0.00000000000E+00  0.13581557614E+03  0.13581557614E+03  0.00000000000E+00 0. -1.
         -2   -1    0    0    0  501 -0.00000000000E+00 -0.00000000000E+00 -0.88515992923E+02  0.88515992923E+02  0.00000000000E+00 0.  1.
         25    2    1    2    0    0  0.84706582171E+01  0.19798365913E+01  0.12866072201E+02  0.12610065563E+03  0.12514059187E+03 0.  0.
         23    2    1    2    0    0 -0.84706582171E+01 -0.19798365913E+01  0.34433511021E+02  0.98230913440E+02  0.91585882484E+02 0.  0.
          5    1    3    3  502    0  0.48069305526E+02  0.70724966488E+01  0.51119779178E+02  0.70649717380E+02  0.41800000000E+01 0. -1.
         -5    1    3    3    0  502 -0.39598647309E+02 -0.50926600575E+01 -0.38253706977E+02  0.55450938248E+02  0.41800000000E+01 0. -1.
        -11    1    4    4    0    0 -0.22412655469E+02 -0.17206556057E+02 -0.23485831117E+02  0.36742032602E+02  0.00000000000E+00 0.  1.
         11    1    4    4    0    0  0.13941997251E+02  0.15226719466E+02  0.57919342137E+02  0.61488880838E+02  0.00000000000E+00 0. -1.
</event>
<event>
 8    1  0.6703334E-009  0.7025954E+02  0.7561462E-02  0.1359213E+00
         -2   -1    0    0    0  501 -0.00000000000E+00  0.00000000000E+00  0.90898978382E+02  0.90898978382E+02  0.00000000000E+00 0.  1.
          2   -1    0    0  501    0  0.00000000000E+00 -0.00000000000E+00 -0.17320991502E+03  0.17320991502E+03  0.00000000000E+00 0. -1.
         25    2    1    2    0    0  0.27277697165E+02  0.11139020062E+02  0.14509889084E+02  0.12932849876E+03  0.12508866127E+03 0.  0.
         23    2    1    2    0    0 -0.27277697165E+02 -0.11139020062E+02 -0.96820825722E+02  0.13478039464E+03  0.89013099914E+02 0.  0.
          5    1    3    3  502    0 -0.25259399008E+01  0.22003674761E+02 -0.51365860020E+02  0.56093369046E+02  0.41800000000E+01 0.  1.
         -5    1    3    3    0  502  0.29803637066E+02 -0.10864654699E+02  0.65875749104E+02  0.73235129713E+02  0.41800000000E+01 0.  1.
        -11    1    4    4    0    0 -0.33530838328E+02 -0.42426624812E+02 -0.32793449249E+02  0.63243544536E+02  0.00000000000E+00 0. -1.
         11    1    4    4    0    0  0.62531411624E+01  0.31287604749E+02 -0.64027376473E+02  0.71536850108E+02  0.00000000000E+00 0.  1.
</event>
<event>
 8    1  0.6703334E-009  0.1662527E+03  0.7561462E-02  0.1181813E+00
         -2   -1    0    0    0  501 -0.00000000000E+00  0.00000000000E+00  0.32081171146E+02  0.32081171146E+02  0.00000000000E+00 0.  1.
          2   -1    0    0  501    0  0.00000000000E+00 -0.00000000000E+00 -0.98860115436E+03  0.98860115436E+03  0.00000000000E+00 0. -1.
         25    2    1    2    0    0  0.53800186741E+02  0.13935935353E+03 -0.50018378647E+03  0.53679181917E+03  0.12508456088E+03 0.  0.
         23    2    1    2    0    0 -0.53800186741E+02 -0.13935935353E+03 -0.45633619675E+03  0.48389050634E+03  0.59931695727E+02 0.  0.
          5    1    3    3  502    0  0.27264882791E+02 -0.55368350736E+01 -0.20037391195E+02  0.34539829503E+02  0.41800000000E+01 0.  1.
         -5    1    3    3    0  502  0.26535303950E+02  0.14489618861E+03 -0.48014639527E+03  0.50225198966E+03  0.41800000000E+01 0.  1.
        -11    1    4    4    0    0 -0.62592340008E+01 -0.83163726077E+02 -0.29488537644E+03  0.30645190256E+03  0.00000000000E+00 0. -1.
         11    1    4    4    0    0 -0.47540952740E+02 -0.56195627455E+02 -0.16145082030E+03  0.17743860378E+03  0.00000000000E+00 0.  1.
</event>
<event>
 8    1  0.6703334E-009  0.9315960E+02  0.7561462E-02  0.1295376E+00
          2   -1    0    0  501    0  0.00000000000E+00  0.00000000000E+00  0.75093051704E+03  0.75093051704E+03  0.00000000000E+00 0. -1.
         -2   -1    0    0    0  501 -0.00000000000E+00 -0.00000000000E+00 -0.19799169683E+02  0.19799169683E+02  0.00000000000E+00 0.  1.
         25    2    1    2    0    0 -0.34628761275E+02 -0.36030969433E+02  0.34380532233E+03  0.36925847309E+03  0.12510930590E+03 0.  0.
         23    2    1    2    0    0  0.34628761275E+02  0.36030969433E+02  0.38732602503E+03  0.40147121363E+03  0.93060753519E+02 0.  0.
          5    1    3    3  502    0 -0.53614440078E+02 -0.20369785092E+02  0.55650440585E+02  0.80024247993E+02  0.41800000000E+01 0.  1.
         -5    1    3    3    0  502  0.18985678803E+02 -0.15661184340E+02  0.28815488174E+03  0.28923422510E+03  0.41800000000E+01 0.  1.
        -11    1    4    4    0    0  0.57004628214E+02  0.51357731741E+02  0.25067612338E+03  0.26215579925E+03  0.00000000000E+00 0. -1.
         11    1    4    4    0    0 -0.22375866939E+02 -0.15326762308E+02  0.13664990165E+03  0.13931541438E+03  0.00000000000E+00 0.  1.
</event>
<event>
 8    1  0.6703334E-009  0.1112922E+03  0.7561462E-02  0.1258195E+00
          1   -1    0    0  501    0  0.00000000000E+00  0.00000000000E+00  0.52604322502E+03  0.52604322502E+03  0.00000000000E+00 0. -1.
         -1   -1    0    0    0  501 -0.00000000000E+00 -0.00000000000E+00 -0.25564602333E+02  0.25564602333E+02  0.00000000000E+00 0.  1.
         25    2    1    2    0    0 -0.21396238978E+02 -0.27644225721E+02  0.32701542526E+03  0.35186395210E+03  0.12508856931E+03 0.  0.
         23    2    1    2    0    0  0.21396238978E+02  0.27644225721E+02  0.17346319743E+03  0.19974387526E+03  0.92661386676E+02 0.  0.
          5    1    3    3  502    0  0.12224648890E+02  0.44468949849E+02  0.16410646196E+03  0.17051490492E+03  0.41800000000E+01 0. -1.
         -5    1    3    3    0  502 -0.33620887868E+02 -0.72113175571E+02  0.16290896330E+03  0.18134904719E+03  0.41800000000E+01 0. -1.
        -11    1    4    4    0    0 -0.53551833921E+01 -0.31361182264E+02  0.37813902894E+02  0.49417537314E+02  0.00000000000E+00 0.  1.
         11    1    4    4    0    0  0.26751422370E+02  0.59005407985E+02  0.13564929454E+03  0.15032633794E+03  0.00000000000E+00 0. -1.
</event>
<event>
 8    1  0.6703334E-009  0.1458352E+03  0.7561462E-02  0.1205686E+00
          2   -1    0    0  501    0  0.00000000000E+00  0.00000000000E+00  0.16227798871E+04  0.16227798871E+04  0.00000000000E+00 0. -1.
         -2   -1    0    0    0  501 -0.00000000000E+00 -0.00000000000E+00 -0.14458184151E+02  0.14458184151E+02  0.00000000000E+00 0.  1.
         25    2    1    2    0    0  0.10537529475E+03  0.20007875856E+02  0.92498855736E+03  0.93955029498E+03  0.12508660085E+03 0.  0.
         23    2    1    2    0    0 -0.10537529475E+03 -0.20007875856E+02  0.68333314564E+03  0.69768777632E+03  0.91212814110E+02 0.  0.
          5    1    3    3  502    0  0.10818532973E+03 -0.24686244053E+02  0.49967974823E+03  0.51186990476E+03  0.41800000000E+01 0.  1.
         -5    1    3    3    0  502 -0.28100349800E+01  0.44694119909E+02  0.42530880913E+03  0.42768039022E+03  0.41800000000E+01 0.  1.
        -11    1    4    4    0    0  0.11908554902E+02 -0.13761125550E+02  0.43322698212E+02  0.46989769489E+02  0.00000000000E+00 0.  1.
         11    1    4    4    0    0 -0.11728384965E+03 -0.62467503060E+01  0.64001044742E+03  0.65069800683E+03  0.00000000000E+00 0. -1.
</event>
<event>
 8    1  0.6703334E-009  0.5633252E+02  0.7561462E-02  0.1413900E+00
          2   -1    0    0  501    0  0.00000000000E+00  0.00000000000E+00  0.83161232217E+03  0.83161232217E+03  0.00000000000E+00 0. -1.
         -2   -1    0    0    0  501 -0.00000000000E+00 -0.00000000000E+00 -0.19052442701E+02  0.19052442701E+02  0.00000000000E+00 0.  1.
         25    2    1    2    0    0 -0.18982158441E+02  0.66457686698E+01  0.67481715315E+03  0.68660778234E+03  0.12509023945E+03 0.  0.
         23    2    1    2    0    0  0.18982158441E+02 -0.66457686698E+01  0.13774272632E+03  0.16405698253E+03  0.86816739647E+02 0.  0.
          5    1    3    3  502    0 -0.15892612829E+02 -0.53433380870E+00  0.56552981070E+01  0.17387220935E+02  0.41800000000E+01 0.  1.
         -5    1    3    3    0  502 -0.30895456121E+01  0.71801024785E+01  0.66916185504E+03  0.66922056140E+03  0.41800000000E+01 0.  1.
        -11    1    4    4    0    0  0.13858832631E+02 -0.45810405613E+02  0.91342102170E+02  0.10312148240E+03  0.00000000000E+00 0. -1.
         11    1    4    4    0    0  0.51233258101E+01  0.39164636944E+02  0.46400624153E+02  0.60935500130E+02  0.00000000000E+00 0.  1.
</event>
<event>
 8    1  0.6703334E-009  0.1197355E+03  0.7561462E-02  0.1243534E+00
          2   -1    0    0  501    0  0.00000000000E+00  0.00000000000E+00  0.73386796029E+03  0.73386796029E+03  0.00000000000E+00 0. -1.
         -2   -1    0    0    0  501 -0.00000000000E+00 -0.00000000000E+00 -0.21677978129E+02  0.21677978129E+02  0.00000000000E+00 0.  1.
         25    2    1    2    0    0 -0.62096930958E+02 -0.20552647820E+02  0.34500459540E+03  0.37276756506E+03  0.12509614922E+03 0.  0.
         23    2    1    2    0    0  0.62096930958E+02  0.20552647820E+02  0.36718538677E+03  0.38277837336E+03  0.86114660134E+02 0.  0.
          5    1    3    3  502    0 -0.48545361569E+02  0.44874641796E+02  0.23345574438E+03  0.24267147049E+03  0.41800000000E+01 0. -1.
         -5    1    3    3    0  502 -0.13551569389E+02 -0.65427289616E+02  0.11154885101E+03  0.13009609457E+03  0.41800000000E+01 0. -1.
        -11    1    4    4    0    0 -0.49166796505E+01 -0.24853829949E+02  0.60516390200E+02  0.65605793074E+02  0.00000000000E+00 0.  1.
         11    1    4    4    0    0  0.67013610609E+02  0.45406477770E+02  0.30666899657E+03  0.31717258029E+03  0.00000000000E+00 0. -1.
</event>
<event>
 8    1  0.6703334E-009  0.1073188E+03  0.7561462E-02  0.1265617E+00
         -2   -1    0    0    0  501 -0.00000000000E+00  0.00000000000E+00  0.65783413710E+02  0.65783413710E+02  0.00000000000E+00 0.  1.
          2   -1    0    0  501    0  0.00000000000E+00 -0.00000000000E+00 -0.18426267143E+03  0.18426267143E+03  0.00000000000E+00 0. -1.
         25    2    1    2    0    0 -0.17279500197E+02  0.49256735206E+01 -0.81254348097E+02  0.15024156805E+03  0.12508963306E+03 0.  0.
         23    2    1    2    0    0  0.17279500197E+02 -0.49256735206E+01 -0.37224909622E+02  0.99804517087E+02  0.90842745158E+02 0.  0.
          5    1    3    3  502    0  0.85668652558E+01  0.61632056593E+02 -0.52325572287E+02  0.81408473118E+02  0.41800000000E+01 0. -1.
         -5    1    3    3    0  502 -0.25846365453E+02 -0.56706383072E+02 -0.28928775810E+02  0.68833094934E+02  0.41800000000E+01 0. -1.
        -11    1    4    4    0    0  0.12222699275E+02  0.41423733774E+02 -0.57965906841E+01  0.43576605660E+02  0.00000000000E+00 0.  1.
         11    1    4    4    0    0  0.50568009225E+01 -0.46349407294E+02 -0.31428318938E+02  0.56227911426E+02  0.00000000000E+00 0. -1.
</event>
<event>
 8    1  0.6703334E-009  0.1261532E+03  0.7561462E-02  0.1233278E+00
          2   -1    0    0  501    0  0.00000000000E+00  0.00000000000E+00  0.32340663929E+03  0.32340663929E+03  0.00000000000E+00 0. -1.
         -2   -1    0    0    0  501 -0.00000000000E+00 -0.00000000000E+00 -0.85861999771E+02  0.85861999771E+02  0.00000000000E+00 0.  1.
         25    2    1    2    0    0  0.96093305894E+02  0.47586653717E+02  0.64387017284E+02  0.17689407837E+03  0.12508962354E+03 0.  0.
         23    2    1    2    0    0 -0.96093305894E+02 -0.47586653717E+02  0.17315762224E+03  0.23237456070E+03  0.11187475707E+03 0.  0.
          5    1    3    3  502    0  0.31419340979E+02 -0.51912029740E+01 -0.34687352114E+02  0.47273759874E+02  0.41800000000E+01 0. -1.
         -5    1    3    3    0  502  0.64673964915E+02  0.52777856691E+02  0.99074369398E+02  0.12962031849E+03  0.41800000000E+01 0. -1.
        -11    1    4    4    0    0  0.48203876731E+01 -0.34515691276E+02  0.41483527297E+01  0.35096693747E+02  0.00000000000E+00 0.  1.
         11    1    4    4    0    0 -0.10091369357E+03 -0.13070962441E+02  0.16900926951E+03  0.19727786695E+03  0.00000000000E+00 0. -1.
</event>
<event>
 8    1  0.6703334E-009  0.8510097E+02  0.7561462E-02  0.1315169E+00
          2   -1    0    0  501    0  0.00000000000E+00  0.00000000000E+00  0.76703271058E+02  0.76703271058E+02  0.00000000000E+00 0. -1.
         -2   -1    0    0    0  501 -0.00000000000E+00 -0.00000000000E+00 -0.63436480225E+03  0.63436480225E+03  0.00000000000E+00 0.  1.
         25    2    1    2    0    0  0.24737002486E+02 -0.63132371856E+02 -0.57778514430E+03  0.59504608048E+03  0.12508616731E+03 0.  0.
         23    2    1    2    0    0 -0.24737002486E+02  0.63132371856E+02  0.20123613104E+02  0.11602199283E+03  0.91970252519E+02 0.  0.
          5    1    3    3  502    0  0.35725223605E+02 -0.75590137696E+02 -0.19921383604E+03  0.21608744847E+03  0.41800000000E+01 0.  1.
         -5    1    3    3    0  502 -0.10988221120E+02  0.12457765840E+02 -0.37857130826E+03  0.37895863201E+03  0.41800000000E+01 0.  1.
        -11    1    4    4    0    0 -0.25040148434E+02  0.47242083744E+02 -0.31465996152E+02  0.62039764860E+02  0.00000000000E+00 0.  1.
         11    1    4    4    0    0  0.30314594777E+00  0.15890288112E+02  0.51589609256E+02  0.53982227973E+02  0.00000000000E+00 0. -1.
</event>
<event>
 8    1  0.6703334E-009  0.7392190E+02  0.7561462E-02  0.1347242E+00
         -2   -1    0    0    0  501 -0.00000000000E+00  0.00000000000E+00  0.24728746805E+03  0.24728746805E+03  0.00000000000E+00 0.  1.
          2   -1    0    0  501    0  0.00000000000E+00 -0.00000000000E+00 -0.65239384446E+02  0.65239384446E+02  0.00000000000E+00 0. -1.
         25    2    1    2    0    0 -0.47091754825E+02  0.99822750817E+01  0.46175166222E+02  0.14176152535E+03  0.12508758894E+03 0.  0.
         23    2    1    2    0    0  0.47091754825E+02 -0.99822750817E+01  0.13587291738E+03  0.17076532714E+03  0.91553635031E+02 0.  0.
          5    1    3    3  502    0 -0.56915196750E+02  0.15519267264E+02  0.83626957331E+02  0.10242620597E+03  0.41800000000E+01 0. -1.
         -5    1    3    3    0  502  0.98234419242E+01 -0.55369921820E+01 -0.37451791109E+02  0.39335319382E+02  0.41800000000E+01 0. -1.
        -11    1    4    4    0    0  0.45868572718E+02 -0.31167687436E+02  0.30525992393E+02  0.63302345256E+02  0.00000000000E+00 0. -1.
         11    1    4    4    0    0  0.12231821070E+01  0.21185412355E+02  0.10534692499E+03  0.10746298188E+03  0.00000000000E+00 0.  1.
</event>
<event>
 8    1  0.6703334E-009  0.1297863E+03  0.7561462E-02  0.1227773E+00
          1   -1    0    0  501    0  0.00000000000E+00  0.00000000000E+00  0.17106101618E+02  0.17106101618E+02  0.00000000000E+00 0. -1.
         -1   -1    0    0    0  501 -0.00000000000E+00 -0.00000000000E+00 -0.12627798300E+04  0.12627798300E+04  0.00000000000E+00 0.  1.
         25    2    1    2    0    0 -0.31448285113E+02 -0.94135460492E+02 -0.79065545717E+03  0.80661809840E+03  0.12508487179E+03 0.  0.
         23    2    1    2    0    0  0.31448285113E+02  0.94135460492E+02 -0.45501827118E+03  0.47326783319E+03  0.84204128546E+02 0.  0.
          5    1    3    3  502    0 -0.36768524004E+01 -0.12078748674E+03 -0.59070489728E+03  0.60295346775E+03  0.41800000000E+01 0. -1.
         -5    1    3    3    0  502 -0.27771432713E+02  0.26652026248E+02 -0.19995055988E+03  0.20366463064E+03  0.41800000000E+01 0. -1.
        -11    1    4    4    0    0  0.10091657717E+02  0.15825660406E+02 -0.10718344282E+02  0.21614254253E+02  0.00000000000E+00 0.  1.
         11    1    4    4    0    0  0.21356627396E+02  0.78309800086E+02 -0.44429992690E+03  0.45165357894E+03  0.00000000000E+00 0. -1.
</event>
<event>
 8    1  0.6703334E-009  0.1337336E+03  0.7561462E-02  0.1222019E+00
         -1   -1    0    0    0  501 -0.00000000000E+00  0.00000000000E+00  0.48755257958E+03  0.48755257958E+03  0.00000000000E+00 0.  1.
          1   -1    0    0  501    0  0.00000000000E+00 -0.00000000000E+00 -0.10458280609E+03  0.10458280609E+03  0.00000000000E+00 0. -1.
         25    2    1    2    0    0 -0.34571025445E+02 -0.77866456507E+02 -0.35401860278E+02  0.15543479249E+03  0.12509333378E+03 0.  0.
         23    2    1    2    0    0  0.34571025445E+02  0.77866456507E+02  0.41837163377E+03  0.43670059318E+03  0.91729184513E+02 0.  0.
          5    1    3    3  502    0 -0.36656907061E+02  0.21568412726E+02 -0.36015423006E+02  0.55888356185E+02  0.41800000000E+01 0.  1.
         -5    1    3    3    0  502  0.20858816163E+01 -0.99434869233E+02  0.61356272758E+00  0.99546436304E+02  0.41800000000E+01 0.  1.
        -11    1    4    4    0    0  0.33419828042E+02  0.98759885854E+02  0.34971128779E+03  0.36492243665E+03  0.00000000000E+00 0. -1.
         11    1    4    4    0    0  0.11511974022E+01 -0.20893429347E+02  0.68660345976E+02  0.71778156530E+02  0.00000000000E+00 0.  1.
</event>
<event>
 8    1  0.6703334E-009  0.1091889E+03  0.7561462E-02  0.1262079E+00
         -2   -1    0    0    0  501 -0.00000000000E+00  0.00000000000E+00  0.22282892219E+03  0.22282892219E+03  0.00000000000E+00 0.  1.
          2   -1    0    0  501    0  0.00000000000E+00 -0.00000000000E+00 -0.95572594537E+02  0.95572594537E+02  0.00000000000E+00 0. -1.
         25    2    1    2    0    0  0.34637387567E+02 -0.23512528284E+02 -0.26557697192E+02  0.13455462038E+03  0.12508815685E+03 0.  0.
         23    2    1    2    0    0 -0.34637387567E+02  0.23512528284E+02  0.15381402484E+03  0.18384689634E+03  0.91587878301E+02 0.  0.
          5    1    3    3  502    0  0.75356060812E+02  0.58712717930E+01 -0.35111411940E+02  0.83446338338E+02  0.41800000000E+01 0.  1.
         -5    1    3    3    0  502 -0.40718673245E+02 -0.29383800078E+02  0.85537147482E+01  0.51108282047E+02  0.41800000000E+01 0.  1.
        -11    1    4    4    0    0 -0.10713620330E+02  0.53140367731E+02  0.12449984793E+03  0.13578988356E+03  0.00000000000E+00 0.  1.
         11    1    4    4    0    0 -0.23923767236E+02 -0.29627839447E+02  0.29314176914E+02  0.48057012779E+02  0.00000000000E+00 0. -1.
</event>
<event>
 8    1  0.6703334E-009  0.9812815E+02  0.7561462E-02  0.1284282E+00
          2   -1    0    0  501    0  0.00000000000E+00  0.00000000000E+00  0.23988203483E+03  0.23988203483E+03  0.00000000000E+00 0. -1.
         -2   -1    0    0    0  501 -0.00000000000E+00 -0.00000000000E+00 -0.50454020909E+02  0.50454020909E+02  0.00000000000E+00 0.  1.
         25    2    1    2    0    0  0.15875908931E+02  0.10995761753E+02  0.96492973285E+02  0.15915672524E+03  0.12508804113E+03 0.  0.
         23    2    1    2    0    0 -0.15875908931E+02 -0.10995761753E+02  0.92935040637E+02  0.13117933050E+03  0.90543601164E+02 0.  0.
          5    1    3    3  502    0 -0.21939712678E+02 -0.47590070924E+02  0.21865935602E+02  0.56936432823E+02  0.41800000000E+01 0.  1.
         -5    1    3    3    0  502  0.37815621609E+02  0.58585832677E+02  0.74627037683E+02  0.10222029241E+03  0.41800000000E+01 0.  1.
        -11    1    4    4    0    0  0.16675237317E+02  0.21917252344E+02  0.77715421673E+02  0.82450689843E+02  0.00000000000E+00 0. -1.
         11    1    4    4    0    0 -0.32551146248E+02 -0.32913014097E+02  0.15219618964E+02  0.48728640658E+02  0.00000000000E+00 0.  1.
</event>
<event>
 8    1  0.6703334E-009  0.1346772E+03  0.7561462E-02  0.1220676E+00
         -2   -1    0    0    0  501 -0.00000000000E+00  0.00000000000E+00  0.10392202327E+03  0.10392202327E+03  0.00000000000E+00 0.  1.
          2   -1    0    0  501    0  0.00000000000E+00 -0.00000000000E+00 -0.23190215964E+03  0.23190215964E+03  0.00000000000E+00 0. -1.
         25    2    1    2    0    0 -0.77882277688E+02 -0.41178467736E+02  0.23726383538E+01  0.15301837849E+03  0.12509068454E+03 0.  0.
         23    2    1    2    0    0  0.77882277688E+02  0.41178467736E+02 -0.13035277473E+03  0.18280580443E+03  0.93084912146E+02 0.  0.
          5    1    3    3  502    0 -0.65978845567E+02 -0.83228004522E+02  0.14985160386E+02  0.10734121404E+03  0.41800000000E+01 0.  1.
         -5    1    3    3    0  502 -0.11903432122E+02  0.42049536786E+02 -0.12612522033E+02  0.45677164450E+02  0.41800000000E+01 0.  1.
        -11    1    4    4    0    0  0.84467191874E+02  0.74470478656E+01 -0.11995507067E+03  0.14689923078E+03  0.00000000000E+00 0. -1.
         11    1    4    4    0    0 -0.65849141855E+01  0.33731419870E+02 -0.10397704064E+02  0.35906573647E+02  0.00000000000E+00 0.  1.
</event>
<event>
 8    1  0.6703334E-009  0.1396803E+03  0.7561462E-02  0.1213760E+00
          1   -1    0    0  501    0  0.00000000000E+00  0.00000000000E+00  0.18229416650E+03  0.18229416650E+03  0.00000000000E+00 0. -1.
         -1   -1    0    0    0  501 -0.00000000000E+00 -0.00000000000E+00 -0.13746390012E+03  0.13746390012E+03  0.00000000000E+00 0.  1.
         25    2    1    2    0    0 -0.34060336761E+02  0.87051797432E+02 -0.42853442148E+02  0.16193244581E+03  0.12509027750E+03 0.  0.
         23    2    1    2    0    0  0.34060336761E+02 -0.87051797432E+02  0.87683708524E+02  0.15782562081E+03  0.92099792982E+02 0.  0.
          5    1    3    3  502    0  0.21472523262E+02  0.94003760859E+02 -0.43359855133E+02  0.10580796637E+03  0.41800000000E+01 0. -1.
         -5    1    3    3    0  502 -0.55532860023E+02 -0.69519634269E+01  0.50641298450E+00  0.56124479436E+02  0.41800000000E+01 0. -1.
        -11    1    4    4    0    0  0.49610770349E+02 -0.13318089275E+02  0.15951111893E+02  0.53786968749E+02  0.00000000000E+00 0.  1.
         11    1    4    4    0    0 -0.15550433589E+02 -0.73733708157E+02  0.71732596631E+02  0.10403865206E+03  0.00000000000E+00 0. -1.
</event>
<event>
 8    1  0.6703334E-009  0.1293774E+03  0.7561462E-02  0.1228383E+00
          2   -1    0    0  501    0  0.00000000000E+00  0.00000000000E+00  0.35389142400E+04  0.35389142400E+04  0.00000000000E+00 0. -1.
         -2   -1    0    0    0  501 -0.00000000000E+00 -0.00000000000E+00 -0.17419046872E+02  0.17419046872E+02  0.00000000000E+00 0.  1.
         25    2    1    2    0    0  0.81908997952E+01 -0.93242162374E+02  0.32710398861E+04  0.32747687407E+04  0.12508867668E+03 0.  0.
         23    2    1    2    0    0 -0.81908997952E+01  0.93242162374E+02  0.25045530698E+03  0.28156454611E+03  0.88258377204E+02 0.  0.
          5    1    3    3  502    0 -0.44641084521E+02 -0.20776717445E+01  0.61463680699E+03  0.61627349453E+03  0.41800000000E+01 0.  1.
         -5    1    3    3    0  502  0.52831984317E+02 -0.91164490629E+02  0.26564030791E+04  0.26584952462E+04  0.41800000000E+01 0.  1.
        -11    1    4    4    0    0  0.16609845549E+02  0.59017884759E+01  0.28735356638E+01  0.17859879159E+02  0.00000000000E+00 0.  1.
         11    1    4    4    0    0 -0.24800745344E+02  0.87340373898E+02  0.24758177131E+03  0.26370466695E+03  0.00000000000E+00 0. -1.
</event>
<event>
 8    1  0.6703334E-009  0.3043213E+03  0.7561462E-02  0.1083100E+00
          2   -1    0    0  501    0  0.00000000000E+00  0.00000000000E+00  0.45205008866E+03  0.45205008866E+03  0.00000000000E+00 0. -1.
         -2   -1    0    0    0  501 -0.00000000000E+00 -0.00000000000E+00 -0.22100061896E+03  0.22100061896E+03  0.00000000000E+00 0.  1.
         25    2    1    2    0    0 -0.28488350655E+03 -0.10707511651E+02  0.20652048846E+03  0.37359223470E+03  0.12508869880E+03 0.  0.
         23    2    1    2    0    0  0.28488350655E+03  0.10707511651E+02  0.24528981244E+02  0.29945847292E+03  0.88320116461E+02 0.  0.
          5    1    3    3  502    0  0.35830198170E+01 -0.21828893158E+02  0.17410563081E+02  0.28459422241E+02  0.41800000000E+01 0. -1.
         -5    1    3    3    0  502 -0.28846652637E+03  0.11121381507E+02  0.18910992538E+03  0.34513281246E+03  0.41800000000E+01 0. -1.
        -11    1    4    4    0    0  0.16643288155E+03 -0.35670628627E+02  0.26343873641E+02  0.17223907073E+03  0.00000000000E+00 0.  1.
         11    1    4    4    0    0  0.11845062500E+03  0.46378140278E+02 -0.18148923972E+01  0.12721940219E+03  0.00000000000E+00 0. -1.
</event>
<event>
 8    1  0.6703334E-009  0.8271862E+02  0.7561462E-02  0.1321509E+00
          1   -1    0    0  501    0  0.00000000000E+00  0.00000000000E+00  0.19850517052E+03  0.19850517052E+03  0.00000000000E+00 0. -1.
         -1   -1    0    0    0  501 -0.00000000000E+00 -0.00000000000E+00 -0.73805984773E+02  0.73805984773E+02  0.00000000000E+00 0.  1.
         25    2    1    2    0    0 -0.80571657049E+01  0.45235265402E+02  0.51200228502E+02  0.14276990945E+03  0.12510250393E+03 0.  0.
         23    2    1    2    0    0  0.80571657049E+01 -0.45235265402E+02  0.73498957247E+02  0.12954124585E+03  0.96268844929E+02 0.  0.
          5    1    3    3  502    0  0.32180684096E+02  0.52481982194E+01  0.74400317656E+02  0.81338918611E+02  0.41800000000E+01 0.  1.
         -5    1    3    3    0  502 -0.40237849801E+02  0.39987067182E+02 -0.23200089155E+02  0.61430990837E+02  0.41800000000E+01 0.  1.
        -11    1    4    4    0    0  0.34325458885E+02 -0.27578460921E+02 -0.55603823622E+01  0.44381600765E+02  0.00000000000E+00 0.  1.
         11    1    4    4    0    0 -0.26268293180E+02 -0.17656804480E+02  0.79059339609E+02  0.85159645082E+02  0.00000000000E+00 0. -1.
</event>
<event>
 8    1  0.6703334E-009  0.8570670E+02  0.7561462E-02  0.1313595E+00
         -2   -1    0    0    0  501 -0.00000000000E+00  0.00000000000E+00  0.12657117241E+03  0.12657117241E+03  0.00000000000E+00 0.  1.
          2   -1    0    0  501    0  0.00000000000E+00 -0.00000000000E+00 -0.13262240380E+03  0.13262240380E+03  0.00000000000E+00 0. -1.
         25    2    1    2    0    0  0.65372901575E+01  0.35475109860E+02 -0.54908709063E+02  0.14128898136E+03  0.12508553209E+03 0.  0.
         23    2    1    2    0    0 -0.65372901575E+01 -0.35475109860E+02  0.48857477675E+02  0.11790459486E+03  0.10106048081E+03 0.  0.
          5    1    3    3  502    0 -0.32119693104E+02  0.71355807730E+01 -0.80304254171E+02  0.86884042471E+02  0.41800000000E+01 0.  1.
         -5    1    3    3    0  502  0.38656983262E+02  0.28339529087E+02  0.25395545108E+02  0.54404938885E+02  0.41800000000E+01 0.  1.
        -11    1    4    4    0    0  0.28710634874E+02  0.11903155733E+02  0.49964423587E+02  0.58842410689E+02  0.00000000000E+00 0.  1.
         11    1    4    4    0    0 -0.35247925032E+02 -0.47378265593E+02 -0.11069459124E+01  0.59062184170E+02  0.00000000000E+00 0. -1.
</event>
<event>
 8    1  0.6703334E-009  0.8399148E+02  0.7561462E-02  0.1318091E+00
          2   -1    0    0  501    0  0.00000000000E+00  0.00000000000E+00  0.17221039737E+03  0.17221039737E+03  0.00000000000E+00 0. -1.
         -2   -1    0    0    0  501 -0.00000000000E+00 -0.00000000000E+00 -0.73756988902E+02  0.73756988902E+02  0.00000000000E+00 0.  1.
         25    2    1    2    0    0  0.85025270121E+00  0.92191018946E+01  0.94417065905E+02  0.15699673869E+03  0.12509068253E+03 0.  0.
         23    2    1    2    0    0 -0.85025270121E+00 -0.92191018946E+01  0.40363425578E+01  0.88970647576E+02  0.88395527599E+02 0.  0.
          5    1    3    3  502    0 -0.31922500821E+02 -0.17594753134E+02  0.10659984368E+03  0.11273695255E+03  0.41800000000E+01 0. -1.
         -5    1    3    3    0  502  0.32772753522E+02  0.26813855028E+02 -0.12182777780E+02  0.44259786142E+02  0.41800000000E+01 0. -1.
        -11    1    4    4    0    0 -0.41302695643E+02 -0.21372865890E+02  0.45657217184E+01  0.46728555280E+02  0.00000000000E+00 0. -1.
         11    1    4    4    0    0  0.40452442942E+02  0.12153763996E+02 -0.52937916059E+00  0.42242092296E+02  0.00000000000E+00 0.  1.
</event>
<event>
 8    1  0.6703334E-009  0.1229009E+03  0.7561462E-02  0.1238387E+00
         -1   -1    0    0    0  501 -0.00000000000E+00  0.00000000000E+00  0.89321022854E+03  0.89321022854E+03  0.00000000000E+00 0. -1.
          1   -1    0    0  501    0  0.00000000000E+00 -0.00000000000E+00 -0.26084460638E+02  0.26084460638E+02  0.00000000000E+00 0.  1.
         25    2    1    2    0    0  0.83125351168E+02  0.68811347556E+02  0.45918920015E+03  0.48800307242E+03  0.12508977414E+03 0.  0.
         23    2    1    2    0    0 -0.83125351168E+02 -0.68811347556E+02  0.40793656775E+03  0.43129161676E+03  0.89192991996E+02 0.  0.
          5    1    3    3  502    0 -0.11016806015E+02  0.32357720202E+02  0.28147398019E+03  0.28357268204E+03  0.41800000000E+01 0. -1.
         -5    1    3    3    0  502  0.94142157183E+02  0.36453627355E+02  0.17771521996E+03  0.20443039038E+03  0.41800000000E+01 0. -1.
        -11    1    4    4    0    0 -0.55519627623E+02 -0.31248637125E+02  0.35535863869E+03  0.36102447073E+03  0.00000000000E+00 0. -1.
         11    1    4    4    0    0 -0.27605723545E+02 -0.37562710431E+02  0.52577929065E+02  0.70267146036E+02  0.00000000000E+00 0.  1.
</event>
<event>
 8    1  0.6703334E-009  0.1052919E+03  0.7561462E-02  0.1269546E+00
          4   -1    0    0  501    0  0.00000000000E+00  0.00000000000E+00  0.33567475642E+03  0.33567475642E+03  0.00000000000E+00 0. -1.
         -4   -1    0    0    0  501 -0.00000000000E+00 -0.00000000000E+00 -0.40215753771E+02  0.40215753771E+02  0.00000000000E+00 0.  1.
         25    2    1    2    0    0  0.12529456715E+02 -0.30399085002E+02  0.21488007701E+03  0.25080358019E+03  0.12509155321E+03 0.  0.
         23    2    1    2    0    0 -0.12529456715E+02  0.30399085002E+02  0.80578925642E+02  0.12508693000E+03  0.89848122662E+02 0.  0.
          5    1    3    3  502    0  0.55625111327E+02 -0.43785943790E+02  0.72629201294E+02  0.10150780839E+03  0.41800000000E+01 0. -1.
         -5    1    3    3    0  502 -0.43095654612E+02  0.13386858788E+02  0.14225087571E+03  0.14929577180E+03  0.41800000000E+01 0. -1.
        -11    1    4    4    0    0  0.34801621960E+02  0.31593459974E+02  0.29770273744E+02  0.55637836074E+02  0.00000000000E+00 0.  1.
         11    1    4    4    0    0 -0.47331078675E+02 -0.11943749720E+01  0.50808651898E+02  0.69449093931E+02  0.00000000000E+00 0. -1.
</event>
<event>
 8    1  0.6703334E-009  0.1924742E+03  0.7561462E-02  0.1156248E+00
         -2   -1    0    0    0  501 -0.00000000000E+00  0.00000000000E+00  0.61102310869E+02  0.61102310869E+02  0.00000000000E+00 0.  1.
          2   -1    0    0  501    0  0.00000000000E+00 -0.00000000000E+00 -0.72567281089E+03  0.72567281089E+03  0.00000000000E+00 0. -1.
         25    2    1    2    0    0 -0.42132835716E+02  0.17588080386E+03 -0.32164663541E+03  0.38961678189E+03  0.12504177560E+03 0.  0.
         23    2    1    2    0    0  0.42132835716E+02 -0.17588080386E+03 -0.34292386460E+03  0.39715833986E+03  0.86190121234E+02 0.  0.
          5    1    3    3  502    0 -0.28659216700E+02  0.37341837422E+02 -0.19744207739E+03  0.20301874261E+03  0.41800000000E+01 0. -1.
         -5    1    3    3    0  502 -0.13473619017E+02  0.13853896644E+03 -0.12420455802E+03  0.18659803928E+03  0.41800000000E+01 0. -1.
        -11    1    4    4    0    0 -0.20041598611E+02 -0.91229556619E+02 -0.18890659261E+03  0.21073727342E+03  0.00000000000E+00 0. -1.
         11    1    4    4    0    0  0.62174434327E+02 -0.84651247242E+02 -0.15401727199E+03  0.18642106644E+03  0.00000000000E+00 0.  1.
</event>
<event>
 8    1  0.6703334E-009  0.1122867E+03  0.7561462E-02  0.1256393E+00
         -1   -1    0    0    0  501 -0.00000000000E+00  0.00000000000E+00  0.46592796170E+03  0.46592796170E+03  0.00000000000E+00 0.  1.
          1   -1    0    0  501    0  0.00000000000E+00 -0.00000000000E+00 -0.58339876502E+02  0.58339876502E+02  0.00000000000E+00 0. -1.
         25    2    1    2    0    0 -0.69638756692E+02  0.58185867063E+02  0.35097304194E+03  0.38349071906E+03  0.12509158196E+03 0.  0.
         23    2    1    2    0    0  0.69638756692E+02 -0.58185867063E+02  0.56615043259E+02  0.14077711914E+03  0.91530227744E+02 0.  0.
          5    1    3    3  502    0 -0.21591231498E+02 -0.52420129119E+01 -0.98104256149E+00  0.22629512180E+02  0.41800000000E+01 0. -1.
         -5    1    3    3    0  502 -0.48047525194E+02  0.63427879975E+02  0.35195408450E+03  0.36086120688E+03  0.41800000000E+01 0. -1.
        -11    1    4    4    0    0  0.21297542762E+02  0.20741558633E+02 -0.42090625185E+01  0.30025219225E+02  0.00000000000E+00 0. -1.
         11    1    4    4    0    0  0.48341213931E+02 -0.78927425696E+02  0.60824105777E+02  0.11075189992E+03  0.00000000000E+00 0.  1.
</event>
<event>
 8    1  0.6703334E-009  0.1132046E+03  0.7561462E-02  0.1254748E+00
          4   -1    0    0  501    0  0.00000000000E+00  0.00000000000E+00  0.10189581539E+03  0.10189581539E+03  0.00000000000E+00 0. -1.
         -4   -1    0    0    0  501 -0.00000000000E+00 -0.00000000000E+00 -0.15288292160E+03  0.15288292160E+03  0.00000000000E+00 0.  1.
         25    2    1    2    0    0 -0.35859773797E+02  0.51366101121E+02 -0.50793891719E+02  0.14883577514E+03  0.12509064235E+03 0.  0.
         23    2    1    2    0    0  0.35859773797E+02 -0.51366101121E+02 -0.19321449406E+00  0.10594296185E+03  0.85436959876E+02 0.  0.
          5    1    3    3  502    0  0.30649988615E+02  0.59360930271E+02 -0.46649410303E+02  0.81589102988E+02  0.41800000000E+01 0.  1.
         -5    1    3    3    0  502 -0.66509762412E+02 -0.79948291501E+01 -0.41444814160E+01  0.67246672152E+02  0.41800000000E+01 0.  1.
        -11    1    4    4    0    0  0.15683591999E+02 -0.65736995923E+02 -0.23872824404E+02  0.71674538268E+02  0.00000000000E+00 0.  1.
         11    1    4    4    0    0  0.20176181798E+02  0.14370894802E+02  0.23679609910E+02  0.34268423583E+02  0.00000000000E+00 0. -1.
</event>
<event>
 8    1  0.6703334E-009  0.6498225E+02  0.7561462E-02  0.1378038E+00
         -4   -1    0    0    0  501 -0.00000000000E+00  0.00000000000E+00  0.29842537616E+03  0.29842537616E+03  0.00000000000E+00 0.  1.
          4   -1    0    0  501    0  0.00000000000E+00 -0.00000000000E+00 -0.44520380933E+02  0.44520380933E+02  0.00000000000E+00 0. -1.
         25    2    1    2    0    0 -0.42142899795E+02 -0.19928620164E+02  0.15862767800E+03  0.20732318372E+03  0.12508792258E+03 0.  0.
         23    2    1    2    0    0  0.42142899795E+02  0.19928620164E+02  0.95277317229E+02  0.13562257337E+03  0.84513557050E+02 0.  0.
          5    1    3    3  502    0  0.41879733205E+01 -0.28141917893E+02 -0.11340602762E+02  0.30912591840E+02  0.41800000000E+01 0. -1.
         -5    1    3    3    0  502 -0.46330873116E+02  0.82132977297E+01  0.16996828076E+03  0.17641059188E+03  0.41800000000E+01 0. -1.
        -11    1    4    4    0    0  0.15017731902E+02  0.22140821150E+02 -0.87078777680E+01  0.28134949225E+02  0.00000000000E+00 0. -1.
         11    1    4    4    0    0  0.27125167894E+02 -0.22122009866E+01  0.10398519500E+03  0.10748762415E+03  0.00000000000E+00 0.  1.
</event>
<event>
 8    1  0.6703334E-009  0.2559841E+03  0.7561462E-02  0.1109580E+00
         -2   -1    0    0    0  501 -0.00000000000E+00  0.00000000000E+00  0.10283020354E+04  0.10283020354E+04  0.00000000000E+00 0.  1.
          2   -1    0    0  501    0  0.00000000000E+00 -0.00000000000E+00 -0.75337411043E+02  0.75337411043E+02  0.00000000000E+00 0. -1.
         25    2    1    2    0    0  0.57572042160E+02  0.24595129329E+03  0.57108046488E+03  0.63685746639E+03  0.12509179197E+03 0.  0.
         23    2    1    2    0    0 -0.57572042160E+02 -0.24595129329E+03  0.38188415946E+03  0.46678198003E+03  0.90792769162E+02 0.  0.
          5    1    3    3  502    0 -0.20036302288E+01  0.25522692531E+01  0.12565841289E+03  0.12576978072E+03  0.41800000000E+01 0.  1.
         -5    1    3    3    0  502  0.59575672389E+02  0.24339902404E+03  0.44542205199E+03  0.51108768567E+03  0.41800000000E+01 0.  1.
        -11    1    4    4    0    0 -0.60098843788E+02 -0.17445194688E+03  0.33111538288E+03  0.37905507459E+03  0.00000000000E+00 0.  1.
         11    1    4    4    0    0  0.25268016278E+01 -0.71499346409E+02  0.50768776578E+02  0.87726905443E+02  0.00000000000E+00 0. -1.
</event>
<event>
 8    1  0.6703334E-009  0.1019056E+03  0.7561462E-02  0.1276339E+00
          2   -1    0    0  501    0  0.00000000000E+00  0.00000000000E+00  0.34423287925E+03  0.34423287925E+03  0.00000000000E+00 0.  1.
         -2   -1    0    0    0  501 -0.00000000000E+00 -0.00000000000E+00 -0.54846563105E+02  0.54846563105E+02  0.00000000000E+00 0. -1.
         25    2    1    2    0    0  0.82781436073E+01  0.77423231286E+02  0.11013156668E+03  0.18395393471E+03  0.12508878332E+03 0.  0.
         23    2    1    2    0    0 -0.82781436073E+01 -0.77423231286E+02  0.17925474946E+03  0.21512550765E+03  0.89910146424E+02 0.  0.
          5    1    3    3  502    0 -0.13292929110E+02  0.64417124054E+01 -0.25233333333E+02  0.29536268115E+02  0.41800000000E+01 0. -1.
         -5    1    3    3    0  502  0.21571072717E+02  0.70981518880E+02  0.13536490002E+03  0.15441766660E+03  0.41800000000E+01 0. -1.
        -11    1    4    4    0    0  0.27608885319E+02 -0.72938641996E+02  0.14814819954E+03  0.16742217616E+03  0.00000000000E+00 0.  1.
         11    1    4    4    0    0 -0.35887028926E+02 -0.44845892900E+01  0.31106549926E+02  0.47703331482E+02  0.00000000000E+00 0. -1.
</event>
<event>
 8    1  0.6703334E-009  0.1538420E+03  0.7561462E-02  0.1195830E+00
         -2   -1    0    0    0  501 -0.00000000000E+00  0.00000000000E+00  0.17966884695E+03  0.17966884695E+03  0.00000000000E+00 0.  1.
          2   -1    0    0  501    0  0.00000000000E+00 -0.00000000000E+00 -0.14470479653E+03  0.14470479653E+03  0.00000000000E+00 0. -1.
         25    2    1    2    0    0  0.11141104665E+03 -0.19020292850E+02  0.56256685569E+02  0.17772311786E+03  0.12508596682E+03 0.  0.
         23    2    1    2    0    0 -0.11141104665E+03  0.19020292850E+02 -0.21292635153E+02  0.14665052561E+03  0.90987952473E+02 0.  0.
          5    1    3    3  502    0  0.13711763548E+03 -0.27305658753E+02  0.55204894626E+02  0.15037252991E+03  0.41800000000E+01 0.  1.
         -5    1    3    3    0  502 -0.25706588830E+02  0.82853659029E+01  0.10517909429E+01  0.27350587957E+02  0.41800000000E+01 0.  1.
        -11    1    4    4    0    0 -0.10858298556E+03  0.42667625201E+02 -0.31340946358E+02  0.12080168009E+03  0.00000000000E+00 0. -1.
         11    1    4    4    0    0 -0.28280610882E+01 -0.23647332351E+02  0.10048311205E+02  0.25848845524E+02  0.00000000000E+00 0.  1.
</event>
<event>
 8    1  0.6703334E-009  0.1272888E+03  0.7561462E-02  0.1231535E+00
          2   -1    0    0  501    0  0.00000000000E+00  0.00000000000E+00  0.23584589778E+03  0.23584589778E+03  0.00000000000E+00 0. -1.
         -2   -1    0    0    0  501 -0.00000000000E+00 -0.00000000000E+00 -0.71886823972E+02  0.71886823972E+02  0.00000000000E+00 0.  1.
         25    2    1    2    0    0  0.59523595313E+02 -0.38338814628E+02  0.10915810213E+03  0.18048847488E+03  0.12509066790E+03 0.  0.
         23    2    1    2    0    0 -0.59523595313E+02  0.38338814628E+02  0.54800971674E+02  0.12724424687E+03  0.90415865641E+02 0.  0.
          5    1    3    3  502    0  0.93047494308E+02 -0.50224757106E+02  0.67333526624E+02  0.12542582920E+03  0.41800000000E+01 0.  1.
         -5    1    3    3    0  502 -0.33523898995E+02  0.11885942478E+02  0.41824575510E+02  0.55062645678E+02  0.41800000000E+01 0.  1.
        -11    1    4    4    0    0 -0.55495532751E+02 -0.16547801366E+02  0.16570391993E+02  0.60234224293E+02  0.00000000000E+00 0.  1.
         11    1    4    4    0    0 -0.40280625613E+01  0.54886615994E+02  0.38230579681E+02  0.67010022579E+02  0.00000000000E+00 0. -1.
</event>
<event>
 8    1  0.6703334E-009  0.1019160E+03  0.7561462E-02  0.1276318E+00
         -2   -1    0    0    0  501 -0.00000000000E+00  0.00000000000E+00  0.89540950300E+01  0.89540950300E+01  0.00000000000E+00 0.  1.
          2   -1    0    0  501    0  0.00000000000E+00 -0.00000000000E+00 -0.21916177587E+04  0.21916177587E+04  0.00000000000E+00 0. -1.
         25    2    1    2    0    0  0.37347451013E+02 -0.19715333556E+02 -0.18012159512E+04  0.18060482316E+04  0.12509110799E+03 0.  0.
         23    2    1    2    0    0 -0.37347451013E+02  0.19715333556E+02 -0.38144771244E+03  0.39452362216E+03  0.91449464985E+02 0.  0.
          5    1    3    3  502    0  0.71853543335E+02 -0.18591361612E+02 -0.16086870387E+04  0.16104036858E+04  0.41800000000E+01 0. -1.
         -5    1    3    3    0  502 -0.34506092322E+02 -0.11239719446E+01 -0.19252891251E+03  0.19564454573E+03  0.41800000000E+01 0. -1.
        -11    1    4    4    0    0 -0.39543256201E+00  0.48113083377E+02 -0.26053474698E+03  0.26494033204E+03  0.00000000000E+00 0.  1.
         11    1    4    4    0    0 -0.36952018451E+02 -0.28397749821E+02 -0.12091296546E+03  0.12958329012E+03  0.00000000000E+00 0. -1.
</event>
<event>
 8    1  0.6703334E-009  0.1313519E+03  0.7561462E-02  0.1225463E+00
          2   -1    0    0  501    0  0.00000000000E+00  0.00000000000E+00  0.11743531634E+04  0.11743531634E+04  0.00000000000E+00 0.  1.
         -2   -1    0    0    0  501 -0.00000000000E+00 -0.00000000000E+00 -0.18882276027E+02  0.18882276027E+02  0.00000000000E+00 0. -1.
         25    2    1    2    0    0 -0.13978295166E+02  0.75886107647E+02  0.87480497253E+03  0.88706572086E+03  0.12509100322E+03 0.  0.
         23    2    1    2    0    0  0.13978295166E+02 -0.75886107647E+02  0.28066591488E+03  0.30616971861E+03  0.94933907258E+02 0.  0.
          5    1    3    3  502    0 -0.67467333576E+02  0.23342830723E+02  0.45806141039E+03  0.46361024248E+03  0.41800000000E+01 0. -1.
         -5    1    3    3    0  502  0.53489038410E+02  0.52543276924E+02  0.41674356214E+03  0.42345547838E+03  0.41800000000E+01 0. -1.
        -11    1    4    4    0    0 -0.19472033710E+02  0.11438060649E+02  0.10245955446E+03  0.10491877633E+03  0.00000000000E+00 0.  1.
         11    1    4    4    0    0  0.33450328875E+02 -0.87324168295E+02  0.17820636043E+03  0.20125094228E+03  0.00000000000E+00 0. -1.
</event>
<event>
 8    1  0.6703334E-009  0.6944462E+02  0.7561462E-02  0.1361992E+00
          2   -1    0    0  501    0  0.00000000000E+00  0.00000000000E+00  0.81739319231E+02  0.81739319231E+02  0.00000000000E+00 0. -1.
         -2   -1    0    0    0  501 -0.00000000000E+00 -0.00000000000E+00 -0.14677598998E+03  0.14677598998E+03  0.00000000000E+00 0.  1.
         25    2    1    2    0    0 -0.61606525520E+01  0.18693847669E+02 -0.23609555314E+02  0.12881235964E+03  0.12509116400E+03 0.  0.
         23    2    1    2    0    0  0.61606525520E+01 -0.18693847669E+02 -0.41427115439E+02  0.99702949580E+02  0.88527163519E+02 0.  0.
          5    1    3    3  502    0  0.22845753195E+02  0.28792991881E+02  0.42169592927E+02  0.56095559434E+02  0.41800000000E+01 0.  1.
         -5    1    3    3    0  502 -0.29006405747E+02 -0.10099144212E+02 -0.65779148241E+02  0.72716800201E+02  0.41800000000E+01 0.  1.
        -11    1    4    4    0    0 -0.30430084318E+02 -0.15552567145E+02 -0.51330315455E+02  0.61665822472E+02  0.00000000000E+00 0.  1.
         11    1    4    4    0    0  0.36590736870E+02 -0.31412805238E+01  0.99032000166E+01  0.38037127107E+02  0.00000000000E+00 0. -1.
</event>
<event>
 8    1  0.6703334E-009  0.3708947E+03  0.7561462E-02  0.1054351E+00
         -2   -1    0    0    0  501 -0.00000000000E+00  0.00000000000E+00  0.26579852644E+03  0.26579852644E+03  0.00000000000E+00 0.  1.
          2   -1    0    0  501    0  0.00000000000E+00 -0.00000000000E+00 -0.60880836638E+03  0.60880836638E+03  0.00000000000E+00 0. -1.
         25    2    1    2    0    0 -0.87240288077E+02 -0.35480452268E+03 -0.31240589259E+03  0.49673166162E+03  0.12509110581E+03 0.  0.
         23    2    1    2    0    0  0.87240288077E+02  0.35480452268E+03 -0.30603947354E+02  0.37787523121E+03  0.91411003645E+02 0.  0.
          5    1    3    3  502    0 -0.53745043981E+02 -0.18820301607E+03 -0.86537748520E+02  0.21404476011E+03  0.41800000000E+01 0. -1.
         -5    1    3    3    0  502 -0.33495244095E+02 -0.16660150661E+03 -0.22586814407E+03  0.28268690151E+03  0.41800000000E+01 0. -1.
        -11    1    4    4    0    0  0.93044933656E+02  0.19437508255E+03 -0.69649198855E+01  0.21560969947E+03  0.00000000000E+00 0. -1.
         11    1    4    4    0    0 -0.58046455791E+01  0.16042944013E+03 -0.23639027468E+02  0.16226553174E+03  0.00000000000E+00 0.  1.
</event>
<event>
 8    1  0.6703334E-009  0.1193316E+03  0.7561462E-02  0.1244204E+00
          2   -1    0    0  501    0  0.00000000000E+00  0.00000000000E+00  0.32437721750E+02  0.32437721750E+02  0.00000000000E+00 0. -1.
         -2   -1    0    0    0  501 -0.00000000000E+00 -0.00000000000E+00 -0.56471777006E+03  0.56471777006E+03  0.00000000000E+00 0.  1.
         25    2    1    2    0    0  0.69924560563E+02  0.22577083428E+02 -0.36560513899E+03  0.39333294534E+03  0.12507805312E+03 0.  0.
         23    2    1    2    0    0 -0.69924560563E+02 -0.22577083428E+02 -0.16667490932E+03  0.20382254647E+03  0.91454558031E+02 0.  0.
          5    1    3    3  502    0 -0.82022937094E+01  0.43210818137E+02 -0.46551818914E+02  0.64179410018E+02  0.41800000000E+01 0. -1.
         -5    1    3    3    0  502  0.78126854273E+02 -0.20633734708E+02 -0.31905332007E+03  0.32915353532E+03  0.41800000000E+01 0. -1.
        -11    1    4    4    0    0  0.20501395404E+02 -0.78432440000E+01 -0.14870040735E+02  0.26513049643E+02  0.00000000000E+00 0. -1.
         11    1    4    4    0    0 -0.90425955967E+02 -0.14733839428E+02 -0.15180486859E+03  0.17730949682E+03  0.00000000000E+00 0.  1.
</event>
<event>
 8    1  0.6703334E-009  0.1341564E+03  0.7561462E-02  0.1221416E+00
         -2   -1    0    0    0  501 -0.00000000000E+00  0.00000000000E+00  0.11459065600E+03  0.11459065600E+03  0.00000000000E+00 0.  1.
          2   -1    0    0  501    0  0.00000000000E+00 -0.00000000000E+00 -0.19788034786E+03  0.19788034786E+03  0.00000000000E+00 0. -1.
         25    2    1    2    0    0 -0.21712919460E+02  0.94991154193E+02 -0.81340655040E+01  0.15877321603E+03  0.12509196961E+03 0.  0.
         23    2    1    2    0    0  0.21712919460E+02 -0.94991154193E+02 -0.75155626354E+02  0.15369778782E+03  0.92086218095E+02 0.  0.
          5    1    3    3  502    0 -0.44144461902E+02  0.25659136490E+01 -0.38570709946E+02  0.58825925367E+02  0.41800000000E+01 0.  1.
         -5    1    3    3    0  502  0.22431542443E+02  0.92425240544E+02  0.30436644442E+02  0.99947290663E+02  0.41800000000E+01 0.  1.
        -11    1    4    4    0    0 -0.30213543533E+02 -0.56459654006E+02 -0.58947243351E+02  0.87036361608E+02  0.00000000000E+00 0. -1.
         11    1    4    4    0    0  0.51926462993E+02 -0.38531500187E+02 -0.16208383003E+02  0.66661426216E+02  0.00000000000E+00 0.  1.
</event>
<event>
 8    1  0.6703334E-009  0.9505994E+02  0.7561462E-02  0.1291041E+00
         -1   -1    0    0    0  501 -0.00000000000E+00  0.00000000000E+00  0.85747952247E+02  0.85747952247E+02  0.00000000000E+00 0.  1.
          1   -1    0    0  501    0  0.00000000000E+00 -0.00000000000E+00 -0.19337753822E+03  0.19337753822E+03  0.00000000000E+00 0. -1.
         25    2    1    2    0    0 -0.47000495851E+01 -0.11011562447E+02  0.14226698332E+02  0.12646468577E+03  0.12509025872E+03 0.  0.
         23    2    1    2    0    0  0.47000495851E+01  0.11011562447E+02 -0.12185628431E+03  0.15266080470E+03  0.91175776903E+02 0.  0.
          5    1    3    3  502    0 -0.52765429215E+02  0.22129911887E+02  0.31482490848E+02  0.65441142642E+02  0.41800000000E+01 0.  1.
         -5    1    3    3    0  502  0.48065379629E+02 -0.33141474334E+02 -0.17255792517E+02  0.61023543123E+02  0.41800000000E+01 0.  1.
        -11    1    4    4    0    0  0.38890510457E+01  0.42519922254E+02 -0.11164198873E+03  0.11952824835E+03  0.00000000000E+00 0. -1.
         11    1    4    4    0    0  0.81099853942E+00 -0.31508359806E+02 -0.10214295579E+02  0.33132556353E+02  0.00000000000E+00 0.  1.
</event>
<event>
 8    1  0.6703334E-009  0.7703227E+02  0.7561462E-02  0.1337691E+00
          3   -1    0    0  501    0  0.00000000000E+00  0.00000000000E+00  0.21945586968E+03  0.21945586968E+03  0.00000000000E+00 0. -1.
         -3   -1    0    0    0  501 -0.00000000000E+00 -0.00000000000E+00 -0.69070297156E+02  0.69070297156E+02  0.00000000000E+00 0.  1.
         25    2    1    2    0    0 -0.17503358514E+01 -0.18213613166E+02  0.16773672231E+02  0.12752390039E+03  0.12508473012E+03 0.  0.
         23    2    1    2    0    0  0.17503358514E+01  0.18213613166E+02  0.13361190029E+03  0.16100226645E+03  0.87947657848E+02 0.  0.
          5    1    3    3  502    0  0.67778786788E+01  0.30677558391E+02  0.55851750815E+02  0.64217931276E+02  0.41800000000E+01 0. -1.
         -5    1    3    3    0  502 -0.85282145303E+01 -0.48891171558E+02 -0.39078078584E+02  0.63305969112E+02  0.41800000000E+01 0. -1.
        -11    1    4    4    0    0  0.49410742346E+01 -0.26894370833E+02  0.10257000464E+03  0.10615237750E+03  0.00000000000E+00 0. -1.
         11    1    4    4    0    0 -0.31907383831E+01  0.45107983999E+02  0.31041895655E+02  0.54849888949E+02  0.00000000000E+00 0.  1.
</event>
<event>
 8    1  0.6703334E-009  0.1626180E+03  0.7561462E-02  0.1185772E+00
          1   -1    0    0  501    0  0.00000000000E+00  0.00000000000E+00  0.68491321740E+02  0.68491321740E+02  0.00000000000E+00 0. -1.
         -1   -1    0    0    0  501 -0.00000000000E+00 -0.00000000000E+00 -0.45828463187E+03  0.45828463187E+03  0.00000000000E+00 0.  1.
         25    2    1    2    0    0  0.12880792356E+03  0.21104742184E+02 -0.28132064285E+03  0.33440394143E+03  0.12509116929E+03 0.  0.
         23    2    1    2    0    0 -0.12880792356E+03 -0.21104742184E+02 -0.10847266727E+03  0.19237201218E+03  0.90574721692E+02 0.  0.
          5    1    3    3  502    0  0.27363634437E+02 -0.47567038511E+02 -0.60073056004E+02  0.81471688948E+02  0.41800000000E+01 0. -1.
         -5    1    3    3    0  502  0.10144428912E+03  0.68671780695E+02 -0.22124758685E+03  0.25293225248E+03  0.41800000000E+01 0. -1.
        -11    1    4    4    0    0 -0.12247312496E+03  0.31958289235E+01 -0.57053325054E+02  0.13514792473E+03  0.00000000000E+00 0. -1.
         11    1    4    4    0    0 -0.63347985983E+01 -0.24300571108E+02 -0.51419342221E+02  0.57224087445E+02  0.00000000000E+00 0.  1.
</event>
<event>
 8    1  0.6703334E-009  0.9648995E+02  0.7561462E-02  0.1287855E+00
         -2   -1    0    0    0  501 -0.00000000000E+00  0.00000000000E+00  0.10730324251E+03  0.10730324251E+03  0.00000000000E+00 0.  1.
          2   -1    0    0  501    0  0.00000000000E+00 -0.00000000000E+00 -0.11749737339E+03  0.11749737339E+03  0.00000000000E+00 0. -1.
         25    2    1    2    0    0 -0.10447110450E+02  0.28849766721E+02  0.79636972425E+01  0.12901268653E+03  0.12505759336E+03 0.  0.
         23    2    1    2    0    0  0.10447110450E+02 -0.28849766721E+02 -0.18157828122E+02  0.95787929365E+02  0.88905396536E+02 0.  0.
          5    1    3    3  502    0  0.43274746105E+02  0.11263197723E+02  0.43163550069E+02  0.62290671276E+02  0.41800000000E+01 0. -1.
         -5    1    3    3    0  502 -0.53721856555E+02  0.17586568998E+02 -0.35199852827E+02  0.66722015256E+02  0.41800000000E+01 0. -1.
        -11    1    4    4    0    0 -0.37363973839E+02 -0.42107629139E+01  0.35892547361E+01  0.37771415316E+02  0.00000000000E+00 0. -1.
         11    1    4    4    0    0  0.47811084289E+02 -0.24639003808E+02 -0.21747082859E+02  0.58016514049E+02  0.00000000000E+00 0.  1.
</event>
<event>
 8    1  0.6703334E-009  0.1541165E+03  0.7561462E-02  0.1195504E+00
          1   -1    0    0  501    0  0.00000000000E+00  0.00000000000E+00  0.13865826683E+04  0.13865826683E+04  0.00000000000E+00 0. -1.
         -1   -1    0    0    0  501 -0.00000000000E+00 -0.00000000000E+00 -0.27348421404E+02  0.27348421404E+02  0.00000000000E+00 0.  1.
         25    2    1    2    0    0  0.12120651532E+03  0.80208985212E+02  0.97710105324E+03  0.99573999890E+03  0.12508867461E+03 0.  0.
         23    2    1    2    0    0 -0.12120651532E+03 -0.80208985212E+02  0.38213319371E+03  0.41819109085E+03  0.87940377917E+02 0.  0.
          5    1    3    3  502    0  0.11530867241E+03  0.72094415305E+02  0.97527575594E+03  0.98472024818E+03  0.41800000000E+01 0.  1.
         -5    1    3    3    0  502  0.58978429115E+01  0.81145699068E+01  0.18252972958E+01  0.11019750723E+02  0.41800000000E+01 0.  1.
        -11    1    4    4    0    0 -0.67426320967E+02 -0.83624133075E+02  0.31046265432E+03  0.32852148198E+03  0.00000000000E+00 0.  1.
         11    1    4    4    0    0 -0.53780194352E+02  0.34151478635E+01  0.71670539384E+02  0.89669608871E+02  0.00000000000E+00 0. -1.
</event>
<event>
 8    1  0.6703334E-009  0.9815612E+02  0.7561462E-02  0.1284222E+00
          2   -1    0    0  501    0  0.00000000000E+00  0.00000000000E+00  0.20689904332E+03  0.20689904332E+03  0.00000000000E+00 0.  1.
         -2   -1    0    0    0  501 -0.00000000000E+00 -0.00000000000E+00 -0.76271533036E+02  0.76271533036E+02  0.00000000000E+00 0. -1.
         25    2    1    2    0    0  0.29675245377E+02  0.52617247561E+01  0.13081392036E+03  0.18348000892E+03  0.12507728002E+03 0.  0.
         23    2    1    2    0    0 -0.29675245377E+02 -0.52617247561E+01 -0.18641007915E+00  0.99690567434E+02  0.95025620498E+02 0.  0.
          5    1    3    3  502    0 -0.14231359309E+02 -0.39965690682E+02  0.52905817263E+01  0.42956381068E+02  0.41800000000E+01 0. -1.
         -5    1    3    3    0  502  0.43906604686E+02  0.45227415438E+02  0.12552333864E+03  0.14052362785E+03  0.41800000000E+01 0. -1.
        -11    1    4    4    0    0 -0.22463880904E+02  0.39354780241E+02 -0.20986309626E+02  0.49938460777E+02  0.00000000000E+00 0. -1.
         11    1    4    4    0    0 -0.72113644736E+01 -0.44616504997E+02  0.20799899546E+02  0.49752106658E+02  0.00000000000E+00 0.  1.
</event>
<event>
 8    1  0.6703334E-009  0.1101639E+03  0.7561462E-02  0.1260267E+00
         -1   -1    0    0    0  501 -0.00000000000E+00  0.00000000000E+00  0.19086694875E+02  0.19086694875E+02  0.00000000000E+00 0. -1.
          1   -1    0    0  501    0  0.00000000000E+00 -0.00000000000E+00 -0.94188494122E+03  0.94188494122E+03  0.00000000000E+00 0.  1.
         25    2    1    2    0    0 -0.53975589251E+02  0.49912780329E+02 -0.40055424847E+03  0.42602341908E+03  0.12509035839E+03 0.  0.
         23    2    1    2    0    0  0.53975589251E+02 -0.49912780329E+02 -0.52224399787E+03  0.53494821701E+03  0.89588792246E+02 0.  0.
          5    1    3    3  502    0 -0.23241022072E+02 -0.20866334699E+02 -0.28666338860E+03  0.28839022139E+03  0.41800000000E+01 0. -1.
         -5    1    3    3    0  502 -0.30734567179E+02  0.70779115028E+02 -0.11389085987E+03  0.13763319769E+03  0.41800000000E+01 0. -1.
        -11    1    4    4    0    0 -0.22848997011E+02 -0.96591424325E+01 -0.65453663990E+02  0.69996841548E+02  0.00000000000E+00 0.  1.
         11    1    4    4    0    0  0.76824586262E+02 -0.40253637896E+02 -0.45679033388E+03  0.46495137547E+03  0.00000000000E+00 0. -1.
</event>
<event>
 8    1  0.6703334E-009  0.1650176E+03  0.7561462E-02  0.1183146E+00
          2   -1    0    0  501    0  0.00000000000E+00  0.00000000000E+00  0.73864752703E+03  0.73864752703E+03  0.00000000000E+00 0. -1.
         -2   -1    0    0    0  501 -0.00000000000E+00 -0.00000000000E+00 -0.53848805466E+02  0.53848805466E+02  0.00000000000E+00 0.  1.
         25    2    1    2    0    0  0.10220080650E+03  0.11059757830E+03  0.50155412675E+03  0.53840670392E+03  0.12509359531E+03 0.  0.
         23    2    1    2    0    0 -0.10220080650E+03 -0.11059757830E+03  0.18324459481E+03  0.25408962858E+03  0.91137964910E+02 0.  0.
          5    1    3    3  502    0  0.55659131828E+02  0.90665127456E+02  0.46175603604E+03  0.47387151582E+03  0.41800000000E+01 0.  1.
         -5    1    3    3    0  502  0.46541674673E+02  0.19932450842E+02  0.39798090717E+02  0.64535188097E+02  0.41800000000E+01 0.  1.
        -11    1    4    4    0    0 -0.96307288403E+02 -0.43959333200E+02  0.13524932347E+03  0.17175533841E+03  0.00000000000E+00 0.  1.
         11    1    4    4    0    0 -0.58935180976E+01 -0.66638245098E+02  0.47995271341E+02  0.82334290162E+02  0.00000000000E+00 0. -1.
</event>
<event>
 8    1  0.6703334E-009  0.9299965E+02  0.7561462E-02  0.1295746E+00
         -4   -1    0    0    0  501 -0.00000000000E+00  0.00000000000E+00  0.26271422517E+03  0.26271422517E+03  0.00000000000E+00 0.  1.
          4   -1    0    0  501    0  0.00000000000E+00 -0.00000000000E+00 -0.57500183363E+02  0.57500183363E+02  0.00000000000E+00 0. -1.
         25    2    1    2    0    0 -0.16756635488E+02  0.31604911310E+02  0.51074240475E+02  0.13977243992E+03  0.12509237255E+03 0.  0.
         23    2    1    2    0    0  0.16756635488E+02 -0.31604911310E+02  0.15413980133E+03  0.18044196861E+03  0.86721222487E+02 0.  0.
          5    1    3    3  502    0 -0.54241233017E+02 -0.54849422547E+01  0.65129912117E+02  0.85038660638E+02  0.41800000000E+01 0.  1.
         -5    1    3    3    0  502  0.37484597530E+02  0.37089853564E+02 -0.14055671643E+02  0.54733779284E+02  0.41800000000E+01 0.  1.
        -11    1    4    4    0    0  0.33726393845E+01 -0.53043064223E+02  0.48943534192E+02  0.72252411017E+02  0.00000000000E+00 0. -1.
         11    1    4    4    0    0  0.13383996103E+02  0.21438152913E+02  0.10519626714E+03  0.10818955760E+03  0.00000000000E+00 0.  1.
</event>
<event>
 8    1  0.6703334E-009  0.1528983E+03  0.7561462E-02  0.1196956E+00
          1   -1    0    0  501    0  0.00000000000E+00  0.00000000000E+00  0.13268280977E+03  0.13268280977E+03  0.00000000000E+00 0. -1.
         -1   -1    0    0    0  501 -0.00000000000E+00 -0.00000000000E+00 -0.20667843942E+03  0.20667843942E+03  0.00000000000E+00 0.  1.
         25    2    1    2    0    0  0.68039272400E+01 -0.11911308304E+03 -0.66409349625E+02  0.18518233916E+03  0.12509227411E+03 0.  0.
         23    2    1    2    0    0 -0.68039272400E+01  0.11911308304E+03 -0.75862800278E+01  0.15417891003E+03  0.97362028931E+02 0.  0.
          5    1    3    3  502    0 -0.15522847404E+02  0.23206282019E+02 -0.57171196777E+01  0.28803613907E+02  0.41800000000E+01 0.  1.
         -5    1    3    3    0  502  0.22326774644E+02 -0.14231936506E+03 -0.60692229947E+02  0.15637872526E+03  0.41800000000E+01 0.  1.
        -11    1    4    4    0    0  0.17259758163E+02  0.10311379800E+03 -0.38917048218E+02  0.11155667274E+03  0.00000000000E+00 0.  1.
         11    1    4    4    0    0 -0.24063685403E+02  0.15999285038E+02  0.31330768190E+02  0.42622237298E+02  0.00000000000E+00 0. -1.
</event>
<event>
 8    1  0.6703334E-009  0.1742943E+03  0.7561462E-02  0.1173442E+00
          2   -1    0    0  501    0  0.00000000000E+00  0.00000000000E+00  0.29286516120E+03  0.29286516120E+03  0.00000000000E+00 0. -1.
         -2   -1    0    0    0  501 -0.00000000000E+00 -0.00000000000E+00 -0.12159635242E+03  0.12159635242E+03  0.00000000000E+00 0.  1.
         25    2    1    2    0    0  0.15199104316E+03 -0.22891608032E+02  0.10476501043E+03  0.22416130605E+03  0.12508909145E+03 0.  0.
         23    2    1    2    0    0 -0.15199104316E+03  0.22891608032E+02  0.66503798344E+02  0.19030020757E+03  0.90366536332E+02 0.  0.
          5    1    3    3  502    0  0.75140603430E+02 -0.70796120077E+02  0.78552762057E+02  0.12979294946E+03  0.41800000000E+01 0. -1.
         -5    1    3    3    0  502  0.76850439729E+02  0.47904512046E+02  0.26212248374E+02  0.94368356591E+02  0.41800000000E+01 0. -1.
        -11    1    4    4    0    0 -0.13413487509E+03  0.25583160687E+02  0.17001512736E+02  0.13760710106E+03  0.00000000000E+00 0.  1.
         11    1    4    4    0    0 -0.17856168071E+02 -0.26915526550E+01  0.49502285608E+02  0.52693106516E+02  0.00000000000E+00 0. -1.
</event>
<event>
 8    1  0.6703334E-009  0.9455498E+02  0.7561462E-02  0.1292182E+00
         -2   -1    0    0    0  501 -0.00000000000E+00  0.00000000000E+00  0.27833481483E+02  0.27833481483E+02  0.00000000000E+00 0.  1.
          2   -1    0    0  501    0  0.00000000000E+00 -0.00000000000E+00 -0.61003075435E+03  0.61003075435E+03  0.00000000000E+00 0. -1.
         25    2    1    2    0    0  0.58649911935E+02 -0.25420820662E+02 -0.40557913769E+03  0.42921804683E+03  0.12509062517E+03 0.  0.
         23    2    1    2    0    0 -0.58649911935E+02  0.25420820662E+02 -0.17661813518E+03  0.20864618900E+03  0.90847323671E+02 0.  0.
          5    1    3    3  502    0  0.40359417813E+01 -0.58633350085E+02 -0.29996122297E+03  0.30569325517E+03  0.41800000000E+01 0.  1.
         -5    1    3    3    0  502  0.54613970153E+02  0.33212529423E+02 -0.10561791472E+03  0.12352479167E+03  0.41800000000E+01 0.  1.
        -11    1    4    4    0    0 -0.51546117531E+02  0.15301873438E+02 -0.18568562069E+03  0.19331399146E+03  0.00000000000E+00 0. -1.
         11    1    4    4    0    0 -0.71037944034E+01  0.10118947224E+02  0.90674855141E+01  0.15332197540E+02  0.00000000000E+00 0.  1.
</event>
<event>
 8    1  0.6703334E-009  0.1347942E+03  0.7561462E-02  0.1220510E+00
         -2   -1    0    0    0  501 -0.00000000000E+00  0.00000000000E+00  0.17580253419E+02  0.17580253419E+02  0.00000000000E+00 0.  1.
          2   -1    0    0  501    0  0.00000000000E+00 -0.00000000000E+00 -0.14869574338E+04  0.14869574338E+04  0.00000000000E+00 0. -1.
         25    2    1    2    0    0  0.93786559401E+02  0.51620034847E+02 -0.10149608815E+04  0.10282285752E+04  0.12509142659E+03 0.  0.
         23    2    1    2    0    0 -0.93786559401E+02 -0.51620034847E+02 -0.45441629888E+03  0.47630911210E+03  0.94422724243E+02 0.  0.
          5    1    3    3  502    0 -0.35516641178E+01 -0.26872708727E+02 -0.72767282906E+02  0.77764430518E+02  0.41800000000E+01 0. -1.
         -5    1    3    3    0  502  0.97338223519E+02  0.78492743574E+02 -0.94219359864E+03  0.95046414465E+03  0.41800000000E+01 0. -1.
        -11    1    4    4    0    0 -0.25579742380E+02  0.76376077881E+01 -0.22112962457E+02  0.34664670510E+02  0.00000000000E+00 0.  1.
         11    1    4    4    0    0 -0.68206817021E+02 -0.59257642635E+02 -0.43230333643E+03  0.44164444159E+03  0.00000000000E+00 0. -1.
</event>
<event>
 8    1  0.6703334E-009  0.1227700E+03  0.7561462E-02  0.1238596E+00
          2   -1    0    0  501    0  0.00000000000E+00  0.00000000000E+00  0.10392846148E+03  0.10392846148E+03  0.00000000000E+00 0. -1.
         -2   -1    0    0    0  501 -0.00000000000E+00 -0.00000000000E+00 -0.20186721274E+03  0.20186721274E+03  0.00000000000E+00 0.  1.
         25    2    1    2    0    0 -0.17459734057E+02 -0.90087627682E+02 -0.10215905191E+03  0.18575506096E+03  0.12509135786E+03 0.  0.
         23    2    1    2    0    0  0.17459734057E+02  0.90087627682E+02  0.42203006466E+01  0.12004061326E+03  0.77274283692E+02 0.  0.
          5    1    3    3  502    0 -0.52201773102E+02 -0.10284271710E+03 -0.62094859572E+02  0.13105301813E+03  0.41800000000E+01 0.  1.
         -5    1    3    3    0  502  0.34742039045E+02  0.12755089416E+02 -0.40064192334E+02  0.54702042836E+02  0.41800000000E+01 0.  1.
        -11    1    4    4    0    0  0.34848430735E+00  0.39157424522E+02  0.39614518028E+02  0.55702202605E+02  0.00000000000E+00 0. -1.
         11    1    4    4    0    0  0.17111249749E+02  0.50930203159E+02 -0.35394217381E+02  0.64338410657E+02  0.00000000000E+00 0.  1.
</event>
<event>
 8    1  0.6703334E-009  0.7381919E+02  0.7561462E-02  0.1347567E+00
          2   -1    0    0  501    0  0.00000000000E+00  0.00000000000E+00  0.10089626964E+03  0.10089626964E+03  0.00000000000E+00 0. -1.
         -2   -1    0    0    0  501 -0.00000000000E+00 -0.00000000000E+00 -0.14784863595E+03  0.14784863595E+03  0.00000000000E+00 0.  1.
         25    2    1    2    0    0 -0.10267383662E+02  0.38130689450E+02  0.15691767858E+02  0.13210953151E+03  0.12508928049E+03 0.  0.
         23    2    1    2    0    0  0.10267383662E+02 -0.38130689450E+02 -0.62644134166E+02  0.11663537408E+03  0.90111898745E+02 0.  0.
          5    1    3    3  502    0 -0.19059276849E+02 -0.31925366302E+02 -0.29954949293E+02  0.47929703052E+02  0.41800000000E+01 0. -1.
         -5    1    3    3    0  502  0.87918931871E+01  0.70056055751E+02  0.45646717152E+02  0.84179828462E+02  0.41800000000E+01 0. -1.
        -11    1    4    4    0    0  0.52695906891E+01 -0.20691015468E+02  0.21652211787E+02  0.30408962205E+02  0.00000000000E+00 0. -1.
         11    1    4    4    0    0  0.49977929732E+01 -0.17439673982E+02 -0.84296345953E+02  0.86226411871E+02  0.00000000000E+00 0.  1.
</event>
<event>
 8    1  0.6703334E-009  0.4210730E+03  0.7561462E-02  0.1036718E+00
          2   -1    0    0  501    0  0.00000000000E+00  0.00000000000E+00  0.43613469719E+03  0.43613469719E+03  0.00000000000E+00 0.  1.
         -2   -1    0    0    0  501 -0.00000000000E+00 -0.00000000000E+00 -0.42755454882E+03  0.42755454882E+03  0.00000000000E+00 0. -1.
         25    2    1    2    0    0  0.55629168057E+02  0.41202885596E+03  0.44890724666E+02  0.43649218582E+03  0.12509144111E+03 0.  0.
         23    2    1    2    0    0 -0.55629168057E+02 -0.41202885596E+03 -0.36310576301E+02  0.42719706019E+03  0.91194779453E+02 0.  0.
          5    1    3    3  502    0  0.62101576809E+02  0.12895859978E+03  0.54344974287E+02  0.15315931225E+03  0.41800000000E+01 0. -1.
         -5    1    3    3    0  502 -0.64724087519E+01  0.28307025618E+03 -0.94542496207E+01  0.28333287357E+03  0.41800000000E+01 0. -1.
        -11    1    4    4    0    0 -0.59870467767E+01 -0.38057197400E+02  0.23656362714E+02  0.45208610904E+02  0.00000000000E+00 0.  1.
         11    1    4    4    0    0 -0.49642121280E+02 -0.37397165856E+03 -0.59966939015E+02  0.38198844928E+03  0.00000000000E+00 0. -1.
</event>
<event>
 8    1  0.6703334E-009  0.1624972E+03  0.7561462E-02  0.1185906E+00
          2   -1    0    0  501    0  0.00000000000E+00  0.00000000000E+00  0.14461413049E+04  0.14461413049E+04  0.00000000000E+00 0. -1.
         -2   -1    0    0    0  501 -0.00000000000E+00 -0.00000000000E+00 -0.21246393866E+02  0.21246393866E+02  0.00000000000E+00 0.  1.
         25    2    1    2    0    0  0.54157756739E+02 -0.11509924482E+03  0.93330038962E+03  0.95019900888E+03  0.12509052892E+03 0.  0.
         23    2    1    2    0    0 -0.54157756739E+02  0.11509924482E+03  0.49159452146E+03  0.51718868994E+03  0.98173666004E+02 0.  0.
          5    1    3    3  502    0  0.85533629341E+02 -0.96114819757E+02  0.84095150174E+03  0.85074729562E+03  0.41800000000E+01 0. -1.
         -5    1    3    3    0  502 -0.31375872601E+02 -0.18984425067E+02  0.92348887884E+02  0.99451713258E+02  0.41800000000E+01 0. -1.
        -11    1    4    4    0    0 -0.78438710836E+02  0.58765110460E+02  0.26911094439E+03  0.28640298524E+03  0.00000000000E+00 0.  1.
         11    1    4    4    0    0  0.24280954097E+02  0.56334134365E+02  0.22248357707E+03  0.23078570470E+03  0.00000000000E+00 0. -1.
</event>
<event>
 8    1  0.6703334E-009  0.1761639E+03  0.7561462E-02  0.1171568E+00
          2   -1    0    0  501    0  0.00000000000E+00  0.00000000000E+00  0.83759400498E+02  0.83759400498E+02  0.00000000000E+00 0. -1.
         -2   -1    0    0    0  501 -0.00000000000E+00 -0.00000000000E+00 -0.45534335656E+03  0.45534335656E+03  0.00000000000E+00 0.  1.
         25    2    1    2    0    0  0.12869309359E+03 -0.53053229365E+02 -0.81607133902E+02  0.20416805346E+03  0.12509321431E+03 0.  0.
         23    2    1    2    0    0 -0.12869309359E+03  0.53053229365E+02 -0.28997682216E+03  0.33493470360E+03  0.93370984783E+02 0.  0.
          5    1    3    3  502    0 -0.97076603722E+01 -0.47055119554E+02 -0.26426725445E+02  0.54993337450E+02  0.41800000000E+01 0. -1.
         -5    1    3    3    0  502  0.13840075397E+03 -0.59981098113E+01 -0.55180408458E+02  0.14917471601E+03  0.41800000000E+01 0. -1.
        -11    1    4    4    0    0 -0.11887447254E+02  0.47069962132E+02 -0.62385410597E+02  0.79049555297E+02  0.00000000000E+00 0.  1.
         11    1    4    4    0    0 -0.11680564634E+03  0.59832672332E+01 -0.22759141157E+03  0.25588514830E+03  0.00000000000E+00 0. -1.
</event>
<event>
 8    1  0.6703334E-009  0.9643197E+02  0.7561462E-02  0.1287983E+00
          1   -1    0    0  501    0  0.00000000000E+00  0.00000000000E+00  0.28634043339E+03  0.28634043339E+03  0.00000000000E+00 0. -1.
         -1   -1    0    0    0  501 -0.00000000000E+00 -0.00000000000E+00 -0.61281473807E+02  0.61281473807E+02  0.00000000000E+00 0.  1.
         25    2    1    2    0    0  0.37390311596E+01  0.21607796980E+02  0.28590391257E+02  0.13017155724E+03  0.12508535724E+03 0.  0.
         23    2    1    2    0    0 -0.37390311596E+01 -0.21607796980E+02  0.19646856833E+03  0.21745034996E+03  0.90575267670E+02 0.  0.
          5    1    3    3  502    0  0.39374821110E+02 -0.39340916981E+02  0.71857571494E+01  0.56277809056E+02  0.41800000000E+01 0.  1.
         -5    1    3    3    0  502 -0.35635789950E+02  0.60948713962E+02  0.21404634108E+02  0.73893748181E+02  0.41800000000E+01 0.  1.
        -11    1    4    4    0    0 -0.30129545720E+01 -0.43906880875E+02  0.18879491571E+03  0.19385667975E+03  0.00000000000E+00 0. -1.
         11    1    4    4    0    0 -0.72607658761E+00  0.22299083895E+02  0.76736526147E+01  0.23593670215E+02  0.00000000000E+00 0.  1.
</event>
<event>
 8    1  0.6703334E-009  0.1689594E+03  0.7561462E-02  0.1178937E+00
          2   -1    0    0  501    0  0.00000000000E+00  0.00000000000E+00  0.89540413593E+03  0.89540413593E+03  0.00000000000E+00 0.  1.
         -2   -1    0    0    0  501 -0.00000000000E+00 -0.00000000000E+00 -0.62893645365E+02  0.62893645365E+02  0.00000000000E+00 0. -1.
         25    2    1    2    0    0 -0.14041032148E+03  0.13337499418E+02  0.74250896212E+03  0.76606820677E+03  0.12509193151E+03 0.  0.
         23    2    1    2    0    0  0.14041032148E+03 -0.13337499418E+02  0.90001528443E+02  0.19222957452E+03  0.94651925118E+02 0.  0.
          5    1    3    3  502    0  0.12951189204E+02 -0.45449776285E+01  0.10091457690E+02  0.17541380839E+02  0.41800000000E+01 0.  1.
         -5    1    3    3    0  502 -0.15336151069E+03  0.17882477046E+02  0.73241750443E+03  0.74852682593E+03  0.41800000000E+01 0.  1.
        -11    1    4    4    0    0  0.14532618487E+03 -0.32849017271E+02  0.73135775532E+02  0.16597469568E+03  0.00000000000E+00 0. -1.
         11    1    4    4    0    0 -0.49158633820E+01  0.19511517853E+02  0.16865752911E+02  0.26254878841E+02  0.00000000000E+00 0.  1.
</event>
<event>
 8    1  0.6703334E-009  0.2385750E+03  0.7561462E-02  0.1120746E+00
         -1   -1    0    0    0  501 -0.00000000000E+00  0.00000000000E+00  0.35545736522E+03  0.35545736522E+03  0.00000000000E+00 0.  1.
          1   -1    0    0  501    0  0.00000000000E+00 -0.00000000000E+00 -0.25870220651E+03  0.25870220651E+03  0.00000000000E+00 0. -1.
         25    2    1    2    0    0 -0.12177418663E+03 -0.17646165369E+03 -0.13762115426E+03  0.28382119096E+03  0.12508884275E+03 0.  0.
         23    2    1    2    0    0  0.12177418663E+03  0.17646165369E+03  0.23437631297E+03  0.33033838077E+03  0.90683636746E+02 0.  0.
          5    1    3    3  502    0 -0.72489767377E+02 -0.10271945745E+02 -0.27001021282E+02  0.78146060643E+02  0.41800000000E+01 0. -1.
         -5    1    3    3    0  502 -0.49284419258E+02 -0.16618970795E+03 -0.11062013298E+03  0.20567513032E+03  0.41800000000E+01 0. -1.
        -11    1    4    4    0    0  0.13123587007E+02  0.91663274867E+02  0.71605471553E+02  0.11705438075E+03  0.00000000000E+00 0. -1.
         11    1    4    4    0    0  0.10865059963E+03  0.84798378827E+02  0.16277084142E+03  0.21328400002E+03  0.00000000000E+00 0.  1.
</event>
<event>
 8    1  0.6703334E-009  0.1157016E+03  0.7561462E-02  0.1250361E+00
         -1   -1    0    0    0  501 -0.00000000000E+00  0.00000000000E+00  0.33026713093E+03  0.33026713093E+03  0.00000000000E+00 0.  1.
          1   -1    0    0  501    0  0.00000000000E+00 -0.00000000000E+00 -0.43112111222E+02  0.43112111222E+02  0.00000000000E+00 0. -1.
         25    2    1    2    0    0 -0.20704875055E+02 -0.41346738670E+02  0.12536701904E+03  0.18304676360E+03  0.12510389104E+03 0.  0.
         23    2    1    2    0    0  0.20704875055E+02  0.41346738670E+02  0.16178800067E+03  0.19033247855E+03  0.88954204961E+02 0.  0.
          5    1    3    3  502    0  0.36594970028E+02  0.24547175702E+02  0.28913479523E+02  0.52869815249E+02  0.41800000000E+01 0.  1.
         -5    1    3    3    0  502 -0.57299845083E+02 -0.65893914372E+02  0.96453539513E+02  0.13017694835E+03  0.41800000000E+01 0.  1.
        -11    1    4    4    0    0  0.45589033903E+02 -0.62426768287E+01  0.84541069441E+02  0.96252394507E+02  0.00000000000E+00 0.  1.
         11    1    4    4    0    0 -0.24884158848E+02  0.47589415499E+02  0.77246931233E+02  0.94080084045E+02  0.00000000000E+00 0. -1.
</event>
<event>
 8    1  0.6703334E-009  0.1066909E+03  0.7561462E-02  0.1266823E+00
          4   -1    0    0  501    0  0.00000000000E+00  0.00000000000E+00  0.49098562330E+02  0.49098562330E+02  0.00000000000E+00 0. -1.
         -4   -1    0    0    0  501 -0.00000000000E+00 -0.00000000000E+00 -0.42811396883E+03  0.42811396883E+03  0.00000000000E+00 0.  1.
         25    2    1    2    0    0 -0.12124339730E+01  0.57571356091E+02 -0.33590012987E+03  0.36303412144E+03  0.12509574352E+03 0.  0.
         23    2    1    2    0    0  0.12124339730E+01 -0.57571356091E+02 -0.43115276631E+02  0.11417840972E+03  0.88667080297E+02 0.  0.
          5    1    3    3  502    0 -0.29589103457E+02 -0.12766076228E+02 -0.23234403974E+03  0.23460544100E+03  0.41800000000E+01 0. -1.
         -5    1    3    3    0  502  0.28376669484E+02  0.70337432318E+02 -0.10355609013E+03  0.12842868044E+03  0.41800000000E+01 0. -1.
        -11    1    4    4    0    0 -0.23245247907E+02  0.15453688898E+02 -0.17828931166E+02  0.33121425654E+02  0.00000000000E+00 0. -1.
         11    1    4    4    0    0  0.24457681880E+02 -0.73025044989E+02 -0.25286345464E+02  0.81056984064E+02  0.00000000000E+00 0.  1.
</event>
<event>
 8    1  0.6703334E-009  0.8526922E+02  0.7561462E-02  0.1314730E+00
          2   -1    0    0  501    0  0.00000000000E+00  0.00000000000E+00  0.15052295821E+03  0.15052295821E+03  0.00000000000E+00 0. -1.
         -2   -1    0    0    0  501 -0.00000000000E+00 -0.00000000000E+00 -0.83880316211E+02  0.83880316211E+02  0.00000000000E+00 0.  1.
         25    2    1    2    0    0  0.46293717384E+02  0.26446039813E+01  0.42910705422E+02  0.14013964895E+03  0.12509072855E+03 0.  0.
         23    2    1    2    0    0 -0.46293717384E+02 -0.26446039813E+01  0.23731936576E+02  0.94263625466E+02  0.78564139866E+02 0.  0.
          5    1    3    3  502    0  0.29290501846E+02  0.58138878322E+02 -0.40546773939E+01  0.65360350976E+02  0.41800000000E+01 0. -1.
         -5    1    3    3    0  502  0.17003215538E+02 -0.55494274340E+02  0.46965382816E+02  0.74779297979E+02  0.41800000000E+01 0. -1.
        -11    1    4    4    0    0 -0.24584864388E+02 -0.55697685381E+01  0.52421601122E+02  0.58167535127E+02  0.00000000000E+00 0. -1.
         11    1    4    4    0    0 -0.21708852996E+02  0.29251645568E+01 -0.28689664545E+02  0.36096090340E+02  0.00000000000E+00 0.  1.
</event>
<event>
 8    1  0.6703334E-009  0.1096707E+03  0.7561462E-02  0.1261181E+00
         -2   -1    0    0    0  501 -0.00000000000E+00  0.00000000000E+00  0.10703581931E+03  0.10703581931E+03  0.00000000000E+00 0.  1.
          2   -1    0    0  501    0  0.00000000000E+00 -0.00000000000E+00 -0.12891461530E+03  0.12891461530E+03  0.00000000000E+00 0. -1.
         25    2    1    2    0    0 -0.94320905189E+01  0.19159465128E+02  0.74560207490E+01  0.12712669069E+03  0.12509817667E+03 0.  0.
         23    2    1    2    0    0  0.94320905189E+01 -0.19159465128E+02 -0.29334816738E+02  0.10882374391E+03  0.10259642454E+03 0.  0.
          5    1    3    3  502    0 -0.40034499950E+02  0.56315178990E+02 -0.19345549223E+02  0.71874079095E+02  0.41800000000E+01 0. -1.
         -5    1    3    3    0  502  0.30602409431E+02 -0.37155713863E+02  0.26801569972E+02  0.55252611600E+02  0.41800000000E+01 0. -1.
        -11    1    4    4    0    0  0.53774415642E+02 -0.20213540300E+02 -0.29256694944E+02  0.64468823381E+02  0.00000000000E+00 0. -1.
         11    1    4    4    0    0 -0.44342325123E+02  0.10540751728E+01 -0.78121794470E-01  0.44354920525E+02  0.00000000000E+00 0.  1.
</event>
<event>
 8    1  0.6703334E-009  0.1287983E+03  0.7561462E-02  0.1229250E+00
         -4   -1    0    0    0  501 -0.00000000000E+00  0.00000000000E+00  0.35562199737E+03  0.35562199737E+03  0.00000000000E+00 0.  1.
          4   -1    0    0  501    0  0.00000000000E+00 -0.00000000000E+00 -0.92178696763E+02  0.92178696763E+02  0.00000000000E+00 0. -1.
         25    2    1    2    0    0  0.57370536301E+02 -0.88600035694E+02  0.16737044923E+02  0.16452399712E+03  0.12508665874E+03 0.  0.
         23    2    1    2    0    0 -0.57370536301E+02  0.88600035694E+02  0.24670625568E+03  0.28327669701E+03  0.90776460153E+02 0.  0.
          5    1    3    3  502    0 -0.14247393450E+02  0.54245345780E+01  0.40868886982E+02  0.43819540375E+02  0.41800000000E+01 0.  1.
         -5    1    3    3    0  502  0.71617929751E+02 -0.94024570272E+02 -0.24131842058E+02  0.12070445674E+03  0.41800000000E+01 0.  1.
        -11    1    4    4    0    0 -0.24132251932E+01  0.62735283553E+02  0.19028797723E+03  0.20037727849E+03  0.00000000000E+00 0.  1.
         11    1    4    4    0    0 -0.54957311108E+02  0.25864752141E+02  0.56418278453E+02  0.82899418521E+02  0.00000000000E+00 0. -1.
</event>
<event>
 8    1  0.6703334E-009  0.1972599E+03  0.7561462E-02  0.1152072E+00
         -2   -1    0    0    0  501 -0.00000000000E+00  0.00000000000E+00  0.23041541150E+03  0.23041541150E+03  0.00000000000E+00 0.  1.
          2   -1    0    0  501    0  0.00000000000E+00 -0.00000000000E+00 -0.19806683464E+03  0.19806683464E+03  0.00000000000E+00 0. -1.
         25    2    1    2    0    0  0.18064635224E+03  0.17243406489E+02 -0.11347447823E+02  0.22069258482E+03  0.12508402286E+03 0.  0.
         23    2    1    2    0    0 -0.18064635224E+03 -0.17243406489E+02  0.43696024690E+02  0.20778966132E+03  0.91305865822E+02 0.  0.
          5    1    3    3  502    0  0.16896127453E+03  0.35680807974E+02  0.28492852053E+02  0.17507240607E+03  0.41800000000E+01 0. -1.
         -5    1    3    3    0  502  0.11685077708E+02 -0.18437401486E+02 -0.39840299877E+02  0.45620178746E+02  0.41800000000E+01 0. -1.
        -11    1    4    4    0    0 -0.75744097330E+02 -0.48688123982E+02  0.39138722092E+02  0.98181165527E+02  0.00000000000E+00 0.  1.
         11    1    4    4    0    0 -0.10490225491E+03  0.31444717493E+02  0.45573025978E+01  0.10960849579E+03  0.00000000000E+00 0. -1.
</event>
<event>
 8    1  0.6703334E-009  0.7230384E+02  0.7561462E-02  0.1352429E+00
         -3   -1    0    0    0  501 -0.00000000000E+00  0.00000000000E+00  0.81913880217E+02  0.81913880217E+02  0.00000000000E+00 0.  1.
          3   -1    0    0  501    0  0.00000000000E+00 -0.00000000000E+00 -0.17004495385E+03  0.17004495385E+03  0.00000000000E+00 0. -1.
         25    2    1    2    0    0  0.38985808209E+02  0.24276721698E+02 -0.60272905190E+02  0.14625555757E+03  0.12509441459E+03 0.  0.
         23    2    1    2    0    0 -0.38985808209E+02 -0.24276721698E+02 -0.27858168446E+02  0.10570327650E+03  0.91037644166E+02 0.  0.
          5    1    3    3  502    0  0.47916789474E+02  0.50715533414E+02  0.99255640070E+01  0.70597969262E+02  0.41800000000E+01 0.  1.
         -5    1    3    3    0  502 -0.89309812658E+01 -0.26438811716E+02 -0.70198469197E+02  0.75657588310E+02  0.41800000000E+01 0.  1.
        -11    1    4    4    0    0 -0.25632480702E+02 -0.11800626159E+02  0.32265161298E+02  0.42863964799E+02  0.00000000000E+00 0.  1.
         11    1    4    4    0    0 -0.13353327507E+02 -0.12476095539E+02 -0.60123329744E+02  0.62839311700E+02  0.00000000000E+00 0. -1.
</event>
<event>
 8    1  0.6703334E-009  0.9658345E+02  0.7561462E-02  0.1287649E+00
         -1   -1    0    0    0  501 -0.00000000000E+00  0.00000000000E+00  0.86895534702E+02  0.86895534702E+02  0.00000000000E+00 0.  1.
          1   -1    0    0  501    0  0.00000000000E+00 -0.00000000000E+00 -0.21722734672E+03  0.21722734672E+03  0.00000000000E+00 0. -1.
         25    2    1    2    0    0 -0.47146985154E+02  0.60281061732E+02 -0.33597883044E+02  0.15044190694E+03  0.12508918821E+03 0.  0.
         23    2    1    2    0    0  0.47146985154E+02 -0.60281061732E+02 -0.96733928970E+02  0.15368097448E+03  0.91671938397E+02 0.  0.
          5    1    3    3  502    0  0.71466926595E+00 -0.82436339990E+01 -0.61522502692E+02  0.62217031359E+02  0.41800000000E+01 0.  1.
         -5    1    3    3    0  502 -0.47861654420E+02  0.68524695731E+02  0.27924619648E+02  0.88224875581E+02  0.41800000000E+01 0.  1.
        -11    1    4    4    0    0  0.91316908011E+01 -0.61498459328E+02 -0.97502801408E+02  0.11563842164E+03  0.00000000000E+00 0. -1.
         11    1    4    4    0    0  0.38015294353E+02  0.12173975958E+01  0.76887243800E+00  0.38042552838E+02  0.00000000000E+00 0.  1.
</event>
<event>
 8    1  0.6703334E-009  0.8513656E+02  0.7561462E-02  0.1315076E+00
          2   -1    0    0  501    0  0.00000000000E+00  0.00000000000E+00  0.53233730953E+03  0.53233730953E+03  0.00000000000E+00 0.  1.
         -2   -1    0    0    0  501 -0.00000000000E+00 -0.00000000000E+00 -0.26415450470E+02  0.26415450470E+02  0.00000000000E+00 0. -1.
         25    2    1    2    0    0 -0.31724264388E+02  0.32556673700E+02  0.30812634857E+03  0.33564261641E+03  0.12509098014E+03 0.  0.
         23    2    1    2    0    0  0.31724264388E+02 -0.32556673700E+02  0.19779551049E+03  0.22311014359E+03  0.92675273130E+02 0.  0.
          5    1    3    3  502    0 -0.46836370393E+02  0.12348246286E+02  0.30615254876E+03  0.30998867768E+03  0.41800000000E+01 0.  1.
         -5    1    3    3    0  502  0.15112106005E+02  0.20208427414E+02  0.19737998062E+01  0.25653938725E+02  0.41800000000E+01 0.  1.
        -11    1    4    4    0    0 -0.13040840583E+02 -0.47208409106E+02  0.14134475844E+03  0.14958956565E+03  0.00000000000E+00 0. -1.
         11    1    4    4    0    0  0.44765104972E+02  0.14651735406E+02  0.56450752053E+02  0.73520577941E+02  0.00000000000E+00 0.  1.
</event>
<event>
 8    1  0.6703334E-009  0.1344733E+03  0.7561462E-02  0.1220965E+00
          2   -1    0    0  501    0  0.00000000000E+00  0.00000000000E+00  0.10632246424E+04  0.10632246424E+04  0.00000000000E+00 0. -1.
         -2   -1    0    0    0  501 -0.00000000000E+00 -0.00000000000E+00 -0.23306734051E+02  0.23306734051E+02  0.00000000000E+00 0.  1.
         25    2    1    2    0    0  0.46617067145E+02  0.10345788449E+03  0.57263465411E+03  0.59702124586E+03  0.12508891284E+03 0.  0.
         23    2    1    2    0    0 -0.46617067145E+02 -0.10345788449E+03  0.46728325420E+03  0.48951013055E+03  0.91596088573E+02 0.  0.
          5    1    3    3  502    0  0.53261268513E+02  0.11527950534E+03  0.56808335638E+03  0.58211880169E+03  0.41800000000E+01 0. -1.
         -5    1    3    3    0  502 -0.66442013679E+01 -0.11821620857E+02  0.45512977256E+01  0.14902444178E+02  0.41800000000E+01 0. -1.
        -11    1    4    4    0    0  0.13635822334E+02 -0.27935084261E+02  0.36117549193E+02  0.47652722305E+02  0.00000000000E+00 0.  1.
         11    1    4    4    0    0 -0.60252889480E+02 -0.75522800224E+02  0.43116570501E+03  0.44185740824E+03  0.00000000000E+00 0. -1.
</event>
<event>
 8    1  0.6703334E-009  0.8342993E+02  0.7561462E-02  0.1319590E+00
          2   -1    0    0  501    0  0.00000000000E+00  0.00000000000E+00  0.50293901608E+03  0.50293901608E+03  0.00000000000E+00 0. -1.
         -2   -1    0    0    0  501 -0.00000000000E+00 -0.00000000000E+00 -0.26122520217E+02  0.26122520217E+02  0.00000000000E+00 0.  1.
         25    2    1    2    0    0  0.12223317626E+02 -0.12714970448E+02  0.35635536515E+03  0.37808181916E+03  0.12508251575E+03 0.  0.
         23    2    1    2    0    0 -0.12223317626E+02  0.12714970448E+02  0.12046113072E+03  0.15097971714E+03  0.89291158607E+02 0.  0.
          5    1    3    3  502    0  0.63466437664E+02  0.18360076394E+02  0.19180905252E+03  0.20291196649E+03  0.41800000000E+01 0. -1.
         -5    1    3    3    0  502 -0.51243120037E+02 -0.31075046842E+02  0.16454631262E+03  0.17516985267E+03  0.41800000000E+01 0. -1.
        -11    1    4    4    0    0 -0.15593875801E+01 -0.12818639430E+02 -0.10799676342E+02  0.16833960187E+02  0.00000000000E+00 0.  1.
         11    1    4    4    0    0 -0.10663930046E+02  0.25533609878E+02  0.13126080706E+03  0.13414575695E+03  0.00000000000E+00 0. -1.
</event>
<event>
 8    1  0.6703334E-009  0.1297503E+03  0.7561462E-02  0.1227827E+00
          2   -1    0    0  501    0  0.00000000000E+00  0.00000000000E+00  0.11540884927E+04  0.11540884927E+04  0.00000000000E+00 0.  1.
         -2   -1    0    0    0  501 -0.00000000000E+00 -0.00000000000E+00 -0.19467131794E+02  0.19467131794E+02  0.00000000000E+00 0. -1.
         25    2    1    2    0    0  0.84936886522E+02 -0.59286340629E+02  0.64226130152E+03  0.66247631532E+03  0.12508454762E+03 0.  0.
         23    2    1    2    0    0 -0.84936886522E+02  0.59286340629E+02  0.49236005934E+03  0.51107930913E+03  0.89746795536E+02 0.  0.
          5    1    3    3  502    0  0.97969434496E+02 -0.74093184519E+02  0.37869038951E+03  0.39813527047E+03  0.41800000000E+01 0.  1.
         -5    1    3    3    0  502 -0.13032547974E+02  0.14806843890E+02  0.26357091201E+03  0.26434104485E+03  0.41800000000E+01 0.  1.
        -11    1    4    4    0    0 -0.10293141219E+02  0.37189913217E+02  0.57122371691E+02  0.68934778949E+02  0.00000000000E+00 0. -1.
         11    1    4    4    0    0 -0.74643745303E+02  0.22096427413E+02  0.43523768765E+03  0.44214453018E+03  0.00000000000E+00 0.  1.
</event>
<event>
 8    1  0.6703334E-009  0.1538324E+03  0.7561462E-02  0.1195841E+00
          1   -1    0    0  501    0  0.00000000000E+00  0.00000000000E+00  0.48970810935E+03  0.48970810935E+03  0.00000000000E+00 0. -1.
         -1   -1    0    0    0  501 -0.00000000000E+00 -0.00000000000E+00 -0.79351837273E+02  0.79351837273E+02  0.00000000000E+00 0.  1.
         25    2    1    2    0    0  0.13120510750E+03  0.28451672999E+02  0.77703593110E+02  0.19927130668E+03  0.12508767867E+03 0.  0.
         23    2    1    2    0    0 -0.13120510750E+03 -0.28451672999E+02  0.33265267897E+03  0.36978863994E+03  0.89786165287E+02 0.  0.
          5    1    3    3  502    0  0.25274249264E+02 -0.38907265095E+02  0.54235539053E+02  0.71494958210E+02  0.41800000000E+01 0.  1.
         -5    1    3    3    0  502  0.10593085823E+03  0.67358938094E+02  0.23468054056E+02  0.12777634847E+03  0.41800000000E+01 0.  1.
        -11    1    4    4    0    0 -0.66523026589E+02 -0.23712413914E+02  0.70713798538E+02  0.99940146807E+02  0.00000000000E+00 0.  1.
         11    1    4    4    0    0 -0.64682080909E+02 -0.47392590852E+01  0.26193888043E+03  0.26984849314E+03  0.00000000000E+00 0. -1.
</event>
<event>
 8    1  0.6703334E-009  0.1143133E+03  0.7561462E-02  0.1252785E+00
          2   -1    0    0  501    0  0.00000000000E+00  0.00000000000E+00  0.67778631510E+03  0.67778631510E+03  0.00000000000E+00 0. -1.
         -2   -1    0    0    0  501 -0.00000000000E+00 -0.00000000000E+00 -0.21189231701E+02  0.21189231701E+02  0.00000000000E+00 0.  1.
         25    2    1    2    0    0  0.25645367008E+02  0.29412870931E+02  0.47376751596E+03  0.49155219143E+03  0.12508035776E+03 0.  0.
         23    2    1    2    0    0 -0.25645367008E+02 -0.29412870931E+02  0.18282956744E+03  0.20742335537E+03  0.89860980391E+02 0.  0.
          5    1    3    3  502    0  0.74960651767E+02  0.38786050151E+01  0.26012859999E+03  0.27077389797E+03  0.41800000000E+01 0.  1.
         -5    1    3    3    0  502 -0.49315284759E+02  0.25534265916E+02  0.21363891598E+03  0.22077829347E+03  0.41800000000E+01 0.  1.
        -11    1    4    4    0    0  0.32951680676E+02 -0.19615372288E+02  0.78428251246E+02  0.87301584653E+02  0.00000000000E+00 0. -1.
         11    1    4    4    0    0 -0.58597047684E+02 -0.97974986434E+01  0.10440131619E+03  0.12012177071E+03  0.00000000000E+00 0.  1.
</event>
<event>
 8    1  0.6703334E-009  0.6758968E+02  0.7561462E-02  0.1368487E+00
         -1   -1    0    0    0  501 -0.00000000000E+00  0.00000000000E+00  0.12872527072E+03  0.12872527072E+03  0.00000000000E+00 0.  1.
          1   -1    0    0  501    0  0.00000000000E+00 -0.00000000000E+00 -0.10461714696E+03  0.10461714696E+03  0.00000000000E+00 0. -1.
         25    2    1    2    0    0 -0.29753287051E+02  0.14362252943E+02  0.12884653625E+02  0.13002124313E+03  0.12509187410E+03 0.  0.
         23    2    1    2    0    0  0.29753287051E+02 -0.14362252943E+02  0.11223470135E+02  0.10332117456E+03  0.97251048478E+02 0.  0.
          5    1    3    3  502    0 -0.88306441611E+01  0.18143643351E+02  0.67865193978E+02  0.70924812471E+02  0.41800000000E+01 0. -1.
         -5    1    3    3    0  502 -0.20922642890E+02 -0.37813904089E+01 -0.54980540353E+02  0.59096430657E+02  0.41800000000E+01 0. -1.
        -11    1    4    4    0    0  0.16300872179E+02 -0.51175892550E+02  0.28136820279E+02  0.60633085584E+02  0.00000000000E+00 0.  1.
         11    1    4    4    0    0  0.13452414872E+02  0.36813639607E+02 -0.16913350144E+02  0.42688088973E+02  0.00000000000E+00 0. -1.
</event>
<event>
 8    1  0.6703334E-009  0.1470776E+03  0.7561462E-02  0.1204111E+00
         -1   -1    0    0    0  501 -0.00000000000E+00  0.00000000000E+00  0.42835854446E+03  0.42835854446E+03  0.00000000000E+00 0.  1.
          1   -1    0    0  501    0  0.00000000000E+00 -0.00000000000E+00 -0.73708086055E+02  0.73708086055E+02  0.00000000000E+00 0. -1.
         25    2    1    2    0    0 -0.73794735415E+00  0.13346582747E+03  0.12667456234E+03  0.22250408746E+03  0.12509177640E+03 0.  0.
         23    2    1    2    0    0  0.73794735415E+00 -0.13346582747E+03  0.22797589607E+03  0.27956254306E+03  0.91479695132E+02 0.  0.
          5    1    3    3  502    0  0.41242820677E+02  0.44814245120E+02  0.10577288565E+03  0.12212560159E+03  0.41800000000E+01 0.  1.
         -5    1    3    3    0  502 -0.41980768031E+02  0.88651582354E+02  0.20901676682E+02  0.10037848587E+03  0.41800000000E+01 0.  1.
        -11    1    4    4    0    0  0.98113075975E+01 -0.89593251211E+02  0.21467729933E+03  0.23282945532E+03  0.00000000000E+00 0.  1.
         11    1    4    4    0    0 -0.90733602433E+01 -0.43872576263E+02  0.13298596748E+02  0.46733087738E+02  0.00000000000E+00 0. -1.
</event>
<event>
 8    1  0.6703334E-009  0.1304143E+03  0.7561462E-02  0.1226842E+00
          3   -1    0    0  501    0  0.00000000000E+00  0.00000000000E+00  0.21482187643E+03  0.21482187643E+03  0.00000000000E+00 0. -1.
         -3   -1    0    0    0  501 -0.00000000000E+00 -0.00000000000E+00 -0.87053985741E+02  0.87053985741E+02  0.00000000000E+00 0.  1.
         25    2    1    2    0    0 -0.36777376411E+02 -0.60595997163E+02  0.10974872592E+03  0.18087696943E+03  0.12508894812E+03 0.  0.
         23    2    1    2    0    0  0.36777376411E+02  0.60595997163E+02  0.18019164772E+02  0.12099889274E+03  0.96392901489E+02 0.  0.
          5    1    3    3  502    0  0.42672920898E+02 -0.45930014139E+02  0.45795190343E+02  0.77750988645E+02  0.41800000000E+01 0. -1.
         -5    1    3    3    0  502 -0.79450297309E+02 -0.14665983024E+02  0.63953535576E+02  0.10312598079E+03  0.41800000000E+01 0. -1.
        -11    1    4    4    0    0  0.11948939054E+02  0.82877458378E+02  0.14420054939E+01  0.83746818635E+02  0.00000000000E+00 0.  1.
         11    1    4    4    0    0  0.24828437357E+02 -0.22281461214E+02  0.16577159278E+02  0.37252074106E+02  0.00000000000E+00 0. -1.
</event>
<event>
 8    1  0.6703334E-009  0.1265775E+03  0.7561462E-02  0.1232624E+00
          2   -1    0    0  501    0  0.00000000000E+00  0.00000000000E+00  0.34284888709E+02  0.34284888709E+02  0.00000000000E+00 0. -1.
         -2   -1    0    0    0  501 -0.00000000000E+00 -0.00000000000E+00 -0.68847162515E+03  0.68847162515E+03  0.00000000000E+00 0.  1.
         25    2    1    2    0    0 -0.67737906335E+02 -0.56939587464E+02 -0.20534333514E+03  0.25621345362E+03  0.12509559527E+03 0.  0.
         23    2    1    2    0    0  0.67737906335E+02  0.56939587464E+02 -0.44884340130E+03  0.46654306024E+03  0.91495833723E+02 0.  0.
          5    1    3    3  502    0  0.15869471450E+02  0.95458524977E+01 -0.11409477430E+03  0.11566353508E+03  0.41800000000E+01 0. -1.
         -5    1    3    3    0  502 -0.83607377785E+02 -0.66485439962E+02 -0.91248560835E+02  0.14054991854E+03  0.41800000000E+01 0. -1.
        -11    1    4    4    0    0 -0.30820474242E+01  0.56361591425E+02 -0.20309090412E+03  0.21078909683E+03  0.00000000000E+00 0.  1.
         11    1    4    4    0    0  0.70819953759E+02  0.57799603911E+00 -0.24575249718E+03  0.25575396341E+03  0.00000000000E+00 0. -1.
</event>
<event>
 8    1  0.6703334E-009  0.1117154E+03  0.7561462E-02  0.1257426E+00
          3   -1    0    0  501    0  0.00000000000E+00  0.00000000000E+00  0.10584197921E+04  0.10584197921E+04  0.00000000000E+00 0. -1.
         -3   -1    0    0    0  501 -0.00000000000E+00 -0.00000000000E+00 -0.12490267546E+02  0.12490267546E+02  0.00000000000E+00 0.  1.
         25    2    1    2    0    0  0.44480992965E+01  0.29522521319E+02  0.71904136090E+03  0.73045111687E+03  0.12508793144E+03 0.  0.
         23    2    1    2    0    0 -0.44480992965E+01 -0.29522521319E+02  0.32688816367E+03  0.34045894279E+03  0.90360695717E+02 0.  0.
          5    1    3    3  502    0 -0.18044489286E+02 -0.46015089390E+02  0.26565783671E+03  0.27024905301E+03  0.41800000000E+01 0. -1.
         -5    1    3    3    0  502  0.22492588582E+02  0.75537610709E+02  0.45338352419E+03  0.46020206386E+03  0.41800000000E+01 0. -1.
        -11    1    4    4    0    0 -0.47258062671E+02 -0.12996474502E+02  0.18144882427E+03  0.18795187859E+03  0.00000000000E+00 0.  1.
         11    1    4    4    0    0  0.42809963375E+02 -0.16526046817E+02  0.14543933940E+03  0.15250706421E+03  0.00000000000E+00 0. -1.
</event>
<event>
 8    1  0.6703334E-009  0.2810132E+03  0.7561462E-02  0.1095137E+00
          1   -1    0    0  501    0  0.00000000000E+00  0.00000000000E+00  0.79401791976E+03  0.79401791976E+03  0.00000000000E+00 0. -1.
         -1   -1    0    0    0  501 -0.00000000000E+00 -0.00000000000E+00 -0.12829191353E+03  0.12829191353E+03  0.00000000000E+00 0.  1.
         25    2    1    2    0    0 -0.27370903946E+03 -0.44386663299E+02  0.50325464348E+03  0.58804688354E+03  0.12508831638E+03 0.  0.
         23    2    1    2    0    0  0.27370903946E+03  0.44386663299E+02  0.16247136274E+03  0.33426294975E+03  0.91912794021E+02 0.  0.
          5    1    3    3  502    0 -0.90604009501E+01  0.52371262358E+01 -0.54068279301E+01  0.12498981753E+02  0.41800000000E+01 0.  1.
         -5    1    3    3    0  502 -0.26464863851E+03 -0.49623789534E+02  0.50866147141E+03  0.57554790179E+03  0.41800000000E+01 0.  1.
        -11    1    4    4    0    0  0.12609032218E+03 -0.38943550211E+01  0.11792948144E+03  0.17268844183E+03  0.00000000000E+00 0. -1.
         11    1    4    4    0    0  0.14761871728E+03  0.48281018320E+02  0.44541881308E+02  0.16157450793E+03  0.00000000000E+00 0.  1.
</event>
<event>
 8    1  0.6703334E-009  0.2016772E+03  0.7561462E-02  0.1148332E+00
          2   -1    0    0  501    0  0.00000000000E+00  0.00000000000E+00  0.14893568527E+04  0.14893568527E+04  0.00000000000E+00 0. -1.
         -2   -1    0    0    0  501 -0.00000000000E+00 -0.00000000000E+00 -0.32141928413E+02  0.32141928413E+02  0.00000000000E+00 0.  1.
         25    2    1    2    0    0  0.84301792097E+02 -0.16272719486E+03  0.93111121739E+03  0.95718316699E+03  0.12507831118E+03 0.  0.
         23    2    1    2    0    0 -0.84301792097E+02  0.16272719486E+03  0.52610370687E+03  0.56431561409E+03  0.89889208640E+02 0.  0.
          5    1    3    3  502    0  0.46128959172E+02 -0.16217308676E+03  0.85982104808E+03  0.87620642435E+03  0.41800000000E+01 0. -1.
         -5    1    3    3    0  502  0.38172832925E+02 -0.55410809772E+00  0.71290169307E+02  0.80976742643E+02  0.41800000000E+01 0. -1.
        -11    1    4    4    0    0  0.93505752907E+01  0.44468762813E+02  0.66131324920E+02  0.80238745379E+02  0.00000000000E+00 0.  1.
         11    1    4    4    0    0 -0.93652367387E+02  0.11825843205E+03  0.45997238195E+03  0.48407686871E+03  0.00000000000E+00 0. -1.
</event>
<event>
 8    1  0.6703334E-009  0.1349292E+03  0.7561462E-02  0.1220320E+00
          2   -1    0    0  501    0  0.00000000000E+00  0.00000000000E+00  0.58824869534E+03  0.58824869534E+03  0.00000000000E+00 0. -1.
         -2   -1    0    0    0  501 -0.00000000000E+00 -0.00000000000E+00 -0.46236595011E+02  0.46236595011E+02  0.00000000000E+00 0.  1.
         25    2    1    2    0    0 -0.81767367211E+02 -0.85571673673E+02  0.35032996876E+03  0.39036698470E+03  0.12508749760E+03 0.  0.
         23    2    1    2    0    0  0.81767367211E+02  0.85571673673E+02  0.19168213158E+03  0.24411830566E+03  0.94038789419E+02 0.  0.
          5    1    3    3  502    0 -0.39432488493E+02 -0.44097023967E+02  0.33698103235E+02  0.68209260611E+02  0.41800000000E+01 0. -1.
         -5    1    3    3    0  502 -0.42334878718E+02 -0.41474649706E+02  0.31663186552E+03  0.32215772409E+03  0.41800000000E+01 0. -1.
        -11    1    4    4    0    0 -0.11792960204E+02 -0.11394126733E+02  0.19419045686E+02  0.25416517656E+02  0.00000000000E+00 0.  1.
         11    1    4    4    0    0  0.93560327415E+02  0.96965800406E+02  0.17226308589E+03  0.21870178800E+03  0.00000000000E+00 0. -1.
</event>
<event>
 8    1  0.6703334E-009  0.1809692E+03  0.7561462E-02  0.1166868E+00
          2   -1    0    0  501    0  0.00000000000E+00  0.00000000000E+00  0.15598323286E+03  0.15598323286E+03  0.00000000000E+00 0. -1.
         -2   -1    0    0    0  501 -0.00000000000E+00 -0.00000000000E+00 -0.25015715814E+03  0.25015715814E+03  0.00000000000E+00 0.  1.
         25    2    1    2    0    0 -0.14492131079E+03  0.34635317987E+02  0.22872521918E+02  0.19588913389E+03  0.12509040308E+03 0.  0.
         23    2    1    2    0    0  0.14492131079E+03 -0.34635317987E+02 -0.11704644720E+03  0.21025125712E+03  0.91125895035E+02 0.  0.
          5    1    3    3  502    0  0.14899432347E+02 -0.20211107611E+02  0.48076917265E+01  0.25904985135E+02  0.41800000000E+01 0.  1.
         -5    1    3    3    0  502 -0.15982074314E+03  0.54846425599E+02  0.18064830191E+02  0.16998414875E+03  0.41800000000E+01 0.  1.
        -11    1    4    4    0    0  0.16497536528E+02 -0.35378577441E+02 -0.55463678562E+02  0.67823536423E+02  0.00000000000E+00 0.  1.
         11    1    4    4    0    0  0.12842377426E+03  0.74325945365E+00 -0.61582768635E+02  0.14242772070E+03  0.00000000000E+00 0. -1.
</event>
<event>
 8    1  0.6703334E-009  0.1341787E+03  0.7561462E-02  0.1221384E+00
          2   -1    0    0  501    0  0.00000000000E+00  0.00000000000E+00  0.21081098159E+03  0.21081098159E+03  0.00000000000E+00 0. -1.
         -2   -1    0    0    0  501 -0.00000000000E+00 -0.00000000000E+00 -0.14555447215E+03  0.14555447215E+03  0.00000000000E+00 0.  1.
         25    2    1    2    0    0  0.37226192317E+02 -0.88482040256E+02 -0.63634481143E+02  0.17004378774E+03  0.12510268468E+03 0.  0.
         23    2    1    2    0    0 -0.37226192317E+02  0.88482040256E+02  0.12889099058E+03  0.18632166600E+03  0.94276269161E+02 0.  0.
          5    1    3    3  502    0  0.67723825707E+02 -0.33171839676E+02 -0.74190215125E+02  0.10587042994E+03  0.41800000000E+01 0.  1.
         -5    1    3    3    0  502 -0.30497633390E+02 -0.55310200581E+02  0.10555733982E+02  0.64173357794E+02  0.41800000000E+01 0.  1.
        -11    1    4    4    0    0  0.26339856012E+02  0.91728018413E+01  0.93609392137E+01  0.29420324460E+02  0.00000000000E+00 0.  1.
         11    1    4    4    0    0 -0.63566048329E+02  0.79309238415E+02  0.11953005137E+03  0.15690134154E+03  0.00000000000E+00 0. -1.
</event>
<event>
 8    1  0.6703334E-009  0.8516359E+02  0.7561462E-02  0.1315005E+00
          1   -1    0    0  501    0  0.00000000000E+00  0.00000000000E+00  0.66302120651E+03  0.66302120651E+03  0.00000000000E+00 0. -1.
         -1   -1    0    0    0  501 -0.00000000000E+00 -0.00000000000E+00 -0.22624256715E+02  0.22624256715E+02  0.00000000000E+00 0.  1.
         25    2    1    2    0    0 -0.53428195770E+02  0.15856771625E+01  0.41274125636E+03  0.43458015463E+03  0.12508988617E+03 0.  0.
         23    2    1    2    0    0  0.53428195770E+02 -0.15856771625E+01  0.22765569344E+03  0.25106530860E+03  0.91376079757E+02 0.  0.
          5    1    3    3  502    0 -0.11844258360E+02 -0.21318377513E+02  0.36919571790E+03  0.37002393192E+03  0.41800000000E+01 0. -1.
         -5    1    3    3    0  502 -0.41583937410E+02  0.22904054676E+02  0.43545538460E+02  0.64556222712E+02  0.41800000000E+01 0. -1.
        -11    1    4    4    0    0  0.22996424727E+01 -0.36141699162E+02  0.42184624123E+02  0.55597241714E+02  0.00000000000E+00 0.  1.
         11    1    4    4    0    0  0.51128553297E+02  0.34556022000E+02  0.18547106931E+03  0.19546806688E+03  0.00000000000E+00 0. -1.
</event>
<event>
 8    1  0.6703334E-009  0.1197894E+03  0.7561462E-02  0.1243445E+00
         -1   -1    0    0    0  501 -0.00000000000E+00  0.00000000000E+00  0.47152221783E+02  0.47152221783E+02  0.00000000000E+00 0.  1.
          1   -1    0    0  501    0  0.00000000000E+00 -0.00000000000E+00 -0.54499390669E+03  0.54499390669E+03  0.00000000000E+00 0. -1.
         25    2    1    2    0    0  0.42426553815E+02  0.76897933137E+02 -0.41133038205E+03  0.43880938110E+03  0.12509070772E+03 0.  0.
         23    2    1    2    0    0 -0.42426553815E+02 -0.76897933137E+02 -0.86511302862E+02  0.15333674737E+03  0.91184691605E+02 0.  0.
          5    1    3    3  502    0 -0.23044602238E+02  0.81309329911E+02 -0.19161033603E+03  0.20946182014E+03  0.41800000000E+01 0.  1.
         -5    1    3    3    0  502  0.65471156053E+02 -0.44113967740E+01 -0.21972004601E+03  0.22934756096E+03  0.41800000000E+01 0.  1.
        -11    1    4    4    0    0 -0.30924919383E+01 -0.18784111080E+02  0.18820604614E+02  0.26769786953E+02  0.00000000000E+00 0.  1.
         11    1    4    4    0    0 -0.39334061877E+02 -0.58113822057E+02 -0.10533190748E+03  0.12656696042E+03  0.00000000000E+00 0. -1.
</event>
<event>
 8    1  0.6703334E-009  0.1749085E+03  0.7561462E-02  0.1172824E+00
          1   -1    0    0  501    0  0.00000000000E+00  0.00000000000E+00  0.27569295579E+03  0.27569295579E+03  0.00000000000E+00 0.  1.
         -1   -1    0    0    0  501 -0.00000000000E+00 -0.00000000000E+00 -0.13665931052E+03  0.13665931052E+03  0.00000000000E+00 0. -1.
         25    2    1    2    0    0 -0.78133392583E+02  0.13262973222E+03  0.23651029925E+02  0.19975371537E+03  0.12508678060E+03 0.  0.
         23    2    1    2    0    0  0.78133392583E+02 -0.13262973222E+03  0.11538261535E+03  0.21259855093E+03  0.90495983493E+02 0.  0.
          5    1    3    3  502    0  0.31372803828E+01  0.66222480341E+02  0.59084840052E+02  0.88903037938E+02  0.41800000000E+01 0.  1.
         -5    1    3    3    0  502 -0.81270672966E+02  0.66407251883E+02 -0.35433810126E+02  0.11085067743E+03  0.41800000000E+01 0.  1.
        -11    1    4    4    0    0 -0.16315978683E+02 -0.50903176231E+02  0.39358260283E+02  0.66380849372E+02  0.00000000000E+00 0.  1.
         11    1    4    4    0    0  0.94449371267E+02 -0.81726555993E+02  0.76024355065E+02  0.14621770156E+03  0.00000000000E+00 0. -1.
</event>
<event>
 8    1  0.6703334E-009  0.1298166E+03  0.7561462E-02  0.1227728E+00
          2   -1    0    0  501    0  0.00000000000E+00  0.00000000000E+00  0.78744440963E+03  0.78744440963E+03  0.00000000000E+00 0. -1.
         -2   -1    0    0    0  501 -0.00000000000E+00 -0.00000000000E+00 -0.27447155370E+02  0.27447155370E+02  0.00000000000E+00 0.  1.
         25    2    1    2    0    0  0.86191338429E+02  0.40945796105E+02  0.48855104769E+03  0.51325946158E+03  0.12509054188E+03 0.  0.
         23    2    1    2    0    0 -0.86191338429E+02 -0.40945796105E+02  0.27144620657E+03  0.30163210342E+03  0.90517278527E+02 0.  0.
          5    1    3    3  502    0  0.35033771380E+02  0.80021650870E+02  0.21293711359E+03  0.23019669087E+03  0.41800000000E+01 0. -1.
         -5    1    3    3    0  502  0.51157567050E+02 -0.39075854765E+02  0.27561393410E+03  0.28306277071E+03  0.41800000000E+01 0. -1.
        -11    1    4    4    0    0 -0.46469634634E+02  0.52253997000E+01  0.20989218345E+03  0.21503827664E+03  0.00000000000E+00 0. -1.
         11    1    4    4    0    0 -0.39721703795E+02 -0.46171195805E+02  0.61554023120E+02  0.86593826782E+02  0.00000000000E+00 0.  1.
</event>
<event>
 8    1  0.6703334E-009  0.1310491E+03  0.7561462E-02  0.1225907E+00
         -2   -1    0    0    0  501 -0.00000000000E+00  0.00000000000E+00  0.21715053322E+03  0.21715053322E+03  0.00000000000E+00 0. -1.
          2   -1    0    0  501    0  0.00000000000E+00 -0.00000000000E+00 -0.92805026882E+02  0.92805026882E+02  0.00000000000E+00 0.  1.
         25    2    1    2    0    0 -0.32774523736E-01 -0.93533212962E+02  0.66016815251E+02  0.16956633981E+03  0.12508421442E+03 0.  0.
         23    2    1    2    0    0  0.32774523736E-01  0.93533212962E+02  0.58328691090E+02  0.14038922030E+03  0.86939254486E+02 0.  0.
          5    1    3    3  502    0 -0.31760415803E+02 -0.10617356406E+03  0.20943874676E+02  0.11286127770E+03  0.41800000000E+01 0. -1.
         -5    1    3    3    0  502  0.31727641279E+02  0.12640351095E+02  0.45072940575E+02  0.56705062111E+02  0.41800000000E+01 0. -1.
        -11    1    4    4    0    0 -0.34528647445E+02  0.37679235693E+02 -0.20827032325E+01  0.51149681813E+02  0.00000000000E+00 0.  1.
         11    1    4    4    0    0  0.34561421968E+02  0.55853977269E+02  0.60411394323E+02  0.89239538486E+02  0.00000000000E+00 0. -1.
</event>
<event>
 8    1  0.6703334E-009  0.1661270E+03  0.7561462E-02  0.1181948E+00
         -2   -1    0    0    0  501 -0.00000000000E+00  0.00000000000E+00  0.49910136591E+02  0.49910136591E+02  0.00000000000E+00 0. -1.
          2   -1    0    0  501    0  0.00000000000E+00 -0.00000000000E+00 -0.63508737465E+03  0.63508737465E+03  0.00000000000E+00 0.  1.
         25    2    1    2    0    0  0.13642668142E+03 -0.31478306664E+02 -0.34615654858E+03  0.39379503778E+03  0.12508817876E+03 0.  0.
         23    2    1    2    0    0 -0.13642668142E+03  0.31478306664E+02 -0.23902068948E+03  0.29120247346E+03  0.89804606529E+02 0.  0.
          5    1    3    3  502    0  0.13048708675E+03  0.19085097472E+02 -0.20612120245E+03  0.24473361693E+03  0.41800000000E+01 0.  1.
         -5    1    3    3    0  502  0.59395946657E+01 -0.50563404136E+02 -0.14003534613E+03  0.14906142086E+03  0.41800000000E+01 0.  1.
        -11    1    4    4    0    0 -0.10111101333E+03  0.45952283127E+02 -0.22430831604E+03  0.25029836193E+03  0.00000000000E+00 0.  1.
         11    1    4    4    0    0 -0.35315668092E+02 -0.14473976463E+02 -0.14712373441E+02  0.40904111525E+02  0.00000000000E+00 0. -1.
</event>
<event>
 8    1  0.6703334E-009  0.1355588E+03  0.7561462E-02  0.1219433E+00
          1   -1    0    0  501    0  0.00000000000E+00  0.00000000000E+00  0.89433138858E+03  0.89433138858E+03  0.00000000000E+00 0. -1.
         -1   -1    0    0    0  501 -0.00000000000E+00 -0.00000000000E+00 -0.21367454577E+02  0.21367454577E+02  0.00000000000E+00 0.  1.
         25    2    1    2    0    0  0.82548583734E+02  0.16372566520E+02  0.43362077865E+03  0.45908264659E+03  0.12509023588E+03 0.  0.
         23    2    1    2    0    0 -0.82548583734E+02 -0.16372566520E+02  0.43934315534E+03  0.45661619656E+03  0.91616664428E+02 0.  0.
          5    1    3    3  502    0  0.10554867159E+03 -0.19737954931E+02  0.29648904234E+03  0.31536222596E+03  0.41800000000E+01 0. -1.
         -5    1    3    3    0  502 -0.23000087853E+02  0.36110521451E+02  0.13713173632E+03  0.14372042063E+03  0.41800000000E+01 0. -1.
        -11    1    4    4    0    0 -0.74293083209E+02  0.25051074458E+02  0.22829185672E+03  0.24137976383E+03  0.00000000000E+00 0.  1.
         11    1    4    4    0    0 -0.82555005258E+01 -0.41423640978E+02  0.21105129863E+03  0.21523643273E+03  0.00000000000E+00 0. -1.
</event>
<event>
 8    1  0.6703334E-009  0.1143631E+03  0.7561462E-02  0.1252697E+00
          2   -1    0    0  501    0  0.00000000000E+00  0.00000000000E+00  0.21500845776E+03  0.21500845776E+03  0.00000000000E+00 0. -1.
         -2   -1    0    0    0  501 -0.00000000000E+00 -0.00000000000E+00 -0.60842323371E+02  0.60842323371E+02  0.00000000000E+00 0.  1.
         25    2    1    2    0    0  0.43189051402E+00 -0.34653094238E+02  0.87517328998E+02  0.15657705038E+03  0.12512420374E+03 0.  0.
         23    2    1    2    0    0 -0.43189051402E+00  0.34653094238E+02  0.66648805394E+02  0.11927373075E+03  0.92645216378E+02 0.  0.
          5    1    3    3  502    0  0.56373792060E+02 -0.45639081273E+02  0.50300451232E+02  0.88365932150E+02  0.41800000000E+01 0.  1.
         -5    1    3    3    0  502 -0.55941901546E+02  0.10985987035E+02  0.37216877767E+02  0.68211118232E+02  0.41800000000E+01 0.  1.
        -11    1    4    4    0    0 -0.33166539806E+02  0.52142092416E+02  0.42202126959E+02  0.74832056527E+02  0.00000000000E+00 0.  1.
         11    1    4    4    0    0  0.32734649292E+02 -0.17488998178E+02  0.24446678435E+02  0.44441674226E+02  0.00000000000E+00 0. -1.
</event>
<event>
 8    1  0.6703334E-009  0.1674460E+03  0.7561462E-02  0.1180538E+00
          4   -1    0    0  501    0  0.00000000000E+00  0.00000000000E+00  0.27476075798E+03  0.27476075798E+03  0.00000000000E+00 0. -1.
         -4   -1    0    0    0  501 -0.00000000000E+00 -0.00000000000E+00 -0.12372480734E+03  0.12372480734E+03  0.00000000000E+00 0.  1.
         25    2    1    2    0    0  0.91103096597E+02 -0.11543605272E+03  0.55314339254E+02  0.20083265110E+03  0.12509524828E+03 0.  0.
         23    2    1    2    0    0 -0.91103096597E+02  0.11543605272E+03  0.95721611386E+02  0.19765291423E+03  0.90987862591E+02 0.  0.
          5    1    3    3  502    0  0.13359977756E+02 -0.76153936385E+02  0.78847178084E+02  0.11050909883E+03  0.41800000000E+01 0. -1.
         -5    1    3    3    0  502  0.77743118841E+02 -0.39282116332E+02 -0.23532838830E+02  0.90323552266E+02  0.41800000000E+01 0. -1.
        -11    1    4    4    0    0 -0.76064777206E+02  0.27249301491E+02  0.28223929261E+02  0.85586009056E+02  0.00000000000E+00 0.  1.
         11    1    4    4    0    0 -0.15038319391E+02  0.88186751227E+02  0.67497682125E+02  0.11206690517E+03  0.00000000000E+00 0. -1.
</event>
<event>
 8    1  0.6703334E-009  0.1085319E+03  0.7561462E-02  0.1263313E+00
         -1   -1    0    0    0  501 -0.00000000000E+00  0.00000000000E+00  0.27090070986E+02  0.27090070986E+02  0.00000000000E+00 0.  1.
          1   -1    0    0  501    0  0.00000000000E+00 -0.00000000000E+00 -0.56875473587E+03  0.56875473587E+03  0.00000000000E+00 0. -1.
         25    2    1    2    0    0  0.30406194953E+02  0.47933248773E+02 -0.30468468980E+03  0.33421926078E+03  0.12509045146E+03 0.  0.
         23    2    1    2    0    0 -0.30406194953E+02 -0.47933248773E+02 -0.23697997508E+03  0.26162554607E+03  0.95217040182E+02 0.  0.
          5    1    3    3  502    0  0.90917861420E+01 -0.26906879514E+02 -0.11618847052E+02  0.30969513191E+02  0.41800000000E+01 0.  1.
         -5    1    3    3    0  502  0.21314408811E+02  0.74840128287E+02 -0.29306584275E+03  0.30324974759E+03  0.41800000000E+01 0.  1.
        -11    1    4    4    0    0 -0.41752974195E+02 -0.72333196851E+02 -0.18860695350E+03  0.20627162949E+03  0.00000000000E+00 0.  1.
         11    1    4    4    0    0  0.11346779242E+02  0.24399948078E+02 -0.48373021573E+02  0.55353916587E+02  0.00000000000E+00 0. -1.
</event>
<event>
 8    1  0.6703334E-009  0.7701763E+02  0.7561462E-02  0.1337735E+00
          2   -1    0    0  501    0  0.00000000000E+00  0.00000000000E+00  0.16482889678E+03  0.16482889678E+03  0.00000000000E+00 0. -1.
         -2   -1    0    0    0  501 -0.00000000000E+00 -0.00000000000E+00 -0.74295519016E+02  0.74295519016E+02  0.00000000000E+00 0.  1.
         25    2    1    2    0    0 -0.11754146357E+02 -0.15272921856E+02  0.44362055378E+02  0.13412104509E+03  0.12509612576E+03 0.  0.
         23    2    1    2    0    0  0.11754146357E+02  0.15272921856E+02  0.46171322391E+02  0.10500337071E+03  0.92317358877E+02 0.  0.
          5    1    3    3  502    0 -0.16876695451E+02 -0.66945609437E+02  0.44094464830E+02  0.82026408558E+02  0.41800000000E+01 0.  1.
         -5    1    3    3    0  502  0.51225490939E+01  0.51672687580E+02  0.26759054703E+00  0.52094636535E+02  0.41800000000E+01 0.  1.
        -11    1    4    4    0    0  0.11255467863E+02 -0.51274191751E+01 -0.26648198072E+02  0.29378605221E+02  0.00000000000E+00 0.  1.
         11    1    4    4    0    0  0.49867849356E+00  0.20400341032E+02  0.72819520463E+02  0.75624765487E+02  0.00000000000E+00 0. -1.
</event>
<event>
 8    1  0.6703334E-009  0.1057201E+03  0.7561462E-02  0.1268707E+00
         -2   -1    0    0    0  501 -0.00000000000E+00  0.00000000000E+00  0.18182255029E+03  0.18182255029E+03  0.00000000000E+00 0.  1.
          2   -1    0    0  501    0  0.00000000000E+00 -0.00000000000E+00 -0.88278655774E+02  0.88278655774E+02  0.00000000000E+00 0. -1.
         25    2    1    2    0    0 -0.25550522100E+01 -0.59066608998E+02  0.56074673766E+02  0.14928530746E+03  0.12508533645E+03 0.  0.
         23    2    1    2    0    0  0.25550522100E+01  0.59066608998E+02  0.37469220751E+02  0.12081589861E+03  0.98474089297E+02 0.  0.
          5    1    3    3  502    0 -0.25508361020E+02  0.18715530974E+02  0.60027588938E+02  0.67983317184E+02  0.41800000000E+01 0. -1.
         -5    1    3    3    0  502  0.22953308810E+02 -0.77782139972E+02 -0.39529151715E+01  0.81301990273E+02  0.41800000000E+01 0. -1.
        -11    1    4    4    0    0 -0.67360129027E+01 -0.18765063542E+02 -0.16308015263E+02  0.25757578329E+02  0.00000000000E+00 0. -1.
         11    1    4    4    0    0  0.92910651127E+01  0.77831672540E+02  0.53777236014E+02  0.95058320281E+02  0.00000000000E+00 0.  1.
</event>
<event>
 8    1  0.6703334E-009  0.1612657E+03  0.7561462E-02  0.1187275E+00
         -1   -1    0    0    0  501 -0.00000000000E+00  0.00000000000E+00  0.58982006459E+02  0.58982006459E+02  0.00000000000E+00 0.  1.
          1   -1    0    0  501    0  0.00000000000E+00 -0.00000000000E+00 -0.53599706989E+03  0.53599706989E+03  0.00000000000E+00 0. -1.
         25    2    1    2    0    0  0.93156510032E+02 -0.95925444831E+02 -0.17836376249E+03  0.25561840997E+03  0.12508922183E+03 0.  0.
         23    2    1    2    0    0 -0.93156510032E+02  0.95925444831E+02 -0.29865130094E+03  0.33936066638E+03  0.89962414401E+02 0.  0.
          5    1    3    3  502    0  0.31423428991E+02  0.21337117386E+02 -0.68311421128E+01  0.38818054697E+02  0.41800000000E+01 0. -1.
         -5    1    3    3    0  502  0.61733081041E+02 -0.11726256222E+03 -0.17153262038E+03  0.21680035527E+03  0.41800000000E+01 0. -1.
        -11    1    4    4    0    0 -0.75363626589E+01  0.57318302409E+02 -0.17355564458E+03  0.18293098786E+03  0.00000000000E+00 0. -1.
         11    1    4    4    0    0 -0.85620147373E+02  0.38607142422E+02 -0.12509565636E+03  0.15642967853E+03  0.00000000000E+00 0.  1.
</event>
<event>
 8    1  0.6703334E-009  0.1100288E+03  0.7561462E-02  0.1260517E+00
         -1   -1    0    0    0  501 -0.00000000000E+00  0.00000000000E+00  0.27348273215E+02  0.27348273215E+02  0.00000000000E+00 0.  1.
          1   -1    0    0  501    0  0.00000000000E+00 -0.00000000000E+00 -0.83415369427E+03  0.83415369427E+03  0.00000000000E+00 0. -1.
         25    2    1    2    0    0 -0.79633484971E+02 -0.63673186615E+02 -0.54095806104E+03  0.56451703659E+03  0.12509234258E+03 0.  0.
         23    2    1    2    0    0  0.79633484971E+02  0.63673186615E+02 -0.26584736001E+03  0.29698493089E+03  0.84436151795E+02 0.  0.
          5    1    3    3  502    0 -0.61518067687E+02 -0.33933315202E+02 -0.10066102308E+03  0.12282530888E+03  0.41800000000E+01 0. -1.
         -5    1    3    3    0  502 -0.18115417284E+02 -0.29739871414E+02 -0.44029703796E+03  0.44169172771E+03  0.41800000000E+01 0. -1.
        -11    1    4    4    0    0  0.56898144433E+02  0.11998869668E+02 -0.60073890370E+02  0.83607679178E+02  0.00000000000E+00 0.  1.
         11    1    4    4    0    0  0.22735340538E+02  0.51674316947E+02 -0.20577346964E+03  0.21337725172E+03  0.00000000000E+00 0. -1.
</event>
<event>
 8    1  0.6703334E-009  0.1139407E+03  0.7561462E-02  0.1253442E+00
         -2   -1    0    0    0  501 -0.00000000000E+00  0.00000000000E+00  0.27776772980E+02  0.27776772980E+02  0.00000000000E+00 0.  1.
          2   -1    0    0  501    0  0.00000000000E+00 -0.00000000000E+00 -0.78334714818E+03  0.78334714818E+03  0.00000000000E+00 0. -1.
         25    2    1    2    0    0 -0.31238819981E+02  0.91000825362E+02 -0.47097565468E+03  0.49671121457E+03  0.12508776636E+03 0.  0.
         23    2    1    2    0    0  0.31238819981E+02 -0.91000825362E+02 -0.28459472052E+03  0.31441270658E+03  0.92758724788E+02 0.  0.
          5    1    3    3  502    0 -0.44479140272E+02  0.84231089479E+02 -0.16667693134E+03  0.19202068168E+03  0.41800000000E+01 0. -1.
         -5    1    3    3    0  502  0.13240320291E+02  0.67697358829E+01 -0.30429872334E+03  0.30469053289E+03  0.41800000000E+01 0. -1.
        -11    1    4    4    0    0  0.35835194954E+02 -0.11760605447E+02 -0.31424140421E+02  0.49091237905E+02  0.00000000000E+00 0.  1.
         11    1    4    4    0    0 -0.45963749732E+01 -0.79240219915E+02 -0.25317058010E+03  0.26532146868E+03  0.00000000000E+00 0. -1.
</event>
<event>
 8    1  0.6703334E-009  0.1020505E+03  0.7561462E-02  0.1276042E+00
          2   -1    0    0  501    0  0.00000000000E+00  0.00000000000E+00  0.72454244506E+02  0.72454244506E+02  0.00000000000E+00 0. -1.
         -2   -1    0    0    0  501 -0.00000000000E+00 -0.00000000000E+00 -0.26891912406E+03  0.26891912406E+03  0.00000000000E+00 0.  1.
         25    2    1    2    0    0 -0.59378066378E+01 -0.14448600158E+02 -0.21478592130E+03  0.24904526431E+03  0.12508609872E+03 0.  0.
         23    2    1    2    0    0  0.59378066378E+01  0.14448600158E+02  0.18321041742E+02  0.92328104259E+02  0.89133600126E+02 0.  0.
          5    1    3    3  502    0  0.51704739927E+02  0.12495020677E+02 -0.53265918722E+02  0.75393873557E+02  0.41800000000E+01 0.  1.
         -5    1    3    3    0  502 -0.57642546565E+02 -0.26943620835E+02 -0.16152000258E+03  0.17365139075E+03  0.41800000000E+01 0.  1.
        -11    1    4    4    0    0  0.37915054700E+02 -0.17514797370E+02 -0.39056368105E+01  0.41947270456E+02  0.00000000000E+00 0.  1.
         11    1    4    4    0    0 -0.31977248063E+02  0.31963397528E+02  0.22226678553E+02  0.50380833803E+02  0.00000000000E+00 0. -1.
</event>
<event>
 8    1  0.6703334E-009  0.1914972E+03  0.7561462E-02  0.1157118E+00
          1   -1    0    0  501    0  0.00000000000E+00  0.00000000000E+00  0.14781991600E+03  0.14781991600E+03  0.00000000000E+00 0. -1.
         -1   -1    0    0    0  501 -0.00000000000E+00 -0.00000000000E+00 -0.26951723890E+03  0.26951723890E+03  0.00000000000E+00 0.  1.
         25    2    1    2    0    0  0.15394523913E+03 -0.64573103398E+02 -0.77146016736E+02  0.22241517334E+03  0.12509268204E+03 0.  0.
         23    2    1    2    0    0 -0.15394523913E+03  0.64573103398E+02 -0.44551306159E+02  0.19492198156E+03  0.90227144929E+02 0.  0.
          5    1    3    3  502    0  0.15983913120E+03 -0.17879248118E+02 -0.53299782434E+02  0.16948909871E+03  0.41800000000E+01 0.  1.
         -5    1    3    3    0  502 -0.58938920674E+01 -0.46693855280E+02 -0.23846234302E+02  0.52926074623E+02  0.41800000000E+01 0.  1.
        -11    1    4    4    0    0 -0.11478277515E+03  0.21752134444E+02 -0.64637820298E+02  0.13351512513E+03  0.00000000000E+00 0.  1.
         11    1    4    4    0    0 -0.39162463977E+02  0.42820968954E+02  0.20086514139E+02  0.61406856435E+02  0.00000000000E+00 0. -1.
</event>
<event>
 7    1  0.6703334E-009  0.8148487E+02  0.7561462E-02  0.1324890E+00
          1   -1    0    0  501    0  0.00000000000E+00  0.00000000000E+00  0.21689558335E+03  0.21689558335E+03  0.00000000000E+00 0. -1.
         -1   -1    0    0    0  501 -0.00000000000E+00 -0.00000000000E+00 -0.58926562226E+02  0.58926562226E+02  0.00000000000E+00 0.  1.
         23    2    1    2    0    0  0.16725525707E+02  0.27731922691E+02  0.70019616926E+02  0.11939719507E+03  0.91127057945E+02 0.  0.
          5    1    1    2  502    0 -0.25633579232E+01  0.49776809393E+02  0.27918878358E+02  0.57282089050E+02  0.41800000000E+01 0.  1.
         -5    1    1    2    0  502 -0.14162167783E+02 -0.77508732084E+02  0.60030525843E+02  0.99142861461E+02  0.41800000000E+01 0.  1.
        -11    1    3    3    0    0  0.16104643388E+02  0.17439272351E+02  0.92056182122E+02  0.95067494053E+02  0.00000000000E+00 0. -1.
         11    1    3    3    0    0  0.62088231817E+00  0.10292650340E+02 -0.22036565196E+02  0.24329701016E+02  0.00000000000E+00 0.  1.
</event>
<event>
 8    1  0.6703334E-009  0.9129403E+02  0.7561462E-02  0.1299748E+00
          2   -1    0    0  501    0  0.00000000000E+00  0.00000000000E+00  0.24518655995E+03  0.24518655995E+03  0.00000000000E+00 0. -1.
         -2   -1    0    0    0  501 -0.00000000000E+00 -0.00000000000E+00 -0.10861156910E+03  0.10861156910E+03  0.00000000000E+00 0.  1.
         25    2    1    2    0    0 -0.50595209583E+02  0.28086226483E+01  0.19272724140E+03  0.23528535991E+03  0.12509055688E+03 0.  0.
         23    2    1    2    0    0  0.50595209583E+02 -0.28086226483E+01 -0.56152250540E+02  0.11851276914E+03  0.91238356044E+02 0.  0.
          5    1    3    3  502    0 -0.39894399571E+01  0.30497723710E+02  0.17553822705E+03  0.17826151671E+03  0.41800000000E+01 0. -1.
         -5    1    3    3    0  502 -0.46605769626E+02 -0.27689101062E+02  0.17189014349E+02  0.57023843209E+02  0.41800000000E+01 0. -1.
        -11    1    4    4    0    0 -0.22596854871E+02  0.61998829635E+01  0.34617602189E+01  0.23686286805E+02  0.00000000000E+00 0.  1.
         11    1    4    4    0    0  0.73192064454E+02 -0.90085056118E+01 -0.59614010758E+02  0.94826482330E+02  0.00000000000E+00 0. -1.
</event>
<event>
 8    1  0.6703334E-009  0.3253175E+03  0.7561462E-02  0.1073228E+00
         -1   -1    0    0    0  501 -0.00000000000E+00  0.00000000000E+00  0.20747512220E+03  0.20747512220E+03  0.00000000000E+00 0.  1.
          1   -1    0    0  501    0  0.00000000000E+00 -0.00000000000E+00 -0.55521347420E+03  0.55521347420E+03  0.00000000000E+00 0. -1.
         25    2    1    2    0    0 -0.12145684401E+03  0.29442677737E+03 -0.19481152232E+03  0.39374906302E+03  0.12509157930E+03 0.  0.
         23    2    1    2    0    0  0.12145684401E+03 -0.29442677737E+03 -0.15292682968E+03  0.36893953338E+03  0.10625851431E+03 0.  0.
          5    1    3    3  502    0 -0.91901898087E+02  0.28677052456E+03 -0.14282621201E+03  0.33331680406E+03  0.41800000000E+01 0.  1.
         -5    1    3    3    0  502 -0.29554945921E+02  0.76562528073E+01 -0.51985310310E+02  0.60432258964E+02  0.41800000000E+01 0.  1.
        -11    1    4    4    0    0  0.44334179740E+02 -0.95062961079E+02  0.20452516974E+01  0.10491267377E+03  0.00000000000E+00 0. -1.
         11    1    4    4    0    0  0.77122664268E+02 -0.19936381629E+03 -0.15497208138E+03  0.26402685961E+03  0.00000000000E+00 0.  1.
</event>
<event>
 8    1  0.6703334E-009  0.1151611E+03  0.7561462E-02  0.1251300E+00
         -1   -1    0    0    0  501 -0.00000000000E+00  0.00000000000E+00  0.42028619881E+02  0.42028619881E+02  0.00000000000E+00 0.  1.
          1   -1    0    0  501    0  0.00000000000E+00 -0.00000000000E+00 -0.62891397861E+03  0.62891397861E+03  0.00000000000E+00 0. -1.
         25    2    1    2    0    0  0.32295496516E+02  0.35219964260E+02 -0.54520606241E+03  0.56140962046E+03  0.12509063309E+03 0.  0.
         23    2    1    2    0    0 -0.32295496516E+02 -0.35219964260E+02 -0.41679296321E+02  0.10953297803E+03  0.89313294397E+02 0.  0.
          5    1    3    3  502    0  0.72069103326E+02  0.51681406491E+02 -0.40803699439E+03  0.41758422459E+03  0.41800000000E+01 0.  1.
         -5    1    3    3    0  502 -0.39773606810E+02 -0.16461442231E+02 -0.13716906801E+03  0.14382539588E+03  0.41800000000E+01 0.  1.
        -11    1    4    4    0    0 -0.61873202025E+02 -0.19985723816E+02 -0.14611281593E+02  0.66642417686E+02  0.00000000000E+00 0.  1.
         11    1    4    4    0    0  0.29577705509E+02 -0.15234240444E+02 -0.27068014728E+02  0.42890560341E+02  0.00000000000E+00 0. -1.
</event>
<event>
 8    1  0.6703334E-009  0.1225847E+03  0.7561462E-02  0.1238893E+00
          1   -1    0    0  501    0  0.00000000000E+00  0.00000000000E+00  0.15948233413E+03  0.15948233413E+03  0.00000000000E+00 0. -1.
         -1   -1    0    0    0  501 -0.00000000000E+00 -0.00000000000E+00 -0.13906854405E+03  0.13906854405E+03  0.00000000000E+00 0.  1.
         25    2    1    2    0    0  0.82407959202E+02  0.42229650239E+02  0.56647352069E+02  0.16561710403E+03  0.12508272284E+03 0.  0.
         23    2    1    2    0    0 -0.82407959202E+02 -0.42229650239E+02 -0.36233561988E+02  0.13293377414E+03  0.88227559152E+02 0.  0.
          5    1    3    3  502    0  0.10752993080E+03  0.56144705911E+01  0.55008260244E+02  0.12098590576E+03  0.41800000000E+01 0. -1.
         -5    1    3    3    0  502 -0.25121971594E+02  0.36615179647E+02  0.16390918249E+01  0.44631198274E+02  0.41800000000E+01 0. -1.
        -11    1    4    4    0    0 -0.53793350886E+02 -0.30887188242E+02 -0.65676300310E+02  0.90338914204E+02  0.00000000000E+00 0.  1.
         11    1    4    4    0    0 -0.28614608315E+02 -0.11342461996E+02  0.29442738322E+02  0.42594859937E+02  0.00000000000E+00 0. -1.
</event>
<event>
 8    1  0.6703334E-009  0.1023250E+03  0.7561462E-02  0.1275481E+00
         -3   -1    0    0    0  501 -0.00000000000E+00  0.00000000000E+00  0.14605744813E+03  0.14605744813E+03  0.00000000000E+00 0.  1.
          3   -1    0    0  501    0  0.00000000000E+00 -0.00000000000E+00 -0.13981855695E+03  0.13981855695E+03  0.00000000000E+00 0. -1.
         25    2    1    2    0    0 -0.90714366237E+01  0.63081356063E+02  0.69458849352E+02  0.15663178567E+03  0.12508971214E+03 0.  0.
         23    2    1    2    0    0  0.90714366237E+01 -0.63081356063E+02 -0.63219958173E+02  0.12924421940E+03  0.92982561226E+02 0.  0.
          5    1    3    3  502    0  0.22519441962E+02  0.82731312413E+02  0.10075738619E+02  0.86432564631E+02  0.41800000000E+01 0.  1.
         -5    1    3    3    0  502 -0.31590878586E+02 -0.19649956351E+02  0.59383110733E+02  0.70199221041E+02  0.41800000000E+01 0.  1.
        -11    1    4    4    0    0  0.26541358382E+02 -0.56990552565E+02  0.52356477507E+00  0.62870031864E+02  0.00000000000E+00 0.  1.
         11    1    4    4    0    0 -0.17469921759E+02 -0.60908034975E+01 -0.63743522948E+02  0.66374187538E+02  0.00000000000E+00 0. -1.
</event>
<event>
 8    1  0.6703334E-009  0.1035735E+03  0.7561462E-02  0.1272956E+00
          4   -1    0    0  501    0  0.00000000000E+00  0.00000000000E+00  0.24076769090E+02  0.24076769090E+02  0.00000000000E+00 0.  1.
         -4   -1    0    0    0  501 -0.00000000000E+00 -0.00000000000E+00 -0.60814355249E+03  0.60814355249E+03  0.00000000000E+00 0. -1.
         25    2    1    2    0    0  0.23860021018E+02  0.30432840784E+02 -0.41915604182E+03  0.43912963872E+03  0.12509034260E+03 0.  0.
         23    2    1    2    0    0 -0.23860021018E+02 -0.30432840784E+02 -0.16491074159E+03  0.19309068286E+03  0.92698439660E+02 0.  0.
          5    1    3    3  502    0 -0.38652608917E+02  0.29368306906E+02 -0.75844322270E+02  0.90146299132E+02  0.41800000000E+01 0. -1.
         -5    1    3    3    0  502  0.62512629936E+02  0.10645338779E+01 -0.34331171955E+03  0.34898333959E+03  0.41800000000E+01 0. -1.
        -11    1    4    4    0    0  0.76557804732E+01 -0.55169259855E+02 -0.12346136456E+03  0.13544359249E+03  0.00000000000E+00 0. -1.
         11    1    4    4    0    0 -0.31515801492E+02  0.24736419071E+02 -0.41449377023E+02  0.57647090367E+02  0.00000000000E+00 0.  1.
</event>
<event>
 8    1  0.6703334E-009  0.1120933E+03  0.7561462E-02  0.1256742E+00
         -3   -1    0    0    0  501 -0.00000000000E+00  0.00000000000E+00  0.63287989634E+02  0.63287989634E+02  0.00000000000E+00 0.  1.
          3   -1    0    0  501    0  0.00000000000E+00 -0.00000000000E+00 -0.23559493385E+03  0.23559493385E+03  0.00000000000E+00 0. -1.
         25    2    1    2    0    0 -0.35466648566E+02 -0.40324791537E+02 -0.70524094126E+02  0.15331937703E+03  0.12509680870E+03 0.  0.
         23    2    1    2    0    0  0.35466648566E+02  0.40324791537E+02 -0.10178285009E+03  0.14556354645E+03  0.89134872583E+02 0.  0.
          5    1    3    3  502    0 -0.40921280983E+02  0.29569552372E+02 -0.65643903605E+02  0.82918659814E+02  0.41800000000E+01 0. -1.
         -5    1    3    3    0  502  0.54546324178E+01 -0.69894343909E+02 -0.48801905214E+01  0.70400717218E+02  0.41800000000E+01 0. -1.
        -11    1    4    4    0    0  0.64487043067E+02  0.18823583810E+02 -0.57553207701E+02  0.88460599973E+02  0.00000000000E+00 0.  1.
         11    1    4    4    0    0 -0.29020394501E+02  0.21501207727E+02 -0.44229642387E+02  0.57102946478E+02  0.00000000000E+00 0. -1.
</event>
<event>
 8    1  0.6703334E-009  0.1277062E+03  0.7561462E-02  0.1230900E+00
         -2   -1    0    0    0  501 -0.00000000000E+00  0.00000000000E+00  0.25184301829E+03  0.25184301829E+03  0.00000000000E+00 0.  1.
          2   -1    0    0  501    0  0.00000000000E+00 -0.00000000000E+00 -0.10002996870E+03  0.10002996870E+03  0.00000000000E+00 0. -1.
         25    2    1    2    0    0  0.79755473168E+02 -0.37005290483E+02  0.16437521698E+03  0.22449837053E+03  0.12509987766E+03 0.  0.
         23    2    1    2    0    0 -0.79755473168E+02  0.37005290483E+02 -0.12562167380E+02  0.12737461646E+03  0.91302562099E+02 0.  0.
          5    1    3    3  502    0  0.85253542899E+02  0.23283557047E+02  0.12104987634E+03  0.14993610495E+03  0.41800000000E+01 0.  1.
         -5    1    3    3    0  502 -0.54980697302E+01 -0.60288847530E+02  0.43325340641E+02  0.74562265583E+02  0.41800000000E+01 0.  1.
        -11    1    4    4    0    0 -0.83824663815E+02  0.46547163689E+02 -0.35466657673E+02  0.10223060460E+03  0.00000000000E+00 0. -1.
         11    1    4    4    0    0  0.40691906467E+01 -0.95418732056E+01  0.22904490293E+02  0.25144011859E+02  0.00000000000E+00 0.  1.
</event>
<event>
 8    1  0.6703334E-009  0.1257640E+03  0.7561462E-02  0.1233880E+00
         -1   -1    0    0    0  501 -0.00000000000E+00  0.00000000000E+00  0.69341637074E+02  0.69341637074E+02  0.00000000000E+00 0.  1.
          1   -1    0    0  501    0  0.00000000000E+00 -0.00000000000E+00 -0.27869396260E+03  0.27869396260E+03  0.00000000000E+00 0. -1.
         25    2    1    2    0    0 -0.12591799072E+02 -0.84362768136E+02 -0.13075198830E+03  0.20004829047E+03  0.12509039142E+03 0.  0.
         23    2    1    2    0    0  0.12591799072E+02  0.84362768136E+02 -0.78600337224E+02  0.14798730920E+03  0.91905389506E+02 0.  0.
          5    1    3    3  502    0 -0.67454643353E+02 -0.33492593997E+02 -0.77301777160E+02  0.10800425878E+03  0.41800000000E+01 0.  1.
         -5    1    3    3    0  502  0.54862844281E+02 -0.50870174139E+02 -0.53450211138E+02  0.92044031692E+02  0.41800000000E+01 0.  1.
        -11    1    4    4    0    0 -0.20798769462E+02  0.44821255393E+02 -0.82415617392E+02  0.96093016064E+02  0.00000000000E+00 0. -1.
         11    1    4    4    0    0  0.33390568534E+02  0.39541512743E+02  0.38152801681E+01  0.51894293133E+02  0.00000000000E+00 0.  1.
</event>
<event>
 8    1  0.6703334E-009  0.2729105E+03  0.7561462E-02  0.1099625E+00
          2   -1    0    0  501    0  0.00000000000E+00  0.00000000000E+00  0.99197117406E+03  0.99197117406E+03  0.00000000000E+00 0. -1.
         -2   -1    0    0    0  501 -0.00000000000E+00 -0.00000000000E+00 -0.13360987091E+03  0.13360987091E+03  0.00000000000E+00 0.  1.
         25    2    1    2    0    0  0.14597669759E+02  0.25768336222E+03  0.79555714655E+03  0.84567298886E+03  0.12505128362E+03 0.  0.
         23    2    1    2    0    0 -0.14597669759E+02 -0.25768336222E+03  0.62804156599E+02  0.27990805612E+03  0.88262963173E+02 0.  0.
          5    1    3    3  502    0  0.45647337690E+02  0.43135044977E+02  0.26809361397E+03  0.27538331430E+03  0.41800000000E+01 0. -1.
         -5    1    3    3    0  502 -0.31049667931E+02  0.21454831724E+03  0.52746353258E+03  0.57028967456E+03  0.41800000000E+01 0. -1.
        -11    1    4    4    0    0 -0.32730132226E+02 -0.23373852913E+03  0.34296949745E+02  0.23849788745E+03  0.00000000000E+00 0.  1.
         11    1    4    4    0    0  0.18132462467E+02 -0.23944833087E+02  0.28507206855E+02  0.41410168670E+02  0.00000000000E+00 0. -1.
</event>
<event>
 8    1  0.6703334E-009  0.6130967E+02  0.7561462E-02  0.1392416E+00
          1   -1    0    0  501    0  0.00000000000E+00  0.00000000000E+00  0.13526921115E+03  0.13526921115E+03  0.00000000000E+00 0. -1.
         -1   -1    0    0    0  501 -0.00000000000E+00 -0.00000000000E+00 -0.99907836436E+02  0.99907836436E+02  0.00000000000E+00 0.  1.
         25    2    1    2    0    0 -0.35609564599E+02  0.80059568752E+01 -0.39154570221E+01  0.13036483082E+03  0.12509005505E+03 0.  0.
         23    2    1    2    0    0  0.35609564599E+02 -0.80059568752E+01  0.39276831736E+02  0.10481221677E+03  0.90059951348E+02 0.  0.
          5    1    3    3  502    0  0.12730019242E+02 -0.14698826243E+02 -0.53680567313E+02  0.57246699380E+02  0.41800000000E+01 0.  1.
         -5    1    3    3    0  502 -0.48339583841E+02  0.22704783118E+02  0.49765110291E+02  0.73118131435E+02  0.41800000000E+01 0.  1.
        -11    1    4    4    0    0  0.12926546118E+02 -0.19760366845E+02 -0.25755574274E+02  0.34941627017E+02  0.00000000000E+00 0.  1.
         11    1    4    4    0    0  0.22683018481E+02  0.11754409970E+02  0.65032406010E+02  0.69870589754E+02  0.00000000000E+00 0. -1.
</event>
<event>
 8    1  0.6703334E-009  0.1083841E+03  0.7561462E-02  0.1263592E+00
          2   -1    0    0  501    0  0.00000000000E+00  0.00000000000E+00  0.21531804897E+03  0.21531804897E+03  0.00000000000E+00 0.  1.
         -2   -1    0    0    0  501 -0.00000000000E+00 -0.00000000000E+00 -0.74118123120E+02  0.74118123120E+02  0.00000000000E+00 0. -1.
         25    2    1    2    0    0  0.79117850766E+01 -0.72168269666E+02  0.59006759545E+02  0.15620524194E+03  0.12508966563E+03 0.  0.
         23    2    1    2    0    0 -0.79117850766E+01  0.72168269666E+02  0.82193166305E+02  0.13323093015E+03  0.75656517707E+02 0.  0.
          5    1    3    3  502    0  0.62398271421E+02 -0.20343008055E+02  0.10431812808E+02  0.66585864652E+02  0.41800000000E+01 0. -1.
         -5    1    3    3    0  502 -0.54486486344E+02 -0.51825261611E+02  0.48574946737E+02  0.89619377289E+02  0.41800000000E+01 0. -1.
        -11    1    4    4    0    0 -0.12011000805E+02  0.19768665337E+02 -0.11477049659E+02  0.25822217923E+02  0.00000000000E+00 0. -1.
         11    1    4    4    0    0  0.40992157281E+01  0.52399604328E+02  0.93670215965E+02  0.10740871223E+03  0.00000000000E+00 0.  1.
</event>
<event>
 8    1  0.6703334E-009  0.8610262E+02  0.7561462E-02  0.1312574E+00
          2   -1    0    0  501    0  0.00000000000E+00  0.00000000000E+00  0.14207765249E+03  0.14207765249E+03  0.00000000000E+00 0. -1.
         -2   -1    0    0    0  501 -0.00000000000E+00 -0.00000000000E+00 -0.86884480140E+02  0.86884480140E+02  0.00000000000E+00 0.  1.
         25    2    1    2    0    0  0.23905131714E+02  0.96477245749E+01  0.40088800084E+02  0.13386089422E+03  0.12508834158E+03 0.  0.
         23    2    1    2    0    0 -0.23905131714E+02 -0.96477245749E+01  0.15104372266E+02  0.95101238406E+02  0.90286043069E+02 0.  0.
          5    1    3    3  502    0 -0.17462145199E+02  0.46838867627E+02  0.56652878828E+02  0.75669195284E+02  0.41800000000E+01 0. -1.
         -5    1    3    3    0  502  0.41367276913E+02 -0.37191143052E+02 -0.16564078744E+02  0.58191698939E+02  0.41800000000E+01 0. -1.
        -11    1    4    4    0    0  0.14472100723E+01 -0.32256644236E+02 -0.26229322570E+02  0.41600034578E+02  0.00000000000E+00 0.  1.
         11    1    4    4    0    0 -0.25352341786E+02  0.22608919661E+02  0.41333694836E+02  0.53501203828E+02  0.00000000000E+00 0. -1.
</event>
<event>
 8    1  0.6703334E-009  0.9904149E+02  0.7561462E-02  0.1282325E+00
          1   -1    0    0  501    0  0.00000000000E+00  0.00000000000E+00  0.48781049917E+02  0.48781049917E+02  0.00000000000E+00 0. -1.
         -1   -1    0    0    0  501 -0.00000000000E+00 -0.00000000000E+00 -0.40688338864E+03  0.40688338864E+03  0.00000000000E+00 0.  1.
         25    2    1    2    0    0 -0.25386321564E+02 -0.39832543907E+02 -0.31672020261E+03  0.34378065927E+03  0.12506941299E+03 0.  0.
         23    2    1    2    0    0  0.25386321564E+02  0.39832543907E+02 -0.41382136111E+02  0.11188377929E+03  0.92598066950E+02 0.  0.
          5    1    3    3  502    0 -0.52920115158E+02 -0.10702320107E+02 -0.29094603777E+03  0.29594281126E+03  0.41800000000E+01 0. -1.
         -5    1    3    3    0  502  0.27533793594E+02 -0.29130223800E+02 -0.25774164844E+02  0.47837848005E+02  0.41800000000E+01 0. -1.
        -11    1    4    4    0    0  0.42762879793E+01  0.68163896290E+02 -0.23071016003E+02  0.72089355495E+02  0.00000000000E+00 0. -1.
         11    1    4    4    0    0  0.21110033585E+02 -0.28331352382E+02 -0.18311120108E+02  0.39794423797E+02  0.00000000000E+00 0.  1.
</event>
<event>
 8    1  0.6703334E-009  0.9351238E+02  0.7561462E-02  0.1294562E+00
         -3   -1    0    0    0  501 -0.00000000000E+00  0.00000000000E+00  0.12109253198E+03  0.12109253198E+03  0.00000000000E+00 0.  1.
          3   -1    0    0  501    0  0.00000000000E+00 -0.00000000000E+00 -0.10359080099E+03  0.10359080099E+03  0.00000000000E+00 0. -1.
         25    2    1    2    0    0  0.36255952944E+01 -0.16883032894E+01 -0.20007764575E+02  0.12674677834E+03  0.12509372433E+03 0.  0.
         23    2    1    2    0    0 -0.36255952944E+01  0.16883032894E+01  0.37509495569E+02  0.97936554629E+02  0.90380369359E+02 0.  0.
          5    1    3    3  502    0 -0.10616638858E+02  0.46327327001E+02  0.29585498442E+02  0.56140078070E+02  0.41800000000E+01 0. -1.
         -5    1    3    3    0  502  0.14242234153E+02 -0.48015630290E+02 -0.49593263016E+02  0.70606700266E+02  0.41800000000E+01 0. -1.
        -11    1    4    4    0    0 -0.42702416238E+02  0.18472533622E+02  0.28183680124E+02  0.54397156877E+02  0.00000000000E+00 0.  1.
         11    1    4    4    0    0  0.39076820944E+02 -0.16784230333E+02  0.93258154448E+01  0.43539397752E+02  0.00000000000E+00 0. -1.
</event>
<event>
 8    1  0.6703334E-009  0.1046218E+03  0.7561462E-02  0.1270867E+00
          2   -1    0    0  501    0  0.00000000000E+00  0.00000000000E+00  0.96917413042E+03  0.96917413042E+03  0.00000000000E+00 0. -1.
         -2   -1    0    0    0  501 -0.00000000000E+00 -0.00000000000E+00 -0.13264203074E+02  0.13264203074E+02  0.00000000000E+00 0.  1.
         25    2    1    2    0    0  0.42150212969E+02 -0.28590970628E+01  0.64285343666E+03  0.65627210943E+03  0.12509086977E+03 0.  0.
         23    2    1    2    0    0 -0.42150212969E+02  0.28590970628E+01  0.31305649069E+03  0.32616622407E+03  0.81210987373E+02 0.  0.
          5    1    3    3  502    0  0.78783872108E+02 -0.27438022475E+02  0.33556223322E+03  0.34580229661E+03  0.41800000000E+01 0. -1.
         -5    1    3    3    0  502 -0.36633659140E+02  0.24578925412E+02  0.30729120345E+03  0.31046981282E+03  0.41800000000E+01 0. -1.
        -11    1    4    4    0    0 -0.42495929335E+01  0.32816592912E+02  0.59816860824E+02  0.68359671220E+02  0.00000000000E+00 0.  1.
         11    1    4    4    0    0 -0.37900620035E+02 -0.29957495849E+02  0.25323962986E+03  0.25780655285E+03  0.00000000000E+00 0. -1.
</event>
<event>
 8    1  0.6703334E-009  0.1131830E+03  0.7561462E-02  0.1254786E+00
          2   -1    0    0  501    0  0.00000000000E+00  0.00000000000E+00  0.47508720853E+03  0.47508720853E+03  0.00000000000E+00 0. -1.
         -2   -1    0    0    0  501 -0.00000000000E+00 -0.00000000000E+00 -0.39021411124E+02  0.39021411124E+02  0.00000000000E+00 0.  1.
         25    2    1    2    0    0  0.51786079470E+02  0.42115604132E+02  0.32655804921E+03  0.35601096863E+03  0.12509247836E+03 0.  0.
         23    2    1    2    0    0 -0.51786079470E+02 -0.42115604132E+02  0.10950774820E+03  0.15809765102E+03  0.92452140085E+02 0.  0.
          5    1    3    3  502    0  0.63407220768E+02 -0.26370950287E+02  0.20111774804E+03  0.21255992953E+03  0.41800000000E+01 0.  1.
         -5    1    3    3    0  502 -0.11621141299E+02  0.68486554420E+02  0.12544030118E+03  0.14345103911E+03  0.41800000000E+01 0.  1.
        -11    1    4    4    0    0 -0.51270980415E+02 -0.57346417938E+01  0.10543768961E+02  0.52657104109E+02  0.00000000000E+00 0.  1.
         11    1    4    4    0    0 -0.51509905427E+00 -0.36380962339E+02  0.98963979236E+02  0.10544054692E+03  0.00000000000E+00 0. -1.
</event>
<event>
 8    1  0.6703334E-009  0.8888085E+02  0.7561462E-02  0.1305585E+00
          2   -1    0    0  501    0  0.00000000000E+00  0.00000000000E+00  0.22596898985E+03  0.22596898985E+03  0.00000000000E+00 0. -1.
         -2   -1    0    0    0  501 -0.00000000000E+00 -0.00000000000E+00 -0.10043666441E+03  0.10043666441E+03  0.00000000000E+00 0.  1.
         25    2    1    2    0    0 -0.59254271339E+01 -0.99957410141E+01  0.17739694388E+03  0.21738305042E+03  0.12510271535E+03 0.  0.
         23    2    1    2    0    0  0.59254271339E+01  0.99957410141E+01 -0.51864618447E+02  0.10902260384E+03  0.95189095886E+02 0.  0.
          5    1    3    3  502    0  0.48481928783E+02 -0.14643920914E+02  0.27470084382E+02  0.57766943612E+02  0.41800000000E+01 0. -1.
         -5    1    3    3    0  502 -0.54407355917E+02  0.46481798999E+01  0.14992685950E+03  0.15961610681E+03  0.41800000000E+01 0. -1.
        -11    1    4    4    0    0 -0.18608458783E+02 -0.23928746959E+02  0.12047298531E+02  0.32618967966E+02  0.00000000000E+00 0. -1.
         11    1    4    4    0    0  0.24533885917E+02  0.33924487973E+02 -0.63911916978E+02  0.76403635870E+02  0.00000000000E+00 0.  1.
</event>
<event>
 8    1  0.6703334E-009  0.1347327E+03  0.7561462E-02  0.1220598E+00
         -1   -1    0    0    0  501 -0.00000000000E+00  0.00000000000E+00  0.88529429306E+02  0.88529429306E+02  0.00000000000E+00 0.  1.
          1   -1    0    0  501    0  0.00000000000E+00 -0.00000000000E+00 -0.33599649769E+03  0.33599649769E+03  0.00000000000E+00 0. -1.
         25    2    1    2    0    0  0.11868840517E+03  0.50626372738E+02 -0.82802421277E+02  0.19787177537E+03  0.12508809448E+03 0.  0.
         23    2    1    2    0    0 -0.11868840517E+03 -0.50626372738E+02 -0.16466464711E+03  0.22665415162E+03  0.87222080354E+02 0.  0.
          5    1    3    3  502    0  0.47278796754E+02  0.39895792052E+02 -0.10523342608E+03  0.12214133293E+03  0.41800000000E+01 0. -1.
         -5    1    3    3    0  502  0.71409608421E+02  0.10730580686E+02  0.22431004798E+02  0.75730442445E+02  0.41800000000E+01 0. -1.
        -11    1    4    4    0    0 -0.61758152137E+02 -0.46143976088E+01 -0.20960938020E+02  0.65381365413E+02  0.00000000000E+00 0.  1.
         11    1    4    4    0    0 -0.56930253038E+02 -0.46011975129E+02 -0.14370370909E+03  0.16127278621E+03  0.00000000000E+00 0. -1.
</event>
<event>
 8    1  0.6703334E-009  0.3460523E+03  0.7561462E-02  0.1064247E+00
          2   -1    0    0  501    0  0.00000000000E+00  0.00000000000E+00  0.74780056745E+03  0.74780056745E+03  0.00000000000E+00 0. -1.
         -2   -1    0    0    0  501 -0.00000000000E+00 -0.00000000000E+00 -0.17528275113E+03  0.17528275113E+03  0.00000000000E+00 0.  1.
         25    2    1    2    0    0 -0.22474536260E+03 -0.26068769989E+03  0.25618889771E+03  0.44693230411E+03  0.12508868157E+03 0.  0.
         23    2    1    2    0    0  0.22474536260E+03  0.26068769989E+03  0.31632891861E+03  0.47615101447E+03  0.90483418074E+02 0.  0.
          5    1    3    3  502    0 -0.38998630134E+02 -0.72743836722E+02  0.13006940130E+03  0.15410412223E+03  0.41800000000E+01 0. -1.
         -5    1    3    3    0  502 -0.18574673246E+03 -0.18794386317E+03  0.12611949641E+03  0.29282818187E+03  0.41800000000E+01 0. -1.
        -11    1    4    4    0    0  0.52003789520E+02  0.78118522277E+02  0.14224168374E+03  0.17041007669E+03  0.00000000000E+00 0.  1.
         11    1    4    4    0    0  0.17274157308E+03  0.18256917762E+03  0.17408723487E+03  0.30574093777E+03  0.00000000000E+00 0. -1.
</event>
<event>
 8    1  0.6703334E-009  0.1115867E+03  0.7561462E-02  0.1257659E+00
         -1   -1    0    0    0  501 -0.00000000000E+00  0.00000000000E+00  0.27617692532E+02  0.27617692532E+02  0.00000000000E+00 0.  1.
          1   -1    0    0  501    0  0.00000000000E+00 -0.00000000000E+00 -0.50435669622E+03  0.50435669622E+03  0.00000000000E+00 0. -1.
         25    2    1    2    0    0 -0.43197230449E+02 -0.16890022375E+02 -0.29498656625E+03  0.32375331644E+03  0.12509141482E+03 0.  0.
         23    2    1    2    0    0  0.43197230449E+02  0.16890022375E+02 -0.18175243743E+03  0.20822107231E+03  0.90392438107E+02 0.  0.
          5    1    3    3  502    0  0.34679390705E+02  0.14657793138E+02 -0.16216205762E+03  0.16652782462E+03  0.41800000000E+01 0.  1.
         -5    1    3    3    0  502 -0.77876621154E+02 -0.31547815513E+02 -0.13282450863E+03  0.15722549182E+03  0.41800000000E+01 0.  1.
        -11    1    4    4    0    0  0.57598135021E+02  0.42637983067E+02 -0.11968855229E+03  0.13950230216E+03  0.00000000000E+00 0.  1.
         11    1    4    4    0    0 -0.14400904572E+02 -0.25747960692E+02 -0.62063885143E+02  0.68718770153E+02  0.00000000000E+00 0. -1.
</event>
<event>
 8    1  0.6703334E-009  0.1297899E+03  0.7561462E-02  0.1227768E+00
         -3   -1    0    0    0  501 -0.00000000000E+00  0.00000000000E+00  0.47521374137E+02  0.47521374137E+02  0.00000000000E+00 0.  1.
          3   -1    0    0  501    0  0.00000000000E+00 -0.00000000000E+00 -0.41648903057E+03  0.41648903057E+03  0.00000000000E+00 0. -1.
         25    2    1    2    0    0 -0.47864520337E+02  0.62880013915E+02 -0.12974294332E+03  0.19679838016E+03  0.12510580577E+03 0.  0.
         23    2    1    2    0    0  0.47864520337E+02 -0.62880013915E+02 -0.23922471311E+03  0.26721202454E+03  0.89044338609E+02 0.  0.
          5    1    3    3  502    0 -0.81100726480E+02  0.71508303736E+02 -0.11839754252E+03  0.16039393946E+03  0.41800000000E+01 0.  1.
         -5    1    3    3    0  502  0.33236206143E+02 -0.86282898215E+01 -0.11345400793E+02  0.36404440706E+02  0.41800000000E+01 0.  1.
        -11    1    4    4    0    0 -0.17703598605E+02 -0.45689615678E+02 -0.75458514311E+02  0.89971916543E+02  0.00000000000E+00 0.  1.
         11    1    4    4    0    0  0.65568118942E+02 -0.17190398237E+02 -0.16376619880E+03  0.17724010800E+03  0.00000000000E+00 0. -1.
</event>
<event>
 8    1  0.6703334E-009  0.1035554E+03  0.7561462E-02  0.1272992E+00
         -1   -1    0    0    0  501 -0.00000000000E+00  0.00000000000E+00  0.29325615482E+02  0.29325615482E+02  0.00000000000E+00 0.  1.
          1   -1    0    0  501    0  0.00000000000E+00 -0.00000000000E+00 -0.65930982645E+03  0.65930982645E+03  0.00000000000E+00 0. -1.
         25    2    1    2    0    0  0.15039940137E+02  0.65787991733E+02 -0.48385454453E+03  0.50429842012E+03  0.12508963436E+03 0.  0.
         23    2    1    2    0    0 -0.15039940137E+02 -0.65787991733E+02 -0.14612966644E+03  0.18433702181E+03  0.89844301655E+02 0.  0.
          5    1    3    3  502    0  0.54778327502E+02 -0.65679331164E+01 -0.13742742993E+03  0.14814713567E+03  0.41800000000E+01 0.  1.
         -5    1    3    3    0  502 -0.39738387365E+02  0.72355924849E+02 -0.34642711460E+03  0.35615128445E+03  0.41800000000E+01 0.  1.
        -11    1    4    4    0    0 -0.16093029831E+02 -0.37359161737E+02 -0.15018928694E+03  0.15560049642E+03  0.00000000000E+00 0. -1.
         11    1    4    4    0    0  0.10530896932E+01 -0.28428829995E+02  0.40596204989E+01  0.28736525389E+02  0.00000000000E+00 0.  1.
</event>
<event>
 8    1  0.6703334E-009  0.1366340E+03  0.7561462E-02  0.1217931E+00
          2   -1    0    0  501    0  0.00000000000E+00  0.00000000000E+00  0.59959401974E+03  0.59959401974E+03  0.00000000000E+00 0. -1.
         -2   -1    0    0    0  501 -0.00000000000E+00 -0.00000000000E+00 -0.40216538043E+02  0.40216538043E+02  0.00000000000E+00 0.  1.
         25    2    1    2    0    0  0.11080470083E+03 -0.39235912930E+01  0.29918063618E+03  0.34270931257E+03  0.12509014173E+03 0.  0.
         23    2    1    2    0    0 -0.11080470083E+03  0.39235912930E+01  0.26019684551E+03  0.29710124521E+03  0.90959744928E+02 0.  0.
          5    1    3    3  502    0  0.44804220270E+02 -0.48966720359E+02  0.56783475209E+02  0.87447088651E+02  0.41800000000E+01 0. -1.
         -5    1    3    3    0  502  0.66000480563E+02  0.45043129066E+02  0.24239716097E+03  0.25526222392E+03  0.41800000000E+01 0. -1.
        -11    1    4    4    0    0 -0.95075000205E+02 -0.20916317184E+02  0.24577700278E+03  0.26435408657E+03  0.00000000000E+00 0. -1.
         11    1    4    4    0    0 -0.15729700628E+02  0.24839908477E+02  0.14419842730E+02  0.32747158645E+02  0.00000000000E+00 0.  1.
</event>
<event>
 8    1  0.6703334E-009  0.6210601E+02  0.7561462E-02  0.1389200E+00
         -3   -1    0    0    0  501 -0.00000000000E+00  0.00000000000E+00  0.14839633178E+03  0.14839633178E+03  0.00000000000E+00 0.  1.
          3   -1    0    0  501    0  0.00000000000E+00 -0.00000000000E+00 -0.95703857621E+02  0.95703857621E+02  0.00000000000E+00 0. -1.
         25    2    1    2    0    0  0.22339359734E+02 -0.47402803934E+01 -0.28434590419E+01  0.12718289071E+03  0.12508351281E+03 0.  0.
         23    2    1    2    0    0 -0.22339359734E+02  0.47402803934E+01  0.55535933200E+02  0.11691729869E+03  0.10031897929E+03 0.  0.
          5    1    3    3  502    0  0.16089152234E+02 -0.58446438979E+01  0.60690117821E+02  0.63196388211E+02  0.41800000000E+01 0.  1.
         -5    1    3    3    0  502  0.62502075003E+01  0.11043635046E+01 -0.63533576863E+02  0.63986502495E+02  0.41800000000E+01 0.  1.
        -11    1    4    4    0    0  0.69279742269E+01  0.47043422567E+02  0.10838426292E+02  0.48770400021E+02  0.00000000000E+00 0. -1.
         11    1    4    4    0    0 -0.29267333961E+02 -0.42303142174E+02  0.44697506908E+02  0.68146898673E+02  0.00000000000E+00 0.  1.
</event>
<event>
 8    1  0.6703334E-009  0.1018583E+03  0.7561462E-02  0.1276436E+00
         -1   -1    0    0    0  501 -0.00000000000E+00  0.00000000000E+00  0.43133433424E+02  0.43133433424E+02  0.00000000000E+00 0.  1.
          1   -1    0    0  501    0  0.00000000000E+00 -0.00000000000E+00 -0.33590682469E+03  0.33590682469E+03  0.00000000000E+00 0. -1.
         25    2    1    2    0    0  0.51128300640E+02 -0.11684511440E+00 -0.17265088361E+03  0.21924737594E+03  0.12508783900E+03 0.  0.
         23    2    1    2    0    0 -0.51128300640E+02  0.11684511440E+00 -0.12012250765E+03  0.15979288217E+03  0.92142452586E+02 0.  0.
          5    1    3    3  502    0  0.16063669067E+02  0.51097934831E+02 -0.25466624255E+02  0.59456385349E+02  0.41800000000E+01 0.  1.
         -5    1    3    3    0  502  0.35064631573E+02 -0.51214779945E+02 -0.14718425936E+03  0.15979099059E+03  0.41800000000E+01 0.  1.
        -11    1    4    4    0    0 -0.67530473217E+02 -0.10357411368E+02 -0.44095448052E+02  0.81314508681E+02  0.00000000000E+00 0.  1.
         11    1    4    4    0    0  0.16402172577E+02  0.10474256482E+02 -0.76027059600E+02  0.78478373489E+02  0.00000000000E+00 0. -1.
</event>
<event>
 8    1  0.6703334E-009  0.6714221E+02  0.7561462E-02  0.1370090E+00
         -2   -1    0    0    0  501 -0.00000000000E+00  0.00000000000E+00  0.25603078971E+02  0.25603078971E+02  0.00000000000E+00 0.  1.
          2   -1    0    0  501    0  0.00000000000E+00 -0.00000000000E+00 -0.55852266486E+03  0.55852266486E+03  0.00000000000E+00 0. -1.
         25    2    1    2    0    0  0.34159774600E+02 -0.37166192747E+02 -0.27046113195E+03  0.30223114822E+03  0.12508487907E+03 0.  0.
         23    2    1    2    0    0 -0.34159774600E+02  0.37166192747E+02 -0.26245845394E+03  0.28189459561E+03  0.89620906649E+02 0.  0.
          5    1    3    3  502    0  0.24373110768E+02 -0.50800630382E+01  0.41178957279E+01  0.25578995958E+02  0.41800000000E+01 0. -1.
         -5    1    3    3    0  502  0.97866638313E+01 -0.32086129709E+02 -0.27457902768E+03  0.27665215226E+03  0.41800000000E+01 0. -1.
        -11    1    4    4    0    0 -0.49495716134E+02  0.32468559152E+02 -0.25874658299E+03  0.26543139878E+03  0.00000000000E+00 0. -1.
         11    1    4    4    0    0  0.15335941534E+02  0.46976335955E+01 -0.37118709511E+01  0.16463196837E+02  0.00000000000E+00 0.  1.
</event>
<event>
 8    1  0.6703334E-009  0.8857486E+02  0.7561462E-02  0.1306340E+00
          2   -1    0    0  501    0  0.00000000000E+00  0.00000000000E+00  0.25926920695E+03  0.25926920695E+03  0.00000000000E+00 0. -1.
         -2   -1    0    0    0  501 -0.00000000000E+00 -0.00000000000E+00 -0.60689538012E+02  0.60689538012E+02  0.00000000000E+00 0.  1.
         25    2    1    2    0    0  0.22578831943E+02 -0.59195562521E+02  0.11210360544E+03  0.17952543629E+03  0.12509294803E+03 0.  0.
         23    2    1    2    0    0 -0.22578831943E+02  0.59195562521E+02  0.86476063497E+02  0.14043330868E+03  0.90716516434E+02 0.  0.
          5    1    3    3  502    0  0.18719547757E+02  0.49269549631E+01 -0.22709492122E+02  0.30131209499E+02  0.41800000000E+01 0.  1.
         -5    1    3    3    0  502  0.38592841859E+01 -0.64122517484E+02  0.13481309757E+03  0.14939422679E+03  0.41800000000E+01 0.  1.
        -11    1    4    4    0    0 -0.40655386403E+02  0.11932848861E+02  0.25680225635E+01  0.42448180944E+02  0.00000000000E+00 0.  1.
         11    1    4    4    0    0  0.18076554460E+02  0.47262713660E+02  0.83908040933E+02  0.97985127733E+02  0.00000000000E+00 0. -1.
</event>
<event>
 8    1  0.6703334E-009  0.6243494E+02  0.7561462E-02  0.1387888E+00
         -4   -1    0    0    0  501 -0.00000000000E+00  0.00000000000E+00  0.67255668900E+03  0.67255668900E+03  0.00000000000E+00 0.  1.
          4   -1    0    0  501    0  0.00000000000E+00 -0.00000000000E+00 -0.19115046657E+02  0.19115046657E+02  0.00000000000E+00 0. -1.
         25    2    1    2    0    0 -0.19365366124E+02  0.23743273089E+02  0.33452609503E+03  0.35846292402E+03  0.12509675944E+03 0.  0.
         23    2    1    2    0    0  0.19365366124E+02 -0.23743273089E+02  0.31891554732E+03  0.33320881164E+03  0.91554494207E+02 0.  0.
          5    1    3    3  502    0 -0.19777618722E+02  0.25792318501E+02  0.34523075948E+03  0.34678256528E+03  0.41800000000E+01 0.  1.
         -5    1    3    3    0  502  0.41225259782E+00 -0.20490454118E+01 -0.10704664449E+02  0.11680358739E+02  0.41800000000E+01 0.  1.
        -11    1    4    4    0    0  0.51643128666E+02 -0.11524289348E+02  0.25636268888E+03  0.26176640394E+03  0.00000000000E+00 0.  1.
         11    1    4    4    0    0 -0.32277762542E+02 -0.12218983741E+02  0.62552858439E+02  0.71442407695E+02  0.00000000000E+00 0. -1.
</event>
<event>
 8    1  0.6703334E-009  0.1338119E+03  0.7561462E-02  0.1221907E+00
          2   -1    0    0  501    0  0.00000000000E+00  0.00000000000E+00  0.28073248656E+03  0.28073248656E+03  0.00000000000E+00 0. -1.
         -2   -1    0    0    0  501 -0.00000000000E+00 -0.00000000000E+00 -0.64522829639E+02  0.64522829639E+02  0.00000000000E+00 0.  1.
         25    2    1    2    0    0  0.20270896584E+02  0.76237880286E+02  0.13257023321E+03  0.19860401563E+03  0.12508223156E+03 0.  0.
         23    2    1    2    0    0 -0.20270896584E+02 -0.76237880286E+02  0.83639423709E+02  0.14665130056E+03  0.91038053142E+02 0.  0.
          5    1    3    3  502    0 -0.40720013719E+02  0.76443920842E+02  0.75693537815E+02  0.11510333018E+03  0.41800000000E+01 0. -1.
         -5    1    3    3    0  502  0.60990910304E+02 -0.20604055590E+00  0.56876695394E+02  0.83500685454E+02  0.41800000000E+01 0. -1.
        -11    1    4    4    0    0  0.36054376291E+02 -0.29701630178E+02  0.25098545112E+02  0.53028688950E+02  0.00000000000E+00 0.  1.
         11    1    4    4    0    0 -0.56325272875E+02 -0.46536250108E+02  0.58540878596E+02  0.93622611614E+02  0.00000000000E+00 0. -1.
</event>
<event>
 8    1  0.6703334E-009  0.1164816E+03  0.7561462E-02  0.1249017E+00
         -1   -1    0    0    0  501 -0.00000000000E+00  0.00000000000E+00  0.60577404416E+02  0.60577404416E+02  0.00000000000E+00 0.  1.
          1   -1    0    0  501    0  0.00000000000E+00 -0.00000000000E+00 -0.33322247731E+03  0.33322247731E+03  0.00000000000E+00 0. -1.
         25    2    1    2    0    0 -0.49483939524E+02  0.45721013403E+02 -0.20475503919E+03  0.24922079265E+03  0.12508919249E+03 0.  0.
         23    2    1    2    0    0  0.49483939524E+02 -0.45721013403E+02 -0.67890033704E+02  0.14457908908E+03  0.10842040852E+03 0.  0.
          5    1    3    3  502    0 -0.50674078681E+02 -0.22924292812E+02 -0.34465702857E+02  0.65564796381E+02  0.41800000000E+01 0. -1.
         -5    1    3    3    0  502  0.11901391567E+01  0.68645306215E+02 -0.17028933634E+03  0.18365599627E+03  0.41800000000E+01 0. -1.
        -11    1    4    4    0    0 -0.20612962990E+02  0.57974590420E+01  0.13611213287E+02  0.25372621105E+02  0.00000000000E+00 0.  1.
         11    1    4    4    0    0  0.70096902515E+02 -0.51518472445E+02 -0.81501246991E+02  0.11920646797E+03  0.00000000000E+00 0. -1.
</event>
<event>
 8    1  0.6703334E-009  0.7975314E+02  0.7561462E-02  0.1329753E+00
          1   -1    0    0  501    0  0.00000000000E+00  0.00000000000E+00  0.21465772779E+02  0.21465772779E+02  0.00000000000E+00 0. -1.
         -1   -1    0    0    0  501 -0.00000000000E+00 -0.00000000000E+00 -0.62691120621E+03  0.62691120621E+03  0.00000000000E+00 0.  1.
         25    2    1    2    0    0 -0.39894261507E+02 -0.16563651676E+01 -0.30084453693E+03  0.32825038483E+03  0.12508630659E+03 0.  0.
         23    2    1    2    0    0  0.39894261507E+02  0.16563651676E+01 -0.30460089650E+03  0.32012659416E+03  0.90027965039E+02 0.  0.
          5    1    3    3  502    0 -0.49603887056E+02 -0.97527885130E+01 -0.30866687917E+03  0.31280725246E+03  0.41800000000E+01 0.  1.
         -5    1    3    3    0  502  0.97096255487E+01  0.80964233454E+01  0.78223422428E+01  0.15443132372E+02  0.41800000000E+01 0.  1.
        -11    1    4    4    0    0  0.44346126607E+02  0.38273186142E+02 -0.22318746034E+03  0.23074674034E+03  0.00000000000E+00 0.  1.
         11    1    4    4    0    0 -0.44518651001E+01 -0.36616820974E+02 -0.81413436163E+02  0.89379853820E+02  0.00000000000E+00 0. -1.
</event>
<event>
 8    1  0.6703334E-009  0.9403937E+02  0.7561462E-02  0.1293354E+00
          4   -1    0    0  501    0  0.00000000000E+00  0.00000000000E+00  0.14013334225E+03  0.14013334225E+03  0.00000000000E+00 0.  1.
         -4   -1    0    0    0  501 -0.00000000000E+00 -0.00000000000E+00 -0.14884128201E+03  0.14884128201E+03  0.00000000000E+00 0. -1.
         25    2    1    2    0    0 -0.28794144261E+02  0.65038045283E+02 -0.73133663514E+02  0.16141354892E+03  0.12508697358E+03 0.  0.
         23    2    1    2    0    0  0.28794144261E+02 -0.65038045283E+02  0.64425723756E+02  0.12756107534E+03  0.84036325372E+02 0.  0.
          5    1    3    3  502    0 -0.27586668460E+02  0.82626823128E+02 -0.97652528899E+02  0.13092633416E+03  0.41800000000E+01 0.  1.
         -5    1    3    3    0  502 -0.12074758015E+01 -0.17588777845E+02  0.24518865385E+02  0.30487214758E+02  0.41800000000E+01 0.  1.
        -11    1    4    4    0    0 -0.11100279847E+02 -0.17034752287E+02 -0.15917372639E+02  0.25821730188E+02  0.00000000000E+00 0. -1.
         11    1    4    4    0    0  0.39894424109E+02 -0.48003292995E+02  0.80343096395E+02  0.10173934515E+03  0.00000000000E+00 0.  1.
</event>
<event>
 8    1  0.6703334E-009  0.1006038E+03  0.7561462E-02  0.1279031E+00
         -3   -1    0    0    0  501 -0.00000000000E+00  0.00000000000E+00  0.28627143867E+02  0.28627143867E+02  0.00000000000E+00 0.  1.
          3   -1    0    0  501    0  0.00000000000E+00 -0.00000000000E+00 -0.82192748340E+03  0.82192748340E+03  0.00000000000E+00 0. -1.
         25    2    1    2    0    0  0.52619770395E+02 -0.76079358279E+02 -0.27178178660E+03  0.31316118352E+03  0.12509068050E+03 0.  0.
         23    2    1    2    0    0 -0.52619770395E+02  0.76079358279E+02 -0.52151855294E+03  0.53739344375E+03  0.90847142670E+02 0.  0.
          5    1    3    3  502    0  0.33623337052E+02 -0.28617543097E+02 -0.25553729639E+03  0.25935742676E+03  0.41800000000E+01 0.  1.
         -5    1    3    3    0  502  0.18996433343E+02 -0.47461815182E+02 -0.16244490208E+02  0.53803756767E+02  0.41800000000E+01 0.  1.
        -11    1    4    4    0    0 -0.18763796159E+02 -0.34954651691E+01 -0.17133392629E+02  0.25648615285E+02  0.00000000000E+00 0.  1.
         11    1    4    4    0    0 -0.33855974236E+02  0.79574823448E+02 -0.50438516031E+03  0.51174482846E+03  0.00000000000E+00 0. -1.
</event>
<event>
 8    1  0.6703334E-009  0.7196012E+02  0.7561462E-02  0.1353552E+00
          1   -1    0    0  501    0  0.00000000000E+00  0.00000000000E+00  0.16570835881E+03  0.16570835881E+03  0.00000000000E+00 0. -1.
         -1   -1    0    0    0  501 -0.00000000000E+00 -0.00000000000E+00 -0.90398178232E+02  0.90398178232E+02  0.00000000000E+00 0.  1.
         25    2    1    2    0    0 -0.40662142812E+02  0.27672232756E+02  0.86650141877E+01  0.13469578839E+03  0.12509480651E+03 0.  0.
         23    2    1    2    0    0  0.40662142812E+02 -0.27672232756E+02  0.66645166394E+02  0.12141074866E+03  0.88768402948E+02 0.  0.
          5    1    3    3  502    0  0.90467371180E+01 -0.91530001835E+00  0.58047874126E+02  0.58904238533E+02  0.41800000000E+01 0. -1.
         -5    1    3    3    0  502 -0.49708879930E+02  0.28587532775E+02 -0.49382859938E+02  0.75791549857E+02  0.41800000000E+01 0. -1.
        -11    1    4    4    0    0  0.47583597812E+02 -0.40077040220E+02  0.80385617233E+02  0.10164750558E+03  0.00000000000E+00 0. -1.
         11    1    4    4    0    0 -0.69214550004E+01  0.12404807463E+02 -0.13740450838E+02  0.19763243073E+02  0.00000000000E+00 0.  1.
</event>
<event>
 8    1  0.6703334E-009  0.8592781E+02  0.7561462E-02  0.1313024E+00
          1   -1    0    0  501    0  0.00000000000E+00  0.00000000000E+00  0.25934603537E+02  0.25934603537E+02  0.00000000000E+00 0. -1.
         -1   -1    0    0    0  501 -0.00000000000E+00 -0.00000000000E+00 -0.51977952101E+03  0.51977952101E+03  0.00000000000E+00 0.  1.
         25    2    1    2    0    0 -0.23594280155E+02  0.65091396778E+00 -0.19824752444E+03  0.23559473561E+03  0.12508271164E+03 0.  0.
         23    2    1    2    0    0  0.23594280155E+02 -0.65091396778E+00 -0.29559739303E+03  0.31011938894E+03  0.90769504162E+02 0.  0.
          5    1    3    3  502    0 -0.25180976940E+02 -0.34550273015E+02 -0.19532250617E+03  0.19999039172E+03  0.41800000000E+01 0. -1.
         -5    1    3    3    0  502  0.15866967842E+01  0.35201186982E+02 -0.29250182772E+01  0.35604343886E+02  0.41800000000E+01 0. -1.
        -11    1    4    4    0    0  0.51083460998E+02 -0.24836166213E+02 -0.16598964338E+03  0.17543921126E+03  0.00000000000E+00 0. -1.
         11    1    4    4    0    0 -0.27489180842E+02  0.24185252245E+02 -0.12960774965E+03  0.13468017768E+03  0.00000000000E+00 0.  1.
</event>
<event>
 8    1  0.6703334E-009  0.9415337E+02  0.7561462E-02  0.1293094E+00
         -2   -1    0    0    0  501 -0.00000000000E+00  0.00000000000E+00  0.38428476660E+02  0.38428476660E+02  0.00000000000E+00 0.  1.
          2   -1    0    0  501    0  0.00000000000E+00 -0.00000000000E+00 -0.35967273378E+03  0.35967273378E+03  0.00000000000E+00 0. -1.
         25    2    1    2    0    0  0.52093985300E+01 -0.30861097003E+02 -0.23678008703E+03  0.26961446942E+03  0.12509039677E+03 0.  0.
         23    2    1    2    0    0 -0.52093985300E+01  0.30861097003E+02 -0.84464170094E+02  0.12848674103E+03  0.91624786213E+02 0.  0.
          5    1    3    3  502    0 -0.34082166994E+02 -0.65905694781E+02 -0.16008623349E+03  0.17649427544E+03  0.41800000000E+01 0.  1.
         -5    1    3    3    0  502  0.39291565524E+02  0.35044597778E+02 -0.76693853540E+02  0.93120193973E+02  0.41800000000E+01 0.  1.
        -11    1    4    4    0    0  0.23428131598E+02  0.19066437272E+02  0.77717446044E+01  0.31189844414E+02  0.00000000000E+00 0.  1.
         11    1    4    4    0    0 -0.28637530128E+02  0.11794659731E+02 -0.92235914699E+02  0.97296896612E+02  0.00000000000E+00 0. -1.
</event>
<event>
 8    1  0.6703334E-009  0.1204701E+03  0.7561462E-02  0.1242324E+00
          2   -1    0    0  501    0  0.00000000000E+00  0.00000000000E+00  0.12871413333E+04  0.12871413333E+04  0.00000000000E+00 0. -1.
         -2   -1    0    0    0  501 -0.00000000000E+00 -0.00000000000E+00 -0.11629123892E+02  0.11629123892E+02  0.00000000000E+00 0.  1.
         25    2    1    2    0    0  0.11818472482E+02 -0.50787217773E+02  0.80326896849E+03  0.81461997478E+03  0.12508257189E+03 0.  0.
         23    2    1    2    0    0 -0.11818472482E+02  0.50787217773E+02  0.47224324095E+03  0.48415048245E+03  0.93107428534E+02 0.  0.
          5    1    3    3  502    0  0.67763281984E+02 -0.18056315864E+02  0.38964860909E+03  0.39593105952E+03  0.41800000000E+01 0.  1.
         -5    1    3    3    0  502 -0.55944809503E+02 -0.32730901909E+02  0.41362035940E+03  0.41868891526E+03  0.41800000000E+01 0.  1.
        -11    1    4    4    0    0  0.62643886136E+01 -0.26054264828E+02  0.15032218856E+03  0.15269193710E+03  0.00000000000E+00 0. -1.
         11    1    4    4    0    0 -0.18082861095E+02  0.76841482601E+02  0.32192105239E+03  0.33145854535E+03  0.00000000000E+00 0.  1.
</event>
<event>
 8    1  0.6703334E-009  0.1733867E+03  0.7561462E-02  0.1174361E+00
          3   -1    0    0  501    0  0.00000000000E+00  0.00000000000E+00  0.56397380802E+02  0.56397380802E+02  0.00000000000E+00 0. -1.
         -3   -1    0    0    0  501 -0.00000000000E+00 -0.00000000000E+00 -0.63188587047E+03  0.63188587047E+03  0.00000000000E+00 0.  1.
         25    2    1    2    0    0 -0.10704174638E+03 -0.99963475589E+02 -0.21908695011E+03  0.29171524850E+03  0.12509221630E+03 0.  0.
         23    2    1    2    0    0  0.10704174638E+03  0.99963475589E+02 -0.35640153956E+03  0.39656800277E+03  0.93773618383E+02 0.  0.
          5    1    3    3  502    0 -0.67793488842E+02 -0.12716038150E+03 -0.17334673254E+03  0.22546015576E+03  0.41800000000E+01 0.  1.
         -5    1    3    3    0  502 -0.39248257535E+02  0.27196905910E+02 -0.45740217571E+02  0.66255092741E+02  0.41800000000E+01 0.  1.
        -11    1    4    4    0    0  0.26811523951E+02  0.58531328778E+02 -0.24420460763E+03  0.25254834122E+03  0.00000000000E+00 0.  1.
         11    1    4    4    0    0  0.80230222427E+02  0.41432146811E+02 -0.11219693193E+03  0.14401966155E+03  0.00000000000E+00 0. -1.
</event>
<event>
 8    1  0.6703334E-009  0.1085501E+03  0.7561462E-02  0.1263279E+00
          1   -1    0    0  501    0  0.00000000000E+00  0.00000000000E+00  0.34248459522E+02  0.34248459522E+02  0.00000000000E+00 0. -1.
         -1   -1    0    0    0  501 -0.00000000000E+00 -0.00000000000E+00 -0.96045189177E+03  0.96045189177E+03  0.00000000000E+00 0.  1.
         25    2    1    2    0    0  0.61445676677E+02  0.62787363243E+02 -0.80535623101E+03  0.81973412177E+03  0.12509015708E+03 0.  0.
         23    2    1    2    0    0 -0.61445676677E+02 -0.62787363243E+02 -0.12084720124E+03  0.17496622953E+03  0.91056637662E+02 0.  0.
          5    1    3    3  502    0  0.26576547291E+02  0.48173108559E+02 -0.75299955026E+03  0.75501838146E+03  0.41800000000E+01 0. -1.
         -5    1    3    3    0  502  0.34869129386E+02  0.14614254684E+02 -0.52356680749E+02  0.64715740304E+02  0.41800000000E+01 0. -1.
        -11    1    4    4    0    0 -0.33432710687E+02  0.18287574509E+02 -0.21660937337E+02  0.43833522921E+02  0.00000000000E+00 0.  1.
         11    1    4    4    0    0 -0.28012965990E+02 -0.81074937752E+02 -0.99186263907E+02  0.13113270661E+03  0.00000000000E+00 0. -1.
</event>
<event>
 8    1  0.6703334E-009  0.1084736E+03  0.7561462E-02  0.1263423E+00
          4   -1    0    0  501    0  0.00000000000E+00  0.00000000000E+00  0.15150553194E+03  0.15150553194E+03  0.00000000000E+00 0. -1.
         -4   -1    0    0    0  501 -0.00000000000E+00 -0.00000000000E+00 -0.11547665694E+03  0.11547665694E+03  0.00000000000E+00 0.  1.
         25    2    1    2    0    0 -0.12443743812E+02 -0.73278334709E+02  0.38279992677E+02  0.15045707928E+03  0.12508962295E+03 0.  0.
         23    2    1    2    0    0  0.12443743812E+02  0.73278334709E+02 -0.22511176748E+01  0.11652510959E+03  0.89713279600E+02 0.  0.
          5    1    3    3  502    0  0.22095701817E+02 -0.97571682954E+02  0.12756692028E+02  0.10093888718E+03  0.41800000000E+01 0. -1.
         -5    1    3    3    0  502 -0.34539445629E+02  0.24293348246E+02  0.25523300649E+02  0.49518192105E+02  0.41800000000E+01 0. -1.
        -11    1    4    4    0    0  0.31595005724E+01  0.26950040390E+02  0.43166636869E+02  0.50986720422E+02  0.00000000000E+00 0. -1.
         11    1    4    4    0    0  0.92842432393E+01  0.46328294319E+02 -0.45417754543E+02  0.65538389168E+02  0.00000000000E+00 0.  1.
</event>
<event>
 8    1  0.6703334E-009  0.9097321E+02  0.7561462E-02  0.1300512E+00
         -1   -1    0    0    0  501 -0.00000000000E+00  0.00000000000E+00  0.95530329983E+02  0.95530329983E+02  0.00000000000E+00 0.  1.
          1   -1    0    0  501    0  0.00000000000E+00 -0.00000000000E+00 -0.17785382438E+03  0.17785382438E+03  0.00000000000E+00 0. -1.
         25    2    1    2    0    0 -0.22654985292E+02 -0.68397960325E+02 -0.53684859434E+02  0.15401552987E+03  0.12508872840E+03 0.  0.
         23    2    1    2    0    0  0.22654985292E+02  0.68397960325E+02 -0.28638634968E+02  0.11936862450E+03  0.90758844013E+02 0.  0.
          5    1    3    3  502    0 -0.48916514827E+02 -0.56304448356E+02  0.17798186626E+02  0.76793646708E+02  0.41800000000E+01 0.  1.
         -5    1    3    3    0  502  0.26261529535E+02 -0.12093511969E+02 -0.71483046060E+02  0.77221883163E+02  0.41800000000E+01 0.  1.
        -11    1    4    4    0    0 -0.72501229947E+01  0.18330048565E+02  0.30497502702E+02  0.36313257013E+02  0.00000000000E+00 0.  1.
         11    1    4    4    0    0  0.29905108287E+02  0.50067911760E+02 -0.59136137669E+02  0.83055367485E+02  0.00000000000E+00 0. -1.
</event>
<event>
 8    1  0.6703334E-009  0.1572097E+03  0.7561462E-02  0.1191883E+00
          2   -1    0    0  501    0  0.00000000000E+00  0.00000000000E+00  0.84549302531E+03  0.84549302531E+03  0.00000000000E+00 0. -1.
         -2   -1    0    0    0  501 -0.00000000000E+00 -0.00000000000E+00 -0.33439251086E+02  0.33439251086E+02  0.00000000000E+00 0.  1.
         25    2    1    2    0    0  0.10751541135E+03  0.72038754288E+02  0.43680200318E+03  0.47243275998E+03  0.12509027507E+03 0.  0.
         23    2    1    2    0    0 -0.10751541135E+03 -0.72038754288E+02  0.37525177104E+03  0.40649951642E+03  0.87628872989E+02 0.  0.
          5    1    3    3  502    0 -0.84164686165E+01  0.36681362240E+02  0.31125539361E+02  0.49016638810E+02  0.41800000000E+01 0.  1.
         -5    1    3    3    0  502  0.11593187997E+03  0.35357392048E+02  0.40567646382E+03  0.42341612117E+03  0.41800000000E+01 0.  1.
        -11    1    4    4    0    0 -0.46313933580E+02  0.15171411174E+02  0.14018740379E+03  0.14841718344E+03  0.00000000000E+00 0.  1.
         11    1    4    4    0    0 -0.61201477770E+02 -0.87210165462E+02  0.23506436725E+03  0.25808233297E+03  0.00000000000E+00 0. -1.
</event>
<event>
 8    1  0.6703334E-009  0.1397796E+03  0.7561462E-02  0.1213626E+00
         -2   -1    0    0    0  501 -0.00000000000E+00  0.00000000000E+00  0.41418512906E+02  0.41418512906E+02  0.00000000000E+00 0.  1.
          2   -1    0    0  501    0  0.00000000000E+00 -0.00000000000E+00 -0.74194849242E+03  0.74194849242E+03  0.00000000000E+00 0. -1.
         25    2    1    2    0    0 -0.10766407198E+03  0.72434138981E+02 -0.28013613802E+03  0.33311102618E+03  0.12509373707E+03 0.  0.
         23    2    1    2    0    0  0.10766407198E+03 -0.72434138981E+02 -0.42039384149E+03  0.45025597914E+03  0.95714199066E+02 0.  0.
          5    1    3    3  502    0 -0.11660321764E+03  0.53993234553E+02 -0.28408833111E+03  0.31182564361E+03  0.41800000000E+01 0.  1.
         -5    1    3    3    0  502  0.89391456553E+01  0.18440904428E+02  0.39521930870E+01  0.21285382575E+02  0.41800000000E+01 0.  1.
        -11    1    4    4    0    0  0.83162299494E+02 -0.51228141534E+02 -0.40048639519E+03  0.41222523367E+03  0.00000000000E+00 0. -1.
         11    1    4    4    0    0  0.24501772486E+02 -0.21205997447E+02 -0.19907446298E+02  0.38030745467E+02  0.00000000000E+00 0.  1.
</event>
<event>
 8    1  0.6703334E-009  0.1086198E+03  0.7561462E-02  0.1263147E+00
          1   -1    0    0  501    0  0.00000000000E+00  0.00000000000E+00  0.25431953100E+02  0.25431953100E+02  0.00000000000E+00 0.  1.
         -1   -1    0    0    0  501 -0.00000000000E+00 -0.00000000000E+00 -0.55285496978E+03  0.55285496978E+03  0.00000000000E+00 0. -1.
         25    2    1    2    0    0  0.16990338375E+02 -0.29792387541E+02 -0.22005441944E+03  0.25543544323E+03  0.12508820964E+03 0.  0.
         23    2    1    2    0    0 -0.16990338375E+02  0.29792387541E+02 -0.30736859724E+03  0.32285147965E+03  0.92635659379E+02 0.  0.
          5    1    3    3  502    0 -0.53960774842E+02 -0.11246134315E+02 -0.11017866398E+03  0.12326820821E+03  0.41800000000E+01 0.  1.
         -5    1    3    3    0  502  0.70951113217E+02 -0.18546253226E+02 -0.10987575546E+03  0.13216723502E+03  0.41800000000E+01 0.  1.
        -11    1    4    4    0    0 -0.36618750304E+02 -0.15023765597E+02 -0.69295125971E+02  0.79802637111E+02  0.00000000000E+00 0.  1.
         11    1    4    4    0    0  0.19628411929E+02  0.44816153138E+02 -0.23807347127E+03  0.24304884253E+03  0.00000000000E+00 0. -1.
</event>
<event>
 8    1  0.6703334E-009  0.1728174E+03  0.7561462E-02  0.1174941E+00
         -1   -1    0    0    0  501 -0.00000000000E+00  0.00000000000E+00  0.80327422053E+02  0.80327422053E+02  0.00000000000E+00 0.  1.
          1   -1    0    0  501    0  0.00000000000E+00 -0.00000000000E+00 -0.47299363819E+03  0.47299363819E+03  0.00000000000E+00 0. -1.
         25    2    1    2    0    0 -0.15823231320E+03 -0.24959135713E+02 -0.17321836623E+03  0.26704755897E+03  0.12509745384E+03 0.  0.
         23    2    1    2    0    0  0.15823231320E+03  0.24959135713E+02 -0.21944784991E+03  0.28627350127E+03  0.90192767471E+02 0.  0.
          5    1    3    3  502    0 -0.10548748223E+03 -0.26594290032E+02 -0.18326911891E+03  0.21316638459E+03  0.41800000000E+01 0.  1.
         -5    1    3    3    0  502 -0.52744830969E+02  0.16351543192E+01  0.10050752683E+02  0.53881174385E+02  0.41800000000E+01 0.  1.
        -11    1    4    4    0    0  0.34541576197E+02 -0.32516364170E+02 -0.57421890875E+02  0.74482937487E+02  0.00000000000E+00 0. -1.
         11    1    4    4    0    0  0.12369073700E+03  0.57475499883E+02 -0.16202595903E+03  0.21179056378E+03  0.00000000000E+00 0.  1.
</event>
<event>
 8    1  0.6703334E-009  0.2463820E+03  0.7561462E-02  0.1115613E+00
          2   -1    0    0  501    0  0.00000000000E+00  0.00000000000E+00  0.75223824703E+03  0.75223824703E+03  0.00000000000E+00 0. -1.
         -2   -1    0    0    0  501 -0.00000000000E+00 -0.00000000000E+00 -0.90826905131E+02  0.90826905131E+02  0.00000000000E+00 0.  1.
         25    2    1    2    0    0 -0.22805478361E+03  0.48745908769E+02  0.26400102148E+03  0.37380473305E+03  0.12509312993E+03 0.  0.
         23    2    1    2    0    0  0.22805478361E+03 -0.48745908769E+02  0.39741032041E+03  0.46926041911E+03  0.88798818815E+02 0.  0.
          5    1    3    3  502    0 -0.55248764009E+02 -0.26473625685E+02  0.18217528067E+02  0.64051772109E+02  0.41800000000E+01 0. -1.
         -5    1    3    3    0  502 -0.17280601960E+03  0.75219534454E+02  0.24578349342E+03  0.30975296094E+03  0.41800000000E+01 0. -1.
        -11    1    4    4    0    0  0.90359832401E+02  0.14155649721E+02  0.20468296469E+03  0.22418830871E+03  0.00000000000E+00 0.  1.
         11    1    4    4    0    0  0.13769495121E+03 -0.62901558491E+02  0.19272735573E+03  0.24507211040E+03  0.00000000000E+00 0. -1.
</event>
<event>
 8    1  0.6703334E-009  0.4019828E+03  0.7561462E-02  0.1043095E+00
         -2   -1    0    0    0  501 -0.00000000000E+00  0.00000000000E+00  0.66284620036E+02  0.66284620036E+02  0.00000000000E+00 0.  1.
          2   -1    0    0  501    0  0.00000000000E+00 -0.00000000000E+00 -0.26499941380E+04  0.26499941380E+04  0.00000000000E+00 0. -1.
         25    2    1    2    0    0 -0.39597219131E+03 -0.46323385285E+02 -0.10832552430E+04  0.11610466438E+04  0.12509018858E+03 0.  0.
         23    2    1    2    0    0  0.39597219131E+03  0.46323385285E+02 -0.15004542749E+04  0.15552321142E+04  0.91891596859E+02 0.  0.
          5    1    3    3  502    0 -0.30932649026E+03 -0.65751330922E+02 -0.94647562287E+03  0.99791767806E+03  0.41800000000E+01 0. -1.
         -5    1    3    3    0  502 -0.86645701053E+02  0.19427945637E+02 -0.13677962017E+03  0.16312896578E+03  0.41800000000E+01 0. -1.
        -11    1    4    4    0    0  0.11603452910E+03  0.18292407980E+02 -0.29828421067E+03  0.32058087040E+03  0.00000000000E+00 0. -1.
         11    1    4    4    0    0  0.27993766221E+03  0.28030977305E+02 -0.12021700642E+04  0.12346512438E+04  0.00000000000E+00 0.  1.
</event>
<event>
 8    1  0.6703334E-009  0.1194623E+03  0.7561462E-02  0.1243987E+00
          2   -1    0    0  501    0  0.00000000000E+00  0.00000000000E+00  0.16552576466E+04  0.16552576466E+04  0.00000000000E+00 0. -1.
         -2   -1    0    0    0  501 -0.00000000000E+00 -0.00000000000E+00 -0.16170777459E+02  0.16170777459E+02  0.00000000000E+00 0.  1.
         25    2    1    2    0    0  0.96220340987E+02  0.44060563512E+02  0.11620607392E+04  0.11735556506E+04  0.12509203132E+03 0.  0.
         23    2    1    2    0    0 -0.96220340987E+02 -0.44060563512E+02  0.47702612994E+03  0.49787277341E+03  0.95517969942E+02 0.  0.
          5    1    3    3  502    0  0.54553921279E+02  0.65364355629E+02  0.35354319405E+03  0.36367415605E+03  0.41800000000E+01 0.  1.
         -5    1    3    3    0  502  0.41666419708E+02 -0.21303792117E+02  0.80851754513E+03  0.80988149458E+03  0.41800000000E+01 0.  1.
        -11    1    4    4    0    0 -0.83087716183E+02 -0.42918554068E+02  0.47549261377E+03  0.48460168862E+03  0.00000000000E+00 0. -1.
         11    1    4    4    0    0 -0.13132624804E+02 -0.11420094436E+01  0.15335161761E+01  0.13271084797E+02  0.00000000000E+00 0.  1.
</event>
<event>
 8    1  0.6703334E-009  0.1212901E+03  0.7561462E-02  0.1240984E+00
         -2   -1    0    0    0  501 -0.00000000000E+00  0.00000000000E+00  0.17720758912E+03  0.17720758912E+03  0.00000000000E+00 0.  1.
          2   -1    0    0  501    0  0.00000000000E+00 -0.00000000000E+00 -0.18813469665E+03  0.18813469665E+03  0.00000000000E+00 0. -1.
         25    2    1    2    0    0  0.22196761544E+02  0.53084678584E+02 -0.13119715791E+03  0.19017872625E+03  0.12507827290E+03 0.  0.
         23    2    1    2    0    0 -0.22196761544E+02 -0.53084678584E+02  0.12027005038E+03  0.17516355952E+03  0.11360769447E+03 0.  0.
          5    1    3    3  502    0  0.70131830181E+02  0.13902381366E+02 -0.92743288380E+02  0.11717738584E+03  0.41800000000E+01 0.  1.
         -5    1    3    3    0  502 -0.47935068637E+02  0.39182297218E+02 -0.38453869528E+02  0.73001340414E+02  0.41800000000E+01 0.  1.
        -11    1    4    4    0    0 -0.28846460221E+01  0.26682270899E+02 -0.30705878577E+01  0.27012835335E+02  0.00000000000E+00 0. -1.
         11    1    4    4    0    0 -0.19312115522E+02 -0.79766949484E+02  0.12334063824E+03  0.14815072419E+03  0.00000000000E+00 0.  1.
</event>
<event>
 8    1  0.6703334E-009  0.1103192E+03  0.7561462E-02  0.1259980E+00
          2   -1    0    0  501    0  0.00000000000E+00  0.00000000000E+00  0.55313845286E+02  0.55313845286E+02  0.00000000000E+00 0. -1.
         -2   -1    0    0    0  501 -0.00000000000E+00 -0.00000000000E+00 -0.27937801110E+03  0.27937801110E+03  0.00000000000E+00 0.  1.
         25    2    1    2    0    0 -0.13322635082E+02 -0.57340097865E+02 -0.14396751625E+03  0.19959645639E+03  0.12508685078E+03 0.  0.
         23    2    1    2    0    0  0.13322635082E+02  0.57340097865E+02 -0.80096649564E+02  0.13509540000E+03  0.91487236272E+02 0.  0.
          5    1    3    3  502    0  0.30999734363E+02 -0.59708323131E+02 -0.23897005906E+02  0.71516478332E+02  0.41800000000E+01 0. -1.
         -5    1    3    3    0  502 -0.44322369445E+02  0.23682252659E+01 -0.12007051034E+03  0.12807997805E+03  0.41800000000E+01 0. -1.
        -11    1    4    4    0    0  0.38823879020E+02  0.70101654434E+02 -0.56015712417E+02  0.97771650156E+02  0.00000000000E+00 0. -1.
         11    1    4    4    0    0 -0.25501243938E+02 -0.12761556569E+02 -0.24080937147E+02  0.37323749843E+02  0.00000000000E+00 0.  1.
</event>
<event>
 8    1  0.6703334E-009  0.1788737E+03  0.7561462E-02  0.1168898E+00
          2   -1    0    0  501    0  0.00000000000E+00  0.00000000000E+00  0.12188171682E+04  0.12188171682E+04  0.00000000000E+00 0. -1.
         -2   -1    0    0    0  501 -0.00000000000E+00 -0.00000000000E+00 -0.31775231427E+02  0.31775231427E+02  0.00000000000E+00 0.  1.
         25    2    1    2    0    0 -0.16959212500E+02  0.15929223390E+03  0.51593159692E+03  0.55452145996E+03  0.12508799376E+03 0.  0.
         23    2    1    2    0    0  0.16959212500E+02 -0.15929223390E+03  0.67111033981E+03  0.69607093963E+03  0.92000185451E+02 0.  0.
          5    1    3    3  502    0  0.19118790353E+02  0.13884861129E+03  0.26172294173E+03  0.29691890413E+03  0.41800000000E+01 0.  1.
         -5    1    3    3    0  502 -0.36078002854E+02  0.20443622606E+02  0.25420865519E+03  0.25760255582E+03  0.41800000000E+01 0.  1.
        -11    1    4    4    0    0  0.42384446795E+02 -0.13158927714E+03  0.59899141853E+03  0.61473807321E+03  0.00000000000E+00 0. -1.
         11    1    4    4    0    0 -0.25425234295E+02 -0.27702956755E+02  0.72118921285E+02  0.81332866415E+02  0.00000000000E+00 0.  1.
</event>
<event>
 8    1  0.6703334E-009  0.1199127E+03  0.7561462E-02  0.1243241E+00
          2   -1    0    0  501    0  0.00000000000E+00  0.00000000000E+00  0.12651467292E+04  0.12651467292E+04  0.00000000000E+00 0.  1.
         -2   -1    0    0    0  501 -0.00000000000E+00 -0.00000000000E+00 -0.16086331811E+02  0.16086331811E+02  0.00000000000E+00 0. -1.
         25    2    1    2    0    0 -0.51048029206E+02  0.77008786532E+02  0.72399851380E+03  0.74051169276E+03  0.12508982632E+03 0.  0.
         23    2    1    2    0    0  0.51048029206E+02 -0.77008786532E+02  0.52506188363E+03  0.54072136829E+03  0.90295968854E+02 0.  0.
          5    1    3    3  502    0 -0.64937556691E+02  0.12780034448E+02  0.16779419153E+03  0.18042333181E+03  0.41800000000E+01 0. -1.
         -5    1    3    3    0  502  0.13889527485E+02  0.64228752083E+02  0.55620432226E+03  0.56008836095E+03  0.41800000000E+01 0. -1.
        -11    1    4    4    0    0  0.26463135768E+02 -0.78691282468E+02  0.49469846561E+03  0.50161657405E+03  0.00000000000E+00 0.  1.
         11    1    4    4    0    0  0.24584893438E+02  0.16824959367E+01  0.30363418022E+02  0.39104794232E+02  0.00000000000E+00 0. -1.
</event>
<event>
 8    1  0.6703334E-009  0.1146212E+03  0.7561462E-02  0.1252244E+00
         -2   -1    0    0    0  501 -0.00000000000E+00  0.00000000000E+00  0.37786471033E+02  0.37786471033E+02  0.00000000000E+00 0.  1.
          2   -1    0    0  501    0  0.00000000000E+00 -0.00000000000E+00 -0.79375768457E+03  0.79375768457E+03  0.00000000000E+00 0. -1.
         25    2    1    2    0    0  0.98018114726E+01 -0.45993962580E+02 -0.71335657642E+03  0.72576633206E+03  0.12509054131E+03 0.  0.
         23    2    1    2    0    0 -0.98018114726E+01  0.45993962580E+02 -0.42614637122E+02  0.10577782355E+03  0.84625176844E+02 0.  0.
          5    1    3    3  502    0 -0.39399328870E+02 -0.68522301667E+02 -0.44300434101E+03  0.45001992345E+03  0.41800000000E+01 0. -1.
         -5    1    3    3    0  502  0.49201140343E+02  0.22528339088E+02 -0.27035223541E+03  0.27574640861E+03  0.41800000000E+01 0. -1.
        -11    1    4    4    0    0 -0.43799001373E+02  0.74634096637E+01 -0.27349938898E+02  0.52173500580E+02  0.00000000000E+00 0. -1.
         11    1    4    4    0    0  0.33997189900E+02  0.38530552916E+02 -0.15264698224E+02  0.53604322969E+02  0.00000000000E+00 0.  1.
</event>
<event>
 8    1  0.6703334E-009  0.1089296E+03  0.7561462E-02  0.1262565E+00
         -2   -1    0    0    0  501 -0.00000000000E+00  0.00000000000E+00  0.14684603897E+02  0.14684603897E+02  0.00000000000E+00 0. -1.
          2   -1    0    0  501    0  0.00000000000E+00 -0.00000000000E+00 -0.12372991654E+04  0.12372991654E+04  0.00000000000E+00 0.  1.
         25    2    1    2    0    0  0.22343006409E+02  0.28110298082E+02 -0.10061694526E+04  0.10145508858E+04  0.12508850310E+03 0.  0.
         23    2    1    2    0    0 -0.22343006409E+02 -0.28110298082E+02 -0.21644510887E+03  0.23743288353E+03  0.90755111332E+02 0.  0.
          5    1    3    3  502    0  0.69992161977E+02  0.10310365736E+02 -0.39942054513E+03  0.40565927902E+03  0.41800000000E+01 0.  1.
         -5    1    3    3    0  502 -0.47649155569E+02  0.17799932347E+02 -0.60674890750E+03  0.60889160675E+03  0.41800000000E+01 0.  1.
        -11    1    4    4    0    0 -0.12093488554E+02 -0.60645802844E+02 -0.15928423936E+03  0.17086730166E+03  0.00000000000E+00 0.  1.
         11    1    4    4    0    0 -0.10249517855E+02  0.32535504762E+02 -0.57160869517E+02  0.66565581875E+02  0.00000000000E+00 0. -1.
</event>
<event>
 8    1  0.6703334E-009  0.1589636E+03  0.7561462E-02  0.1189872E+00
         -4   -1    0    0    0  501 -0.00000000000E+00  0.00000000000E+00  0.74937654718E+02  0.74937654718E+02  0.00000000000E+00 0.  1.
          4   -1    0    0  501    0  0.00000000000E+00 -0.00000000000E+00 -0.38605633794E+03  0.38605633794E+03  0.00000000000E+00 0. -1.
         25    2    1    2    0    0 -0.83604757707E+02 -0.91317333870E+02 -0.23849042636E+03  0.29640173656E+03  0.12509074705E+03 0.  0.
         23    2    1    2    0    0  0.83604757707E+02  0.91317333870E+02 -0.72628256859E+02  0.16459225609E+03  0.80542759413E+02 0.  0.
          5    1    3    3  502    0 -0.56253322243E+02 -0.12216497216E+03 -0.18158727359E+03  0.22600913038E+03  0.41800000000E+01 0. -1.
         -5    1    3    3    0  502 -0.27351435464E+02  0.30847638291E+02 -0.56903152770E+02  0.70392606183E+02  0.41800000000E+01 0. -1.
        -11    1    4    4    0    0  0.42688601155E+02  0.91549070551E+02 -0.71322614868E+02  0.12365461730E+03  0.00000000000E+00 0. -1.
         11    1    4    4    0    0  0.40916156552E+02 -0.23173668120E+00 -0.13056419912E+01  0.40937638792E+02  0.00000000000E+00 0.  1.
</event>
<event>
 8    1  0.6703334E-009  0.1562823E+03  0.7561462E-02  0.1192959E+00
          2   -1    0    0  501    0  0.00000000000E+00  0.00000000000E+00  0.59182800478E+02  0.59182800478E+02  0.00000000000E+00 0. -1.
         -2   -1    0    0    0  501 -0.00000000000E+00 -0.00000000000E+00 -0.86284754408E+03  0.86284754408E+03  0.00000000000E+00 0.  1.
         25    2    1    2    0    0  0.30822856162E+02  0.13375331737E+03 -0.12477135341E+03  0.22372470068E+03  0.12507938555E+03 0.  0.
         23    2    1    2    0    0 -0.30822856162E+02 -0.13375331737E+03 -0.67889339019E+03  0.69830564388E+03  0.88851216436E+02 0.  0.
          5    1    3    3  502    0  0.48982952929E+02  0.63296844636E+02 -0.10718460866E+01  0.80152613635E+02  0.41800000000E+01 0.  1.
         -5    1    3    3    0  502 -0.18160096767E+02  0.70456472736E+02 -0.12369950733E+03  0.14357208704E+03  0.41800000000E+01 0.  1.
        -11    1    4    4    0    0  0.18727368519E+02 -0.94466281048E+02 -0.33156966695E+03  0.34527240931E+03  0.00000000000E+00 0.  1.
         11    1    4    4    0    0 -0.49550224681E+02 -0.39287036324E+02 -0.34732372324E+03  0.35303323457E+03  0.00000000000E+00 0. -1.
</event>
<event>
 8    1  0.6703334E-009  0.7455128E+02  0.7561462E-02  0.1345266E+00
         -1   -1    0    0    0  501 -0.00000000000E+00  0.00000000000E+00  0.50535131940E+02  0.50535131940E+02  0.00000000000E+00 0.  1.
          1   -1    0    0  501    0  0.00000000000E+00 -0.00000000000E+00 -0.24451874648E+03  0.24451874648E+03  0.00000000000E+00 0. -1.
         25    2    1    2    0    0 -0.16125162983E+02  0.34624127289E+01 -0.14739287258E+03  0.19402203561E+03  0.12509149543E+03 0.  0.
         23    2    1    2    0    0  0.16125162983E+02 -0.34624127289E+01 -0.46590741961E+02  0.10103184282E+03  0.88117687459E+02 0.  0.
          5    1    3    3  502    0  0.31054759692E+02  0.46458601427E+02 -0.39392586360E+02  0.68498525577E+02  0.41800000000E+01 0. -1.
         -5    1    3    3    0  502 -0.47179922675E+02 -0.42996188699E+02 -0.10800028622E+03  0.12552351003E+03  0.41800000000E+01 0. -1.
        -11    1    4    4    0    0  0.75579828515E+01  0.10365415411E+02 -0.70751698933E+02  0.71905269927E+02  0.00000000000E+00 0. -1.
         11    1    4    4    0    0  0.85671801312E+01 -0.13827828140E+02  0.24160956972E+02  0.29126572889E+02  0.00000000000E+00 0.  1.
</event>
<event>
 8    1  0.6703334E-009  0.1145690E+03  0.7561462E-02  0.1252335E+00
          3   -1    0    0  501    0  0.00000000000E+00  0.00000000000E+00  0.33559376179E+02  0.33559376179E+02  0.00000000000E+00 0. -1.
         -3   -1    0    0    0  501 -0.00000000000E+00 -0.00000000000E+00 -0.60692990496E+03  0.60692990496E+03  0.00000000000E+00 0.  1.
         25    2    1    2    0    0 -0.45090239587E+02 -0.82144617050E+02 -0.30917865576E+03  0.34643908386E+03  0.12509088631E+03 0.  0.
         23    2    1    2    0    0  0.45090239587E+02  0.82144617050E+02 -0.26419187302E+03  0.29405019727E+03  0.88810500099E+02 0.  0.
          5    1    3    3  502    0 -0.24390450557E+02 -0.88177195538E+02 -0.31118809533E+03  0.32438497956E+03  0.41800000000E+01 0.  1.
         -5    1    3    3    0  502 -0.20699789030E+02  0.60325784876E+01  0.20094395747E+01  0.22054104300E+02  0.41800000000E+01 0.  1.
        -11    1    4    4    0    0 -0.15147703671E+02  0.38006968345E+02 -0.16437272140E+03  0.16938823486E+03  0.00000000000E+00 0.  1.
         11    1    4    4    0    0  0.60237943258E+02  0.44137648705E+02 -0.99819151624E+02  0.12466196241E+03  0.00000000000E+00 0. -1.
</event>
<event>
 8    1  0.6703334E-009  0.1648437E+03  0.7561462E-02  0.1183334E+00
         -1   -1    0    0    0  501 -0.00000000000E+00  0.00000000000E+00  0.18623727011E+03  0.18623727011E+03  0.00000000000E+00 0.  1.
          1   -1    0    0  501    0  0.00000000000E+00 -0.00000000000E+00 -0.15252919420E+03  0.15252919420E+03  0.00000000000E+00 0. -1.
         25    2    1    2    0    0  0.13056240908E+02 -0.12408190367E+03 -0.86057468748E+01  0.17688883054E+03  0.12509522471E+03 0.  0.
         23    2    1    2    0    0 -0.13056240908E+02  0.12408190367E+03  0.42313822784E+02  0.16187763378E+03  0.94059154123E+02 0.  0.
          5    1    3    3  502    0 -0.54848258893E+02 -0.62114052800E+02 -0.16255123480E+02  0.84546960313E+02  0.41800000000E+01 0. -1.
         -5    1    3    3    0  502  0.67904499801E+02 -0.61967850869E+02  0.76493766050E+01  0.92341870227E+02  0.41800000000E+01 0. -1.
        -11    1    4    4    0    0 -0.36002580956E+02  0.86825700908E+01  0.20109527596E+02  0.42142211131E+02  0.00000000000E+00 0.  1.
         11    1    4    4    0    0  0.22946340048E+02  0.11539933358E+03  0.22204295188E+02  0.11973542265E+03  0.00000000000E+00 0. -1.
</event>
<event>
 8    1  0.6703334E-009  0.1461510E+03  0.7561462E-02  0.1205284E+00
          3   -1    0    0  501    0  0.00000000000E+00  0.00000000000E+00  0.43923131858E+02  0.43923131858E+02  0.00000000000E+00 0. -1.
         -3   -1    0    0    0  501 -0.00000000000E+00 -0.00000000000E+00 -0.67449655508E+03  0.67449655508E+03  0.00000000000E+00 0.  1.
         25    2    1    2    0    0 -0.13606845300E+03 -0.29263694478E+01 -0.33832940345E+03  0.38553588105E+03  0.12509173752E+03 0.  0.
         23    2    1    2    0    0  0.13606845300E+03  0.29263694478E+01 -0.29224401978E+03  0.33288380590E+03  0.82957058713E+02 0.  0.
          5    1    3    3  502    0 -0.62495561939E+02  0.62421881071E+01 -0.29041911663E+03  0.29716223831E+03  0.41800000000E+01 0. -1.
         -5    1    3    3    0  502 -0.73572891065E+02 -0.91685575550E+01 -0.47910286818E+02  0.88373642735E+02  0.41800000000E+01 0. -1.
        -11    1    4    4    0    0 -0.38071413465E+01  0.14263232921E+02 -0.57734321216E+02  0.59591828172E+02  0.00000000000E+00 0.  1.
         11    1    4    4    0    0  0.13987559435E+03 -0.11336863473E+02 -0.23450969856E+03  0.27329197772E+03  0.00000000000E+00 0. -1.
</event>
<event>
 8    1  0.6703334E-009  0.1684136E+03  0.7561462E-02  0.1179512E+00
         -1   -1    0    0    0  501 -0.00000000000E+00  0.00000000000E+00  0.13779220873E+03  0.13779220873E+03  0.00000000000E+00 0.  1.
          1   -1    0    0  501    0  0.00000000000E+00 -0.00000000000E+00 -0.28462742671E+03  0.28462742671E+03  0.00000000000E+00 0. -1.
         25    2    1    2    0    0 -0.63624507912E+02 -0.12039989826E+03  0.22408268971E+02  0.18626606766E+03  0.12509477980E+03 0.  0.
         23    2    1    2    0    0  0.63624507912E+02  0.12039989826E+03 -0.16924348695E+03  0.23615356778E+03  0.92633342777E+02 0.  0.
          5    1    3    3  502    0  0.23624936529E+02 -0.82761211151E+02  0.29016904857E+02  0.90923093132E+02  0.41800000000E+01 0. -1.
         -5    1    3    3    0  502 -0.87249444442E+02 -0.37638687112E+02 -0.66086358857E+01  0.95342974525E+02  0.41800000000E+01 0. -1.
        -11    1    4    4    0    0  0.43718671675E+02  0.12004436020E+02 -0.17467238167E+02  0.48585318218E+02  0.00000000000E+00 0.  1.
         11    1    4    4    0    0  0.19905836238E+02  0.10839546224E+03 -0.15177624878E+03  0.18756824957E+03  0.00000000000E+00 0. -1.
</event>
<event>
 8    1  0.6703334E-009  0.9871064E+02  0.7561462E-02  0.1283031E+00
         -2   -1    0    0    0  501 -0.00000000000E+00  0.00000000000E+00  0.15455353733E+02  0.15455353733E+02  0.00000000000E+00 0.  1.
          2   -1    0    0  501    0  0.00000000000E+00 -0.00000000000E+00 -0.10867533217E+04  0.10867533217E+04  0.00000000000E+00 0. -1.
         25    2    1    2    0    0 -0.17242129266E+02  0.57074254398E+02 -0.75050424488E+03  0.76318720469E+03  0.12507328367E+03 0.  0.
         23    2    1    2    0    0  0.17242129266E+02 -0.57074254398E+02 -0.32079372314E+03  0.33902147079E+03  0.92044463792E+02 0.  0.
          5    1    3    3  502    0  0.30434855853E+02  0.42823565707E+02 -0.12451632141E+03  0.13521066869E+03  0.41800000000E+01 0. -1.
         -5    1    3    3    0  502 -0.47676985119E+02  0.14250688691E+02 -0.62598792347E+03  0.62797653600E+03  0.41800000000E+01 0. -1.
        -11    1    4    4    0    0 -0.20388034937E+02 -0.53175694032E+02 -0.26852804514E+03  0.27450070570E+03  0.00000000000E+00 0.  1.
         11    1    4    4    0    0  0.37630164203E+02 -0.38985603667E+01 -0.52265677998E+02  0.64520765087E+02  0.00000000000E+00 0. -1.
</event>
<event>
 8    1  0.6703334E-009  0.1495287E+03  0.7561462E-02  0.1201053E+00
          1   -1    0    0  501    0  0.00000000000E+00  0.00000000000E+00  0.16060295906E+04  0.16060295906E+04  0.00000000000E+00 0. -1.
         -1   -1    0    0    0  501 -0.00000000000E+00 -0.00000000000E+00 -0.14011026557E+02  0.14011026557E+02  0.00000000000E+00 0.  1.
         25    2    1    2    0    0  0.98193531185E+02  0.33430263246E+02  0.89448567434E+03  0.90912681209E+03  0.12508951515E+03 0.  0.
         23    2    1    2    0    0 -0.98193531185E+02 -0.33430263246E+02  0.69753288967E+03  0.71091380503E+03  0.89926380685E+02 0.  0.
          5    1    3    3  502    0 -0.22230755207E+02 -0.20449625792E+02  0.16325314488E+03  0.16607665515E+03  0.41800000000E+01 0. -1.
         -5    1    3    3    0  502  0.12042428639E+03  0.53879889039E+02  0.73123252946E+03  0.74305015695E+03  0.41800000000E+01 0. -1.
        -11    1    4    4    0    0 -0.70557035913E+02  0.22604824285E+02  0.34206864227E+03  0.35000032775E+03  0.00000000000E+00 0.  1.
         11    1    4    4    0    0 -0.27636495272E+02 -0.56035087531E+02  0.35546424739E+03  0.36091347728E+03  0.00000000000E+00 0. -1.
</event>
<event>
 8    1  0.6703334E-009  0.1046509E+03  0.7561462E-02  0.1270809E+00
          1   -1    0    0  501    0  0.00000000000E+00  0.00000000000E+00  0.36337892006E+02  0.36337892006E+02  0.00000000000E+00 0. -1.
         -1   -1    0    0    0  501 -0.00000000000E+00 -0.00000000000E+00 -0.36437549920E+03  0.36437549920E+03  0.00000000000E+00 0.  1.
         25    2    1    2    0    0 -0.19036095529E+02  0.20383716915E+02 -0.13899358337E+03  0.18906542476E+03  0.12509456332E+03 0.  0.
         23    2    1    2    0    0  0.19036095529E+02 -0.20383716915E+02 -0.18904402382E+03  0.21164796645E+03  0.90990933118E+02 0.  0.
          5    1    3    3  502    0 -0.31580675384E+02 -0.44610950665E+02 -0.32860868874E+02  0.63912323382E+02  0.41800000000E+01 0. -1.
         -5    1    3    3    0  502  0.12544579855E+02  0.64994667581E+02 -0.10613271450E+03  0.12515310138E+03  0.41800000000E+01 0. -1.
        -11    1    4    4    0    0 -0.24662193615E+02  0.17568478793E+02 -0.30978572777E+02  0.43319132174E+02  0.00000000000E+00 0. -1.
         11    1    4    4    0    0  0.43698289144E+02 -0.37952195708E+02 -0.15806545104E+03  0.16832883427E+03  0.00000000000E+00 0.  1.
</event>
<event>
 8    1  0.6703334E-009  0.1297980E+03  0.7561462E-02  0.1227756E+00
          2   -1    0    0  501    0  0.00000000000E+00  0.00000000000E+00  0.69558036874E+03  0.69558036874E+03  0.00000000000E+00 0. -1.
         -2   -1    0    0    0  501 -0.00000000000E+00 -0.00000000000E+00 -0.39311890038E+02  0.39311890038E+02  0.00000000000E+00 0.  1.
         25    2    1    2    0    0  0.58686260625E+02  0.10361051365E+03  0.27222931087E+03  0.32239099820E+03  0.12509173554E+03 0.  0.
         23    2    1    2    0    0 -0.58686260625E+02 -0.10361051365E+03  0.38403916783E+03  0.41250126058E+03  0.92152003900E+02 0.  0.
          5    1    3    3  502    0  0.21066930498E+02  0.81758982928E+02  0.26491817249E+03  0.27807814974E+03  0.41800000000E+01 0.  1.
         -5    1    3    3    0  502  0.37619330128E+02  0.21851530719E+02  0.73111383815E+01  0.44312848458E+02  0.41800000000E+01 0.  1.
        -11    1    4    4    0    0 -0.43769025661E+01 -0.63971383136E+02  0.87762568641E+02  0.10869113851E+03  0.00000000000E+00 0.  1.
         11    1    4    4    0    0 -0.54309358059E+02 -0.39639130512E+02  0.29627659919E+03  0.30381012206E+03  0.00000000000E+00 0. -1.
</event>
<event>
 8    1  0.6703334E-009  0.1061219E+03  0.7561462E-02  0.1267925E+00
          2   -1    0    0  501    0  0.00000000000E+00  0.00000000000E+00  0.13272201349E+03  0.13272201349E+03  0.00000000000E+00 0. -1.
         -2   -1    0    0    0  501 -0.00000000000E+00 -0.00000000000E+00 -0.11030888140E+03  0.11030888140E+03  0.00000000000E+00 0.  1.
         25    2    1    2    0    0  0.34644866057E+02 -0.26758001032E+02  0.43712636586E+02  0.13955377858E+03  0.12509278618E+03 0.  0.
         23    2    1    2    0    0 -0.34644866057E+02  0.26758001032E+02 -0.21299504499E+02  0.10347711631E+03  0.91310390121E+02 0.  0.
          5    1    3    3  502    0  0.40692705809E+02  0.44319777179E+02  0.12586688624E+02  0.61611980050E+02  0.41800000000E+01 0.  1.
         -5    1    3    3    0  502 -0.60478397519E+01 -0.71077778211E+02  0.31125947963E+02  0.77941798527E+02  0.41800000000E+01 0.  1.
        -11    1    4    4    0    0 -0.49348471397E+02 -0.67075428628E+00 -0.43064505816E+02  0.65500177112E+02  0.00000000000E+00 0.  1.
         11    1    4    4    0    0  0.14703605340E+02  0.27428755319E+02  0.21765001316E+02  0.37976939195E+02  0.00000000000E+00 0. -1.
</event>
<event>
 8    1  0.6703334E-009  0.9002241E+02  0.7561462E-02  0.1302797E+00
         -2   -1    0    0    0  501 -0.00000000000E+00  0.00000000000E+00  0.16590585577E+02  0.16590585577E+02  0.00000000000E+00 0.  1.
          2   -1    0    0  501    0  0.00000000000E+00 -0.00000000000E+00 -0.82185109724E+03  0.82185109724E+03  0.00000000000E+00 0. -1.
         25    2    1    2    0    0 -0.35255368315E+02 -0.15881821648E+02 -0.38204666721E+03  0.40385914665E+03  0.12508949257E+03 0.  0.
         23    2    1    2    0    0  0.35255368315E+02  0.15881821648E+02 -0.42321384445E+03  0.43458253616E+03  0.90867207240E+02 0.  0.
          5    1    3    3  502    0  0.17347955438E+02  0.17199540338E+02 -0.10147481399E+02  0.26780954510E+02  0.41800000000E+01 0. -1.
         -5    1    3    3    0  502 -0.52603323753E+02 -0.33081361985E+02 -0.37189918581E+03  0.37707819214E+03  0.41800000000E+01 0. -1.
        -11    1    4    4    0    0  0.61574862916E+02  0.22974091571E+02 -0.35663076787E+03  0.36263587415E+03  0.00000000000E+00 0. -1.
         11    1    4    4    0    0 -0.26319494601E+02 -0.70922699237E+01 -0.66583076579E+02  0.71946662018E+02  0.00000000000E+00 0.  1.
</event>
<event>
 8    1  0.6703334E-009  0.7429891E+02  0.7561462E-02  0.1346056E+00
         -1   -1    0    0    0  501 -0.00000000000E+00  0.00000000000E+00  0.55723783059E+02  0.55723783059E+02  0.00000000000E+00 0.  1.
          1   -1    0    0  501    0  0.00000000000E+00 -0.00000000000E+00 -0.24083306278E+03  0.24083306278E+03  0.00000000000E+00 0. -1.
         25    2    1    2    0    0 -0.41135457991E+02 -0.55495070352E+01 -0.95272934862E+02  0.16262340688E+03  0.12508604005E+03 0.  0.
         23    2    1    2    0    0  0.41135457991E+02  0.55495070352E+01 -0.89836344857E+02  0.13393343896E+03  0.90247849183E+02 0.  0.
          5    1    3    3  502    0 -0.21481591804E+02  0.31650431948E+02 -0.11102529988E+03  0.11750446052E+03  0.41800000000E+01 0.  1.
         -5    1    3    3    0  502 -0.19653866187E+02 -0.37199938983E+02  0.15752365019E+02  0.45118946354E+02  0.41800000000E+01 0.  1.
        -11    1    4    4    0    0  0.53419161500E+02 -0.19348531062E+01 -0.10195935822E+03  0.11512194057E+03  0.00000000000E+00 0.  1.
         11    1    4    4    0    0 -0.12283703508E+02  0.74843601414E+01  0.12123013365E+02  0.18811498389E+02  0.00000000000E+00 0. -1.
</event>
<event>
 8    1  0.6703334E-009  0.1085005E+03  0.7561462E-02  0.1263372E+00
          1   -1    0    0  501    0  0.00000000000E+00  0.00000000000E+00  0.32558908474E+03  0.32558908474E+03  0.00000000000E+00 0. -1.
         -1   -1    0    0    0  501 -0.00000000000E+00 -0.00000000000E+00 -0.46769354086E+02  0.46769354086E+02  0.00000000000E+00 0.  1.
         25    2    1    2    0    0  0.47161777502E+02 -0.18656178984E+02  0.10959368180E+03  0.17386898482E+03  0.12508941810E+03 0.  0.
         23    2    1    2    0    0 -0.47161777502E+02  0.18656178984E+02  0.16922604885E+03  0.19848945400E+03  0.90489344510E+02 0.  0.
          5    1    3    3  502    0 -0.18154861397E+02  0.36992605740E+02  0.10518000477E+02  0.42733506828E+02  0.41800000000E+01 0.  1.
         -5    1    3    3    0  502  0.65316638899E+02 -0.55648784724E+02  0.99075681327E+02  0.13113547799E+03  0.41800000000E+01 0.  1.
        -11    1    4    4    0    0 -0.16547881044E+02  0.45837356021E+02  0.13985969833E+03  0.14810682223E+03  0.00000000000E+00 0. -1.
         11    1    4    4    0    0 -0.30613896458E+02 -0.27181177038E+02  0.29366350517E+02  0.50382631771E+02  0.00000000000E+00 0.  1.
</event>
<event>
 8    1  0.6703334E-009  0.1166492E+03  0.7561462E-02  0.1248729E+00
          3   -1    0    0  501    0  0.00000000000E+00  0.00000000000E+00  0.11403627753E+04  0.11403627753E+04  0.00000000000E+00 0. -1.
         -3   -1    0    0    0  501 -0.00000000000E+00 -0.00000000000E+00 -0.27799028887E+02  0.27799028887E+02  0.00000000000E+00 0.  1.
         25    2    1    2    0    0 -0.74219962484E+02 -0.38175069942E+02  0.95912876259E+03  0.97084565856E+03  0.12508945086E+03 0.  0.
         23    2    1    2    0    0  0.74219962484E+02  0.38175069942E+02  0.15343498381E+03  0.19731614561E+03  0.91790131646E+02 0.  0.
          5    1    3    3  502    0 -0.95733749945E+02 -0.57101295594E+02  0.87021803482E+03  0.87733825254E+03  0.41800000000E+01 0. -1.
         -5    1    3    3    0  502  0.21513787461E+02  0.18926225653E+02  0.88910727768E+02  0.93507406020E+02  0.41800000000E+01 0. -1.
        -11    1    4    4    0    0  0.49845865312E+02  0.29181568690E+01  0.14609707016E+02  0.52024700550E+02  0.00000000000E+00 0.  1.
         11    1    4    4    0    0  0.24374097173E+02  0.35256913073E+02  0.13882527679E+03  0.14529144507E+03  0.00000000000E+00 0. -1.
</event>
<event>
 8    1  0.6703334E-009  0.7231269E+02  0.7561462E-02  0.1352401E+00
         -2   -1    0    0    0  501 -0.00000000000E+00  0.00000000000E+00  0.11458944163E+03  0.11458944163E+03  0.00000000000E+00 0.  1.
          2   -1    0    0  501    0  0.00000000000E+00 -0.00000000000E+00 -0.11883531021E+03  0.11883531021E+03  0.00000000000E+00 0. -1.
         25    2    1    2    0    0 -0.40510133471E+02  0.41147234111E+01  0.44548761761E+01  0.13162531273E+03  0.12508946864E+03 0.  0.
         23    2    1    2    0    0  0.40510133471E+02 -0.41147234111E+01 -0.87007447558E+01  0.10179943911E+03  0.92894676818E+02 0.  0.
          5    1    3    3  502    0 -0.87552508313E+01  0.26353111602E+02 -0.54286823770E+02  0.61120148423E+02  0.41800000000E+01 0. -1.
         -5    1    3    3    0  502 -0.31754882640E+02 -0.22238388191E+02  0.58741699946E+02  0.70505164303E+02  0.41800000000E+01 0. -1.
        -11    1    4    4    0    0  0.17185411061E+02  0.30971041168E+02 -0.36863546590E+02  0.51122057974E+02  0.00000000000E+00 0. -1.
         11    1    4    4    0    0  0.23324722410E+02 -0.35085764579E+02  0.28162801834E+02  0.50677381135E+02  0.00000000000E+00 0.  1.
</event>
<event>
 8    1  0.6703334E-009  0.7344534E+02  0.7561462E-02  0.1348754E+00
         -1   -1    0    0    0  501 -0.00000000000E+00  0.00000000000E+00  0.49952071518E+02  0.49952071518E+02  0.00000000000E+00 0.  1.
          1   -1    0    0  501    0  0.00000000000E+00 -0.00000000000E+00 -0.25625944537E+03  0.25625944537E+03  0.00000000000E+00 0. -1.
         25    2    1    2    0    0  0.16968054681E+02 -0.17476066310E+00 -0.15656058106E+03  0.20111792332E+03  0.12509699484E+03 0.  0.
         23    2    1    2    0    0 -0.16968054681E+02  0.17476066310E+00 -0.49746792798E+02  0.10509359357E+03  0.91005354757E+02 0.  0.
          5    1    3    3  502    0 -0.41955794136E+02  0.54430996335E+01 -0.12874657936E+03  0.13558418084E+03  0.41800000000E+01 0.  1.
         -5    1    3    3    0  502  0.58923848818E+02 -0.56178602966E+01 -0.27814001692E+02  0.65533742484E+02  0.41800000000E+01 0.  1.
        -11    1    4    4    0    0 -0.30816391668E+02 -0.25618268917E+01 -0.72216060510E+02  0.78558082640E+02  0.00000000000E+00 0. -1.
         11    1    4    4    0    0  0.13848336987E+02  0.27365875548E+01  0.22469267712E+02  0.26535510929E+02  0.00000000000E+00 0.  1.
</event>
<event>
 8    1  0.6703334E-009  0.1328484E+03  0.7561462E-02  0.1223289E+00
          1   -1    0    0  501    0  0.00000000000E+00  0.00000000000E+00  0.11815321465E+03  0.11815321465E+03  0.00000000000E+00 0. -1.
         -1   -1    0    0    0  501 -0.00000000000E+00 -0.00000000000E+00 -0.24283926074E+03  0.24283926074E+03  0.00000000000E+00 0.  1.
         25    2    1    2    0    0  0.10427730544E+02 -0.12026903230E+03 -0.16260964533E+02  0.17457432538E+03  0.12505358219E+03 0.  0.
         23    2    1    2    0    0 -0.10427730544E+02  0.12026903230E+03 -0.10842508156E+03  0.18641815001E+03  0.91773365663E+02 0.  0.
          5    1    3    3  502    0  0.13735914334E+02 -0.53407163092E+02  0.54100496916E+02  0.77364957046E+02  0.41800000000E+01 0.  1.
         -5    1    3    3    0  502 -0.33081837896E+01 -0.66861869210E+02 -0.70361461449E+02  0.97209368332E+02  0.41800000000E+01 0.  1.
        -11    1    4    4    0    0  0.29194110824E+02  0.86384888169E+02 -0.37976838990E+02  0.98776947262E+02  0.00000000000E+00 0. -1.
         11    1    4    4    0    0 -0.39621841368E+02  0.33884144133E+02 -0.70448242572E+02  0.87641202745E+02  0.00000000000E+00 0.  1.
</event>
<event>
 8    1  0.6703334E-009  0.1448628E+03  0.7561462E-02  0.1206932E+00
         -1   -1    0    0    0  501 -0.00000000000E+00  0.00000000000E+00  0.27844481432E+03  0.27844481432E+03  0.00000000000E+00 0.  1.
          1   -1    0    0  501    0  0.00000000000E+00 -0.00000000000E+00 -0.16523916281E+03  0.16523916281E+03  0.00000000000E+00 0. -1.
         25    2    1    2    0    0  0.32883996684E+02  0.13248802197E+03 -0.60488294466E+02  0.19479009848E+03  0.12509962228E+03 0.  0.
         23    2    1    2    0    0 -0.32883996684E+02 -0.13248802197E+03  0.17369394598E+03  0.24889387865E+03  0.11464790776E+03 0.  0.
          5    1    3    3  502    0 -0.33204887924E+01  0.95518986195E+02  0.21212457896E+02  0.97991546265E+02  0.41800000000E+01 0. -1.
         -5    1    3    3    0  502  0.36204485476E+02  0.36969035780E+02 -0.81700752361E+02  0.96798552218E+02  0.41800000000E+01 0. -1.
        -11    1    4    4    0    0 -0.28016416374E+02 -0.36400089027E+02 -0.47367558435E+01  0.46177082233E+02  0.00000000000E+00 0. -1.
         11    1    4    4    0    0 -0.48675803093E+01 -0.96087932947E+02  0.17843070182E+03  0.20271679642E+03  0.00000000000E+00 0.  1.
</event>
<event>
 8    1  0.6703334E-009  0.1357423E+03  0.7561462E-02  0.1219176E+00
         -2   -1    0    0    0  501 -0.00000000000E+00  0.00000000000E+00  0.23437133734E+03  0.23437133734E+03  0.00000000000E+00 0.  1.
          2   -1    0    0  501    0  0.00000000000E+00 -0.00000000000E+00 -0.13775505590E+03  0.13775505590E+03  0.00000000000E+00 0. -1.
         25    2    1    2    0    0 -0.10956908628E+02  0.10301334186E+03  0.15772937730E+03  0.22640158734E+03  0.12508924748E+03 0.  0.
         23    2    1    2    0    0  0.10956908628E+02 -0.10301334186E+03 -0.61113095863E+02  0.14572480591E+03  0.82274577618E+02 0.  0.
          5    1    3    3  502    0 -0.53327535755E+02  0.72017148994E+02  0.41593345007E+02  0.98882630263E+02  0.41800000000E+01 0.  1.
         -5    1    3    3    0  502  0.42370627127E+02  0.30996192869E+02  0.11613603230E+03  0.12751895707E+03  0.41800000000E+01 0.  1.
        -11    1    4    4    0    0 -0.31002299456E+02 -0.66965440766E+02 -0.50445081417E+02  0.89388025304E+02  0.00000000000E+00 0. -1.
         11    1    4    4    0    0  0.41959208084E+02 -0.36047901097E+02 -0.10668014446E+02  0.56336780603E+02  0.00000000000E+00 0.  1.
</event>
<event>
 8    1  0.6703334E-009  0.1263986E+03  0.7561462E-02  0.1232899E+00
         -1   -1    0    0    0  501 -0.00000000000E+00  0.00000000000E+00  0.15620231702E+03  0.15620231702E+03  0.00000000000E+00 0.  1.
          1   -1    0    0  501    0  0.00000000000E+00 -0.00000000000E+00 -0.20278672306E+03  0.20278672306E+03  0.00000000000E+00 0. -1.
         25    2    1    2    0    0 -0.55334621941E+02  0.97528020779E+02 -0.10989011645E+03  0.20074172381E+03  0.12509103390E+03 0.  0.
         23    2    1    2    0    0  0.55334621941E+02 -0.97528020779E+02  0.63305710415E+02  0.15824731626E+03  0.91983503473E+02 0.  0.
          5    1    3    3  502    0  0.19325227167E+02  0.41740849202E+02  0.11543971304E+02  0.47607757463E+02  0.41800000000E+01 0.  1.
         -5    1    3    3    0  502 -0.74659849108E+02  0.55787171577E+02 -0.12143408775E+03  0.15313396635E+03  0.41800000000E+01 0.  1.
        -11    1    4    4    0    0  0.53019023404E+02 -0.82207116914E+02  0.86347882487E+02  0.13047982114E+03  0.00000000000E+00 0.  1.
         11    1    4    4    0    0  0.23155985370E+01 -0.15320903865E+02 -0.23042172072E+02  0.27767495127E+02  0.00000000000E+00 0. -1.
</event>
<event>
 8    1  0.6703334E-009  0.9942867E+02  0.7561462E-02  0.1281502E+00
          1   -1    0    0  501    0  0.00000000000E+00  0.00000000000E+00  0.20506076291E+02  0.20506076291E+02  0.00000000000E+00 0. -1.
         -1   -1    0    0    0  501 -0.00000000000E+00 -0.00000000000E+00 -0.85525245645E+03  0.85525245645E+03  0.00000000000E+00 0.  1.
         25    2    1    2    0    0 -0.75802959616E+02 -0.36794996603E+01 -0.44863030070E+03  0.47188691264E+03  0.12509390160E+03 0.  0.
         23    2    1    2    0    0  0.75802959616E+02  0.36794996603E+01 -0.38611607947E+03  0.40387162010E+03  0.90923216486E+02 0.  0.
          5    1    3    3  502    0 -0.43230909276E+02 -0.19242063273E+02 -0.41324342064E+02  0.62963022186E+02  0.41800000000E+01 0. -1.
         -5    1    3    3    0  502 -0.32572050340E+02  0.15562563612E+02 -0.40730595863E+03  0.40892389046E+03  0.41800000000E+01 0. -1.
        -11    1    4    4    0    0 -0.15099143433E+02 -0.16005890569E+02 -0.11922168409E+03  0.12123523672E+03  0.00000000000E+00 0. -1.
         11    1    4    4    0    0  0.90902103050E+02  0.19685390229E+02 -0.26689439537E+03  0.28263638338E+03  0.00000000000E+00 0.  1.
</event>
<event>
 8    1  0.6703334E-009  0.1109590E+03  0.7561462E-02  0.1258804E+00
         -4   -1    0    0    0  501 -0.00000000000E+00  0.00000000000E+00  0.25519635050E+03  0.25519635050E+03  0.00000000000E+00 0.  1.
          4   -1    0    0  501    0  0.00000000000E+00 -0.00000000000E+00 -0.56055821927E+02  0.56055821927E+02  0.00000000000E+00 0. -1.
         25    2    1    2    0    0 -0.28253175897E+02 -0.33395937294E+02  0.97039008921E+02  0.16424778322E+03  0.12508890624E+03 0.  0.
         23    2    1    2    0    0  0.28253175897E+02  0.33395937294E+02  0.10210151966E+03  0.14700438921E+03  0.96291430329E+02 0.  0.
          5    1    3    3  502    0  0.40746819571E+02  0.22242621141E+01  0.14829270621E+01  0.41047802862E+02  0.41800000000E+01 0.  1.
         -5    1    3    3    0  502 -0.68999995468E+02 -0.35620199408E+02  0.95556081859E+02  0.12319998036E+03  0.41800000000E+01 0.  1.
        -11    1    4    4    0    0 -0.33425586940E+02  0.94658157028E+00  0.18685849918E+02  0.38305702788E+02  0.00000000000E+00 0.  1.
         11    1    4    4    0    0  0.61678762837E+02  0.32449355724E+02  0.83415669738E+02  0.10869868642E+03  0.00000000000E+00 0. -1.
</event>
<event>
 8    1  0.6703334E-009  0.1104539E+03  0.7561462E-02  0.1259732E+00
          1   -1    0    0  501    0  0.00000000000E+00  0.00000000000E+00  0.10134342945E+04  0.10134342945E+04  0.00000000000E+00 0. -1.
         -1   -1    0    0    0  501 -0.00000000000E+00 -0.00000000000E+00 -0.14227518578E+02  0.14227518578E+02  0.00000000000E+00 0.  1.
         25    2    1    2    0    0 -0.28812676577E+02 -0.56083318182E+01  0.75265320618E+03  0.76354247734E+03  0.12509453307E+03 0.  0.
         23    2    1    2    0    0  0.28812676577E+02  0.56083318182E+01  0.24655356971E+03  0.26411933572E+03  0.90048526043E+02 0.  0.
          5    1    3    3  502    0  0.35852049846E+02  0.36345309748E+02  0.28763738329E+03  0.29216277601E+03  0.41800000000E+01 0. -1.
         -5    1    3    3    0  502 -0.64664726424E+02 -0.41953641566E+02  0.46501582289E+03  0.47137970133E+03  0.41800000000E+01 0. -1.
        -11    1    4    4    0    0 -0.22366771729E+02 -0.24448856107E+02  0.11728479718E+03  0.12187593156E+03  0.00000000000E+00 0. -1.
         11    1    4    4    0    0  0.51179448306E+02  0.30057187925E+02  0.12926877253E+03  0.14224340416E+03  0.00000000000E+00 0.  1.
</event>
<event>
 8    1  0.6703334E-009  0.1267970E+03  0.7561462E-02  0.1232287E+00
         -2   -1    0    0    0  501 -0.00000000000E+00  0.00000000000E+00  0.18382880485E+03  0.18382880485E+03  0.00000000000E+00 0. -1.
          2   -1    0    0  501    0  0.00000000000E+00 -0.00000000000E+00 -0.10079413134E+03  0.10079413134E+03  0.00000000000E+00 0.  1.
         25    2    1    2    0    0 -0.45137210704E+02  0.61174049759E+02  0.77073086404E+02  0.16543776774E+03  0.12509900956E+03 0.  0.
         23    2    1    2    0    0  0.45137210704E+02 -0.61174049759E+02  0.59615871120E+01  0.11918516845E+03  0.91596570368E+02 0.  0.
          5    1    3    3  502    0  0.41556003619E+02  0.20384166156E+02  0.77774335810E+01  0.47120871594E+02  0.41800000000E+01 0.  1.
         -5    1    3    3    0  502 -0.86693214323E+02  0.40789883604E+02  0.69295652823E+02  0.11831689615E+03  0.41800000000E+01 0.  1.
        -11    1    4    4    0    0  0.68041301871E+02 -0.35264998329E+02 -0.15905318113E+02  0.78270160417E+02  0.00000000000E+00 0.  1.
         11    1    4    4    0    0 -0.22904091166E+02 -0.25909051430E+02  0.21866905225E+02  0.40915008032E+02  0.00000000000E+00 0. -1.
</event>
<event>
 8    1  0.6703334E-009  0.9414986E+02  0.7561462E-02  0.1293102E+00
         -2   -1    0    0    0  501 -0.00000000000E+00  0.00000000000E+00  0.25253714834E+03  0.25253714834E+03  0.00000000000E+00 0.  1.
          2   -1    0    0  501    0  0.00000000000E+00 -0.00000000000E+00 -0.58885615069E+02  0.58885615069E+02  0.00000000000E+00 0. -1.
         25    2    1    2    0    0  0.42059536517E+02  0.34431875563E+02  0.12309762873E+03  0.18372622160E+03  0.12509092549E+03 0.  0.
         23    2    1    2    0    0 -0.42059536517E+02 -0.34431875563E+02  0.70553904541E+02  0.12769654180E+03  0.91509533252E+02 0.  0.
          5    1    3    3  502    0  0.42353274162E+02  0.53208695876E+02  0.98353747345E+01  0.68841645428E+02  0.41800000000E+01 0.  1.
         -5    1    3    3    0  502 -0.29373764552E+00 -0.18776820314E+02  0.11326225399E+03  0.11488457617E+03  0.41800000000E+01 0.  1.
        -11    1    4    4    0    0 -0.64716634503E+02 -0.41868488637E+02  0.34448261231E+02  0.84426866719E+02  0.00000000000E+00 0. -1.
         11    1    4    4    0    0  0.22657097986E+02  0.74366130741E+01  0.36105643310E+02  0.43269675086E+02  0.00000000000E+00 0.  1.
</event>
<event>
 8    1  0.6703334E-009  0.9926382E+02  0.7561462E-02  0.1281852E+00
         -2   -1    0    0    0  501 -0.00000000000E+00  0.00000000000E+00  0.15258969798E+02  0.15258969798E+02  0.00000000000E+00 0.  1.
          2   -1    0    0  501    0  0.00000000000E+00 -0.00000000000E+00 -0.98587028926E+03  0.98587028926E+03  0.00000000000E+00 0. -1.
         25    2    1    2    0    0 -0.88321421252E+01  0.45571329309E+02 -0.67464103447E+03  0.68770780610E+03  0.12508696331E+03 0.  0.
         23    2    1    2    0    0  0.88321421252E+01 -0.45571329309E+02 -0.29597028500E+03  0.31342145297E+03  0.92086072711E+02 0.  0.
          5    1    3    3  502    0 -0.57612634981E+02  0.50460295760E+02 -0.29156192137E+03  0.30148181296E+03  0.41800000000E+01 0.  1.
         -5    1    3    3    0  502  0.48780492856E+02 -0.48889664503E+01 -0.38307911310E+03  0.38622599313E+03  0.41800000000E+01 0.  1.
        -11    1    4    4    0    0  0.18836095334E+02 -0.55451978020E+02 -0.29332478160E+03  0.29911393791E+03  0.00000000000E+00 0. -1.
         11    1    4    4    0    0 -0.10003953209E+02  0.98806487106E+01 -0.26455033998E+01  0.14307515053E+02  0.00000000000E+00 0.  1.
</event>
<event>
 8    1  0.6703334E-009  0.1220631E+03  0.7561462E-02  0.1239732E+00
          2   -1    0    0  501    0  0.00000000000E+00  0.00000000000E+00  0.96968568134E+02  0.96968568134E+02  0.00000000000E+00 0. -1.
         -2   -1    0    0    0  501 -0.00000000000E+00 -0.00000000000E+00 -0.18593452013E+03  0.18593452013E+03  0.00000000000E+00 0.  1.
         25    2    1    2    0    0 -0.14255361500E+02  0.76365485397E+02 -0.37595755884E+02  0.15197330755E+03  0.12509013812E+03 0.  0.
         23    2    1    2    0    0  0.14255361500E+02 -0.76365485397E+02 -0.51370196113E+02  0.13092978072E+03  0.92026125303E+02 0.  0.
          5    1    3    3  502    0  0.55407451449E+02  0.27095391783E+02 -0.16219955061E+02  0.63911699039E+02  0.41800000000E+01 0. -1.
         -5    1    3    3    0  502 -0.69662812948E+02  0.49270093614E+02 -0.21375800824E+02  0.88061608511E+02  0.41800000000E+01 0. -1.
        -11    1    4    4    0    0 -0.22192134749E+02 -0.37671939748E+02 -0.62835961897E+02  0.76550793573E+02  0.00000000000E+00 0.  1.
         11    1    4    4    0    0  0.36447496249E+02 -0.38693545649E+02  0.11465765784E+02  0.54378987143E+02  0.00000000000E+00 0. -1.
</event>
<event>
 8    1  0.6703334E-009  0.8071671E+02  0.7561462E-02  0.1327030E+00
         -1   -1    0    0    0  501 -0.00000000000E+00  0.00000000000E+00  0.17751680573E+03  0.17751680573E+03  0.00000000000E+00 0.  1.
          1   -1    0    0  501    0  0.00000000000E+00 -0.00000000000E+00 -0.71016341309E+02  0.71016341309E+02  0.00000000000E+00 0. -1.
         25    2    1    2    0    0  0.49374698277E+01  0.25228391544E+02  0.46133509950E+02  0.13578557229E+03  0.12509424668E+03 0.  0.
         23    2    1    2    0    0 -0.49374698277E+01 -0.25228391544E+02  0.60366954466E+02  0.11274757474E+03  0.91689672652E+02 0.  0.
          5    1    3    3  502    0 -0.14123335677E+02  0.57012093783E+02 -0.18019250884E+02  0.61579324863E+02  0.41800000000E+01 0. -1.
         -5    1    3    3    0  502  0.19060805505E+02 -0.31783702239E+02  0.64152760834E+02  0.74206247427E+02  0.41800000000E+01 0. -1.
        -11    1    4    4    0    0 -0.22780692147E+01 -0.45123728532E+02 -0.39670163732E+01  0.45355018409E+02  0.00000000000E+00 0. -1.
         11    1    4    4    0    0 -0.26594006130E+01  0.19895336988E+02  0.64333970839E+02  0.67392556335E+02  0.00000000000E+00 0.  1.
</event>
<event>
 8    1  0.6703334E-009  0.1114205E+03  0.7561462E-02  0.1257962E+00
         -1   -1    0    0    0  501 -0.00000000000E+00  0.00000000000E+00  0.24362649902E+02  0.24362649902E+02  0.00000000000E+00 0.  1.
          1   -1    0    0  501    0  0.00000000000E+00 -0.00000000000E+00 -0.63495165654E+03  0.63495165654E+03  0.00000000000E+00 0. -1.
         25    2    1    2    0    0 -0.35576900285E+02 -0.46516766096E+02 -0.29008388070E+03  0.32128954657E+03  0.12509512194E+03 0.  0.
         23    2    1    2    0    0  0.35576900285E+02  0.46516766096E+02 -0.32050512593E+03  0.33802475986E+03  0.90042640845E+02 0.  0.
          5    1    3    3  502    0 -0.70283122203E+02 -0.44541887712E+02 -0.26613179196E+03  0.27886789008E+03  0.41800000000E+01 0.  1.
         -5    1    3    3    0  502  0.34706221918E+02 -0.19748783831E+01 -0.23952088747E+02  0.42421656495E+02  0.41800000000E+01 0.  1.
        -11    1    4    4    0    0  0.28989645452E+02 -0.21554843090E+02 -0.15060030621E+03  0.15487240889E+03  0.00000000000E+00 0. -1.
         11    1    4    4    0    0  0.65872548330E+01  0.68071609185E+02 -0.16990481972E+03  0.18315235098E+03  0.00000000000E+00 0.  1.
</event>
<event>
 7    1  0.6703334E-009  0.1023452E+03  0.7561462E-02  0.1275440E+00
          3   -1    0    0  501    0  0.00000000000E+00  0.00000000000E+00  0.28365335130E+03  0.28365335130E+03  0.00000000000E+00 0. -1.
         -3   -1    0    0    0  501 -0.00000000000E+00 -0.00000000000E+00 -0.46456064804E+02  0.46456064804E+02  0.00000000000E+00 0.  1.
         23    2    1    2    0    0 -0.21694432792E+02  0.29219656224E+02  0.83105338821E+02  0.12828127560E+03  0.90692621558E+02 0.  0.
          5    1    1    2  502    0 -0.29686936821E+02 -0.61934762643E+02  0.90266006498E+02  0.11350177695E+03  0.41800000000E+01 0.  1.
         -5    1    1    2    0  502  0.51381369613E+02  0.32715106419E+02  0.63825941174E+02  0.88326363551E+02  0.41800000000E+01 0.  1.
        -11    1    3    3    0    0 -0.28357363621E+02 -0.13628619308E+02  0.78626094801E+02  0.84687319709E+02  0.00000000000E+00 0. -1.
         11    1    3    3    0    0  0.66629308292E+01  0.42848275532E+02  0.44792440201E+01  0.43593955892E+02  0.00000000000E+00 0.  1.
</event>
<event>
 8    1  0.6703334E-009  0.1038788E+03  0.7561462E-02  0.1272345E+00
          1   -1    0    0  501    0  0.00000000000E+00  0.00000000000E+00  0.40385911126E+03  0.40385911126E+03  0.00000000000E+00 0. -1.
         -1   -1    0    0    0  501 -0.00000000000E+00 -0.00000000000E+00 -0.30212106007E+02  0.30212106007E+02  0.00000000000E+00 0.  1.
         25    2    1    2    0    0 -0.20419626674E+02 -0.11093955695E+02  0.20857650235E+03  0.24431898370E+03  0.12509025326E+03 0.  0.
         23    2    1    2    0    0  0.20419626674E+02  0.11093955695E+02  0.16507050291E+03  0.18975223357E+03  0.90650991202E+02 0.  0.
          5    1    3    3  502    0  0.29844479136E+02 -0.49286662828E+02  0.62384601457E+02  0.85024578603E+02  0.41800000000E+01 0. -1.
         -5    1    3    3    0  502 -0.50264105811E+02  0.38192707133E+02  0.14619190089E+03  0.15929440510E+03  0.41800000000E+01 0. -1.
        -11    1    4    4    0    0  0.27021059024E+02  0.44831044527E+02  0.62226073509E+02  0.81314478468E+02  0.00000000000E+00 0.  1.
         11    1    4    4    0    0 -0.66014323497E+01 -0.33737088832E+02  0.10284442940E+03  0.10843775510E+03  0.00000000000E+00 0. -1.
</event>
<event>
 8    1  0.6703334E-009  0.1457449E+03  0.7561462E-02  0.1205801E+00
         -1   -1    0    0    0  501 -0.00000000000E+00  0.00000000000E+00  0.90553819324E+02  0.90553819324E+02  0.00000000000E+00 0.  1.
          1   -1    0    0  501    0  0.00000000000E+00 -0.00000000000E+00 -0.24452783815E+03  0.24452783815E+03  0.00000000000E+00 0. -1.
         25    2    1    2    0    0  0.97326209635E+02 -0.15878018983E+02 -0.60951502144E+02  0.17055024299E+03  0.12509115557E+03 0.  0.
         23    2    1    2    0    0 -0.97326209635E+02  0.15878018983E+02 -0.93022516685E+02  0.16453141448E+03  0.93235696883E+02 0.  0.
          5    1    3    3  502    0 -0.30312233251E+02 -0.21989745017E-01 -0.11575763280E+02  0.32715480490E+02  0.41800000000E+01 0.  1.
         -5    1    3    3    0  502  0.12763844289E+03 -0.15856029238E+02 -0.49375738864E+02  0.13783476250E+03  0.41800000000E+01 0.  1.
        -11    1    4    4    0    0 -0.41457160960E+02 -0.36786357297E+02 -0.57733163296E+02  0.80031558914E+02  0.00000000000E+00 0. -1.
         11    1    4    4    0    0 -0.55869048675E+02  0.52664376281E+02 -0.35289353389E+02  0.84499855571E+02  0.00000000000E+00 0.  1.
</event>
<event>
 8    1  0.6703334E-009  0.1288475E+03  0.7561462E-02  0.1229176E+00
         -1   -1    0    0    0  501 -0.00000000000E+00  0.00000000000E+00  0.19067439602E+03  0.19067439602E+03  0.00000000000E+00 0.  1.
          1   -1    0    0  501    0  0.00000000000E+00 -0.00000000000E+00 -0.17742390066E+03  0.17742390066E+03  0.00000000000E+00 0. -1.
         25    2    1    2    0    0  0.10723102061E+03  0.48102129749E+02  0.97453294588E+02  0.19738625378E+03  0.12510748134E+03 0.  0.
         23    2    1    2    0    0 -0.10723102061E+03 -0.48102129749E+02 -0.84202799229E+02  0.17071204289E+03  0.90775456611E+02 0.  0.
          5    1    3    3  502    0  0.56540762317E+02  0.20861120533E+02  0.12086325299E+03  0.13512010389E+03  0.41800000000E+01 0. -1.
         -5    1    3    3    0  502  0.50690258295E+02  0.27241009217E+02 -0.23409958400E+02  0.62266149885E+02  0.41800000000E+01 0. -1.
        -11    1    4    4    0    0 -0.30518073802E+02 -0.54650176187E+02 -0.92725517367E+01  0.63276968966E+02  0.00000000000E+00 0.  1.
         11    1    4    4    0    0 -0.76712946810E+02  0.65480464376E+01 -0.74930247493E+02  0.10743507393E+03  0.00000000000E+00 0. -1.
</event>
<event>
 8    1  0.6703334E-009  0.9858961E+02  0.7561462E-02  0.1283290E+00
         -2   -1    0    0    0  501 -0.00000000000E+00  0.00000000000E+00  0.39901899583E+02  0.39901899583E+02  0.00000000000E+00 0.  1.
          2   -1    0    0  501    0  0.00000000000E+00 -0.00000000000E+00 -0.33063766131E+03  0.33063766131E+03  0.00000000000E+00 0. -1.
         25    2    1    2    0    0  0.35881295009E+02  0.16232488832E+02 -0.16114118454E+03  0.20776118398E+03  0.12508903704E+03 0.  0.
         23    2    1    2    0    0 -0.35881295009E+02 -0.16232488832E+02 -0.12959457719E+03  0.16277837691E+03  0.90283356879E+02 0.  0.
          5    1    3    3  502    0  0.74414886252E+02  0.21123643127E+02 -0.55978476763E+02  0.95576387542E+02  0.41800000000E+01 0.  1.
         -5    1    3    3    0  502 -0.38533591243E+02 -0.48911542953E+01 -0.10516270778E+03  0.11218479643E+03  0.41800000000E+01 0.  1.
        -11    1    4    4    0    0 -0.28900866183E+02 -0.43650932020E+02 -0.32438989856E+02  0.61586946630E+02  0.00000000000E+00 0.  1.
         11    1    4    4    0    0 -0.69804288260E+01  0.27418443188E+02 -0.97155587330E+02  0.10119143028E+03  0.00000000000E+00 0. -1.
</event>
<event>
 8    1  0.6703334E-009  0.1276966E+03  0.7561462E-02  0.1230914E+00
          1   -1    0    0  501    0  0.00000000000E+00  0.00000000000E+00  0.13274438953E+03  0.13274438953E+03  0.00000000000E+00 0. -1.
         -1   -1    0    0    0  501 -0.00000000000E+00 -0.00000000000E+00 -0.15125488609E+03  0.15125488609E+03  0.00000000000E+00 0.  1.
         25    2    1    2    0    0 -0.67082786392E+02 -0.31454965252E+02 -0.65623913361E+02  0.15952292919E+03  0.12510616238E+03 0.  0.
         23    2    1    2    0    0  0.67082786392E+02  0.31454965252E+02  0.47113416805E+02  0.12447634642E+03  0.88233620046E+02 0.  0.
          5    1    3    3  502    0 -0.10227303562E+03 -0.24233902871E+02 -0.31509465596E+02  0.10980607763E+03  0.41800000000E+01 0. -1.
         -5    1    3    3    0  502  0.35190249228E+02 -0.72210623808E+01 -0.34114447765E+02  0.49716851560E+02  0.41800000000E+01 0. -1.
        -11    1    4    4    0    0  0.24280077289E+02 -0.30345660170E+02  0.77888754890E+01  0.39636445674E+02  0.00000000000E+00 0.  1.
         11    1    4    4    0    0  0.42802709103E+02  0.61800625422E+02  0.39324541316E+02  0.84839900747E+02  0.00000000000E+00 0. -1.
</event>
<event>
 8    1  0.6703334E-009  0.1030198E+03  0.7561462E-02  0.1274071E+00
          2   -1    0    0  501    0  0.00000000000E+00  0.00000000000E+00  0.22725894558E+03  0.22725894558E+03  0.00000000000E+00 0. -1.
         -2   -1    0    0    0  501 -0.00000000000E+00 -0.00000000000E+00 -0.66352815689E+02  0.66352815689E+02  0.00000000000E+00 0.  1.
         25    2    1    2    0    0 -0.29105284280E+02  0.38726950784E+02  0.50070307822E+02  0.14318071917E+03  0.12508712295E+03 0.  0.
         23    2    1    2    0    0  0.29105284280E+02 -0.38726950784E+02  0.11083582206E+03  0.15043104209E+03  0.89431676053E+02 0.  0.
          5    1    3    3  502    0 -0.71728121287E+02  0.25650224754E+02  0.38212415770E+00  0.76292043047E+02  0.41800000000E+01 0. -1.
         -5    1    3    3    0  502  0.42622837008E+02  0.13076726030E+02  0.49688183665E+02  0.66888676128E+02  0.41800000000E+01 0. -1.
        -11    1    4    4    0    0 -0.20984121734E+02 -0.25766550258E+02  0.87643684808E+02  0.93731872721E+02  0.00000000000E+00 0. -1.
         11    1    4    4    0    0  0.50089406014E+02 -0.12960400527E+02  0.23192137257E+02  0.56699169369E+02  0.00000000000E+00 0.  1.
</event>
<event>
 8    1  0.6703334E-009  0.1115006E+03  0.7561462E-02  0.1257816E+00
          2   -1    0    0  501    0  0.00000000000E+00  0.00000000000E+00  0.11573121208E+04  0.11573121208E+04  0.00000000000E+00 0.  1.
         -2   -1    0    0    0  501 -0.00000000000E+00 -0.00000000000E+00 -0.20666921120E+02  0.20666921120E+02  0.00000000000E+00 0. -1.
         25    2    1    2    0    0 -0.11002906683E+03 -0.13591527963E+01  0.66083353718E+03  0.68151140632E+03  0.12509432536E+03 0.  0.
         23    2    1    2    0    0  0.11002906683E+03  0.13591527963E+01  0.47581166251E+03  0.49646763561E+03  0.89303595578E+02 0.  0.
          5    1    3    3  502    0 -0.60042248010E+02  0.93055976724E+01  0.59476796578E+03  0.59787797351E+03  0.41800000000E+01 0. -1.
         -5    1    3    3    0  502 -0.49986818825E+02 -0.10664750469E+02  0.66065571403E+02  0.83633432810E+02  0.41800000000E+01 0. -1.
        -11    1    4    4    0    0  0.91093561901E+02  0.60951021477E+01  0.46554661642E+03  0.47441420652E+03  0.00000000000E+00 0.  1.
         11    1    4    4    0    0  0.18935504933E+02 -0.47359493514E+01  0.10265046091E+02  0.22053429089E+02  0.00000000000E+00 0. -1.
</event>
<event>
 8    1  0.6703334E-009  0.3769443E+03  0.7561462E-02  0.1052069E+00
          1   -1    0    0  501    0  0.00000000000E+00  0.00000000000E+00  0.18723082144E+04  0.18723082144E+04  0.00000000000E+00 0. -1.
         -1   -1    0    0    0  501 -0.00000000000E+00 -0.00000000000E+00 -0.88024100243E+02  0.88024100243E+02  0.00000000000E+00 0.  1.
         25    2    1    2    0    0 -0.35079026976E+03 -0.84278439368E+02  0.12612320078E+04  0.13177673792E+04  0.12509204381E+03 0.  0.
         23    2    1    2    0    0  0.35079026976E+03  0.84278439368E+02  0.52305210633E+03  0.64256493544E+03  0.95653131774E+02 0.  0.
          5    1    3    3  502    0 -0.36035204144E+03 -0.76161765225E+02  0.12072626648E+04  0.12622023699E+04  0.41800000000E+01 0. -1.
         -5    1    3    3    0  502  0.95617716837E+01 -0.81166741432E+01  0.53969343006E+02  0.55565009326E+02  0.41800000000E+01 0. -1.
        -11    1    4    4    0    0  0.26723409611E+03  0.10352777049E+03  0.42076804193E+03  0.50909508591E+03  0.00000000000E+00 0.  1.
         11    1    4    4    0    0  0.83556173654E+02 -0.19249331118E+02  0.10228406439E+03  0.13346984953E+03  0.00000000000E+00 0. -1.
</event>
<event>
 7    1  0.6703334E-009  0.1119204E+03  0.7561462E-02  0.1257054E+00
          1   -1    0    0  501    0  0.00000000000E+00  0.00000000000E+00  0.14788906211E+03  0.14788906211E+03  0.00000000000E+00 0. -1.
         -1   -1    0    0    0  501 -0.00000000000E+00 -0.00000000000E+00 -0.11659740676E+03  0.11659740676E+03  0.00000000000E+00 0.  1.
         23    2    1    2    0    0  0.43392319499E+02  0.59832852126E+02  0.10905248306E+02  0.11771197334E+03  0.90963292821E+02 0.  0.
          5    1    1    2  502    0 -0.75049459172E+02 -0.52087619596E+02  0.48514595028E+02  0.10352139763E+03  0.41800000000E+01 0.  1.
         -5    1    1    2    0  502  0.31657139673E+02 -0.77452325307E+01 -0.28128187979E+02  0.43253097903E+02  0.41800000000E+01 0.  1.
        -11    1    3    3    0    0 -0.17808683467E+02  0.18523289198E+02 -0.24784847397E+02  0.35700841867E+02  0.00000000000E+00 0.  1.
         11    1    3    3    0    0  0.61201002966E+02  0.41309562928E+02  0.35690095703E+02  0.82011131468E+02  0.00000000000E+00 0. -1.
</event>
<event>
 8    1  0.6703334E-009  0.7797787E+02  0.7561462E-02  0.1334890E+00
          2   -1    0    0  501    0  0.00000000000E+00  0.00000000000E+00  0.48837611021E+03  0.48837611021E+03  0.00000000000E+00 0. -1.
         -2   -1    0    0    0  501 -0.00000000000E+00 -0.00000000000E+00 -0.27821748704E+02  0.27821748704E+02  0.00000000000E+00 0.  1.
         25    2    1    2    0    0 -0.10587537137E+02 -0.22616460447E+02  0.33526157598E+03  0.35870796688E+03  0.12508989149E+03 0.  0.
         23    2    1    2    0    0  0.10587537137E+02  0.22616460447E+02  0.12529278552E+03  0.15748989203E+03  0.92093342648E+02 0.  0.
          5    1    3    3  502    0 -0.48409228519E+02  0.11486041048E+02  0.27590957056E+03  0.28039070254E+03  0.41800000000E+01 0. -1.
         -5    1    3    3    0  502  0.37821691382E+02 -0.34102501495E+02  0.59352005419E+02  0.78317264345E+02  0.41800000000E+01 0. -1.
        -11    1    4    4    0    0  0.16475031124E+02 -0.11639403362E+02 -0.64980386585E+01  0.21192613515E+02  0.00000000000E+00 0.  1.
         11    1    4    4    0    0 -0.58874939873E+01  0.34255863810E+02  0.13179082418E+03  0.13629727851E+03  0.00000000000E+00 0. -1.
</event>
<event>
 8    1  0.6703334E-009  0.1083148E+03  0.7561462E-02  0.1263723E+00
          2   -1    0    0  501    0  0.00000000000E+00  0.00000000000E+00  0.33046386661E+03  0.33046386661E+03  0.00000000000E+00 0. -1.
         -2   -1    0    0    0  501 -0.00000000000E+00 -0.00000000000E+00 -0.78015596760E+02  0.78015596760E+02  0.00000000000E+00 0.  1.
         25    2    1    2    0    0 -0.42781171408E+02 -0.49101054033E+02  0.26087218952E+03  0.29655248094E+03  0.12509169656E+03 0.  0.
         23    2    1    2    0    0  0.42781171408E+02  0.49101054033E+02 -0.84239196750E+01  0.11192698243E+03  0.90639642758E+02 0.  0.
          5    1    3    3  502    0 -0.50596815852E+02  0.24084989307E+02  0.17275313090E+03  0.18166243729E+03  0.41800000000E+01 0.  1.
         -5    1    3    3    0  502  0.78156444445E+01 -0.73186043340E+02  0.88119058622E+02  0.11489004365E+03  0.41800000000E+01 0.  1.
        -11    1    4    4    0    0  0.35109935745E+01 -0.12875531186E+02 -0.32154602904E+02  0.34814147514E+02  0.00000000000E+00 0.  1.
         11    1    4    4    0    0  0.39270177833E+02  0.61976585220E+02  0.23730683229E+02  0.77112834918E+02  0.00000000000E+00 0. -1.
</event>
<event>
 8    1  0.6703334E-009  0.1058615E+03  0.7561462E-02  0.1268431E+00
          1   -1    0    0  501    0  0.00000000000E+00  0.00000000000E+00  0.52968625230E+03  0.52968625230E+03  0.00000000000E+00 0. -1.
         -1   -1    0    0    0  501 -0.00000000000E+00 -0.00000000000E+00 -0.26108778596E+02  0.26108778596E+02  0.00000000000E+00 0.  1.
         25    2    1    2    0    0  0.39165847257E+02  0.24713467864E+02  0.28999905275E+03  0.31920741536E+03  0.12509677989E+03 0.  0.
         23    2    1    2    0    0 -0.39165847257E+02 -0.24713467864E+02  0.21357842095E+03  0.23658761553E+03  0.90626921180E+02 0.  0.
          5    1    3    3  502    0 -0.34733785461E+02  0.36381863811E+02  0.66523780605E+02  0.83504261286E+02  0.41800000000E+01 0.  1.
         -5    1    3    3    0  502  0.73899632718E+02 -0.11668395947E+02  0.22347527215E+03  0.23570315408E+03  0.41800000000E+01 0.  1.
        -11    1    4    4    0    0 -0.11855977647E+02 -0.48606476762E+02  0.56925473667E+02  0.75786960233E+02  0.00000000000E+00 0.  1.
         11    1    4    4    0    0 -0.27309869610E+02  0.23893008897E+02  0.15665294728E+03  0.16080065530E+03  0.00000000000E+00 0. -1.
</event>
<event>
 8    1  0.6703334E-009  0.8495717E+02  0.7561462E-02  0.1315545E+00
         -2   -1    0    0    0  501 -0.00000000000E+00  0.00000000000E+00  0.15453228200E+03  0.15453228200E+03  0.00000000000E+00 0.  1.
          2   -1    0    0  501    0  0.00000000000E+00 -0.00000000000E+00 -0.81097281389E+02  0.81097281389E+02  0.00000000000E+00 0. -1.
         25    2    1    2    0    0  0.17759504231E+02  0.45985022680E+01  0.17269951628E+02  0.12760328772E+03  0.12509117313E+03 0.  0.
         23    2    1    2    0    0 -0.17759504231E+02 -0.45985022680E+01  0.56165048988E+02  0.10802627567E+03  0.90435708068E+02 0.  0.
          5    1    3    3  502    0 -0.36441243178E+02  0.31902886267E+02 -0.23877495567E+02  0.54160553460E+02  0.41800000000E+01 0. -1.
         -5    1    3    3    0  502  0.54200747410E+02 -0.27304383999E+02  0.41147447195E+02  0.73442734263E+02  0.41800000000E+01 0. -1.
        -11    1    4    4    0    0 -0.12215730217E+02  0.26340865582E+02  0.68391616928E+02  0.74299922816E+02  0.00000000000E+00 0.  1.
         11    1    4    4    0    0 -0.55437740141E+01 -0.30939367850E+02 -0.12226567940E+02  0.33726352855E+02  0.00000000000E+00 0. -1.
</event>
<event>
 8    1  0.6703334E-009  0.1059824E+03  0.7561462E-02  0.1268196E+00
         -1   -1    0    0    0  501 -0.00000000000E+00  0.00000000000E+00  0.13807938743E+03  0.13807938743E+03  0.00000000000E+00 0.  1.
          1   -1    0    0  501    0  0.00000000000E+00 -0.00000000000E+00 -0.13155721403E+03  0.13155721403E+03  0.00000000000E+00 0. -1.
         25    2    1    2    0    0  0.43607901154E+02 -0.68670987359E+02  0.71548397133E+01  0.14938380280E+03  0.12508787015E+03 0.  0.
         23    2    1    2    0    0 -0.43607901154E+02  0.68670987359E+02 -0.63266631111E+00  0.12025279866E+03  0.88560610723E+02 0.  0.
          5    1    3    3  502    0  0.63901419422E+02 -0.53937331864E+02  0.51478639808E+02  0.98286061724E+02  0.41800000000E+01 0. -1.
         -5    1    3    3    0  502 -0.20293518268E+02 -0.14733655495E+02 -0.44323800095E+02  0.51097741074E+02  0.41800000000E+01 0. -1.
        -11    1    4    4    0    0 -0.19369176474E+02  0.75246613268E+02  0.27609371289E+02  0.82459051587E+02  0.00000000000E+00 0.  1.
         11    1    4    4    0    0 -0.24238724680E+02 -0.65756259099E+01 -0.28242037600E+02  0.37793747075E+02  0.00000000000E+00 0. -1.
</event>
<event>
 8    1  0.6703334E-009  0.9902454E+02  0.7561462E-02  0.1282361E+00
          2   -1    0    0  501    0  0.00000000000E+00  0.00000000000E+00  0.28620316108E+02  0.28620316108E+02  0.00000000000E+00 0.  1.
         -2   -1    0    0    0  501 -0.00000000000E+00 -0.00000000000E+00 -0.46520308832E+03  0.46520308832E+03  0.00000000000E+00 0. -1.
         25    2    1    2    0    0 -0.36962167430E+02 -0.72660194611E+01 -0.25646045547E+03  0.28781688150E+03  0.12509034814E+03 0.  0.
         23    2    1    2    0    0  0.36962167430E+02  0.72660194611E+01 -0.18012231674E+03  0.20600652293E+03  0.92604760354E+02 0.  0.
          5    1    3    3  502    0 -0.70525089519E+02 -0.38076896044E+02 -0.12427140030E+03  0.14793407855E+03  0.41800000000E+01 0. -1.
         -5    1    3    3    0  502  0.33562922089E+02  0.30810876583E+02 -0.13218905517E+03  0.13988280295E+03  0.41800000000E+01 0. -1.
        -11    1    4    4    0    0  0.19909117053E+02 -0.27128746943E+02 -0.15646916424E+02  0.37110212154E+02  0.00000000000E+00 0.  1.
         11    1    4    4    0    0  0.17053050377E+02  0.34394766404E+02 -0.16447540032E+03  0.16889631078E+03  0.00000000000E+00 0. -1.
</event>
<event>
 8    1  0.6703334E-009  0.1258337E+03  0.7561462E-02  0.1233772E+00
         -2   -1    0    0    0  501 -0.00000000000E+00  0.00000000000E+00  0.20554469313E+03  0.20554469313E+03  0.00000000000E+00 0.  1.
          2   -1    0    0  501    0  0.00000000000E+00 -0.00000000000E+00 -0.91478969705E+02  0.91478969705E+02  0.00000000000E+00 0. -1.
         25    2    1    2    0    0  0.24633377335E+02  0.74982633607E+02  0.94839739358E+02  0.17570514611E+03  0.12509405896E+03 0.  0.
         23    2    1    2    0    0 -0.24633377335E+02 -0.74982633607E+02  0.19225984064E+02  0.12131851672E+03  0.90107410425E+02 0.  0.
          5    1    3    3  502    0 -0.90571339846E+00  0.10435400834E+03  0.86662063760E+02  0.13571427732E+03  0.41800000000E+01 0.  1.
         -5    1    3    3    0  502  0.25539090734E+02 -0.29371374729E+02  0.81776755984E+01  0.39990868798E+02  0.41800000000E+01 0.  1.
        -11    1    4    4    0    0  0.15125598413E+02 -0.65475865839E+02 -0.13995230304E+02  0.68642109569E+02  0.00000000000E+00 0. -1.
         11    1    4    4    0    0 -0.39758975749E+02 -0.95067677680E+01  0.33221214368E+02  0.52676407148E+02  0.00000000000E+00 0.  1.
</event>
<event>
 8    1  0.6703334E-009  0.1360132E+03  0.7561462E-02  0.1218796E+00
         -3   -1    0    0    0  501 -0.00000000000E+00  0.00000000000E+00  0.76438172734E+02  0.76438172734E+02  0.00000000000E+00 0.  1.
          3   -1    0    0  501    0  0.00000000000E+00 -0.00000000000E+00 -0.29775947151E+03  0.29775947151E+03  0.00000000000E+00 0. -1.
         25    2    1    2    0    0 -0.86246493941E+02 -0.55458264923E+02 -0.94223129343E+02  0.18718832168E+03  0.12508953915E+03 0.  0.
         23    2    1    2    0    0  0.86246493941E+02  0.55458264923E+02 -0.12709816943E+03  0.18700932256E+03  0.91128838400E+02 0.  0.
          5    1    3    3  502    0 -0.11867426656E+03 -0.44452466342E+02 -0.68184440940E+02  0.14396594630E+03  0.41800000000E+01 0.  1.
         -5    1    3    3    0  502  0.32427772620E+02 -0.11005798581E+02 -0.26038688403E+02  0.43222375377E+02  0.41800000000E+01 0.  1.
        -11    1    4    4    0    0  0.36256978965E+02  0.25417496171E+00 -0.10226716455E+03  0.10850440578E+03  0.00000000000E+00 0. -1.
         11    1    4    4    0    0  0.49989514976E+02  0.55204089961E+02 -0.24831004880E+02  0.78504916785E+02  0.00000000000E+00 0.  1.
</event>
<event>
 8    1  0.6703334E-009  0.1502777E+03  0.7561462E-02  0.1200132E+00
         -1   -1    0    0    0  501 -0.00000000000E+00  0.00000000000E+00  0.82039079379E+03  0.82039079379E+03  0.00000000000E+00 0.  1.
          1   -1    0    0  501    0  0.00000000000E+00 -0.00000000000E+00 -0.44327305479E+02  0.44327305479E+02  0.00000000000E+00 0. -1.
         25    2    1    2    0    0 -0.10843390649E+03  0.81264203567E+02  0.58570156407E+03  0.61404869805E+03  0.12509076131E+03 0.  0.
         23    2    1    2    0    0  0.10843390649E+03 -0.81264203567E+02  0.19036192425E+03  0.25066940122E+03  0.90750777667E+02 0.  0.
          5    1    3    3  502    0 -0.39752476507E+02 -0.10741612172E+02  0.44444478520E+02  0.60732410551E+02  0.41800000000E+01 0.  1.
         -5    1    3    3    0  502 -0.68681429988E+02  0.92005815739E+02  0.54125708555E+03  0.55331628750E+03  0.41800000000E+01 0.  1.
        -11    1    4    4    0    0  0.72329941701E+02 -0.23305657489E+02  0.40788783696E+02  0.86246733347E+02  0.00000000000E+00 0. -1.
         11    1    4    4    0    0  0.36103964794E+02 -0.57958546078E+02  0.14957314055E+03  0.16442266788E+03  0.00000000000E+00 0.  1.
</event>
<event>
 8    1  0.6703334E-009  0.1189587E+03  0.7561462E-02  0.1244825E+00
         -1   -1    0    0    0  501 -0.00000000000E+00  0.00000000000E+00  0.64751195993E+02  0.64751195993E+02  0.00000000000E+00 0.  1.
          1   -1    0    0  501    0  0.00000000000E+00 -0.00000000000E+00 -0.22616206977E+03  0.22616206977E+03  0.00000000000E+00 0. -1.
         25    2    1    2    0    0 -0.52863149241E+02 -0.22011335001E+02 -0.93428702022E+02  0.16630683812E+03  0.12510008245E+03 0.  0.
         23    2    1    2    0    0  0.52863149241E+02  0.22011335001E+02 -0.67982171759E+02  0.12460642764E+03  0.87327972134E+02 0.  0.
          5    1    3    3  502    0 -0.62799354705E+02 -0.66127506983E+02 -0.53351435413E+02  0.10573766685E+03  0.41800000000E+01 0. -1.
         -5    1    3    3    0  502  0.99362054641E+01  0.44116171982E+02 -0.40077266609E+02  0.60569171269E+02  0.41800000000E+01 0. -1.
        -11    1    4    4    0    0  0.70625245209E+02  0.35370078559E+02 -0.64776135174E+02  0.10215143370E+03  0.00000000000E+00 0. -1.
         11    1    4    4    0    0 -0.17762095968E+02 -0.13358743558E+02 -0.32060365844E+01  0.22454993948E+02  0.00000000000E+00 0.  1.
</event>
<event>
 8    1  0.6703334E-009  0.1505702E+03  0.7561462E-02  0.1199774E+00
          1   -1    0    0  501    0  0.00000000000E+00  0.00000000000E+00  0.61650658070E+03  0.61650658070E+03  0.00000000000E+00 0. -1.
         -1   -1    0    0    0  501 -0.00000000000E+00 -0.00000000000E+00 -0.59489964550E+02  0.59489964550E+02  0.00000000000E+00 0.  1.
         25    2    1    2    0    0 -0.79854921078E+02  0.11101883160E+03  0.15904732967E+03  0.24422407551E+03  0.12508939440E+03 0.  0.
         23    2    1    2    0    0  0.79854921078E+02 -0.11101883160E+03  0.39796928647E+03  0.43177246974E+03  0.96674315405E+02 0.  0.
          5    1    3    3  502    0 -0.60416876673E+02  0.10399550074E+03  0.17866997756E+03  0.21541981442E+03  0.41800000000E+01 0.  1.
         -5    1    3    3    0  502 -0.19438044405E+02  0.70233308556E+01 -0.19622647891E+02  0.28804261089E+02  0.41800000000E+01 0.  1.
        -11    1    4    4    0    0 -0.28112823965E+01 -0.65072190151E+02  0.22958648840E+03  0.23864670309E+03  0.00000000000E+00 0. -1.
         11    1    4    4    0    0  0.82666203475E+02 -0.45946641446E+02  0.16838279808E+03  0.19312576665E+03  0.00000000000E+00 0.  1.
</event>
<event>
 8    1  0.6703334E-009  0.1262332E+03  0.7561462E-02  0.1233155E+00
         -2   -1    0    0    0  501 -0.00000000000E+00  0.00000000000E+00  0.37276454765E+02  0.37276454765E+02  0.00000000000E+00 0.  1.
          2   -1    0    0  501    0  0.00000000000E+00 -0.00000000000E+00 -0.52657953910E+03  0.52657953910E+03  0.00000000000E+00 0. -1.
         25    2    1    2    0    0  0.55422627596E+02 -0.63697679440E+02 -0.31974178134E+03  0.35357108627E+03  0.12509454144E+03 0.  0.
         23    2    1    2    0    0 -0.55422627596E+02  0.63697679440E+02 -0.16956130300E+03  0.21028490760E+03  0.91321656098E+02 0.  0.
          5    1    3    3  502    0  0.31009519436E+02  0.35851078698E+02 -0.11833580245E+03  0.12754499082E+03  0.41800000000E+01 0.  1.
         -5    1    3    3    0  502  0.24413108160E+02 -0.99548758138E+02 -0.20140597888E+03  0.22602609545E+03  0.41800000000E+01 0.  1.
        -11    1    4    4    0    0 -0.17958035853E+02 -0.93175195240E+01 -0.10199849182E+03  0.10398557379E+03  0.00000000000E+00 0. -1.
         11    1    4    4    0    0 -0.37464591742E+02  0.73015198964E+02 -0.67562811177E+02  0.10629933381E+03  0.00000000000E+00 0.  1.
</event>
<event>
 8    1  0.6703334E-009  0.8842879E+02  0.7561462E-02  0.1306702E+00
          3   -1    0    0  501    0  0.00000000000E+00  0.00000000000E+00  0.20141049124E+03  0.20141049124E+03  0.00000000000E+00 0. -1.
         -3   -1    0    0    0  501 -0.00000000000E+00 -0.00000000000E+00 -0.61745824909E+02  0.61745824909E+02  0.00000000000E+00 0.  1.
         25    2    1    2    0    0 -0.11569217519E+02  0.16347729209E+02  0.70127087793E+02  0.14480271717E+03  0.12509565705E+03 0.  0.
         23    2    1    2    0    0  0.11569217519E+02 -0.16347729209E+02  0.69537578533E+02  0.11835359897E+03  0.93653641239E+02 0.  0.
          5    1    3    3  502    0  0.31137050983E+02 -0.41477830841E+02  0.15108237602E+02  0.54181709448E+02  0.41800000000E+01 0. -1.
         -5    1    3    3    0  502 -0.42706268503E+02  0.57825560050E+02  0.55018850190E+02  0.90621007723E+02  0.41800000000E+01 0. -1.
        -11    1    4    4    0    0  0.22087947891E+02  0.10149777284E+02 -0.15388713806E+02  0.28769913687E+02  0.00000000000E+00 0.  1.
         11    1    4    4    0    0 -0.10518730372E+02 -0.26497506493E+02  0.84926292339E+02  0.89583685286E+02  0.00000000000E+00 0. -1.
</event>
<event>
 8    1  0.6703334E-009  0.1700027E+03  0.7561462E-02  0.1177845E+00
          4   -1    0    0  501    0  0.00000000000E+00  0.00000000000E+00  0.37818411771E+02  0.37818411771E+02  0.00000000000E+00 0. -1.
         -4   -1    0    0    0  501 -0.00000000000E+00 -0.00000000000E+00 -0.86251419380E+03  0.86251419380E+03  0.00000000000E+00 0.  1.
         25    2    1    2    0    0 -0.47683581185E+02 -0.13646755345E+03 -0.40247085644E+03  0.44556435781E+03  0.12509072552E+03 0.  0.
         23    2    1    2    0    0  0.47683581185E+02  0.13646755345E+03 -0.42222492559E+03  0.45476824776E+03  0.87425135515E+02 0.  0.
          5    1    3    3  502    0 -0.32183554493E+02 -0.15794864910E+03 -0.31203530947E+03  0.35123647830E+03  0.41800000000E+01 0.  1.
         -5    1    3    3    0  502 -0.15500026692E+02  0.21481095649E+02 -0.90435546974E+02  0.94327879517E+02  0.41800000000E+01 0.  1.
        -11    1    4    4    0    0 -0.38230746830E+01  0.57702046813E+02 -0.73248429751E+02  0.93324565724E+02  0.00000000000E+00 0. -1.
         11    1    4    4    0    0  0.51506655868E+02  0.78765506639E+02 -0.34897649584E+03  0.36144368204E+03  0.00000000000E+00 0.  1.
</event>
<event>
 8    1  0.6703334E-009  0.7947594E+02  0.7561462E-02  0.1330545E+00
         -2   -1    0    0    0  501 -0.00000000000E+00  0.00000000000E+00  0.85835444986E+02  0.85835444986E+02  0.00000000000E+00 0.  1.
          2   -1    0    0  501    0  0.00000000000E+00 -0.00000000000E+00 -0.17371422071E+03  0.17371422071E+03  0.00000000000E+00 0. -1.
         25    2    1    2    0    0 -0.45367271404E+02  0.93593381139E+01 -0.15291123269E+02  0.13426592907E+03  0.12509090588E+03 0.  0.
         23    2    1    2    0    0  0.45367271404E+02 -0.93593381139E+01 -0.72587652456E+02  0.12528373662E+03  0.91001433226E+02 0.  0.
          5    1    3    3  502    0 -0.58140187775E+02 -0.38359163810E-01 -0.61798559533E+02  0.84951852636E+02  0.41800000000E+01 0.  1.
         -5    1    3    3    0  502  0.12772916371E+02  0.93976972777E+01  0.46507436264E+02  0.49314076435E+02  0.41800000000E+01 0.  1.
        -11    1    4    4    0    0  0.59892697240E+02 -0.23171011089E+02 -0.81151499841E+02  0.10348718212E+03  0.00000000000E+00 0. -1.
         11    1    4    4    0    0 -0.14525425836E+02  0.13811672975E+02  0.85638473853E+01  0.21796554501E+02  0.00000000000E+00 0.  1.
</event>
<event>
 8    1  0.6703334E-009  0.6951509E+02  0.7561462E-02  0.1361750E+00
         -2   -1    0    0    0  501 -0.00000000000E+00  0.00000000000E+00  0.22978096265E+02  0.22978096265E+02  0.00000000000E+00 0. -1.
          2   -1    0    0  501    0  0.00000000000E+00 -0.00000000000E+00 -0.68382427119E+03  0.68382427119E+03  0.00000000000E+00 0.  1.
         25    2    1    2    0    0 -0.21473405114E+02 -0.17706664357E+02 -0.58293815381E+03  0.59685788137E+03  0.12509119192E+03 0.  0.
         23    2    1    2    0    0  0.21473405114E+02  0.17706664357E+02 -0.77908021117E+02  0.10994448609E+03  0.72411996084E+02 0.  0.
          5    1    3    3  502    0 -0.39973251268E+02 -0.15446243682E+02 -0.57427118644E+03  0.57588307427E+03  0.41800000000E+01 0.  1.
         -5    1    3    3    0  502  0.18499846154E+02 -0.22604206746E+01 -0.86669673729E+01  0.20974807098E+02  0.41800000000E+01 0.  1.
        -11    1    4    4    0    0  0.14126878271E+02  0.45750787184E+02 -0.55520870601E+02  0.73316234832E+02  0.00000000000E+00 0. -1.
         11    1    4    4    0    0  0.73465268432E+01 -0.28044122827E+02 -0.22387150516E+02  0.36628251256E+02  0.00000000000E+00 0.  1.
</event>
<event>
 8    1  0.6703334E-009  0.1038660E+03  0.7561462E-02  0.1272370E+00
         -2   -1    0    0    0  501 -0.00000000000E+00  0.00000000000E+00  0.75987361305E+02  0.75987361305E+02  0.00000000000E+00 0.  1.
          2   -1    0    0  501    0  0.00000000000E+00 -0.00000000000E+00 -0.16970140995E+03  0.16970140995E+03  0.00000000000E+00 0. -1.
         25    2    1    2    0    0 -0.44687362569E+02  0.21123573742E+02 -0.91834356254E+02  0.16286312884E+03  0.12509070312E+03 0.  0.
         23    2    1    2    0    0  0.44687362569E+02 -0.21123573742E+02 -0.18796923906E+01  0.82825642410E+02  0.66433335428E+02 0.  0.
          5    1    3    3  502    0 -0.65360796184E+02 -0.33110957261E+02 -0.34217701400E+02  0.80973407102E+02  0.41800000000E+01 0. -1.
         -5    1    3    3    0  502  0.20673433615E+02  0.54234531003E+02 -0.57616654854E+02  0.81889721742E+02  0.41800000000E+01 0. -1.
        -11    1    4    4    0    0  0.11759799911E+02 -0.37554518505E+02  0.15288821817E+02  0.42218275979E+02  0.00000000000E+00 0. -1.
         11    1    4    4    0    0  0.32927562658E+02  0.16430944763E+02 -0.17168514207E+02  0.40607366431E+02  0.00000000000E+00 0.  1.
</event>
<event>
 8    1  0.6703334E-009  0.1257792E+03  0.7561462E-02  0.1233857E+00
         -1   -1    0    0    0  501 -0.00000000000E+00  0.00000000000E+00  0.11958953484E+03  0.11958953484E+03  0.00000000000E+00 0.  1.
          1   -1    0    0  501    0  0.00000000000E+00 -0.00000000000E+00 -0.16229222116E+03  0.16229222116E+03  0.00000000000E+00 0. -1.
         25    2    1    2    0    0 -0.42253067068E+02  0.59072603760E+02  0.25495082552E+02  0.14687652045E+03  0.12509124203E+03 0.  0.
         23    2    1    2    0    0  0.42253067068E+02 -0.59072603760E+02 -0.68197768869E+02  0.13500523555E+03  0.91107539506E+02 0.  0.
          5    1    3    3  502    0 -0.34661699095E+02  0.98027469767E+02  0.11996945933E+02  0.10474835237E+03  0.41800000000E+01 0. -1.
         -5    1    3    3    0  502 -0.75913679729E+01 -0.38954866007E+02  0.13498136619E+02  0.42128168077E+02  0.41800000000E+01 0. -1.
        -11    1    4    4    0    0 -0.12348932520E+02  0.12499059802E+02 -0.34807260830E+02  0.38990614728E+02  0.00000000000E+00 0. -1.
         11    1    4    4    0    0  0.54601999588E+02 -0.71571663563E+02 -0.33390508039E+02  0.96014620820E+02  0.00000000000E+00 0.  1.
</event>
<event>
 8    1  0.6703334E-009  0.1165357E+03  0.7561462E-02  0.1248924E+00
         -2   -1    0    0    0  501 -0.00000000000E+00  0.00000000000E+00  0.97486400205E+02  0.97486400205E+02  0.00000000000E+00 0.  1.
          2   -1    0    0  501    0  0.00000000000E+00 -0.00000000000E+00 -0.19529253057E+03  0.19529253057E+03  0.00000000000E+00 0. -1.
         25    2    1    2    0    0  0.50929133132E+02  0.67067521426E+02 -0.35459636945E+02  0.15490776239E+03  0.12508876834E+03 0.  0.
         23    2    1    2    0    0 -0.50929133132E+02 -0.67067521426E+02 -0.62346493424E+02  0.13787116838E+03  0.89607727333E+02 0.  0.
          5    1    3    3  502    0  0.66473582912E+02  0.26130047566E+02 -0.69148223513E+02  0.99501084547E+02  0.41800000000E+01 0. -1.
         -5    1    3    3    0  502 -0.15544449780E+02  0.40937473860E+02  0.33688586569E+02  0.55406677847E+02  0.41800000000E+01 0. -1.
        -11    1    4    4    0    0  0.11668779500E+02 -0.51806766082E+02 -0.48606983746E+02  0.71991251523E+02  0.00000000000E+00 0. -1.
         11    1    4    4    0    0 -0.62597912632E+02 -0.15260755344E+02 -0.13739509678E+02  0.65879916862E+02  0.00000000000E+00 0.  1.
</event>
<event>
 8    1  0.6703334E-009  0.1316506E+03  0.7561462E-02  0.1225027E+00
         -2   -1    0    0    0  501 -0.00000000000E+00  0.00000000000E+00  0.34772193227E+02  0.34772193227E+02  0.00000000000E+00 0.  1.
          2   -1    0    0  501    0  0.00000000000E+00 -0.00000000000E+00 -0.61036328582E+03  0.61036328582E+03  0.00000000000E+00 0. -1.
         25    2    1    2    0    0 -0.82351943373E+02  0.42331661483E+02 -0.23672346296E+03  0.28330112075E+03  0.12509082686E+03 0.  0.
         23    2    1    2    0    0  0.82351943373E+02 -0.42331661483E+02 -0.33886762963E+03  0.36183435829E+03  0.86712284527E+02 0.  0.
          5    1    3    3  502    0  0.21344002627E+02  0.23377456396E+02 -0.12754248039E+03  0.13147862419E+03  0.41800000000E+01 0. -1.
         -5    1    3    3    0  502 -0.10369594600E+03  0.18954205086E+02 -0.10918098257E+03  0.15182249656E+03  0.41800000000E+01 0. -1.
        -11    1    4    4    0    0  0.16646500608E+02 -0.56292079149E+02 -0.13577362843E+03  0.14792018907E+03  0.00000000000E+00 0. -1.
         11    1    4    4    0    0  0.65705442765E+02  0.13960417666E+02 -0.20309400120E+03  0.21391416922E+03  0.00000000000E+00 0.  1.
</event>
<event>
 8    1  0.6703334E-009  0.1190741E+03  0.7561462E-02  0.1244632E+00
          1   -1    0    0  501    0  0.00000000000E+00  0.00000000000E+00  0.13816511670E+03  0.13816511670E+03  0.00000000000E+00 0. -1.
         -1   -1    0    0    0  501 -0.00000000000E+00 -0.00000000000E+00 -0.16787121193E+03  0.16787121193E+03  0.00000000000E+00 0.  1.
         25    2    1    2    0    0 -0.67368330921E+02 -0.50559190677E+02 -0.79041321902E+02  0.17026525774E+03  0.12509198077E+03 0.  0.
         23    2    1    2    0    0  0.67368330921E+02  0.50559190677E+02  0.49335226669E+02  0.13577107090E+03  0.94366812647E+02 0.  0.
          5    1    3    3  502    0 -0.56585054081E+02  0.24498799021E+02 -0.70638540045E+02  0.93858058996E+02  0.41800000000E+01 0. -1.
         -5    1    3    3    0  502 -0.10783276840E+02 -0.75057989698E+02 -0.84027818564E+01  0.76407198744E+02  0.41800000000E+01 0. -1.
        -11    1    4    4    0    0  0.26162243741E+02  0.53019123771E+02 -0.13448188182E+02  0.60632864425E+02  0.00000000000E+00 0.  1.
         11    1    4    4    0    0  0.41206087180E+02 -0.24599330931E+01  0.62783414852E+02  0.75138206473E+02  0.00000000000E+00 0. -1.
</event>
<event>
 8    1  0.6703334E-009  0.1215572E+03  0.7561462E-02  0.1240550E+00
         -1   -1    0    0    0  501 -0.00000000000E+00  0.00000000000E+00  0.14968453721E+03  0.14968453721E+03  0.00000000000E+00 0.  1.
          1   -1    0    0  501    0  0.00000000000E+00 -0.00000000000E+00 -0.13347099827E+03  0.13347099827E+03  0.00000000000E+00 0. -1.
         25    2    1    2    0    0 -0.78933103403E+02 -0.26722583296E+02  0.44023636110E+02  0.15661764672E+03  0.12508587233E+03 0.  0.
         23    2    1    2    0    0  0.78933103403E+02  0.26722583296E+02 -0.27810097169E+02  0.12653788877E+03  0.91070876347E+02 0.  0.
          5    1    3    3  502    0 -0.17624623339E+02  0.35306770763E+02 -0.23607985757E+02  0.46173637512E+02  0.41800000000E+01 0. -1.
         -5    1    3    3    0  502 -0.61308480064E+02 -0.62029354059E+02  0.67631621867E+02  0.11044400920E+03  0.41800000000E+01 0. -1.
        -11    1    4    4    0    0  0.88559703577E+02  0.42035952853E+02 -0.60140972509E+01  0.98214111999E+02  0.00000000000E+00 0.  1.
         11    1    4    4    0    0 -0.96266001740E+01 -0.15313369557E+02 -0.21795999918E+02  0.28323776770E+02  0.00000000000E+00 0. -1.
</event>
<event>
 8    1  0.6703334E-009  0.1105145E+03  0.7561462E-02  0.1259620E+00
         -2   -1    0    0    0  501 -0.00000000000E+00  0.00000000000E+00  0.18261600963E+02  0.18261600963E+02  0.00000000000E+00 0.  1.
          2   -1    0    0  501    0  0.00000000000E+00 -0.00000000000E+00 -0.76613939547E+03  0.76613939547E+03  0.00000000000E+00 0. -1.
         25    2    1    2    0    0  0.30681256979E+02  0.40055357423E+02 -0.40371034652E+03  0.42564614092E+03  0.12508725835E+03 0.  0.
         23    2    1    2    0    0 -0.30681256979E+02 -0.40055357423E+02 -0.34416744798E+03  0.35875485551E+03  0.87795460679E+02 0.  0.
          5    1    3    3  502    0  0.20671797123E+02 -0.44703556022E+02 -0.14717404995E+03  0.15525271172E+03  0.41800000000E+01 0. -1.
         -5    1    3    3    0  502  0.10009459856E+02  0.84758913445E+02 -0.25653629658E+03  0.27039342920E+03  0.41800000000E+01 0. -1.
        -11    1    4    4    0    0 -0.53086826619E+02 -0.22378147740E+02 -0.30441616020E+03  0.30981961081E+03  0.00000000000E+00 0. -1.
         11    1    4    4    0    0  0.22405569640E+02 -0.17677209683E+02 -0.39751287786E+02  0.48935244699E+02  0.00000000000E+00 0.  1.
</event>
<event>
 8    1  0.6703334E-009  0.1705471E+03  0.7561462E-02  0.1177279E+00
         -2   -1    0    0    0  501 -0.00000000000E+00  0.00000000000E+00  0.36485329107E+02  0.36485329107E+02  0.00000000000E+00 0.  1.
          2   -1    0    0  501    0  0.00000000000E+00 -0.00000000000E+00 -0.10009390054E+04  0.10009390054E+04  0.00000000000E+00 0. -1.
         25    2    1    2    0    0 -0.89584940714E+02  0.12578587470E+03 -0.59300393129E+03  0.62541760792E+03  0.12508386742E+03 0.  0.
         23    2    1    2    0    0  0.89584940714E+02 -0.12578587470E+03 -0.37144974501E+03  0.41200672660E+03  0.89034160954E+02 0.  0.
          5    1    3    3  502    0 -0.60247457870E+02  0.13124412494E+03 -0.56852784977E+03  0.58659710609E+03  0.41800000000E+01 0.  1.
         -5    1    3    3    0  502 -0.29337482844E+02 -0.54582502427E+01 -0.24476081523E+02  0.38820501827E+02  0.41800000000E+01 0.  1.
        -11    1    4    4    0    0  0.87235226551E+02 -0.73275575139E+02 -0.31454175076E+03  0.33453820056E+03  0.00000000000E+00 0. -1.
         11    1    4    4    0    0  0.23497141632E+01 -0.52510299562E+02 -0.56907994250E+02  0.77468526036E+02  0.00000000000E+00 0.  1.
</event>
<event>
 8    1  0.6703334E-009  0.9969244E+02  0.7561462E-02  0.1280944E+00
         -4   -1    0    0    0  501 -0.00000000000E+00  0.00000000000E+00  0.41495508218E+03  0.41495508218E+03  0.00000000000E+00 0.  1.
          4   -1    0    0  501    0  0.00000000000E+00 -0.00000000000E+00 -0.36023445354E+02  0.36023445354E+02  0.00000000000E+00 0. -1.
         25    2    1    2    0    0 -0.50675940050E+02  0.13894056453E+02  0.26335809778E+03  0.29625350564E+03  0.12509019238E+03 0.  0.
         23    2    1    2    0    0  0.50675940050E+02 -0.13894056453E+02  0.11557353904E+03  0.15472502190E+03  0.88439209459E+02 0.  0.
          5    1    3    3  502    0  0.22215283265E+02  0.23722379640E+01  0.10109293525E-01  0.22729250443E+02  0.41800000000E+01 0.  1.
         -5    1    3    3    0  502 -0.72891223315E+02  0.11521818489E+02  0.26334798849E+03  0.27352425520E+03  0.41800000000E+01 0.  1.
        -11    1    4    4    0    0  0.75094981529E+02 -0.94450402029E+00  0.80955911977E+02  0.11042648243E+03  0.00000000000E+00 0. -1.
         11    1    4    4    0    0 -0.24419041479E+02 -0.12949552433E+02  0.34617627063E+02  0.44298539461E+02  0.00000000000E+00 0.  1.
</event>
<event>
 8    1  0.6703334E-009  0.1026348E+03  0.7561462E-02  0.1274851E+00
          2   -1    0    0  501    0  0.00000000000E+00  0.00000000000E+00  0.12349390672E+04  0.12349390672E+04  0.00000000000E+00 0. -1.
         -2   -1    0    0    0  501 -0.00000000000E+00 -0.00000000000E+00 -0.15371109481E+02  0.15371109481E+02  0.00000000000E+00 0.  1.
         25    2    1    2    0    0 -0.12162026831E+01 -0.72417000429E+02  0.96563924011E+03  0.97639770709E+03  0.12509052431E+03 0.  0.
         23    2    1    2    0    0  0.12162026831E+01  0.72417000429E+02  0.25392871757E+03  0.27391246956E+03  0.72818584641E+02 0.  0.
          5    1    3    3  502    0 -0.39381301619E+02 -0.32847239970E+02  0.14409448108E+03  0.15300496714E+03  0.41800000000E+01 0.  1.
         -5    1    3    3    0  502  0.38165098936E+02 -0.39569760460E+02  0.82154475903E+03  0.82339273995E+03  0.41800000000E+01 0.  1.
        -11    1    4    4    0    0  0.33872189536E+02  0.42935862014E+02  0.10192345651E+03  0.11566851109E+03  0.00000000000E+00 0.  1.
         11    1    4    4    0    0 -0.32655986853E+02  0.29481138415E+02  0.15200526107E+03  0.15824395847E+03  0.00000000000E+00 0. -1.
</event>
<event>
 8    1  0.6703334E-009  0.7167355E+02  0.7561462E-02  0.1354493E+00
          2   -1    0    0  501    0  0.00000000000E+00  0.00000000000E+00  0.54204151573E+03  0.54204151573E+03  0.00000000000E+00 0. -1.
         -2   -1    0    0    0  501 -0.00000000000E+00 -0.00000000000E+00 -0.24934218533E+02  0.24934218533E+02  0.00000000000E+00 0.  1.
         25    2    1    2    0    0  0.25767385151E+01  0.69106296518E+00  0.39700865340E+03  0.41625732803E+03  0.12508866899E+03 0.  0.
         23    2    1    2    0    0 -0.25767385151E+01 -0.69106296518E+00  0.12009864380E+03  0.15071840624E+03  0.91023274979E+02 0.  0.
          5    1    3    3  502    0  0.57663091232E+00  0.28773187046E+02  0.14147401562E+02  0.32339606784E+02  0.41800000000E+01 0.  1.
         -5    1    3    3    0  502  0.20001076028E+01 -0.28082124081E+02  0.38286125184E+03  0.38391772124E+03  0.41800000000E+01 0.  1.
        -11    1    4    4    0    0  0.12836946325E+02 -0.40833789195E+02  0.85164161271E+02  0.95315895295E+02  0.00000000000E+00 0. -1.
         11    1    4    4    0    0 -0.15413684840E+02  0.40142726229E+02  0.34934482525E+02  0.55402510943E+02  0.00000000000E+00 0.  1.
</event>
<event>
 8    1  0.6703334E-009  0.1209701E+03  0.7561462E-02  0.1241505E+00
          2   -1    0    0  501    0  0.00000000000E+00  0.00000000000E+00  0.42613413999E+02  0.42613413999E+02  0.00000000000E+00 0. -1.
         -2   -1    0    0    0  501 -0.00000000000E+00 -0.00000000000E+00 -0.56335116740E+03  0.56335116740E+03  0.00000000000E+00 0.  1.
         25    2    1    2    0    0  0.25639929046E+02  0.97983869050E+02 -0.36562670230E+03  0.39948562310E+03  0.12509049950E+03 0.  0.
         23    2    1    2    0    0 -0.25639929046E+02 -0.97983869050E+02 -0.15511105110E+03  0.20647895831E+03  0.91191433229E+02 0.  0.
          5    1    3    3  502    0  0.99252907580E+00  0.65340134530E+02 -0.34907328403E+03  0.35516186214E+03  0.41800000000E+01 0.  1.
         -5    1    3    3    0  502  0.24647399970E+02  0.32643734520E+02 -0.16553418274E+02  0.44323760956E+02  0.41800000000E+01 0.  1.
        -11    1    4    4    0    0 -0.58766159788E+02 -0.73739623368E+02 -0.96474124403E+02  0.13490089055E+03  0.00000000000E+00 0.  1.
         11    1    4    4    0    0  0.33126230742E+02 -0.24244245682E+02 -0.58636926695E+02  0.71578067759E+02  0.00000000000E+00 0. -1.
</event>
<event>
 8    1  0.6703334E-009  0.6857833E+02  0.7561462E-02  0.1364995E+00
          2   -1    0    0  501    0  0.00000000000E+00  0.00000000000E+00  0.35270247124E+03  0.35270247124E+03  0.00000000000E+00 0. -1.
         -2   -1    0    0    0  501 -0.00000000000E+00 -0.00000000000E+00 -0.32485582901E+02  0.32485582901E+02  0.00000000000E+00 0.  1.
         25    2    1    2    0    0  0.12040631929E+02  0.19409756141E+01  0.18625006655E+03  0.22468901890E+03  0.12508926301E+03 0.  0.
         23    2    1    2    0    0 -0.12040631929E+02 -0.19409756141E+01  0.13396682179E+03  0.16049903524E+03  0.87544770085E+02 0.  0.
          5    1    3    3  502    0 -0.17831199708E+02  0.32768729713E+01  0.19288160863E+03  0.19377687408E+03  0.41800000000E+01 0.  1.
         -5    1    3    3    0  502  0.29871831637E+02 -0.13358973572E+01 -0.66315420826E+01  0.30912144822E+02  0.41800000000E+01 0.  1.
        -11    1    4    4    0    0 -0.58088174715E+01 -0.44736435850E+02  0.66257221037E+02  0.80156786316E+02  0.00000000000E+00 0.  1.
         11    1    4    4    0    0 -0.62318144571E+01  0.42795460236E+02  0.67709600755E+02  0.80342248927E+02  0.00000000000E+00 0. -1.
</event>
<event>
 8    1  0.6703334E-009  0.1199693E+03  0.7561462E-02  0.1243148E+00
         -1   -1    0    0    0  501 -0.00000000000E+00  0.00000000000E+00  0.44046842977E+02  0.44046842977E+02  0.00000000000E+00 0.  1.
          1   -1    0    0  501    0  0.00000000000E+00 -0.00000000000E+00 -0.41934644407E+03  0.41934644407E+03  0.00000000000E+00 0. -1.
         25    2    1    2    0    0 -0.47400162941E+02 -0.18655911655E+02 -0.99022156696E+02  0.16745747647E+03  0.12506718364E+03 0.  0.
         23    2    1    2    0    0  0.47400162941E+02  0.18655911655E+02 -0.27627744440E+03  0.29593581057E+03  0.93026658598E+02 0.  0.
          5    1    3    3  502    0  0.40721492445E+02 -0.21333159126E+02 -0.41766827487E+02  0.62251778317E+02  0.41800000000E+01 0. -1.
         -5    1    3    3    0  502 -0.88121655386E+02  0.26772474711E+01 -0.57255329208E+02  0.10520569816E+03  0.41800000000E+01 0. -1.
        -11    1    4    4    0    0  0.18518451230E+02 -0.37805256649E+02 -0.12516807128E+03  0.13205762581E+03  0.00000000000E+00 0.  1.
         11    1    4    4    0    0  0.28881711712E+02  0.56461168304E+02 -0.15110937312E+03  0.16387818476E+03  0.00000000000E+00 0. -1.
</event>
<event>
 8    1  0.6703334E-009  0.1314903E+03  0.7561462E-02  0.1225261E+00
          1   -1    0    0  501    0  0.00000000000E+00  0.00000000000E+00  0.46968423364E+03  0.46968423364E+03  0.00000000000E+00 0. -1.
         -1   -1    0    0    0  501 -0.00000000000E+00 -0.00000000000E+00 -0.43028878754E+02  0.43028878754E+02  0.00000000000E+00 0.  1.
         25    2    1    2    0    0  0.15388758319E+02  0.89188116110E+02  0.26197576524E+03  0.30408809201E+03  0.12508769800E+03 0.  0.
         23    2    1    2    0    0 -0.15388758319E+02 -0.89188116110E+02  0.16467958965E+03  0.20862502039E+03  0.90629454084E+02 0.  0.
          5    1    3    3  502    0  0.36681581339E+02  0.10464202381E+03  0.13698099747E+03  0.17628601086E+03  0.41800000000E+01 0. -1.
         -5    1    3    3    0  502 -0.21292823020E+02 -0.15453907704E+02  0.12499476777E+03  0.12780208115E+03  0.41800000000E+01 0. -1.
        -11    1    4    4    0    0 -0.21703992892E+02  0.11451267014E+02  0.51455255646E+02  0.57007351783E+02  0.00000000000E+00 0.  1.
         11    1    4    4    0    0  0.63152345730E+01 -0.10063938312E+03  0.11322433400E+03  0.15161766860E+03  0.00000000000E+00 0. -1.
</event>
<event>
 8    1  0.6703334E-009  0.1074992E+03  0.7561462E-02  0.1265272E+00
          1   -1    0    0  501    0  0.00000000000E+00  0.00000000000E+00  0.76124099646E+02  0.76124099646E+02  0.00000000000E+00 0. -1.
         -1   -1    0    0    0  501 -0.00000000000E+00 -0.00000000000E+00 -0.34028819492E+03  0.34028819492E+03  0.00000000000E+00 0.  1.
         25    2    1    2    0    0  0.26571921332E+02  0.21956094213E+02  0.44168912574E+01  0.12983200115E+03  0.12509477414E+03 0.  0.
         23    2    1    2    0    0 -0.26571921332E+02 -0.21956094213E+02 -0.26858098653E+03  0.28658029342E+03  0.93831664013E+02 0.  0.
          5    1    3    3  502    0  0.64656367240E+02  0.38674648085E+02 -0.24120688616E+02  0.79217764728E+02  0.41800000000E+01 0.  1.
         -5    1    3    3    0  502 -0.38084445908E+02 -0.16718553872E+02  0.28537579873E+02  0.50614236423E+02  0.41800000000E+01 0.  1.
        -11    1    4    4    0    0  0.13771969963E+02  0.29380363787E+02 -0.62769549999E+02  0.70660380271E+02  0.00000000000E+00 0. -1.
         11    1    4    4    0    0 -0.40343891295E+02 -0.51336458000E+02 -0.20581143653E+03  0.21591991315E+03  0.00000000000E+00 0.  1.
</event>
<event>
 8    1  0.6703334E-009  0.1360578E+03  0.7561462E-02  0.1218734E+00
         -1   -1    0    0    0  501 -0.00000000000E+00  0.00000000000E+00  0.13802437603E+03  0.13802437603E+03  0.00000000000E+00 0.  1.
          1   -1    0    0  501    0  0.00000000000E+00 -0.00000000000E+00 -0.20398183068E+03  0.20398183068E+03  0.00000000000E+00 0. -1.
         25    2    1    2    0    0 -0.24122534146E+02  0.88261474317E+02 -0.12671676923E+03  0.20019216843E+03  0.12509108759E+03 0.  0.
         23    2    1    2    0    0  0.24122534146E+02 -0.88261474317E+02  0.60759314579E+02  0.14181403827E+03  0.89708096856E+02 0.  0.
          5    1    3    3  502    0  0.27854042460E+02  0.94213015472E+02 -0.59575472050E+02  0.11497238467E+03  0.41800000000E+01 0.  1.
         -5    1    3    3    0  502 -0.51976576607E+02 -0.59515411552E+01 -0.67141297184E+02  0.85219783768E+02  0.41800000000E+01 0.  1.
        -11    1    4    4    0    0  0.40939721390E+02 -0.11227552407E+02  0.44125189046E+02  0.61230311358E+02  0.00000000000E+00 0. -1.
         11    1    4    4    0    0 -0.16817187244E+02 -0.77033921910E+02  0.16634125533E+02  0.80583726917E+02  0.00000000000E+00 0.  1.
</event>
<event>
 8    1  0.6703334E-009  0.1286846E+03  0.7561462E-02  0.1229421E+00
         -1   -1    0    0    0  501 -0.00000000000E+00  0.00000000000E+00  0.40846235718E+02  0.40846235718E+02  0.00000000000E+00 0.  1.
          1   -1    0    0  501    0  0.00000000000E+00 -0.00000000000E+00 -0.44260519198E+03  0.44260519198E+03  0.00000000000E+00 0. -1.
         25    2    1    2    0    0 -0.36342255983E+02  0.66570896430E+02 -0.18961960514E+03  0.23950626605E+03  0.12512079364E+03 0.  0.
         23    2    1    2    0    0  0.36342255983E+02 -0.66570896430E+02 -0.21213935112E+03  0.24394516164E+03  0.93561176648E+02 0.  0.
          5    1    3    3  502    0  0.31188806542E+02 -0.11687161480E+02 -0.15502428098E+02  0.36974708571E+02  0.41800000000E+01 0. -1.
         -5    1    3    3    0  502 -0.67531062525E+02  0.78258057910E+02 -0.17411717704E+03  0.20253155748E+03  0.41800000000E+01 0. -1.
        -11    1    4    4    0    0 -0.29542896458E+02 -0.39004991316E+02 -0.90955168433E+02  0.10328124100E+03  0.00000000000E+00 0.  1.
         11    1    4    4    0    0  0.65885152442E+02 -0.27565905114E+02 -0.12118418268E+03  0.14066392064E+03  0.00000000000E+00 0. -1.
</event>
<event>
 8    1  0.6703334E-009  0.1040583E+03  0.7561462E-02  0.1271986E+00
          1   -1    0    0  501    0  0.00000000000E+00  0.00000000000E+00  0.67839599074E+03  0.67839599074E+03  0.00000000000E+00 0. -1.
         -1   -1    0    0    0  501 -0.00000000000E+00 -0.00000000000E+00 -0.21875561630E+02  0.21875561630E+02  0.00000000000E+00 0.  1.
         25    2    1    2    0    0  0.12475545796E+02 -0.48807222295E+02  0.41630227277E+03  0.43759947384E+03  0.12509169840E+03 0.  0.
         23    2    1    2    0    0 -0.12475545796E+02  0.48807222295E+02  0.24021815635E+03  0.26267207853E+03  0.93563208625E+02 0.  0.
          5    1    3    3  502    0 -0.31570911316E+02  0.96065545945E+01  0.31263050689E+02  0.45649305262E+02  0.41800000000E+01 0. -1.
         -5    1    3    3    0  502  0.44046457112E+02 -0.58413776889E+02  0.38503922208E+03  0.39195016858E+03  0.41800000000E+01 0. -1.
        -11    1    4    4    0    0  0.19443068497E+02  0.63519227634E+02  0.11703415341E+03  0.13457235324E+03  0.00000000000E+00 0. -1.
         11    1    4    4    0    0 -0.31918614293E+02 -0.14712005339E+02  0.12318400294E+03  0.12809972529E+03  0.00000000000E+00 0.  1.
</event>
<event>
 8    1  0.6703334E-009  0.9507991E+02  0.7561462E-02  0.1290996E+00
          2   -1    0    0  501    0  0.00000000000E+00  0.00000000000E+00  0.39362672374E+03  0.39362672374E+03  0.00000000000E+00 0. -1.
         -2   -1    0    0    0  501 -0.00000000000E+00 -0.00000000000E+00 -0.40396358328E+02  0.40396358328E+02  0.00000000000E+00 0.  1.
         25    2    1    2    0    0  0.41702602152E+02  0.11202922546E+02  0.27242642782E+03  0.30286713242E+03  0.12509088224E+03 0.  0.
         23    2    1    2    0    0 -0.41702602152E+02 -0.11202922546E+02  0.80803937590E+02  0.13115594966E+03  0.93850915287E+02 0.  0.
          5    1    3    3  502    0 -0.14213830228E+02 -0.18279603236E+02  0.37054639609E+00  0.23532670245E+02  0.41800000000E+01 0. -1.
         -5    1    3    3    0  502  0.55916432379E+02  0.29482525782E+02  0.27205588143E+03  0.27933446217E+03  0.41800000000E+01 0. -1.
        -11    1    4    4    0    0 -0.71810425807E+02 -0.13558921516E+02  0.58584105788E+02  0.93662580886E+02  0.00000000000E+00 0.  1.
         11    1    4    4    0    0  0.30107823655E+02  0.23559989706E+01  0.22219831802E+02  0.37493368770E+02  0.00000000000E+00 0. -1.
</event>
<event>
 8    1  0.6703334E-009  0.9501508E+02  0.7561462E-02  0.1291142E+00
         -2   -1    0    0    0  501 -0.00000000000E+00  0.00000000000E+00  0.10403723890E+03  0.10403723890E+03  0.00000000000E+00 0. -1.
          2   -1    0    0  501    0  0.00000000000E+00 -0.00000000000E+00 -0.11588464265E+03  0.11588464265E+03  0.00000000000E+00 0.  1.
         25    2    1    2    0    0  0.30185910234E+02 -0.68934412920E+01 -0.31654742566E+01  0.12890287467E+03  0.12508885707E+03 0.  0.
         23    2    1    2    0    0 -0.30185910234E+02  0.68934412920E+01 -0.86819294921E+01  0.91019006877E+02  0.85149133899E+02 0.  0.
          5    1    3    3  502    0 -0.34720265834E+02 -0.31172299443E+02 -0.28690578685E+02  0.54934786952E+02  0.41800000000E+01 0. -1.
         -5    1    3    3    0  502  0.64906176068E+02  0.24278858151E+02  0.25525104429E+02  0.73968087721E+02  0.41800000000E+01 0. -1.
        -11    1    4    4    0    0  0.17843780239E+02 -0.12683300411E+02  0.21770071228E+02  0.30873979397E+02  0.00000000000E+00 0. -1.
         11    1    4    4    0    0 -0.48029690473E+02  0.19576741703E+02 -0.30452000721E+02  0.60145027480E+02  0.00000000000E+00 0.  1.
</event>
<event>
 8    1  0.6703334E-009  0.9056101E+02  0.7561462E-02  0.1301499E+00
          1   -1    0    0  501    0  0.00000000000E+00  0.00000000000E+00  0.27766062868E+03  0.27766062868E+03  0.00000000000E+00 0. -1.
         -1   -1    0    0    0  501 -0.00000000000E+00 -0.00000000000E+00 -0.54795029540E+02  0.54795029540E+02  0.00000000000E+00 0.  1.
         25    2    1    2    0    0 -0.24524143489E+02 -0.33989174813E+02  0.18837797205E+03  0.22997762804E+03  0.12508697546E+03 0.  0.
         23    2    1    2    0    0  0.24524143489E+02  0.33989174813E+02  0.34487627089E+02  0.10247803018E+03  0.86923257120E+02 0.  0.
          5    1    3    3  502    0 -0.38374169894E+02 -0.65465149934E+02  0.59483404651E+02  0.96509121848E+02  0.41800000000E+01 0. -1.
         -5    1    3    3    0  502  0.13850026405E+02  0.31475975121E+02  0.12889456740E+03  0.13346850619E+03  0.41800000000E+01 0. -1.
        -11    1    4    4    0    0  0.41480952505E+02  0.33826361372E+02 -0.10371919764E+02  0.54520352750E+02  0.00000000000E+00 0.  1.
         11    1    4    4    0    0 -0.16956809017E+02  0.16281344051E+00  0.44859546853E+02  0.47957677426E+02  0.00000000000E+00 0. -1.
</event>
<event>
 8    1  0.6703334E-009  0.8016148E+02  0.7561462E-02  0.1328594E+00
          2   -1    0    0  501    0  0.00000000000E+00  0.00000000000E+00  0.33779319271E+02  0.33779319271E+02  0.00000000000E+00 0. -1.
         -2   -1    0    0    0  501 -0.00000000000E+00 -0.00000000000E+00 -0.43812526746E+03  0.43812526746E+03  0.00000000000E+00 0.  1.
         25    2    1    2    0    0 -0.17566936772E+02  0.57308662455E+02 -0.24167236678E+03  0.27864969956E+03  0.12508893691E+03 0.  0.
         23    2    1    2    0    0  0.17566936772E+02 -0.57308662455E+02 -0.16267358140E+03  0.19325488717E+03  0.85392489528E+02 0.  0.
          5    1    3    3  502    0 -0.27560210222E+02  0.23261320323E+02 -0.20345192833E+01  0.36362974017E+02  0.41800000000E+01 0. -1.
         -5    1    3    3    0  502  0.99932734497E+01  0.34047342132E+02 -0.23963784750E+03  0.24228672554E+03  0.41800000000E+01 0. -1.
        -11    1    4    4    0    0 -0.93330381575E+01 -0.60485266861E+02 -0.55189499595E+02  0.82410278328E+02  0.00000000000E+00 0. -1.
         11    1    4    4    0    0  0.26899974929E+02  0.31766044061E+01 -0.10748408181E+03  0.11084460884E+03  0.00000000000E+00 0.  1.
</event>
<event>
 8    1  0.6703334E-009  0.9616301E+02  0.7561462E-02  0.1288578E+00
         -1   -1    0    0    0  501 -0.00000000000E+00  0.00000000000E+00  0.47500331017E+02  0.47500331017E+02  0.00000000000E+00 0.  1.
          1   -1    0    0  501    0  0.00000000000E+00 -0.00000000000E+00 -0.27457368441E+03  0.27457368441E+03  0.00000000000E+00 0. -1.
         25    2    1    2    0    0 -0.94562101480E+01 -0.19413381686E+02 -0.85378599123E+02  0.15298113644E+03  0.12508966233E+03 0.  0.
         23    2    1    2    0    0  0.94562101480E+01  0.19413381686E+02 -0.14169475427E+03  0.16909287898E+03  0.89714541941E+02 0.  0.
          5    1    3    3  502    0 -0.29556997371E+02  0.33036422584E+02 -0.85788363794E+02  0.96654731251E+02  0.41800000000E+01 0.  1.
         -5    1    3    3    0  502  0.20100787223E+02 -0.52449804270E+02  0.40976467152E+00  0.56326405193E+02  0.41800000000E+01 0.  1.
        -11    1    4    4    0    0  0.49018322652E+02  0.46088727878E+01 -0.87252589420E+02  0.10018508883E+03  0.00000000000E+00 0. -1.
         11    1    4    4    0    0 -0.39562112504E+02  0.14804508898E+02 -0.54442164846E+02  0.68907790145E+02  0.00000000000E+00 0.  1.
</event>
<event>
 8    1  0.6703334E-009  0.1477195E+03  0.7561462E-02  0.1203304E+00
          2   -1    0    0  501    0  0.00000000000E+00  0.00000000000E+00  0.14964995653E+03  0.14964995653E+03  0.00000000000E+00 0.  1.
         -2   -1    0    0    0  501 -0.00000000000E+00 -0.00000000000E+00 -0.32233153309E+03  0.32233153309E+03  0.00000000000E+00 0. -1.
         25    2    1    2    0    0 -0.93420132745E+02 -0.85488916281E+02  0.63443747967E+02  0.18896664080E+03  0.12509039200E+03 0.  0.
         23    2    1    2    0    0  0.93420132745E+02  0.85488916281E+02 -0.23612532453E+03  0.28301484882E+03  0.91140330033E+02 0.  0.
          5    1    3    3  502    0 -0.11926696720E+03 -0.69641342677E+02  0.73811689598E+02  0.15665300507E+03  0.41800000000E+01 0. -1.
         -5    1    3    3    0  502  0.25846834460E+02 -0.15847573604E+02 -0.10367941631E+02  0.32313635735E+02  0.41800000000E+01 0. -1.
        -11    1    4    4    0    0  0.34256599144E+02  0.29620915271E+02 -0.17628155856E+03  0.18200577214E+03  0.00000000000E+00 0. -1.
         11    1    4    4    0    0  0.59163533601E+02  0.55868001010E+02 -0.59843765975E+02  0.10100907668E+03  0.00000000000E+00 0.  1.
</event>
<event>
 8    1  0.6703334E-009  0.1018883E+03  0.7561462E-02  0.1276374E+00
         -2   -1    0    0    0  501 -0.00000000000E+00  0.00000000000E+00  0.29565549825E+03  0.29565549825E+03  0.00000000000E+00 0.  1.
          2   -1    0    0  501    0  0.00000000000E+00 -0.00000000000E+00 -0.57547973229E+02  0.57547973229E+02  0.00000000000E+00 0. -1.
         25    2    1    2    0    0  0.70345797336E+02 -0.26980805736E+02  0.13174394554E+03  0.19667448965E+03  0.12509153694E+03 0.  0.
         23    2    1    2    0    0 -0.70345797336E+02  0.26980805736E+02  0.10636357949E+03  0.15652898183E+03  0.86669579607E+02 0.  0.
          5    1    3    3  502    0  0.38485910923E+02 -0.40173138128E+02 -0.45963174493E+01  0.55978968378E+02  0.41800000000E+01 0.  1.
         -5    1    3    3    0  502  0.31859886413E+02  0.13192332392E+02  0.13634026299E+03  0.14069552128E+03  0.41800000000E+01 0.  1.
        -11    1    4    4    0    0 -0.86960664022E+02  0.69667454142E+01  0.92118253447E+02  0.12687184576E+03  0.00000000000E+00 0.  1.
         11    1    4    4    0    0  0.16614866686E+02  0.20014060322E+02  0.14245326040E+02  0.29657136064E+02  0.00000000000E+00 0. -1.
</event>
<event>
 8    1  0.6703334E-009  0.1362676E+03  0.7561462E-02  0.1218441E+00
         -3   -1    0    0    0  501 -0.00000000000E+00  0.00000000000E+00  0.24360433480E+03  0.24360433480E+03  0.00000000000E+00 0.  1.
          3   -1    0    0  501    0  0.00000000000E+00 -0.00000000000E+00 -0.10127013729E+03  0.10127013729E+03  0.00000000000E+00 0. -1.
         25    2    1    2    0    0 -0.43303630330E+02  0.10342595848E+03  0.93949131524E+02  0.19247311171E+03  0.12508927264E+03 0.  0.
         23    2    1    2    0    0  0.43303630330E+02 -0.10342595848E+03  0.48385065991E+02  0.15240136039E+03  0.91175252943E+02 0.  0.
          5    1    3    3  502    0 -0.13406192909E+02  0.12167198178E+03  0.41605453388E+02  0.12935332740E+03  0.41800000000E+01 0.  1.
         -5    1    3    3    0  502 -0.29897437421E+02 -0.18246023297E+02  0.52343678136E+02  0.63119784310E+02  0.41800000000E+01 0.  1.
        -11    1    4    4    0    0  0.54475779992E+01 -0.43907773023E+02 -0.24829971543E+02  0.50735550896E+02  0.00000000000E+00 0. -1.
         11    1    4    4    0    0  0.37856052331E+02 -0.59518185456E+02  0.73215037534E+02  0.10166580949E+03  0.00000000000E+00 0.  1.
</event>
<event>
 8    1  0.6703334E-009  0.9289119E+02  0.7561462E-02  0.1295998E+00
          1   -1    0    0  501    0  0.00000000000E+00  0.00000000000E+00  0.39738736042E+02  0.39738736042E+02  0.00000000000E+00 0. -1.
         -1   -1    0    0    0  501 -0.00000000000E+00 -0.00000000000E+00 -0.35636595093E+03  0.35636595093E+03  0.00000000000E+00 0.  1.
         25    2    1    2    0    0  0.28505329613E+02 -0.15206977301E+02 -0.24750312765E+03  0.27919492082E+03  0.12509276414E+03 0.  0.
         23    2    1    2    0    0 -0.28505329613E+02  0.15206977301E+02 -0.69124087236E+02  0.11690976615E+03  0.88577356077E+02 0.  0.
          5    1    3    3  502    0  0.21532422543E+02 -0.55784002635E+02 -0.22340450019E+03  0.23130616783E+03  0.41800000000E+01 0.  1.
         -5    1    3    3    0  502  0.69729070705E+01  0.40577025333E+02 -0.24098627464E+02  0.47888752996E+02  0.41800000000E+01 0.  1.
        -11    1    4    4    0    0 -0.51958531427E+02 -0.66699780200E+01 -0.66606544935E+02  0.84738476639E+02  0.00000000000E+00 0.  1.
         11    1    4    4    0    0  0.23453201814E+02  0.21876955321E+02 -0.25175423004E+01  0.32171289509E+02  0.00000000000E+00 0. -1.
</event>
<event>
 8    1  0.6703334E-009  0.9497698E+02  0.7561462E-02  0.1291228E+00
          2   -1    0    0  501    0  0.00000000000E+00  0.00000000000E+00  0.24672265917E+04  0.24672265917E+04  0.00000000000E+00 0. -1.
         -2   -1    0    0    0  501 -0.00000000000E+00 -0.00000000000E+00 -0.82746081538E+01  0.82746081538E+01  0.00000000000E+00 0.  1.
         25    2    1    2    0    0 -0.73120565170E+01  0.19263005437E+02  0.20270246926E+04  0.20309852158E+04  0.12508921943E+03 0.  0.
         23    2    1    2    0    0  0.73120565170E+01 -0.19263005437E+02  0.43192729092E+03  0.44451598403E+03  0.10299876635E+03 0.  0.
          5    1    3    3  502    0 -0.44722362527E+02  0.67325061315E+01  0.29236628713E+03  0.29587317316E+03  0.41800000000E+01 0.  1.
         -5    1    3    3    0  502  0.37410306010E+02  0.12530499306E+02  0.17346584055E+04  0.17351120426E+04  0.41800000000E+01 0.  1.
        -11    1    4    4    0    0 -0.40867710189E+02 -0.35382363460E+02  0.20969696901E+03  0.21655230359E+03  0.00000000000E+00 0.  1.
         11    1    4    4    0    0  0.48179766706E+02  0.16119358023E+02  0.22223032191E+03  0.22796368044E+03  0.00000000000E+00 0. -1.
</event>
<event>
 8    1  0.6703334E-009  0.9271773E+02  0.7561462E-02  0.1296401E+00
         -2   -1    0    0    0  501 -0.00000000000E+00  0.00000000000E+00  0.13821208484E+02  0.13821208484E+02  0.00000000000E+00 0.  1.
          2   -1    0    0  501    0  0.00000000000E+00 -0.00000000000E+00 -0.87303295074E+03  0.87303295074E+03  0.00000000000E+00 0. -1.
         25    2    1    2    0    0 -0.56342813326E+01 -0.91996092469E+01 -0.54153720412E+03  0.55590163612E+03  0.12509079764E+03 0.  0.
         23    2    1    2    0    0  0.56342813326E+01  0.91996092469E+01 -0.31767453814E+03  0.33095252311E+03  0.92174196141E+02 0.  0.
          5    1    3    3  502    0 -0.30086945290E+02  0.32308012118E+02 -0.45174805984E+03  0.45391939140E+03  0.41800000000E+01 0.  1.
         -5    1    3    3    0  502  0.24452663957E+02 -0.41507621365E+02 -0.89789144281E+02  0.10198224471E+03  0.41800000000E+01 0.  1.
        -11    1    4    4    0    0  0.40519373138E+02 -0.21847722681E+02 -0.16407883880E+03  0.17041422454E+03  0.00000000000E+00 0.  1.
         11    1    4    4    0    0 -0.34885091805E+02  0.31047331928E+02 -0.15359569934E+03  0.16053829856E+03  0.00000000000E+00 0. -1.
</event>
<event>
 8    1  0.6703334E-009  0.9387535E+02  0.7561462E-02  0.1293729E+00
          2   -1    0    0  501    0  0.00000000000E+00  0.00000000000E+00  0.59323282897E+03  0.59323282897E+03  0.00000000000E+00 0. -1.
         -2   -1    0    0    0  501 -0.00000000000E+00 -0.00000000000E+00 -0.25941148017E+02  0.25941148017E+02  0.00000000000E+00 0.  1.
         25    2    1    2    0    0 -0.38292103962E+02 -0.25139092662E+02  0.43393570571E+03  0.45392190030E+03  0.12508651275E+03 0.  0.
         23    2    1    2    0    0  0.38292103962E+02  0.25139092662E+02  0.13335597524E+03  0.16525207669E+03  0.86175248837E+02 0.  0.
          5    1    3    3  502    0 -0.66422192806E+02 -0.82396494388E+01  0.40328860125E+03  0.40882632965E+03  0.41800000000E+01 0. -1.
         -5    1    3    3    0  502  0.28130088844E+02 -0.16899443224E+02  0.30647104461E+02  0.45095570642E+02  0.41800000000E+01 0. -1.
        -11    1    4    4    0    0 -0.18976053838E+02  0.23647964007E+02  0.85129251319E+02  0.90367617270E+02  0.00000000000E+00 0. -1.
         11    1    4    4    0    0  0.57268157800E+02  0.14911286557E+01  0.48226723925E+02  0.74884459422E+02  0.00000000000E+00 0.  1.
</event>
<event>
 8    1  0.6703334E-009  0.1434669E+03  0.7561462E-02  0.1208739E+00
         -1   -1    0    0    0  501 -0.00000000000E+00  0.00000000000E+00  0.54199362277E+03  0.54199362277E+03  0.00000000000E+00 0.  1.
          1   -1    0    0  501    0  0.00000000000E+00 -0.00000000000E+00 -0.52124262861E+02  0.52124262861E+02  0.00000000000E+00 0. -1.
         25    2    1    2    0    0 -0.11182445952E+03  0.60989987530E+02  0.24271586449E+03  0.30130255740E+03  0.12509097447E+03 0.  0.
         23    2    1    2    0    0  0.11182445952E+03 -0.60989987530E+02  0.24715349542E+03  0.29281532823E+03  0.91823078934E+02 0.  0.
          5    1    3    3  502    0 -0.53254109981E+02  0.69160711629E+02  0.22186960354E+03  0.23845921588E+03  0.41800000000E+01 0.  1.
         -5    1    3    3    0  502 -0.58570349541E+02 -0.81707240998E+01  0.20846260952E+02  0.62843341520E+02  0.41800000000E+01 0.  1.
        -11    1    4    4    0    0  0.51831163220E+02 -0.61288389860E+02  0.20309530050E+03  0.21838140327E+03  0.00000000000E+00 0.  1.
         11    1    4    4    0    0  0.59993296302E+02  0.29840233024E+00  0.44058194923E+02  0.74433924961E+02  0.00000000000E+00 0. -1.
</event>
<event>
 8    1  0.6703334E-009  0.1083997E+03  0.7561462E-02  0.1263562E+00
          1   -1    0    0  501    0  0.00000000000E+00  0.00000000000E+00  0.11691595983E+03  0.11691595983E+03  0.00000000000E+00 0. -1.
         -1   -1    0    0    0  501 -0.00000000000E+00 -0.00000000000E+00 -0.11598206119E+03  0.11598206119E+03  0.00000000000E+00 0.  1.
         25    2    1    2    0    0 -0.10131562964E+02 -0.27507663471E+02 -0.31890546023E+02  0.13237701489E+03  0.12508935618E+03 0.  0.
         23    2    1    2    0    0  0.10131562964E+02  0.27507663471E+02  0.32824444667E+02  0.10052100613E+03  0.90375374893E+02 0.  0.
          5    1    3    3  502    0  0.54086436169E+02 -0.14686178077E+02  0.61387570142E+01  0.56534795848E+02  0.41800000000E+01 0. -1.
         -5    1    3    3    0  502 -0.64217999133E+02 -0.12821485394E+02 -0.38029303037E+02  0.75842219046E+02  0.41800000000E+01 0. -1.
        -11    1    4    4    0    0  0.43571134052E+02  0.40131960977E+02  0.19235570340E+02  0.62281820628E+02  0.00000000000E+00 0. -1.
         11    1    4    4    0    0 -0.33439571088E+02 -0.12624297506E+02  0.13588874327E+02  0.38239185498E+02  0.00000000000E+00 0.  1.
</event>
<event>
 8    1  0.6703334E-009  0.1523920E+03  0.7561462E-02  0.1197564E+00
         -1   -1    0    0    0  501 -0.00000000000E+00  0.00000000000E+00  0.43907723793E+03  0.43907723793E+03  0.00000000000E+00 0.  1.
          1   -1    0    0  501    0  0.00000000000E+00 -0.00000000000E+00 -0.70395439527E+02  0.70395439527E+02  0.00000000000E+00 0. -1.
         25    2    1    2    0    0  0.37107327473E+02 -0.11888199131E+03  0.10989560577E+03  0.20792829317E+03  0.12508896564E+03 0.  0.
         23    2    1    2    0    0 -0.37107327473E+02  0.11888199131E+03  0.25878619264E+03  0.30154438429E+03  0.91917574958E+02 0.  0.
          5    1    3    3  502    0  0.43466826994E+02  0.11282799576E+02  0.38349729059E+02  0.59201695365E+02  0.41800000000E+01 0.  1.
         -5    1    3    3    0  502 -0.63594995210E+01 -0.13016479089E+03  0.71545876706E+02  0.14872659780E+03  0.41800000000E+01 0.  1.
        -11    1    4    4    0    0  0.57941006568E+00  0.55873500577E+02  0.34787907712E+02  0.65820834891E+02  0.00000000000E+00 0. -1.
         11    1    4    4    0    0 -0.37686737539E+02  0.63008490733E+02  0.22399828493E+03  0.23572354940E+03  0.00000000000E+00 0.  1.
</event>
<event>
 8    1  0.6703334E-009  0.1715665E+03  0.7561462E-02  0.1176224E+00
          3   -1    0    0  501    0  0.00000000000E+00  0.00000000000E+00  0.29188315495E+03  0.29188315495E+03  0.00000000000E+00 0.  1.
         -3   -1    0    0    0  501 -0.00000000000E+00 -0.00000000000E+00 -0.12416399097E+03  0.12416399097E+03  0.00000000000E+00 0. -1.
         25    2    1    2    0    0 -0.78538024821E+02  0.11219628802E+03  0.83995795502E+01  0.18567281090E+03  0.12509041283E+03 0.  0.
         23    2    1    2    0    0  0.78538024821E+02 -0.11219628802E+03  0.15931958442E+03  0.23037433502E+03  0.94516537519E+02 0.  0.
          5    1    3    3  502    0  0.87384236196E+01 -0.18937668899E+02 -0.15463931341E+02  0.26298306470E+02  0.41800000000E+01 0.  1.
         -5    1    3    3    0  502 -0.87276448441E+02  0.13113395692E+03  0.23863510891E+02  0.15937450443E+03  0.41800000000E+01 0.  1.
        -11    1    4    4    0    0  0.17363947894E+02 -0.10051583619E+03  0.11622542158E+03  0.15463922088E+03  0.00000000000E+00 0.  1.
         11    1    4    4    0    0  0.61174076927E+02 -0.11680451834E+02  0.43094162843E+02  0.75735114142E+02  0.00000000000E+00 0. -1.
</event>
<event>
 8    1  0.6703334E-009  0.1633109E+03  0.7561462E-02  0.1185009E+00
          2   -1    0    0  501    0  0.00000000000E+00  0.00000000000E+00  0.80519042687E+03  0.80519042687E+03  0.00000000000E+00 0. -1.
         -2   -1    0    0    0  501 -0.00000000000E+00 -0.00000000000E+00 -0.34668978310E+02  0.34668978310E+02  0.00000000000E+00 0.  1.
         25    2    1    2    0    0  0.78750948046E+02  0.97699512959E+02  0.45603617579E+03  0.48924777712E+03  0.12508991621E+03 0.  0.
         23    2    1    2    0    0 -0.78750948046E+02 -0.97699512959E+02  0.31448527278E+03  0.35061162807E+03  0.90997913663E+02 0.  0.
          5    1    3    3  502    0  0.86103830662E+02  0.12009767261E+03  0.33970524476E+03  0.37047867191E+03  0.41800000000E+01 0.  1.
         -5    1    3    3    0  502 -0.73528826159E+01 -0.22398159654E+02  0.11633093103E+03  0.11876910521E+03  0.41800000000E+01 0.  1.
        -11    1    4    4    0    0 -0.89249021678E+02 -0.42852671644E+02  0.19328663411E+03  0.21716689955E+03  0.00000000000E+00 0.  1.
         11    1    4    4    0    0  0.10498073632E+02 -0.54846841315E+02  0.12119863867E+03  0.13344472851E+03  0.00000000000E+00 0. -1.
</event>
<event>
 8    1  0.6703334E-009  0.1083084E+03  0.7561462E-02  0.1263735E+00
          2   -1    0    0  501    0  0.00000000000E+00  0.00000000000E+00  0.40204626876E+03  0.40204626876E+03  0.00000000000E+00 0. -1.
         -2   -1    0    0    0  501 -0.00000000000E+00 -0.00000000000E+00 -0.36057228706E+02  0.36057228706E+02  0.00000000000E+00 0.  1.
         25    2    1    2    0    0  0.23960980744E+02  0.40092502015E+02  0.25234326522E+03  0.28549554675E+03  0.12509614860E+03 0.  0.
         23    2    1    2    0    0 -0.23960980744E+02 -0.40092502015E+02  0.11364577483E+03  0.15260795072E+03  0.90511254372E+02 0.  0.
          5    1    3    3  502    0  0.18208893129E+01 -0.44928262168E+02  0.96532720490E+02  0.10657346248E+03  0.41800000000E+01 0.  1.
         -5    1    3    3    0  502  0.22140091431E+02  0.85020764184E+02  0.15581054473E+03  0.17892208427E+03  0.41800000000E+01 0.  1.
        -11    1    4    4    0    0  0.21622213933E+02  0.16616142520E+01 -0.16891197357E+01  0.21751648737E+02  0.00000000000E+00 0.  1.
         11    1    4    4    0    0 -0.45583194677E+02 -0.41754116267E+02  0.11533489457E+03  0.13085630198E+03  0.00000000000E+00 0. -1.
</event>
<event>
 8    1  0.6703334E-009  0.1768659E+03  0.7561462E-02  0.1170871E+00
          3   -1    0    0  501    0  0.00000000000E+00  0.00000000000E+00  0.56895775874E+02  0.56895775874E+02  0.00000000000E+00 0. -1.
         -3   -1    0    0    0  501 -0.00000000000E+00 -0.00000000000E+00 -0.70013667020E+03  0.70013667020E+03  0.00000000000E+00 0.  1.
         25    2    1    2    0    0 -0.74758085731E+02  0.14429472156E+03 -0.40863956940E+03  0.45721329012E+03  0.12509179401E+03 0.  0.
         23    2    1    2    0    0  0.74758085731E+02 -0.14429472156E+03 -0.23460132493E+03  0.29981915596E+03  0.91891275796E+02 0.  0.
          5    1    3    3  502    0 -0.70206833562E+02  0.29664988786E+02 -0.87195926589E+02  0.11588620734E+03  0.41800000000E+01 0.  1.
         -5    1    3    3    0  502 -0.45512521694E+01  0.11462973278E+03 -0.32144364281E+03  0.34132708278E+03  0.41800000000E+01 0.  1.
        -11    1    4    4    0    0  0.59909235507E+02 -0.12017863541E+03 -0.23592878952E+03  0.27146715203E+03  0.00000000000E+00 0.  1.
         11    1    4    4    0    0  0.14848850224E+02 -0.24116086154E+02  0.13274645911E+01  0.28352003926E+02  0.00000000000E+00 0. -1.
</event>
<event>
 8    1  0.6703334E-009  0.1727013E+03  0.7561462E-02  0.1175060E+00
          1   -1    0    0  501    0  0.00000000000E+00  0.00000000000E+00  0.36911697776E+03  0.36911697776E+03  0.00000000000E+00 0. -1.
         -1   -1    0    0    0  501 -0.00000000000E+00 -0.00000000000E+00 -0.87481059695E+02  0.87481059695E+02  0.00000000000E+00 0.  1.
         25    2    1    2    0    0  0.56897971607E+02  0.12380732607E+03  0.94237884790E+02  0.20759093871E+03  0.12509031034E+03 0.  0.
         23    2    1    2    0    0 -0.56897971607E+02 -0.12380732607E+03  0.18739803327E+03  0.24900709875E+03  0.91218853259E+02 0.  0.
          5    1    3    3  502    0  0.57413535840E+02  0.14712109721E+03  0.94130990638E+02  0.18389955720E+03  0.41800000000E+01 0. -1.
         -5    1    3    3    0  502 -0.51556423340E+00 -0.23313771138E+02  0.10689415145E+00  0.23691381503E+02  0.41800000000E+01 0. -1.
        -11    1    4    4    0    0  0.17982267453E+02 -0.68007310194E+02  0.87245426016E+02  0.11207194360E+03  0.00000000000E+00 0.  1.
         11    1    4    4    0    0 -0.74880239060E+02 -0.55800015876E+02  0.10015260726E+03  0.13693515514E+03  0.00000000000E+00 0. -1.
</event>
<event>
 8    1  0.6703334E-009  0.1531134E+03  0.7561462E-02  0.1196699E+00
          1   -1    0    0  501    0  0.00000000000E+00  0.00000000000E+00  0.23582177808E+03  0.23582177808E+03  0.00000000000E+00 0. -1.
         -1   -1    0    0    0  501 -0.00000000000E+00 -0.00000000000E+00 -0.14236270826E+03  0.14236270826E+03  0.00000000000E+00 0.  1.
         25    2    1    2    0    0  0.53517593415E+02  0.10932034798E+03 -0.35779566997E+02  0.17816594706E+03  0.12509139055E+03 0.  0.
         23    2    1    2    0    0 -0.53517593415E+02 -0.10932034798E+03  0.12923863681E+03  0.20001853928E+03  0.92139673987E+02 0.  0.
          5    1    3    3  502    0  0.24915594663E+02 -0.18540459070E+02 -0.35131487881E+02  0.47076844846E+02  0.41800000000E+01 0.  1.
         -5    1    3    3    0  502  0.28601998752E+02  0.12786080705E+03 -0.64807911564E+00  0.13108910221E+03  0.41800000000E+01 0.  1.
        -11    1    4    4    0    0 -0.66169645137E+02 -0.49439602010E+02  0.39913407287E+02  0.91737540112E+02  0.00000000000E+00 0.  1.
         11    1    4    4    0    0  0.12652051722E+02 -0.59880745973E+02  0.89325229525E+02  0.10828099917E+03  0.00000000000E+00 0. -1.
</event>
<event>
 8    1  0.6703334E-009  0.1148545E+03  0.7561462E-02  0.1251835E+00
         -1   -1    0    0    0  501 -0.00000000000E+00  0.00000000000E+00  0.45213740372E+03  0.45213740372E+03  0.00000000000E+00 0.  1.
          1   -1    0    0  501    0  0.00000000000E+00 -0.00000000000E+00 -0.59296507442E+02  0.59296507442E+02  0.00000000000E+00 0. -1.
         25    2    1    2    0    0 -0.17268362072E+02  0.10545898472E+03  0.11984912752E+03  0.20354584672E+03  0.12508918645E+03 0.  0.
         23    2    1    2    0    0  0.17268362072E+02 -0.10545898472E+03  0.27299176876E+03  0.30788806443E+03  0.94078481203E+02 0.  0.
          5    1    3    3  502    0 -0.35537611913E+02  0.73279878067E+02  0.13938896863E+03  0.16149185541E+03  0.41800000000E+01 0.  1.
         -5    1    3    3    0  502  0.18269249841E+02  0.32179106649E+02 -0.19539841111E+02  0.42053991310E+02  0.41800000000E+01 0.  1.
        -11    1    4    4    0    0 -0.17274371848E+01 -0.75024704280E+02  0.72963036885E+02  0.10466754532E+03  0.00000000000E+00 0. -1.
         11    1    4    4    0    0  0.18995799257E+02 -0.30434280436E+02  0.20002873187E+03  0.20322051912E+03  0.00000000000E+00 0.  1.
</event>
<event>
 8    1  0.6703334E-009  0.1213252E+03  0.7561462E-02  0.1240927E+00
         -2   -1    0    0    0  501 -0.00000000000E+00  0.00000000000E+00  0.21522149257E+02  0.21522149257E+02  0.00000000000E+00 0.  1.
          2   -1    0    0  501    0  0.00000000000E+00 -0.00000000000E+00 -0.13675533299E+04  0.13675533299E+04  0.00000000000E+00 0. -1.
         25    2    1    2    0    0 -0.31515441464E+01 -0.48379075897E+02 -0.11273983430E+04  0.11353509237E+04  0.12507689189E+03 0.  0.
         23    2    1    2    0    0  0.31515441464E+01  0.48379075897E+02 -0.21863283768E+03  0.25372455551E+03  0.11927013517E+03 0.  0.
          5    1    3    3  502    0 -0.52332724294E+01 -0.82341004838E+02 -0.10004555873E+04  0.10038606889E+04  0.41800000000E+01 0. -1.
         -5    1    3    3    0  502  0.20817282830E+01  0.33961928942E+02 -0.12694275572E+03  0.13149023477E+03  0.41800000000E+01 0. -1.
        -11    1    4    4    0    0 -0.37920245228E+02 -0.22313505013E+02 -0.52008633507E+02  0.68122943738E+02  0.00000000000E+00 0.  1.
         11    1    4    4    0    0  0.41071789375E+02  0.70692580910E+02 -0.16662420417E+03  0.18560161178E+03  0.00000000000E+00 0. -1.
</event>
<event>
 7    1  0.6703334E-009  0.1100209E+03  0.7561462E-02  0.1260531E+00
          2   -1    0    0  501    0  0.00000000000E+00  0.00000000000E+00  0.11737341065E+03  0.11737341065E+03  0.00000000000E+00 0. -1.
         -2   -1    0    0    0  501 -0.00000000000E+00 -0.00000000000E+00 -0.16473065772E+03  0.16473065772E+03  0.00000000000E+00 0.  1.
         23    2    1    2    0    0  0.53324072202E+02 -0.65875219814E+02 -0.39276476459E+01  0.12493971711E+03  0.91714258623E+02 0.  0.
          5    1    1    2  502    0 -0.36165446455E+02  0.67696680264E+01 -0.78076553295E+02  0.86412895432E+02  0.41800000000E+01 0.  1.
         -5    1    1    2    0  502 -0.17158625747E+02  0.59105551787E+02  0.34646953868E+02  0.70751455829E+02  0.41800000000E+01 0.  1.
        -11    1    3    3    0    0  0.76763293979E+02 -0.59239798542E+02 -0.15112580943E+02  0.98134332099E+02  0.00000000000E+00 0.  1.
         11    1    3    3    0    0 -0.23439221777E+02 -0.66354212721E+01  0.11184933297E+02  0.26805385015E+02  0.00000000000E+00 0. -1.
</event>
<event>
 8    1  0.6703334E-009  0.1280677E+03  0.7561462E-02  0.1230351E+00
         -2   -1    0    0    0  501 -0.00000000000E+00  0.00000000000E+00  0.41758570038E+02  0.41758570038E+02  0.00000000000E+00 0.  1.
          2   -1    0    0  501    0  0.00000000000E+00 -0.00000000000E+00 -0.60712206623E+03  0.60712206623E+03  0.00000000000E+00 0. -1.
         25    2    1    2    0    0  0.10016313648E+03 -0.23347574191E+02 -0.19152077700E+03  0.25081049686E+03  0.12509170310E+03 0.  0.
         23    2    1    2    0    0 -0.10016313648E+03  0.23347574191E+02 -0.37384271920E+03  0.39807013941E+03  0.90131537557E+02 0.  0.
          5    1    3    3  502    0  0.86371558219E+02  0.12439492137E+02 -0.19336727529E+03  0.21218662208E+03  0.41800000000E+01 0.  1.
         -5    1    3    3    0  502  0.13791578262E+02 -0.35787066328E+02  0.18464982973E+01  0.38623874783E+02  0.41800000000E+01 0.  1.
        -11    1    4    4    0    0  0.85381425088E+01  0.19654408924E+02 -0.26405026527E+02  0.34006191988E+02  0.00000000000E+00 0. -1.
         11    1    4    4    0    0 -0.10870127899E+03  0.36931652670E+01 -0.34743769267E+03  0.36406394742E+03  0.00000000000E+00 0.  1.
</event>
<event>
 8    1  0.6703334E-009  0.1431984E+03  0.7561462E-02  0.1209089E+00
         -2   -1    0    0    0  501 -0.00000000000E+00  0.00000000000E+00  0.51806212056E+02  0.51806212056E+02  0.00000000000E+00 0.  1.
          2   -1    0    0  501    0  0.00000000000E+00 -0.00000000000E+00 -0.63001834581E+03  0.63001834581E+03  0.00000000000E+00 0. -1.
         25    2    1    2    0    0  0.10196954358E+03 -0.82720144878E+02 -0.40828882878E+03  0.44675214890E+03  0.12508918680E+03 0.  0.
         23    2    1    2    0    0 -0.10196954358E+03  0.82720144878E+02 -0.16992330497E+03  0.23507240896E+03  0.95627912745E+02 0.  0.
          5    1    3    3  502    0 -0.13808378412E+02 -0.15142404819E+02 -0.46667551252E+01  0.21429296337E+02  0.41800000000E+01 0.  1.
         -5    1    3    3    0  502  0.11577792199E+03 -0.67577740059E+02 -0.40362207366E+03  0.42532285257E+03  0.41800000000E+01 0.  1.
        -11    1    4    4    0    0 -0.50274728493E+02  0.38297289002E+02 -0.15197030512E+03  0.16458798348E+03  0.00000000000E+00 0. -1.
         11    1    4    4    0    0 -0.51694815088E+02  0.44422855877E+02 -0.17952999855E+02  0.70484425479E+02  0.00000000000E+00 0.  1.
</event>
<event>
 7    1  0.6703334E-009  0.2154235E+03  0.7561462E-02  0.1137342E+00
         -1   -1    0    0    0  501 -0.00000000000E+00  0.00000000000E+00  0.60924203095E+02  0.60924203095E+02  0.00000000000E+00 0.  1.
          1   -1    0    0  501    0  0.00000000000E+00 -0.00000000000E+00 -0.81512245838E+03  0.81512245838E+03  0.00000000000E+00 0. -1.
         23    2    1    2    0    0  0.16641046992E+03 -0.90939007525E+02 -0.45578160232E+03  0.50111172023E+03  0.86103075181E+02 0.  0.
          5    1    1    2  502    0 -0.25471988328E+02  0.77300234124E+02 -0.14341084213E+03  0.16494935716E+03  0.41800000000E+01 0. -1.
         -5    1    1    2    0  502 -0.14093848159E+03  0.13638773401E+02 -0.15500581083E+03  0.20998558409E+03  0.41800000000E+01 0. -1.
        -11    1    3    3    0    0  0.47340992297E+02  0.13587234106E+02 -0.12461672803E+03  0.13399668424E+03  0.00000000000E+00 0. -1.
         11    1    3    3    0    0  0.11906947762E+03 -0.10452624163E+03 -0.33116487429E+03  0.36711503599E+03  0.00000000000E+00 0.  1.
</event>
<event>
 8    1  0.6703334E-009  0.1119214E+03  0.7561462E-02  0.1257053E+00
         -4   -1    0    0    0  501 -0.00000000000E+00  0.00000000000E+00  0.28651659569E+03  0.28651659569E+03  0.00000000000E+00 0.  1.
          4   -1    0    0  501    0  0.00000000000E+00 -0.00000000000E+00 -0.64713104792E+02  0.64713104792E+02  0.00000000000E+00 0. -1.
         25    2    1    2    0    0  0.38057956111E+02  0.38952063507E+02  0.42293619669E+02  0.14284240661E+03  0.12509808786E+03 0.  0.
         23    2    1    2    0    0 -0.38057956111E+02 -0.38952063507E+02  0.17950987123E+03  0.20838729387E+03  0.90751303591E+02 0.  0.
          5    1    3    3  502    0 -0.26632331611E+02 -0.18487956403E+02  0.45671491930E+02  0.56164429972E+02  0.41800000000E+01 0. -1.
         -5    1    3    3    0  502  0.64690287722E+02  0.57440019910E+02 -0.33778722612E+01  0.86677976637E+02  0.41800000000E+01 0. -1.
        -11    1    4    4    0    0 -0.53068512652E+02  0.94166943544E+01  0.10872248235E+03  0.12134875086E+03  0.00000000000E+00 0.  1.
         11    1    4    4    0    0  0.15010556541E+02 -0.48368757861E+02  0.70787388880E+02  0.87038543009E+02  0.00000000000E+00 0. -1.
</event>
<event>
 8    1  0.6703334E-009  0.8880461E+02  0.7561462E-02  0.1305773E+00
          2   -1    0    0  501    0  0.00000000000E+00  0.00000000000E+00  0.27439419354E+03  0.27439419354E+03  0.00000000000E+00 0. -1.
         -2   -1    0    0    0  501 -0.00000000000E+00 -0.00000000000E+00 -0.76706509570E+02  0.76706509570E+02  0.00000000000E+00 0.  1.
         25    2    1    2    0    0  0.73656723777E+01  0.27885975438E+02 -0.38851813714E+01  0.12842627081E+03  0.12508529747E+03 0.  0.
         23    2    1    2    0    0 -0.73656723777E+01 -0.27885975438E+02  0.20157286534E+03  0.22267443230E+03  0.90113273173E+02 0.  0.
          5    1    3    3  502    0  0.35841924827E+01  0.55248604701E+02 -0.49863119019E+02  0.74626120061E+02  0.41800000000E+01 0.  1.
         -5    1    3    3    0  502  0.37814798950E+01 -0.27362629263E+02  0.45977937647E+02  0.53800150749E+02  0.41800000000E+01 0.  1.
        -11    1    4    4    0    0 -0.21710073017E+02 -0.57381499315E+02  0.12052038178E+03  0.13523729573E+03  0.00000000000E+00 0.  1.
         11    1    4    4    0    0  0.14344400640E+02  0.29495523877E+02  0.81052483567E+02  0.87437136566E+02  0.00000000000E+00 0. -1.
</event>
<event>
 8    1  0.6703334E-009  0.9530926E+02  0.7561462E-02  0.1290481E+00
         -2   -1    0    0    0  501 -0.00000000000E+00  0.00000000000E+00  0.30449892532E+03  0.30449892532E+03  0.00000000000E+00 0.  1.
          2   -1    0    0  501    0  0.00000000000E+00 -0.00000000000E+00 -0.54970552847E+02  0.54970552847E+02  0.00000000000E+00 0. -1.
         25    2    1    2    0    0  0.58876677141E+02  0.15889138408E+02  0.87937088940E+02  0.16463856592E+03  0.12511593802E+03 0.  0.
         23    2    1    2    0    0 -0.58876677141E+02 -0.15889138408E+02  0.16159128353E+03  0.19483091225E+03  0.90157715273E+02 0.  0.
          5    1    3    3  502    0  0.18368783394E+02 -0.45639996243E+02  0.74901126080E+02  0.89711050314E+02  0.41800000000E+01 0. -1.
         -5    1    3    3    0  502  0.40507893747E+02  0.61529134652E+02  0.13035962860E+02  0.74927515603E+02  0.41800000000E+01 0. -1.
        -11    1    4    4    0    0 -0.55244769041E+02 -0.44120791765E+01  0.17086934467E+03  0.17963235760E+03  0.00000000000E+00 0.  1.
         11    1    4    4    0    0 -0.36319080995E+01 -0.11477059232E+02 -0.92780611345E+01  0.15198554651E+02  0.00000000000E+00 0. -1.
</event>
<event>
 8    1  0.6703334E-009  0.1219859E+03  0.7561462E-02  0.1239856E+00
         -2   -1    0    0    0  501 -0.00000000000E+00  0.00000000000E+00  0.19700339886E+02  0.19700339886E+02  0.00000000000E+00 0.  1.
          2   -1    0    0  501    0  0.00000000000E+00 -0.00000000000E+00 -0.11822185834E+04  0.11822185834E+04  0.00000000000E+00 0. -1.
         25    2    1    2    0    0 -0.95405251145E+02 -0.24999198509E+02 -0.78144709520E+03  0.79751762482E+03  0.12509067685E+03 0.  0.
         23    2    1    2    0    0  0.95405251145E+02  0.24999198509E+02 -0.38107114835E+03  0.40440129850E+03  0.92725769077E+02 0.  0.
          5    1    3    3  502    0  0.60847461725E+01  0.20083285283E+02 -0.24807667617E+02  0.32760574725E+02  0.41800000000E+01 0. -1.
         -5    1    3    3    0  502 -0.10148999732E+03 -0.45082483792E+02 -0.75663942758E+03  0.76475705010E+03  0.41800000000E+01 0. -1.
        -11    1    4    4    0    0  0.33229473909E+02  0.35233272724E+02 -0.28775756296E+03  0.29180472320E+03  0.00000000000E+00 0. -1.
         11    1    4    4    0    0  0.62175777237E+02 -0.10234074215E+02 -0.93313585389E+02  0.11259657529E+03  0.00000000000E+00 0.  1.
</event>
<event>
 8    1  0.6703334E-009  0.6360170E+02  0.7561462E-02  0.1383310E+00
         -2   -1    0    0    0  501 -0.00000000000E+00  0.00000000000E+00  0.51104828861E+02  0.51104828861E+02  0.00000000000E+00 0. -1.
          2   -1    0    0  501    0  0.00000000000E+00 -0.00000000000E+00 -0.24093665537E+03  0.24093665537E+03  0.00000000000E+00 0.  1.
         25    2    1    2    0    0  0.28924961614E+01  0.23748905430E+00 -0.13730484536E+03  0.18576396502E+03  0.12508879728E+03 0.  0.
         23    2    1    2    0    0 -0.28924961614E+01 -0.23748905430E+00 -0.52526981141E+02  0.10627751921E+03  0.92343946236E+02 0.  0.
          5    1    3    3  502    0 -0.93291536746E+01 -0.18457616785E+02 -0.15533191517E+03  0.15675839051E+03  0.41800000000E+01 0.  1.
         -5    1    3    3    0  502  0.12221649836E+02  0.18695105839E+02  0.18027069801E+02  0.29005574511E+02  0.41800000000E+01 0.  1.
        -11    1    4    4    0    0 -0.12872974919E+02 -0.40189505614E+02 -0.49411528549E+02  0.64980066161E+02  0.00000000000E+00 0.  1.
         11    1    4    4    0    0  0.99804787575E+01  0.39952016560E+02 -0.31154525922E+01  0.41297453048E+02  0.00000000000E+00 0. -1.
</event>
<event>
 8    1  0.6703334E-009  0.1070736E+03  0.7561462E-02  0.1266087E+00
         -2   -1    0    0    0  501 -0.00000000000E+00  0.00000000000E+00  0.44481002254E+03  0.44481002254E+03  0.00000000000E+00 0.  1.
          2   -1    0    0  501    0  0.00000000000E+00 -0.00000000000E+00 -0.37494083040E+02  0.37494083040E+02  0.00000000000E+00 0. -1.
         25    2    1    2    0    0 -0.48931306559E+02 -0.41794586047E+02  0.27882645027E+03  0.31230041705E+03  0.12508517473E+03 0.  0.
         23    2    1    2    0    0  0.48931306559E+02  0.41794586047E+02  0.12848948923E+03  0.17000368853E+03  0.90833061635E+02 0.  0.
          5    1    3    3  502    0 -0.57106537508E+02  0.39831587790E+01  0.25199735885E+03  0.25845147213E+03  0.41800000000E+01 0. -1.
         -5    1    3    3    0  502  0.81752309482E+01 -0.45777744826E+02  0.26829091415E+02  0.53848944916E+02  0.41800000000E+01 0. -1.
        -11    1    4    4    0    0  0.33048689358E+02 -0.24976963646E+02  0.61076043589E+02  0.73799374535E+02  0.00000000000E+00 0.  1.
         11    1    4    4    0    0  0.15882617202E+02  0.66771549693E+02  0.67413445641E+02  0.96204313993E+02  0.00000000000E+00 0. -1.
</event>
<event>
 8    1  0.6703334E-009  0.3481689E+03  0.7561462E-02  0.1063369E+00
         -1   -1    0    0    0  501 -0.00000000000E+00  0.00000000000E+00  0.53216643045E+03  0.53216643045E+03  0.00000000000E+00 0.  1.
          1   -1    0    0  501    0  0.00000000000E+00 -0.00000000000E+00 -0.23610665723E+03  0.23610665723E+03  0.00000000000E+00 0. -1.
         25    2    1    2    0    0  0.24864992133E+03  0.22727104924E+03  0.13904330831E+03  0.38530496013E+03  0.12509179635E+03 0.  0.
         23    2    1    2    0    0 -0.24864992133E+03 -0.22727104924E+03  0.15701646491E+03  0.38296812756E+03  0.92366137033E+02 0.  0.
          5    1    3    3  502    0  0.23747988012E+03  0.15162095701E+03  0.12074060222E+03  0.30656381634E+03  0.41800000000E+01 0.  1.
         -5    1    3    3    0  502  0.11170041212E+02  0.75650092228E+02  0.18302706087E+02  0.78741143787E+02  0.41800000000E+01 0.  1.
        -11    1    4    4    0    0 -0.14497215133E+03 -0.15044838342E+03  0.14297827138E+03  0.25316877142E+03  0.00000000000E+00 0.  1.
         11    1    4    4    0    0 -0.10367777000E+03 -0.76822665819E+02  0.14038193528E+02  0.12979935613E+03  0.00000000000E+00 0. -1.
</event>
<event>
 8    1  0.6703334E-009  0.1367544E+03  0.7561462E-02  0.1217764E+00
          2   -1    0    0  501    0  0.00000000000E+00  0.00000000000E+00  0.41366349112E+03  0.41366349112E+03  0.00000000000E+00 0. -1.
         -2   -1    0    0    0  501 -0.00000000000E+00 -0.00000000000E+00 -0.47777902951E+02  0.47777902951E+02  0.00000000000E+00 0.  1.
         25    2    1    2    0    0  0.79827584520E+02  0.31399392975E+02  0.22955471342E+03  0.27514003862E+03  0.12509320232E+03 0.  0.
         23    2    1    2    0    0 -0.79827584520E+02 -0.31399392975E+02  0.13633087475E+03  0.18630135545E+03  0.93614755808E+02 0.  0.
          5    1    3    3  502    0  0.11353582308E+03  0.17701869060E+02  0.17042376965E+03  0.20558568275E+03  0.41800000000E+01 0. -1.
         -5    1    3    3    0  502 -0.33708238562E+02  0.13697523914E+02  0.59130943772E+02  0.69554355864E+02  0.41800000000E+01 0. -1.
        -11    1    4    4    0    0 -0.81547005682E+02 -0.54920710195E+02  0.85611498279E+02  0.13036689450E+03  0.00000000000E+00 0.  1.
         11    1    4    4    0    0  0.17194211611E+01  0.23521317220E+02  0.50719376470E+02  0.55934460955E+02  0.00000000000E+00 0. -1.
</event>
<event>
 8    1  0.6703334E-009  0.2526334E+03  0.7561462E-02  0.1111652E+00
          1   -1    0    0  501    0  0.00000000000E+00  0.00000000000E+00  0.47251411094E+03  0.47251411094E+03  0.00000000000E+00 0. -1.
         -1   -1    0    0    0  501 -0.00000000000E+00 -0.00000000000E+00 -0.15320518017E+03  0.15320518017E+03  0.00000000000E+00 0.  1.
         25    2    1    2    0    0 -0.14619877727E+03 -0.17722967753E+03  0.26677854977E+03  0.37363205547E+03  0.12508268138E+03 0.  0.
         23    2    1    2    0    0  0.14619877727E+03  0.17722967753E+03  0.52530380997E+02  0.25208723564E+03  0.89465593217E+02 0.  0.
          5    1    3    3  502    0 -0.16781321799E+03 -0.14952771027E+03  0.21613755628E+03  0.31185369631E+03  0.41800000000E+01 0. -1.
         -5    1    3    3    0  502  0.21614440718E+02 -0.27701967268E+02  0.50640993492E+02  0.61778359156E+02  0.41800000000E+01 0. -1.
        -11    1    4    4    0    0  0.50511760786E+02  0.12770925643E+03  0.15727743062E+02  0.13823333193E+03  0.00000000000E+00 0. -1.
         11    1    4    4    0    0  0.95687016486E+02  0.49520421107E+02  0.36802637935E+02  0.11385390371E+03  0.00000000000E+00 0.  1.
</event>
<event>
 8    1  0.6703334E-009  0.1275081E+03  0.7561462E-02  0.1231201E+00
          2   -1    0    0  501    0  0.00000000000E+00  0.00000000000E+00  0.72453024386E+03  0.72453024386E+03  0.00000000000E+00 0. -1.
         -2   -1    0    0    0  501 -0.00000000000E+00 -0.00000000000E+00 -0.33500888842E+02  0.33500888842E+02  0.00000000000E+00 0.  1.
         25    2    1    2    0    0 -0.86090010716E+02 -0.66677220856E+02  0.43370983448E+03  0.46433520476E+03  0.12508245332E+03 0.  0.
         23    2    1    2    0    0  0.86090010716E+02  0.66677220856E+02  0.25731952053E+03  0.29369592794E+03  0.90479946473E+02 0.  0.
          5    1    3    3  502    0 -0.65450583200E+02 -0.28686245614E+02  0.77554189416E+02  0.10554053356E+03  0.41800000000E+01 0.  1.
         -5    1    3    3    0  502 -0.20639427516E+02 -0.37990975242E+02  0.35615564507E+03  0.35879467120E+03  0.41800000000E+01 0.  1.
        -11    1    4    4    0    0  0.79186425396E+02  0.65314533891E+01  0.16734308209E+03  0.18524809573E+03  0.00000000000E+00 0.  1.
         11    1    4    4    0    0  0.69035853202E+01  0.60145767467E+02  0.89976438445E+02  0.10844783220E+03  0.00000000000E+00 0. -1.
</event>
<event>
 8    1  0.6703334E-009  0.1588044E+03  0.7561462E-02  0.1190053E+00
         -3   -1    0    0    0  501 -0.00000000000E+00  0.00000000000E+00  0.43871840244E+03  0.43871840244E+03  0.00000000000E+00 0.  1.
          3   -1    0    0  501    0  0.00000000000E+00 -0.00000000000E+00 -0.74765771866E+02  0.74765771866E+02  0.00000000000E+00 0. -1.
         25    2    1    2    0    0  0.10076559675E+03 -0.91276959880E+02  0.12434237374E+03  0.22269672140E+03  0.12509042698E+03 0.  0.
         23    2    1    2    0    0 -0.10076559675E+03  0.91276959880E+02  0.23961025683E+03  0.29078745290E+03  0.93054170736E+02 0.  0.
          5    1    3    3  502    0  0.12368142487E+03 -0.52079653453E+02  0.68892805088E+02  0.15090750861E+03  0.41800000000E+01 0.  1.
         -5    1    3    3    0  502 -0.22915828121E+02 -0.39197306427E+02  0.55449568650E+02  0.71789212790E+02  0.41800000000E+01 0.  1.
        -11    1    4    4    0    0 -0.40254543085E+02  0.22404759069E+02  0.16872343338E+03  0.17489996695E+03  0.00000000000E+00 0.  1.
         11    1    4    4    0    0 -0.60511053667E+02  0.68872200811E+02  0.70886823452E+02  0.11588748595E+03  0.00000000000E+00 0. -1.
</event>
<event>
 8    1  0.6703334E-009  0.9079180E+02  0.7561462E-02  0.1300945E+00
          1   -1    0    0  501    0  0.00000000000E+00  0.00000000000E+00  0.13977728076E+03  0.13977728076E+03  0.00000000000E+00 0. -1.
         -1   -1    0    0    0  501 -0.00000000000E+00 -0.00000000000E+00 -0.10252986915E+03  0.10252986915E+03  0.00000000000E+00 0.  1.
         25    2    1    2    0    0 -0.26751990325E+02  0.15257083297E+02 -0.27940451894E+02  0.13182090051E+03  0.12509050077E+03 0.  0.
         23    2    1    2    0    0  0.26751990325E+02 -0.15257083297E+02  0.65187863501E+02  0.11048624940E+03  0.83721599253E+02 0.  0.
          5    1    3    3  502    0 -0.66867786382E+02  0.40266276541E+02 -0.31398056864E+02  0.84237665310E+02  0.41800000000E+01 0. -1.
         -5    1    3    3    0  502  0.40115796057E+02 -0.25009193245E+02  0.34576049695E+01  0.47583235201E+02  0.41800000000E+01 0. -1.
        -11    1    4    4    0    0  0.16613232340E+02  0.16020245300E+02  0.73109549280E+02  0.76665859052E+02  0.00000000000E+00 0. -1.
         11    1    4    4    0    0  0.10138757985E+02 -0.31277328597E+02 -0.79216857794E+01  0.33820390347E+02  0.00000000000E+00 0.  1.
</event>
<event>
 8    1  0.6703334E-009  0.1128852E+03  0.7561462E-02  0.1255318E+00
         -4   -1    0    0    0  501 -0.00000000000E+00  0.00000000000E+00  0.54086902222E+03  0.54086902222E+03  0.00000000000E+00 0. -1.
          4   -1    0    0  501    0  0.00000000000E+00 -0.00000000000E+00 -0.43696740358E+02  0.43696740358E+02  0.00000000000E+00 0.  1.
         25    2    1    2    0    0  0.54208532368E+02  0.92644820382E+02  0.29748610031E+03  0.34009831406E+03  0.12508899083E+03 0.  0.
         23    2    1    2    0    0 -0.54208532368E+02 -0.92644820382E+02  0.19968618155E+03  0.24446744851E+03  0.91477508464E+02 0.  0.
          5    1    3    3  502    0  0.43825825639E+02  0.33771015667E+02  0.26729780445E+03  0.27299592150E+03  0.41800000000E+01 0.  1.
         -5    1    3    3    0  502  0.10382706728E+02  0.58873804716E+02  0.30188295858E+02  0.67102392562E+02  0.41800000000E+01 0.  1.
        -11    1    4    4    0    0 -0.34730584337E+02 -0.79784551960E+02  0.67207360848E+02  0.10994824952E+03  0.00000000000E+00 0.  1.
         11    1    4    4    0    0 -0.19477948031E+02 -0.12860268422E+02  0.13247882070E+03  0.13451919900E+03  0.00000000000E+00 0. -1.
</event>
<event>
 8    1  0.6703334E-009  0.1653665E+03  0.7561462E-02  0.1182768E+00
          2   -1    0    0  501    0  0.00000000000E+00  0.00000000000E+00  0.16188353776E+03  0.16188353776E+03  0.00000000000E+00 0. -1.
         -2   -1    0    0    0  501 -0.00000000000E+00 -0.00000000000E+00 -0.19430062010E+03  0.19430062010E+03  0.00000000000E+00 0.  1.
         25    2    1    2    0    0  0.93519488328E+02  0.10184649681E+03 -0.18033471926E+02  0.18732743788E+03  0.12509100393E+03 0.  0.
         23    2    1    2    0    0 -0.93519488328E+02 -0.10184649681E+03 -0.14383610418E+02  0.16885671997E+03  0.95849361098E+02 0.  0.
          5    1    3    3  502    0  0.21520392731E+02  0.10072823055E+03  0.21163200424E+02  0.10523619712E+03  0.41800000000E+01 0.  1.
         -5    1    3    3    0  502  0.71999095596E+02  0.11182662579E+01 -0.39196672349E+02  0.82091240759E+02  0.41800000000E+01 0.  1.
        -11    1    4    4    0    0 -0.63849134405E+02 -0.17646120008E+02 -0.38188872050E+02  0.76462327091E+02  0.00000000000E+00 0.  1.
         11    1    4    4    0    0 -0.29670353923E+02 -0.84200376798E+02  0.23805261633E+02  0.92394392883E+02  0.00000000000E+00 0. -1.
</event>
<event>
 8    1  0.6703334E-009  0.1812287E+03  0.7561462E-02  0.1166619E+00
          1   -1    0    0  501    0  0.00000000000E+00  0.00000000000E+00  0.60935046805E+03  0.60935046805E+03  0.00000000000E+00 0. -1.
         -1   -1    0    0    0  501 -0.00000000000E+00 -0.00000000000E+00 -0.63147559488E+02  0.63147559488E+02  0.00000000000E+00 0.  1.
         25    2    1    2    0    0  0.14674005451E+03  0.60862031775E+02  0.21538602586E+03  0.29542191406E+03  0.12508451806E+03 0.  0.
         23    2    1    2    0    0 -0.14674005451E+03 -0.60862031775E+02  0.33081688270E+03  0.37707611349E+03  0.86658842443E+02 0.  0.
          5    1    3    3  502    0  0.10491805906E+03 -0.23727022054E+02  0.11914012193E+03  0.16056964765E+03  0.41800000000E+01 0. -1.
         -5    1    3    3    0  502  0.41821995447E+02  0.84589053829E+02  0.96245903932E+02  0.13485226640E+03  0.41800000000E+01 0. -1.
        -11    1    4    4    0    0 -0.25605101883E+02 -0.20072628450E+02  0.16251619017E+03  0.16574089334E+03  0.00000000000E+00 0. -1.
         11    1    4    4    0    0 -0.12113495262E+03 -0.40789403325E+02  0.16830069253E+03  0.21133522015E+03  0.00000000000E+00 0.  1.
</event>
<event>
 8    1  0.6703334E-009  0.2091308E+03  0.7561462E-02  0.1142256E+00
          2   -1    0    0  501    0  0.00000000000E+00  0.00000000000E+00  0.45733786282E+03  0.45733786282E+03  0.00000000000E+00 0. -1.
         -2   -1    0    0    0  501 -0.00000000000E+00 -0.00000000000E+00 -0.42742344202E+03  0.42742344202E+03  0.00000000000E+00 0.  1.
         25    2    1    2    0    0  0.17740893757E+03 -0.99192947080E+02 -0.36211866870E+03  0.43369475811E+03  0.12509213048E+03 0.  0.
         23    2    1    2    0    0 -0.17740893757E+03  0.99192947080E+02  0.39203308951E+03  0.45106654674E+03  0.91966920345E+02 0.  0.
          5    1    3    3  502    0  0.13243015911E+03 -0.37349760664E+02 -0.13027836303E+03  0.18953278328E+03  0.41800000000E+01 0.  1.
         -5    1    3    3    0  502  0.44978778455E+02 -0.61843186416E+02 -0.23184030567E+03  0.24416197483E+03  0.41800000000E+01 0.  1.
        -11    1    4    4    0    0 -0.31669853515E+02  0.25760044971E+02  0.21392304170E+02  0.46088938112E+02  0.00000000000E+00 0.  1.
         11    1    4    4    0    0 -0.14573908405E+03  0.73432902109E+02  0.37064078534E+03  0.40497760863E+03  0.00000000000E+00 0. -1.
</event>
<event>
 8    1  0.6703334E-009  0.6951351E+02  0.7561462E-02  0.1361755E+00
          1   -1    0    0  501    0  0.00000000000E+00  0.00000000000E+00  0.26207076097E+02  0.26207076097E+02  0.00000000000E+00 0. -1.
         -1   -1    0    0    0  501 -0.00000000000E+00 -0.00000000000E+00 -0.55937349431E+03  0.55937349431E+03  0.00000000000E+00 0.  1.
         25    2    1    2    0    0  0.48966596870E+02 -0.11585378482E+02 -0.25439435748E+03  0.28791889298E+03  0.12509536847E+03 0.  0.
         23    2    1    2    0    0 -0.48966596870E+02  0.11585378482E+02 -0.27877206073E+03  0.29766167743E+03  0.91414789615E+02 0.  0.
          5    1    3    3  502    0 -0.32974944253E+01 -0.16308704991E+02 -0.22869494698E+03  0.22933752092E+03  0.41800000000E+01 0.  1.
         -5    1    3    3    0  502  0.52264091296E+02  0.47233265090E+01 -0.25699410501E+02  0.58581372059E+02  0.41800000000E+01 0.  1.
        -11    1    4    4    0    0 -0.51018335985E+01  0.23278820036E+02 -0.11318213166E+02  0.26382458521E+02  0.00000000000E+00 0. -1.
         11    1    4    4    0    0 -0.43864763272E+02 -0.11693441554E+02 -0.26745384757E+03  0.27127921891E+03  0.00000000000E+00 0.  1.
</event>
<event>
 8    1  0.6703334E-009  0.1634314E+03  0.7561462E-02  0.1184876E+00
         -2   -1    0    0    0  501 -0.00000000000E+00  0.00000000000E+00  0.13810083667E+03  0.13810083667E+03  0.00000000000E+00 0. -1.
          2   -1    0    0  501    0  0.00000000000E+00 -0.00000000000E+00 -0.20159797663E+03  0.20159797663E+03  0.00000000000E+00 0.  1.
         25    2    1    2    0    0 -0.92393916244E+02  0.81693171174E+02 -0.31557418214E+01  0.17569373556E+03  0.12509164653E+03 0.  0.
         23    2    1    2    0    0  0.92393916244E+02 -0.81693171174E+02 -0.60341398138E+02  0.16400507774E+03  0.89700452738E+02 0.  0.
          5    1    3    3  502    0  0.25539831035E+02  0.43262497060E+02  0.81706045996E+01  0.51070126304E+02  0.41800000000E+01 0.  1.
         -5    1    3    3    0  502 -0.11793374728E+03  0.38430674114E+02 -0.11326346421E+02  0.12462360925E+03  0.41800000000E+01 0.  1.
        -11    1    4    4    0    0  0.11048605244E+03 -0.70803140865E+02 -0.54516809147E+02  0.14209973617E+03  0.00000000000E+00 0. -1.
         11    1    4    4    0    0 -0.18092136200E+02 -0.10890030309E+02 -0.58245889908E+01  0.21905341571E+02  0.00000000000E+00 0.  1.
</event>
<event>
 8    1  0.6703334E-009  0.7941067E+02  0.7561462E-02  0.1330732E+00
         -1   -1    0    0    0  501 -0.00000000000E+00  0.00000000000E+00  0.18434225418E+03  0.18434225418E+03  0.00000000000E+00 0.  1.
          1   -1    0    0  501    0  0.00000000000E+00 -0.00000000000E+00 -0.92142193873E+02  0.92142193873E+02  0.00000000000E+00 0. -1.
         25    2    1    2    0    0  0.11978386431E+02  0.74594026395E+02  0.74155155555E+02  0.16387226855E+03  0.12508949911E+03 0.  0.
         23    2    1    2    0    0 -0.11978386431E+02 -0.74594026395E+02  0.18044904753E+02  0.11261217951E+03  0.81536089374E+02 0.  0.
          5    1    3    3  502    0  0.17792004782E+02  0.44344778623E+02 -0.29058455924E+02  0.56079239349E+02  0.41800000000E+01 0. -1.
         -5    1    3    3    0  502 -0.58136183510E+01  0.30249247772E+02  0.10321361148E+03  0.10779302920E+03  0.41800000000E+01 0. -1.
        -11    1    4    4    0    0 -0.20125561028E+02 -0.52736919630E+02  0.48382002500E+02  0.74344058704E+02  0.00000000000E+00 0.  1.
         11    1    4    4    0    0  0.81471745970E+01 -0.21857106765E+02 -0.30337097747E+02  0.38268120803E+02  0.00000000000E+00 0. -1.
</event>
<event>
 8    1  0.6703334E-009  0.1099797E+03  0.7561462E-02  0.1260608E+00
         -3   -1    0    0    0  501 -0.00000000000E+00  0.00000000000E+00  0.29248422607E+03  0.29248422607E+03  0.00000000000E+00 0.  1.
          3   -1    0    0  501    0  0.00000000000E+00 -0.00000000000E+00 -0.71215000276E+02  0.71215000276E+02  0.00000000000E+00 0. -1.
         25    2    1    2    0    0  0.95383712484E+02 -0.29272598448E+01  0.11866625658E+03  0.19706919357E+03  0.12509182686E+03 0.  0.
         23    2    1    2    0    0 -0.95383712484E+02  0.29272598448E+01  0.10260296921E+03  0.16663003277E+03  0.90175257542E+02 0.  0.
          5    1    3    3  502    0  0.19081636501E+02 -0.21692341399E+02 -0.21549184981E+02  0.36283691933E+02  0.41800000000E+01 0.  1.
         -5    1    3    3    0  502  0.76302075983E+02  0.18765081554E+02  0.14021544156E+03  0.16078550164E+03  0.41800000000E+01 0.  1.
        -11    1    4    4    0    0 -0.50646658272E+01  0.19593355330E+02  0.63787485753E+02  0.66920802085E+02  0.00000000000E+00 0.  1.
         11    1    4    4    0    0 -0.90319046657E+02 -0.16666095485E+02  0.38815483458E+02  0.99709230685E+02  0.00000000000E+00 0. -1.
</event>
<event>
 8    1  0.6703334E-009  0.7981376E+02  0.7561462E-02  0.1329581E+00
          1   -1    0    0  501    0  0.00000000000E+00  0.00000000000E+00  0.11319881120E+04  0.11319881120E+04  0.00000000000E+00 0. -1.
         -1   -1    0    0    0  501 -0.00000000000E+00 -0.00000000000E+00 -0.17898407935E+02  0.17898407935E+02  0.00000000000E+00 0.  1.
         25    2    1    2    0    0 -0.42809420036E+02  0.24524160993E+02  0.92495730785E+03  0.93468074687E+03  0.12509195140E+03 0.  0.
         23    2    1    2    0    0  0.42809420036E+02 -0.24524160993E+02  0.18913239619E+03  0.21520577305E+03  0.90046546553E+02 0.  0.
          5    1    3    3  502    0 -0.26738057170E+01 -0.61790165954E+01  0.79705390221E+03  0.79709329750E+03  0.41800000000E+01 0. -1.
         -5    1    3    3    0  502 -0.40135614319E+02  0.30703177589E+02  0.12790340564E+03  0.13758744937E+03  0.41800000000E+01 0. -1.
        -11    1    4    4    0    0  0.24999519133E+02  0.32645351586E+02  0.96622725505E+02  0.10500783790E+03  0.00000000000E+00 0.  1.
         11    1    4    4    0    0  0.17809900903E+02 -0.57169512580E+02  0.92509670688E+02  0.11019793514E+03  0.00000000000E+00 0. -1.
</event>
<event>
 7    1  0.6703334E-009  0.1003294E+03  0.7561462E-02  0.1279605E+00
          1   -1    0    0  501    0  0.00000000000E+00  0.00000000000E+00  0.26466553732E+03  0.26466553732E+03  0.00000000000E+00 0. -1.
         -1   -1    0    0    0  501 -0.00000000000E+00 -0.00000000000E+00 -0.59697941602E+02  0.59697941602E+02  0.00000000000E+00 0.  1.
         23    2    1    2    0    0 -0.29589435338E+02 -0.50424306934E+02  0.70476803972E+02  0.13171594728E+03  0.94678220605E+02 0.  0.
          5    1    1    2  502    0  0.49178623445E+02  0.41898918272E+00  0.17452080091E+01  0.49388568585E+02  0.41800000000E+01 0. -1.
         -5    1    1    2    0  502 -0.19589188107E+02  0.50005317751E+02  0.13274558374E+03  0.14325896306E+03  0.41800000000E+01 0. -1.
        -11    1    3    3    0    0 -0.29049963261E+02  0.14526975694E+02  0.56659937526E+02  0.65309125769E+02  0.00000000000E+00 0.  1.
         11    1    3    3    0    0 -0.53947207716E+00 -0.64951282628E+02  0.13816866446E+02  0.66406821513E+02  0.00000000000E+00 0. -1.
</event>
<event>
 8    1  0.6703334E-009  0.6540393E+02  0.7561462E-02  0.1376459E+00
          1   -1    0    0  501    0  0.00000000000E+00  0.00000000000E+00  0.56620703594E+02  0.56620703594E+02  0.00000000000E+00 0. -1.
         -1   -1    0    0    0  501 -0.00000000000E+00 -0.00000000000E+00 -0.30420686118E+03  0.30420686118E+03  0.00000000000E+00 0.  1.
         25    2    1    2    0    0  0.57524243186E+02 -0.88625740868E+01 -0.86371691399E+02  0.16277211552E+03  0.12508840371E+03 0.  0.
         23    2    1    2    0    0 -0.57524243186E+02  0.88625740868E+01 -0.16121446619E+03  0.19805544926E+03  0.99238465822E+02 0.  0.
          5    1    3    3  502    0  0.51353862620E+02 -0.11738124268E+02  0.19702629137E+02  0.56397418046E+02  0.41800000000E+01 0. -1.
         -5    1    3    3    0  502  0.61703805660E+01  0.28755501812E+01 -0.10607432054E+03  0.10637469747E+03  0.41800000000E+01 0. -1.
        -11    1    4    4    0    0 -0.16534466817E+02  0.21462489506E+02 -0.15173860390E+03  0.15413835007E+03  0.00000000000E+00 0.  1.
         11    1    4    4    0    0 -0.40989776369E+02 -0.12599915419E+02 -0.94758622939E+01  0.43917099193E+02  0.00000000000E+00 0. -1.
</event>
<event>
 8    1  0.6703334E-009  0.1461029E+03  0.7561462E-02  0.1205345E+00
         -2   -1    0    0    0  501 -0.00000000000E+00  0.00000000000E+00  0.51802022020E+02  0.51802022020E+02  0.00000000000E+00 0.  1.
          2   -1    0    0  501    0  0.00000000000E+00 -0.00000000000E+00 -0.47227203287E+03  0.47227203287E+03  0.00000000000E+00 0. -1.
         25    2    1    2    0    0 -0.65381384109E+02  0.86153274057E+02 -0.30024022196E+03  0.34276681641E+03  0.12509111691E+03 0.  0.
         23    2    1    2    0    0  0.65381384109E+02 -0.86153274057E+02 -0.12022978889E+03  0.18130723848E+03  0.81975609606E+02 0.  0.
          5    1    3    3  502    0  0.23539704805E+02  0.59748093390E+02 -0.17788857381E+03  0.18917127017E+03  0.41800000000E+01 0.  1.
         -5    1    3    3    0  502 -0.88921088914E+02  0.26405180667E+02 -0.12235164815E+03  0.15359554624E+03  0.41800000000E+01 0.  1.
        -11    1    4    4    0    0  0.30479482791E+02  0.10499804088E+02 -0.21122537857E+02  0.38540969923E+02  0.00000000000E+00 0.  1.
         11    1    4    4    0    0  0.34901901318E+02 -0.96653078145E+02 -0.99107251037E+02  0.14276626856E+03  0.00000000000E+00 0. -1.
</event>
<event>
 8    1  0.6703334E-009  0.1400487E+03  0.7561462E-02  0.1213263E+00
          2   -1    0    0  501    0  0.00000000000E+00  0.00000000000E+00  0.19596113704E+04  0.19596113704E+04  0.00000000000E+00 0. -1.
         -2   -1    0    0    0  501 -0.00000000000E+00 -0.00000000000E+00 -0.11527107506E+02  0.11527107506E+02  0.00000000000E+00 0.  1.
         25    2    1    2    0    0 -0.97718026236E+02 -0.25844338587E+02  0.11619618626E+04  0.11730386731E+04  0.12509043121E+03 0.  0.
         23    2    1    2    0    0  0.97718026236E+02  0.25844338587E+02  0.78612240030E+03  0.79809980480E+03  0.93584868900E+02 0.  0.
          5    1    3    3  502    0 -0.24084314760E+01  0.30962741657E+02  0.56305445130E+03  0.56392577476E+03  0.41800000000E+01 0. -1.
         -5    1    3    3    0  502 -0.95309594760E+02 -0.56807080243E+02  0.59890741130E+03  0.60911289834E+03  0.41800000000E+01 0. -1.
        -11    1    4    4    0    0  0.27194664861E+02  0.55046324201E+02  0.34342672224E+03  0.34887184059E+03  0.00000000000E+00 0. -1.
         11    1    4    4    0    0  0.70523361375E+02 -0.29201985614E+02  0.44269567806E+03  0.44922796422E+03  0.00000000000E+00 0.  1.
</event>
<event>
 8    1  0.6703334E-009  0.1202407E+03  0.7561462E-02  0.1242700E+00
         -3   -1    0    0    0  501 -0.00000000000E+00  0.00000000000E+00  0.34941581982E+03  0.34941581982E+03  0.00000000000E+00 0.  1.
          3   -1    0    0  501    0  0.00000000000E+00 -0.00000000000E+00 -0.73534953707E+02  0.73534953707E+02  0.00000000000E+00 0. -1.
         25    2    1    2    0    0 -0.47188470821E+02 -0.31323255273E+02  0.11992514904E+02  0.13783740680E+03  0.12508969662E+03 0.  0.
         23    2    1    2    0    0  0.47188470821E+02  0.31323255273E+02  0.26388835121E+03  0.28511336673E+03  0.91894895858E+02 0.  0.
          5    1    3    3  502    0 -0.88839761034E+02 -0.34266732480E+02  0.98550567901E+01  0.95819135039E+02  0.41800000000E+01 0. -1.
         -5    1    3    3    0  502  0.41651290213E+02  0.29434772067E+01  0.21374581143E+01  0.42018271759E+02  0.41800000000E+01 0. -1.
        -11    1    4    4    0    0  0.57893500343E+02 -0.11535135725E+02  0.19068998132E+03  0.19961809967E+03  0.00000000000E+00 0.  1.
         11    1    4    4    0    0 -0.10705029522E+02  0.42858390998E+02  0.73198369888E+02  0.85495267063E+02  0.00000000000E+00 0. -1.
</event>
<event>
 8    1  0.6703334E-009  0.1095751E+03  0.7561462E-02  0.1261359E+00
          1   -1    0    0  501    0  0.00000000000E+00  0.00000000000E+00  0.16693648505E+03  0.16693648505E+03  0.00000000000E+00 0. -1.
         -1   -1    0    0    0  501 -0.00000000000E+00 -0.00000000000E+00 -0.89191263628E+02  0.89191263628E+02  0.00000000000E+00 0.  1.
         25    2    1    2    0    0 -0.34392791159E+02  0.45312964527E+02  0.51792698622E+02  0.14685306600E+03  0.12508881055E+03 0.  0.
         23    2    1    2    0    0  0.34392791159E+02 -0.45312964527E+02  0.25952522795E+02  0.10927468267E+03  0.89617487110E+02 0.  0.
          5    1    3    3  502    0 -0.28574730360E+02 -0.27542177808E+02  0.61182358244E+02  0.73046835208E+02  0.41800000000E+01 0. -1.
         -5    1    3    3    0  502 -0.58180607986E+01  0.72855142335E+02 -0.93896596218E+01  0.73806230793E+02  0.41800000000E+01 0. -1.
        -11    1    4    4    0    0  0.44552670039E+02 -0.67933242736E+02  0.17749704312E+02  0.83155985229E+02  0.00000000000E+00 0. -1.
         11    1    4    4    0    0 -0.10159878880E+02  0.22620278209E+02  0.82028184830E+01  0.26118697444E+02  0.00000000000E+00 0.  1.
</event>
<event>
 8    1  0.6703334E-009  0.2121398E+03  0.7561462E-02  0.1139883E+00
         -2   -1    0    0    0  501 -0.00000000000E+00  0.00000000000E+00  0.12372434797E+03  0.12372434797E+03  0.00000000000E+00 0.  1.
          2   -1    0    0  501    0  0.00000000000E+00 -0.00000000000E+00 -0.43459254562E+03  0.43459254562E+03  0.00000000000E+00 0. -1.
         25    2    1    2    0    0  0.12963897659E+03  0.15051706970E+03 -0.94051691163E+02  0.25289180778E+03  0.12508754258E+03 0.  0.
         23    2    1    2    0    0 -0.12963897659E+03 -0.15051706970E+03 -0.21681650649E+03  0.30542508581E+03  0.82543522045E+02 0.  0.
          5    1    3    3  502    0  0.27231537080E+02  0.90218163684E+02 -0.95132507362E+02  0.13397216139E+03  0.41800000000E+01 0.  1.
         -5    1    3    3    0  502  0.10240743951E+03  0.60298906018E+02  0.10808161984E+01  0.11891964639E+03  0.41800000000E+01 0.  1.
        -11    1    4    4    0    0 -0.13843275405E+03 -0.13599952891E+03 -0.17914684699E+03  0.26410810673E+03  0.00000000000E+00 0.  1.
         11    1    4    4    0    0  0.87937774590E+01 -0.14517540787E+02 -0.37669659506E+02  0.41316979074E+02  0.00000000000E+00 0. -1.
</event>
<event>
 7    1  0.6703334E-009  0.1268892E+03  0.7561462E-02  0.1232146E+00
         -2   -1    0    0    0  501 -0.00000000000E+00  0.00000000000E+00  0.11507076115E+03  0.11507076115E+03  0.00000000000E+00 0.  1.
          2   -1    0    0  501    0  0.00000000000E+00 -0.00000000000E+00 -0.34774599069E+03  0.34774599069E+03  0.00000000000E+00 0. -1.
         23    2    1    2    0    0  0.92853830438E+02  0.36142451071E+02  0.46433572107E+02  0.14121194552E+03  0.88637612460E+02 0.  0.
          5    1    1    2  502    0 -0.78517597299E+02 -0.56001934911E+02 -0.28057198989E+03  0.29671424588E+03  0.41800000000E+01 0.  1.
         -5    1    1    2    0  502 -0.14336233139E+02  0.19859483840E+02  0.14631882425E+01  0.24890560437E+02  0.41800000000E+01 0.  1.
        -11    1    3    3    0    0  0.23853214917E+02 -0.28969165132E+02  0.56623803367E+01  0.37950638221E+02  0.00000000000E+00 0. -1.
         11    1    3    3    0    0  0.69000615521E+02  0.65111616203E+02  0.40771191770E+02  0.10326130730E+03  0.00000000000E+00 0.  1.
</event>
<event>
 8    1  0.6703334E-009  0.1113635E+03  0.7561462E-02  0.1258065E+00
         -2   -1    0    0    0  501 -0.00000000000E+00  0.00000000000E+00  0.46890235327E+02  0.46890235327E+02  0.00000000000E+00 0.  1.
          2   -1    0    0  501    0  0.00000000000E+00 -0.00000000000E+00 -0.45354841854E+03  0.45354841854E+03  0.00000000000E+00 0. -1.
         25    2    1    2    0    0 -0.53438805591E+02 -0.72903892509E+02 -0.28426832640E+03  0.32346102939E+03  0.12509145716E+03 0.  0.
         23    2    1    2    0    0  0.53438805591E+02  0.72903892509E+02 -0.12238985682E+03  0.17697762448E+03  0.90394242237E+02 0.  0.
          5    1    3    3  502    0 -0.60018125605E+02 -0.54785622944E+02 -0.67292845503E+02  0.10559090557E+03  0.41800000000E+01 0.  1.
         -5    1    3    3    0  502  0.65793200140E+01 -0.18118269565E+02 -0.21697548090E+03  0.21787012382E+03  0.41800000000E+01 0.  1.
        -11    1    4    4    0    0  0.68090543549E+02  0.26660432531E+02 -0.45687948174E+02  0.86223485152E+02  0.00000000000E+00 0.  1.
         11    1    4    4    0    0 -0.14651737957E+02  0.46243459978E+02 -0.76701908643E+02  0.90754139329E+02  0.00000000000E+00 0. -1.
</event>
<event>
 8    1  0.6703334E-009  0.1043951E+03  0.7561462E-02  0.1271316E+00
         -2   -1    0    0    0  501 -0.00000000000E+00  0.00000000000E+00  0.18562677358E+03  0.18562677358E+03  0.00000000000E+00 0.  1.
          2   -1    0    0  501    0  0.00000000000E+00 -0.00000000000E+00 -0.10058482428E+03  0.10058482428E+03  0.00000000000E+00 0. -1.
         25    2    1    2    0    0 -0.81775339960E+02  0.10666571509E+02  0.53256440918E+02  0.15900266954E+03  0.12507844917E+03 0.  0.
         23    2    1    2    0    0  0.81775339960E+02 -0.10666571509E+02  0.31785508385E+02  0.12720892833E+03  0.91492135889E+02 0.  0.
          5    1    3    3  502    0 -0.48002969113E+02  0.16913866803E+02 -0.36525433957E+02  0.62784899934E+02  0.41800000000E+01 0.  1.
         -5    1    3    3    0  502 -0.33772370847E+02 -0.62472952944E+01  0.89781874875E+02  0.96217769602E+02  0.41800000000E+01 0.  1.
        -11    1    4    4    0    0  0.64460237676E+02 -0.49060585905E+02  0.22617871315E+02  0.84104883529E+02  0.00000000000E+00 0. -1.
         11    1    4    4    0    0  0.17315102284E+02  0.38394014396E+02  0.91676370703E+01  0.43104044799E+02  0.00000000000E+00 0.  1.
</event>
<event>
 8    1  0.6703334E-009  0.3388812E+03  0.7561462E-02  0.1067273E+00
         -3   -1    0    0    0  501 -0.00000000000E+00  0.00000000000E+00  0.70632317011E+02  0.70632317011E+02  0.00000000000E+00 0.  1.
          3   -1    0    0  501    0  0.00000000000E+00 -0.00000000000E+00 -0.18190893011E+04  0.18190893011E+04  0.00000000000E+00 0. -1.
         25    2    1    2    0    0 -0.32455420606E+03  0.90326006310E+02 -0.74294061876E+03  0.82528438955E+03  0.12505734900E+03 0.  0.
         23    2    1    2    0    0  0.32455420606E+03 -0.90326006310E+02 -0.10055163653E+04  0.10644372285E+04  0.92028433202E+02 0.  0.
          5    1    3    3  502    0 -0.17896092889E+03  0.71675128828E+02 -0.28281452864E+03  0.34229500168E+03  0.41800000000E+01 0.  1.
         -5    1    3    3    0  502 -0.14559327717E+03  0.18650877482E+02 -0.46012609012E+03  0.48298938787E+03  0.41800000000E+01 0.  1.
        -11    1    4    4    0    0  0.98695933714E+02 -0.41227083710E+02 -0.20506889028E+03  0.23128728785E+03  0.00000000000E+00 0. -1.
         11    1    4    4    0    0  0.22585827235E+03 -0.49098922600E+02 -0.80044747503E+03  0.83314994069E+03  0.00000000000E+00 0.  1.
</event>
<event>
 8    1  0.6703334E-009  0.1053612E+03  0.7561462E-02  0.1269410E+00
          2   -1    0    0  501    0  0.00000000000E+00  0.00000000000E+00  0.69481327870E+02  0.69481327870E+02  0.00000000000E+00 0. -1.
         -2   -1    0    0    0  501 -0.00000000000E+00 -0.00000000000E+00 -0.24010487513E+03  0.24010487513E+03  0.00000000000E+00 0.  1.
         25    2    1    2    0    0 -0.36884528764E+02  0.52853610972E+02 -0.13762217708E+03  0.19682538077E+03  0.12508554767E+03 0.  0.
         23    2    1    2    0    0  0.36884528764E+02 -0.52853610972E+02 -0.33001370187E+02  0.11276082223E+03  0.86440383745E+02 0.  0.
          5    1    3    3  502    0  0.41679519070E+02  0.72538077827E+01 -0.17043884358E+02  0.45801380233E+02  0.41800000000E+01 0. -1.
         -5    1    3    3    0  502 -0.78564047833E+02  0.45599803190E+02 -0.12057829272E+03  0.15102400054E+03  0.41800000000E+01 0. -1.
        -11    1    4    4    0    0  0.46556493205E+02 -0.41575176783E+02  0.13570705433E+02  0.63876180459E+02  0.00000000000E+00 0. -1.
         11    1    4    4    0    0 -0.96719644417E+01 -0.11278434190E+02 -0.46572075621E+02  0.48884641776E+02  0.00000000000E+00 0.  1.
</event>
<event>
 8    1  0.6703334E-009  0.5472189E+02  0.7561462E-02  0.1421419E+00
          1   -1    0    0  501    0  0.00000000000E+00  0.00000000000E+00  0.91480669317E+02  0.91480669317E+02  0.00000000000E+00 0. -1.
         -1   -1    0    0    0  501 -0.00000000000E+00 -0.00000000000E+00 -0.15099420180E+03  0.15099420180E+03  0.00000000000E+00 0.  1.
         25    2    1    2    0    0 -0.12103324909E+02 -0.31139505448E+02 -0.63809228759E+02  0.14435058811E+03  0.12509722355E+03 0.  0.
         23    2    1    2    0    0  0.12103324909E+02  0.31139505448E+02  0.42956962722E+01  0.98124283011E+02  0.92161611513E+02 0.  0.
          5    1    3    3  502    0  0.96603132648E+01 -0.14302425802E+02  0.36318034807E+02  0.40427133072E+02  0.41800000000E+01 0.  1.
         -5    1    3    3    0  502 -0.21763638173E+02 -0.16837079645E+02 -0.10012726357E+03  0.10392345504E+03  0.41800000000E+01 0.  1.
        -11    1    4    4    0    0 -0.18533190885E+02  0.27272957879E+02  0.39395757185E+02  0.51374303694E+02  0.00000000000E+00 0. -1.
         11    1    4    4    0    0  0.30636515794E+02  0.38665475692E+01 -0.35100060913E+02  0.46749979318E+02  0.00000000000E+00 0.  1.
</event>
<event>
 8    1  0.6703334E-009  0.6350676E+02  0.7561462E-02  0.1383678E+00
          1   -1    0    0  501    0  0.00000000000E+00  0.00000000000E+00  0.14233239654E+03  0.14233239654E+03  0.00000000000E+00 0. -1.
         -1   -1    0    0    0  501 -0.00000000000E+00 -0.00000000000E+00 -0.88835092577E+02  0.88835092577E+02  0.00000000000E+00 0.  1.
         25    2    1    2    0    0  0.46857546894E+01  0.25605442491E+02  0.18105074729E+02  0.12907224111E+03  0.12511696412E+03 0.  0.
         23    2    1    2    0    0 -0.46857546894E+01 -0.25605442491E+02  0.35392229239E+02  0.10209524801E+03  0.92158747791E+02 0.  0.
          5    1    3    3  502    0  0.89653599722E+01  0.64676753623E+01  0.71274477688E+02  0.72247713277E+02  0.41800000000E+01 0.  1.
         -5    1    3    3    0  502 -0.42796052828E+01  0.19137767129E+02 -0.53169402959E+02  0.56824527830E+02  0.41800000000E+01 0.  1.
        -11    1    4    4    0    0 -0.43775502745E+01 -0.60294627934E+02  0.28014012236E+02  0.66628747442E+02  0.00000000000E+00 0. -1.
         11    1    4    4    0    0 -0.30820441491E+00  0.34689185443E+02  0.73782170025E+01  0.35466500572E+02  0.00000000000E+00 0.  1.
</event>
<event>
 8    1  0.6703334E-009  0.1309181E+03  0.7561462E-02  0.1226100E+00
          3   -1    0    0  501    0  0.00000000000E+00  0.00000000000E+00  0.48209736061E+03  0.48209736061E+03  0.00000000000E+00 0. -1.
         -3   -1    0    0    0  501 -0.00000000000E+00 -0.00000000000E+00 -0.41057845458E+02  0.41057845458E+02  0.00000000000E+00 0.  1.
         25    2    1    2    0    0 -0.82360762651E+02 -0.25389121978E+02  0.28337206790E+03  0.32152058274E+03  0.12509138068E+03 0.  0.
         23    2    1    2    0    0  0.82360762651E+02  0.25389121978E+02  0.15766744726E+03  0.20163462333E+03  0.91485488809E+02 0.  0.
          5    1    3    3  502    0 -0.11428146204E+03 -0.65469014502E+01  0.20981258314E+03  0.23904373434E+03  0.41800000000E+01 0.  1.
         -5    1    3    3    0  502  0.31920699384E+02 -0.18842220527E+02  0.73559484758E+02  0.82476848396E+02  0.41800000000E+01 0.  1.
        -11    1    4    4    0    0  0.22869361599E+01  0.29710853864E+02  0.95872539092E+02  0.10039675625E+03  0.00000000000E+00 0. -1.
         11    1    4    4    0    0  0.80073826491E+02 -0.43217318868E+01  0.61794908164E+02  0.10123786708E+03  0.00000000000E+00 0.  1.
</event>
<event>
 8    1  0.6703334E-009  0.7951111E+02  0.7561462E-02  0.1330445E+00
          2   -1    0    0  501    0  0.00000000000E+00  0.00000000000E+00  0.19626679331E+04  0.19626679331E+04  0.00000000000E+00 0. -1.
         -2   -1    0    0    0  501 -0.00000000000E+00 -0.00000000000E+00 -0.10304989463E+02  0.10304989463E+02  0.00000000000E+00 0.  1.
         25    2    1    2    0    0 -0.35646033783E+02 -0.10385182553E+01  0.16612413677E+04  0.16663255639E+04  0.12508511070E+03 0.  0.
         23    2    1    2    0    0  0.35646033783E+02  0.10385182553E+01  0.29112157599E+03  0.30664735871E+03  0.89493644205E+02 0.  0.
          5    1    3    3  502    0 -0.88841870829E+01  0.24190739278E+02  0.15227178439E+04  0.15229416355E+04  0.41800000000E+01 0.  1.
         -5    1    3    3    0  502 -0.26761846701E+02 -0.25229257533E+02  0.13852352374E+03  0.14338392834E+03  0.41800000000E+01 0.  1.
        -11    1    4    4    0    0  0.61303615808E+02 -0.18065670590E+02  0.20735494463E+03  0.21698058629E+03  0.00000000000E+00 0. -1.
         11    1    4    4    0    0 -0.25657582024E+02  0.19104188845E+02  0.83766631361E+02  0.89666772421E+02  0.00000000000E+00 0.  1.
</event>
<event>
 8    1  0.6703334E-009  0.5370465E+02  0.7561462E-02  0.1426326E+00
          2   -1    0    0  501    0  0.00000000000E+00  0.00000000000E+00  0.26377442357E+03  0.26377442357E+03  0.00000000000E+00 0. -1.
         -2   -1    0    0    0  501 -0.00000000000E+00 -0.00000000000E+00 -0.53152230198E+02  0.53152230198E+02  0.00000000000E+00 0.  1.
         25    2    1    2    0    0  0.24926036177E+02  0.13103519778E+02  0.17650780687E+03  0.21816365695E+03  0.12508943128E+03 0.  0.
         23    2    1    2    0    0 -0.24926036177E+02 -0.13103519778E+02  0.34114386501E+02  0.98762996818E+02  0.88302483906E+02 0.  0.
          5    1    3    3  502    0 -0.98982750943E+00  0.12300197307E+02 -0.17816838385E+02  0.22072307137E+02  0.41800000000E+01 0. -1.
         -5    1    3    3    0  502  0.25915863687E+02  0.80332247126E+00  0.19432464525E+03  0.19609134981E+03  0.41800000000E+01 0. -1.
        -11    1    4    4    0    0 -0.23485464092E+02 -0.37191727697E+02  0.52452317375E+02  0.68454636298E+02  0.00000000000E+00 0. -1.
         11    1    4    4    0    0 -0.14405720855E+01  0.24088207919E+02 -0.18337930874E+02  0.30308360520E+02  0.00000000000E+00 0.  1.
</event>
<event>
 8    1  0.6703334E-009  0.1194048E+03  0.7561462E-02  0.1244082E+00
         -3   -1    0    0    0  501 -0.00000000000E+00  0.00000000000E+00  0.60806024678E+03  0.60806024678E+03  0.00000000000E+00 0.  1.
          3   -1    0    0  501    0  0.00000000000E+00 -0.00000000000E+00 -0.27084724586E+02  0.27084724586E+02  0.00000000000E+00 0. -1.
         25    2    1    2    0    0 -0.66624963912E+02  0.29503288647E+02  0.34617742748E+03  0.37522955194E+03  0.12509626489E+03 0.  0.
         23    2    1    2    0    0  0.66624963912E+02 -0.29503288647E+02  0.23479809471E+03  0.25991541943E+03  0.84359647464E+02 0.  0.
          5    1    3    3  502    0 -0.29174860195E+02 -0.48481004038E+02  0.16338887021E+03  0.17295946209E+03  0.41800000000E+01 0. -1.
         -5    1    3    3    0  502 -0.37450103717E+02  0.77984292685E+02  0.18278855728E+03  0.20227008984E+03  0.41800000000E+01 0. -1.
        -11    1    4    4    0    0  0.78279343555E+02 -0.29912766579E+02  0.23361945400E+03  0.24819443692E+03  0.00000000000E+00 0.  1.
         11    1    4    4    0    0 -0.11654379643E+02  0.40947793253E+00  0.11786407124E+01  0.11720982509E+02  0.00000000000E+00 0. -1.
</event>
<event>
 8    1  0.6703334E-009  0.1103189E+03  0.7561462E-02  0.1259981E+00
          3   -1    0    0  501    0  0.00000000000E+00  0.00000000000E+00  0.24610931882E+03  0.24610931882E+03  0.00000000000E+00 0. -1.
         -3   -1    0    0    0  501 -0.00000000000E+00 -0.00000000000E+00 -0.77547636187E+02  0.77547636187E+02  0.00000000000E+00 0.  1.
         25    2    1    2    0    0  0.26071772438E+02  0.36028596901E+02  0.70335523183E+01  0.13295216682E+03  0.12509600589E+03 0.  0.
         23    2    1    2    0    0 -0.26071772438E+02 -0.36028596901E+02  0.16152813031E+03  0.19070478819E+03  0.91099847654E+02 0.  0.
          5    1    3    3  502    0  0.63622938486E+02 -0.18366484777E+02  0.26181106687E-01  0.66352687588E+02  0.41800000000E+01 0. -1.
         -5    1    3    3    0  502 -0.37551166048E+02  0.54395081679E+02  0.70073712116E+01  0.66599479230E+02  0.41800000000E+01 0. -1.
        -11    1    4    4    0    0 -0.51556209139E+02 -0.11795067628E+02  0.46507195718E+02  0.70427874984E+02  0.00000000000E+00 0.  1.
         11    1    4    4    0    0  0.25484436701E+02 -0.24233529273E+02  0.11502093459E+03  0.12027691320E+03  0.00000000000E+00 0. -1.
</event>
<event>
 8    1  0.6703334E-009  0.8957508E+02  0.7561462E-02  0.1303884E+00
         -1   -1    0    0    0  501 -0.00000000000E+00  0.00000000000E+00  0.43860966190E+03  0.43860966190E+03  0.00000000000E+00 0.  1.
          1   -1    0    0  501    0  0.00000000000E+00 -0.00000000000E+00 -0.35733586929E+02  0.35733586929E+02  0.00000000000E+00 0. -1.
         25    2    1    2    0    0  0.10869334854E+02 -0.64738498412E+02  0.25713263653E+03  0.29338610972E+03  0.12509596714E+03 0.  0.
         23    2    1    2    0    0 -0.10869334854E+02  0.64738498412E+02  0.14574343845E+03  0.18095713911E+03  0.84824057478E+02 0.  0.
          5    1    3    3  502    0  0.20147098236E+02 -0.23412953646E+02 -0.15670005927E+01  0.31208970772E+02  0.41800000000E+01 0. -1.
         -5    1    3    3    0  502 -0.92777633817E+01 -0.41325544766E+02  0.25869963712E+03  0.26217713895E+03  0.41800000000E+01 0. -1.
        -11    1    4    4    0    0  0.11986804094E+02 -0.16857014157E+02  0.43476797149E+02  0.48146383966E+02  0.00000000000E+00 0.  1.
         11    1    4    4    0    0 -0.22856138948E+02  0.81595512569E+02  0.10226664130E+03  0.13281075514E+03  0.00000000000E+00 0. -1.
</event>
<event>
 8    1  0.6703334E-009  0.8102786E+02  0.7561462E-02  0.1326160E+00
          2   -1    0    0  501    0  0.00000000000E+00  0.00000000000E+00  0.17858744923E+04  0.17858744923E+04  0.00000000000E+00 0. -1.
         -2   -1    0    0    0  501 -0.00000000000E+00 -0.00000000000E+00 -0.11857670843E+02  0.11857670843E+02  0.00000000000E+00 0.  1.
         25    2    1    2    0    0 -0.16600143777E+02 -0.58751954372E+02  0.14393557812E+04  0.14460708783E+04  0.12509421812E+03 0.  0.
         23    2    1    2    0    0  0.16600143777E+02  0.58751954372E+02  0.33466104031E+03  0.35166128486E+03  0.89108307393E+02 0.  0.
          5    1    3    3  502    0  0.17229566813E+02 -0.37178660081E+02  0.13082728040E+04  0.13089210491E+04  0.41800000000E+01 0.  1.
         -5    1    3    3    0  502 -0.33829710590E+02 -0.21573294291E+02  0.13108297719E+03  0.13714982921E+03  0.41800000000E+01 0.  1.
        -11    1    4    4    0    0  0.26924915084E+02  0.70905194229E+01  0.24591360408E+02  0.37147833378E+02  0.00000000000E+00 0.  1.
         11    1    4    4    0    0 -0.10324771307E+02  0.51661434949E+02  0.31006967991E+03  0.31451345148E+03  0.00000000000E+00 0. -1.
</event>
<event>
 8    1  0.6703334E-009  0.8552497E+02  0.7561462E-02  0.1314065E+00
         -1   -1    0    0    0  501 -0.00000000000E+00  0.00000000000E+00  0.27208379629E+02  0.27208379629E+02  0.00000000000E+00 0. -1.
          1   -1    0    0  501    0  0.00000000000E+00 -0.00000000000E+00 -0.52137052669E+03  0.52137052669E+03  0.00000000000E+00 0.  1.
         25    2    1    2    0    0  0.34337534367E+02 -0.17759943109E+02 -0.34790036158E+03  0.37172551319E+03  0.12510281263E+03 0.  0.
         23    2    1    2    0    0 -0.34337534367E+02  0.17759943109E+02 -0.14626178549E+03  0.17685339313E+03  0.91597657841E+02 0.  0.
          5    1    3    3  502    0  0.51310516790E+02 -0.43021210871E+02 -0.32874968036E+03  0.33552558540E+03  0.41800000000E+01 0. -1.
         -5    1    3    3    0  502 -0.16972982423E+02  0.25261267762E+02 -0.19150681211E+02  0.36199927792E+02  0.41800000000E+01 0. -1.
        -11    1    4    4    0    0  0.18210271517E+02  0.16808039392E+01 -0.10884736357E+03  0.11037294798E+03  0.00000000000E+00 0.  1.
         11    1    4    4    0    0 -0.52547805884E+02  0.16079139170E+02 -0.37414421924E+02  0.66480445152E+02  0.00000000000E+00 0. -1.
</event>
<event>
 8    1  0.6703334E-009  0.1968196E+03  0.7561462E-02  0.1152450E+00
          2   -1    0    0  501    0  0.00000000000E+00  0.00000000000E+00  0.21508702175E+04  0.21508702175E+04  0.00000000000E+00 0.  1.
         -2   -1    0    0    0  501 -0.00000000000E+00 -0.00000000000E+00 -0.20743908896E+02  0.20743908896E+02  0.00000000000E+00 0. -1.
         25    2    1    2    0    0 -0.50753546706E+02  0.17171066160E+03  0.12465661884E+04  0.12655571559E+04  0.12508868524E+03 0.  0.
         23    2    1    2    0    0  0.50753546706E+02 -0.17171066160E+03  0.88356012028E+03  0.90605697050E+03  0.90555363288E+02 0.  0.
          5    1    3    3  502    0 -0.85903561490E+02  0.10174306764E+03  0.92631996000E+03  0.93585106421E+03  0.41800000000E+01 0.  1.
         -5    1    3    3    0  502  0.35150014784E+02  0.69967593962E+02  0.32024622836E+03  0.32970609173E+03  0.41800000000E+01 0.  1.
        -11    1    4    4    0    0 -0.31516197123E+01 -0.33573871147E+02  0.56410039923E+02  0.65720850077E+02  0.00000000000E+00 0. -1.
         11    1    4    4    0    0  0.53905166419E+02 -0.13813679045E+03  0.82715008036E+03  0.84033612042E+03  0.00000000000E+00 0.  1.
</event>
<event>
 8    1  0.6703334E-009  0.8924157E+02  0.7561462E-02  0.1304699E+00
          1   -1    0    0  501    0  0.00000000000E+00  0.00000000000E+00  0.79355610369E+03  0.79355610369E+03  0.00000000000E+00 0. -1.
         -1   -1    0    0    0  501 -0.00000000000E+00 -0.00000000000E+00 -0.27271068829E+02  0.27271068829E+02  0.00000000000E+00 0.  1.
         25    2    1    2    0    0 -0.52843093008E+02 -0.19518827955E+00  0.65256638526E+03  0.66653482862E+03  0.12503343557E+03 0.  0.
         23    2    1    2    0    0  0.52843093008E+02  0.19518827955E+00  0.11371864960E+03  0.15429234390E+03  0.89898640381E+02 0.  0.
          5    1    3    3  502    0 -0.24407027879E+02  0.41310986578E+02  0.55111569686E+03  0.55321630883E+03  0.41800000000E+01 0. -1.
         -5    1    3    3    0  502 -0.28436065129E+02 -0.41506174857E+02  0.10145068840E+03  0.11331851979E+03  0.41800000000E+01 0. -1.
        -11    1    4    4    0    0 -0.64754956767E+00  0.22043082158E+02 -0.46830223282E+01  0.22544344958E+02  0.00000000000E+00 0.  1.
         11    1    4    4    0    0  0.53490642575E+02 -0.21847893878E+02  0.11840167192E+03  0.13174799894E+03  0.00000000000E+00 0. -1.
</event>
<event>
 8    1  0.6703334E-009  0.7260261E+02  0.7561462E-02  0.1351460E+00
          1   -1    0    0  501    0  0.00000000000E+00  0.00000000000E+00  0.88354570772E+02  0.88354570772E+02  0.00000000000E+00 0. -1.
         -1   -1    0    0    0  501 -0.00000000000E+00 -0.00000000000E+00 -0.33807081210E+03  0.33807081210E+03  0.00000000000E+00 0.  1.
         25    2    1    2    0    0 -0.50582358823E+02 -0.24774798529E+02 -0.28119444044E+03  0.31287579156E+03  0.12509429222E+03 0.  0.
         23    2    1    2    0    0  0.50582358823E+02  0.24774798529E+02  0.31478199110E+02  0.11354959131E+03  0.93435897819E+02 0.  0.
          5    1    3    3  502    0 -0.41274333780E+02  0.35307486775E+01 -0.27966628398E+03  0.28274854484E+03  0.41800000000E+01 0. -1.
         -5    1    3    3    0  502 -0.93080250428E+01 -0.28305547207E+02 -0.15281564597E+01  0.30127246722E+02  0.41800000000E+01 0. -1.
        -11    1    4    4    0    0  0.25748129261E+02  0.37568681533E+02 -0.23965409360E+02  0.51465647167E+02  0.00000000000E+00 0.  1.
         11    1    4    4    0    0  0.24834229562E+02 -0.12793883004E+02  0.55443608469E+02  0.62083944143E+02  0.00000000000E+00 0. -1.
</event>
<event>
 8    1  0.6703334E-009  0.2081551E+03  0.7561462E-02  0.1143035E+00
          2   -1    0    0  501    0  0.00000000000E+00  0.00000000000E+00  0.62954544633E+03  0.62954544633E+03  0.00000000000E+00 0. -1.
         -2   -1    0    0    0  501 -0.00000000000E+00 -0.00000000000E+00 -0.75211552226E+02  0.75211552226E+02  0.00000000000E+00 0.  1.
         25    2    1    2    0    0 -0.15865819487E+03  0.10036807255E+03  0.26863829541E+03  0.35079835255E+03  0.12508708009E+03 0.  0.
         23    2    1    2    0    0  0.15865819487E+03 -0.10036807255E+03  0.28569559870E+03  0.35395864601E+03  0.91752793863E+02 0.  0.
          5    1    3    3  502    0 -0.25636496379E+02  0.82287968035E+02  0.70498803645E+02  0.11142752508E+03  0.41800000000E+01 0. -1.
         -5    1    3    3    0  502 -0.13302169849E+03  0.18080104517E+02  0.19813949176E+03  0.23937082747E+03  0.41800000000E+01 0. -1.
        -11    1    4    4    0    0  0.10553667784E+03 -0.34376884070E+02  0.98145100200E+02  0.14816281997E+03  0.00000000000E+00 0.  1.
         11    1    4    4    0    0  0.53121517030E+02 -0.65991188482E+02  0.18755049850E+03  0.20579582604E+03  0.00000000000E+00 0. -1.
</event>
<event>
 8    1  0.6703334E-009  0.1498872E+03  0.7561462E-02  0.1200612E+00
         -2   -1    0    0    0  501 -0.00000000000E+00  0.00000000000E+00  0.35817394225E+02  0.35817394225E+02  0.00000000000E+00 0.  1.
          2   -1    0    0  501    0  0.00000000000E+00 -0.00000000000E+00 -0.63570119092E+03  0.63570119092E+03  0.00000000000E+00 0. -1.
         25    2    1    2    0    0  0.64556643211E+02  0.79655988479E+02 -0.34113625766E+03  0.37753705931E+03  0.12509055994E+03 0.  0.
         23    2    1    2    0    0 -0.64556643211E+02 -0.79655988479E+02 -0.25874753903E+03  0.29398152583E+03  0.94668959468E+02 0.  0.
          5    1    3    3  502    0 -0.23733231762E+02  0.68459895598E+02 -0.14767800148E+03  0.16454874085E+03  0.41800000000E+01 0. -1.
         -5    1    3    3    0  502  0.88289874973E+02  0.11196092881E+02 -0.19345825618E+03  0.21298831846E+03  0.41800000000E+01 0. -1.
        -11    1    4    4    0    0 -0.58324844769E+02 -0.12284662041E+00 -0.88806927174E+02  0.10624722548E+03  0.00000000000E+00 0.  1.
         11    1    4    4    0    0 -0.62317984426E+01 -0.79533141859E+02 -0.16994061186E+03  0.18773430034E+03  0.00000000000E+00 0. -1.
</event>
<event>
 8    1  0.6703334E-009  0.1155832E+03  0.7561462E-02  0.1250566E+00
         -1   -1    0    0    0  501 -0.00000000000E+00  0.00000000000E+00  0.64019312144E+02  0.64019312144E+02  0.00000000000E+00 0.  1.
          1   -1    0    0  501    0  0.00000000000E+00 -0.00000000000E+00 -0.32174758475E+03  0.32174758475E+03  0.00000000000E+00 0. -1.
         25    2    1    2    0    0  0.14093322803E+01 -0.71362939597E+02 -0.55239775819E+02  0.15426381257E+03  0.12510489866E+03 0.  0.
         23    2    1    2    0    0 -0.14093322803E+01  0.71362939597E+02 -0.20248849679E+03  0.23150308433E+03  0.86587709046E+02 0.  0.
          5    1    3    3  502    0  0.18706848304E+01  0.33681605019E+02  0.29253252978E+01  0.34117149742E+02  0.41800000000E+01 0. -1.
         -5    1    3    3    0  502 -0.46135255005E+00 -0.10504454462E+03 -0.58165101117E+02  0.12014666282E+03  0.41800000000E+01 0. -1.
        -11    1    4    4    0    0 -0.29437180458E+02  0.29563927093E+02 -0.16088714236E+03  0.16620844129E+03  0.00000000000E+00 0. -1.
         11    1    4    4    0    0  0.28027848177E+02  0.41799012504E+02 -0.41601354425E+02  0.65294643041E+02  0.00000000000E+00 0.  1.
</event>
<event>
 8    1  0.6703334E-009  0.1142094E+03  0.7561462E-02  0.1252967E+00
         -2   -1    0    0    0  501 -0.00000000000E+00  0.00000000000E+00  0.11206162714E+02  0.11206162714E+02  0.00000000000E+00 0.  1.
          2   -1    0    0  501    0  0.00000000000E+00 -0.00000000000E+00 -0.13172450144E+04  0.13172450144E+04  0.00000000000E+00 0. -1.
         25    2    1    2    0    0  0.44832733338E+02 -0.15236812325E+02 -0.88480724279E+03  0.89485999001E+03  0.12509360657E+03 0.  0.
         23    2    1    2    0    0 -0.44832733338E+02  0.15236812325E+02 -0.42123160887E+03  0.43359118708E+03  0.91231106368E+02 0.  0.
          5    1    3    3  502    0  0.86130335805E+02 -0.26601984261E+02 -0.56264181810E+03  0.56983277213E+03  0.41800000000E+01 0. -1.
         -5    1    3    3    0  502 -0.41297602466E+02  0.11365171937E+02 -0.32216542469E+03  0.32502721788E+03  0.41800000000E+01 0. -1.
        -11    1    4    4    0    0 -0.31570616910E+02 -0.32670264671E+02 -0.12052063035E+03  0.12879934932E+03  0.00000000000E+00 0.  1.
         11    1    4    4    0    0 -0.13262116429E+02  0.47907076996E+02 -0.30071097852E+03  0.30479183775E+03  0.00000000000E+00 0. -1.
</event>
<event>
 8    1  0.6703334E-009  0.2059606E+03  0.7561462E-02  0.1144805E+00
         -1   -1    0    0    0  501 -0.00000000000E+00  0.00000000000E+00  0.94011609444E+03  0.94011609444E+03  0.00000000000E+00 0.  1.
          1   -1    0    0  501    0  0.00000000000E+00 -0.00000000000E+00 -0.49571569778E+02  0.49571569778E+02  0.00000000000E+00 0. -1.
         25    2    1    2    0    0  0.16906185868E+03 -0.54648515513E+02  0.58624803284E+03  0.62522183723E+03  0.12508883817E+03 0.  0.
         23    2    1    2    0    0 -0.16906185868E+03  0.54648515513E+02  0.30429649183E+03  0.36446582699E+03  0.93116119966E+02 0.  0.
          5    1    3    3  502    0  0.10861113335E+03 -0.91863657216E+02  0.44294777241E+03  0.46524779557E+03  0.41800000000E+01 0. -1.
         -5    1    3    3    0  502  0.60450725330E+02  0.37215141703E+02  0.14330026043E+03  0.15997404166E+03  0.41800000000E+01 0. -1.
        -11    1    4    4    0    0 -0.71528457933E+02 -0.21576729007E+02  0.14080598617E+03  0.15939950210E+03  0.00000000000E+00 0.  1.
         11    1    4    4    0    0 -0.97533400746E+02  0.76225244520E+02  0.16349050565E+03  0.20506632489E+03  0.00000000000E+00 0. -1.
</event>
<event>
 8    1  0.6703334E-009  0.1920552E+03  0.7561462E-02  0.1156621E+00
          1   -1    0    0  501    0  0.00000000000E+00  0.00000000000E+00  0.33036095372E+03  0.33036095372E+03  0.00000000000E+00 0. -1.
         -1   -1    0    0    0  501 -0.00000000000E+00 -0.00000000000E+00 -0.26447300696E+03  0.26447300696E+03  0.00000000000E+00 0.  1.
         25    2    1    2    0    0 -0.13686608015E+03  0.11839472091E+03 -0.17357102255E+03  0.28022244930E+03  0.12509231547E+03 0.  0.
         23    2    1    2    0    0  0.13686608015E+03 -0.11839472091E+03  0.23945896932E+03  0.31461151138E+03  0.94287704767E+02 0.  0.
          5    1    3    3  502    0 -0.57317517006E+02  0.61971969860E+02 -0.40627228012E+01  0.84615606838E+02  0.41800000000E+01 0. -1.
         -5    1    3    3    0  502 -0.79548563143E+02  0.56422751049E+02 -0.16950829975E+03  0.19560684246E+03  0.41800000000E+01 0. -1.
        -11    1    4    4    0    0  0.13844460840E+03 -0.72920916989E+02  0.16536704091E+03  0.22766340933E+03  0.00000000000E+00 0. -1.
         11    1    4    4    0    0 -0.15785282477E+01 -0.45473803920E+02  0.74091928411E+02  0.86948102050E+02  0.00000000000E+00 0.  1.
</event>
<event>
 8    1  0.6703334E-009  0.1618948E+03  0.7561462E-02  0.1186574E+00
         -1   -1    0    0    0  501 -0.00000000000E+00  0.00000000000E+00  0.78208742395E+03  0.78208742395E+03  0.00000000000E+00 0.  1.
          1   -1    0    0  501    0  0.00000000000E+00 -0.00000000000E+00 -0.42164937492E+02  0.42164937492E+02  0.00000000000E+00 0. -1.
         25    2    1    2    0    0 -0.13006425706E+03 -0.64175854201E+02  0.39514430744E+03  0.43911430343E+03  0.12508835496E+03 0.  0.
         23    2    1    2    0    0  0.13006425706E+03  0.64175854201E+02  0.34477817901E+03  0.38513805801E+03  0.91782785846E+02 0.  0.
          5    1    3    3  502    0 -0.18412872297E+02 -0.41071950317E+02  0.24729400405E+02  0.51526251692E+02  0.41800000000E+01 0. -1.
         -5    1    3    3    0  502 -0.11165138476E+03 -0.23103903884E+02  0.37041490704E+03  0.38758805174E+03  0.41800000000E+01 0. -1.
        -11    1    4    4    0    0 -0.10608098996E+02  0.65971791833E+01  0.60735498195E+01  0.13890375981E+02  0.00000000000E+00 0. -1.
         11    1    4    4    0    0  0.14067235606E+03  0.57578675018E+02  0.33870462919E+03  0.37124768203E+03  0.00000000000E+00 0.  1.
</event>
<event>
 8    1  0.6703334E-009  0.3254875E+03  0.7561462E-02  0.1073151E+00
         -2   -1    0    0    0  501 -0.00000000000E+00  0.00000000000E+00  0.32580127381E+02  0.32580127381E+02  0.00000000000E+00 0. -1.
          2   -1    0    0  501    0  0.00000000000E+00 -0.00000000000E+00 -0.32828459406E+04  0.32828459406E+04  0.00000000000E+00 0.  1.
         25    2    1    2    0    0  0.27138360178E+03 -0.14328175300E+03 -0.15223178232E+04  0.15579724963E+04  0.12509206339E+03 0.  0.
         23    2    1    2    0    0 -0.27138360178E+03  0.14328175300E+03 -0.17279479901E+04  0.17574535718E+04  0.93059552789E+02 0.  0.
          5    1    3    3  502    0  0.24769294752E+03 -0.16608795740E+03 -0.13698950329E+04  0.14019867615E+04  0.41800000000E+01 0.  1.
         -5    1    3    3    0  502  0.23690654259E+02  0.22806204400E+02 -0.15242279029E+03  0.15598573479E+03  0.41800000000E+01 0.  1.
        -11    1    4    4    0    0 -0.80593192757E+02  0.91395231936E+02 -0.73129773231E+03  0.74138028327E+03  0.00000000000E+00 0.  1.
         11    1    4    4    0    0 -0.19079040902E+03  0.51886521063E+02 -0.99665025780E+03  0.10160732885E+04  0.00000000000E+00 0. -1.
</event>
<event>
 8    1  0.6703334E-009  0.9914486E+02  0.7561462E-02  0.1282105E+00
          2   -1    0    0  501    0  0.00000000000E+00  0.00000000000E+00  0.23693490393E+02  0.23693490393E+02  0.00000000000E+00 0. -1.
         -2   -1    0    0    0  501 -0.00000000000E+00 -0.00000000000E+00 -0.63151936018E+03  0.63151936018E+03  0.00000000000E+00 0.  1.
         25    2    1    2    0    0 -0.49056417774E+02  0.26500125083E+02 -0.32942292834E+03  0.35675658614E+03  0.12508799816E+03 0.  0.
         23    2    1    2    0    0  0.49056417774E+02 -0.26500125083E+02 -0.27840294145E+03  0.29845626444E+03  0.91973665903E+02 0.  0.
          5    1    3    3  502    0 -0.29926247644E+02  0.67585386965E+02 -0.27977403096E+03  0.28940343058E+03  0.41800000000E+01 0.  1.
         -5    1    3    3    0  502 -0.19130170130E+02 -0.41085261882E+02 -0.49648897378E+02  0.67353155560E+02  0.41800000000E+01 0.  1.
        -11    1    4    4    0    0  0.54431476531E+02 -0.28665260135E+01 -0.26542374811E+03  0.27096267025E+03  0.00000000000E+00 0.  1.
         11    1    4    4    0    0 -0.53750587574E+01 -0.23633599069E+02 -0.12979193343E+02  0.27493594189E+02  0.00000000000E+00 0. -1.
</event>
<event>
 8    1  0.6703334E-009  0.7687444E+02  0.7561462E-02  0.1338163E+00
         -1   -1    0    0    0  501 -0.00000000000E+00  0.00000000000E+00  0.47228197828E+02  0.47228197828E+02  0.00000000000E+00 0.  1.
          1   -1    0    0  501    0  0.00000000000E+00 -0.00000000000E+00 -0.33841750975E+03  0.33841750975E+03  0.00000000000E+00 0. -1.
         25    2    1    2    0    0  0.40951426654E+02 -0.52152026216E+02 -0.16165424427E+03  0.21488849327E+03  0.12509243248E+03 0.  0.
         23    2    1    2    0    0 -0.40951426654E+02  0.52152026216E+02 -0.12953506765E+03  0.17075721431E+03  0.89341140049E+02 0.  0.
          5    1    3    3  502    0  0.22835276900E+02  0.12673017111E+01  0.16147514168E+02  0.28306722498E+02  0.41800000000E+01 0.  1.
         -5    1    3    3    0  502  0.18116149754E+02 -0.53419327927E+02 -0.17780175844E+03  0.18658177077E+03  0.41800000000E+01 0.  1.
        -11    1    4    4    0    0 -0.42448106102E+02  0.30586522439E+02 -0.13796645150E+03  0.14755378275E+03  0.00000000000E+00 0. -1.
         11    1    4    4    0    0  0.14966794479E+01  0.21565503777E+02  0.84313838460E+01  0.23203431559E+02  0.00000000000E+00 0.  1.
</event>
<event>
 8    1  0.6703334E-009  0.1452833E+03  0.7561462E-02  0.1206392E+00
         -2   -1    0    0    0  501 -0.00000000000E+00  0.00000000000E+00  0.19417609482E+02  0.19417609482E+02  0.00000000000E+00 0.  1.
          2   -1    0    0  501    0  0.00000000000E+00 -0.00000000000E+00 -0.12741310371E+04  0.12741310371E+04  0.00000000000E+00 0. -1.
         25    2    1    2    0    0  0.12007614907E+02 -0.10592250291E+03 -0.50758966166E+03  0.53353364508E+03  0.12508847421E+03 0.  0.
         23    2    1    2    0    0 -0.12007614907E+02  0.10592250291E+03 -0.74712376596E+03  0.76001500150E+03  0.89806020955E+02 0.  0.
          5    1    3    3  502    0  0.59504808611E+02 -0.49015162849E+02 -0.15442232520E+03  0.17264714117E+03  0.41800000000E+01 0. -1.
         -5    1    3    3    0  502 -0.47497193703E+02 -0.56907340057E+02 -0.35316733646E+03  0.36088650391E+03  0.41800000000E+01 0. -1.
        -11    1    4    4    0    0  0.34912313471E+02  0.75548012447E+02 -0.46981410659E+03  0.47712856398E+03  0.00000000000E+00 0.  1.
         11    1    4    4    0    0 -0.46919928379E+02  0.30374490459E+02 -0.27730965938E+03  0.28288643752E+03  0.00000000000E+00 0. -1.
</event>
<event>
 8    1  0.6703334E-009  0.1164523E+03  0.7561462E-02  0.1249067E+00
         -1   -1    0    0    0  501 -0.00000000000E+00  0.00000000000E+00  0.27743820642E+02  0.27743820642E+02  0.00000000000E+00 0. -1.
          1   -1    0    0  501    0  0.00000000000E+00 -0.00000000000E+00 -0.54559292776E+03  0.54559292776E+03  0.00000000000E+00 0.  1.
         25    2    1    2    0    0  0.38892340068E+02 -0.39141002809E+02 -0.26437875284E+03  0.29763602478E+03  0.12508575489E+03 0.  0.
         23    2    1    2    0    0 -0.38892340068E+02  0.39141002809E+02 -0.25347035427E+03  0.27570072362E+03  0.93375780005E+02 0.  0.
          5    1    3    3  502    0  0.79152178270E+02 -0.26944396425E+01 -0.12550693580E+03  0.14846477920E+03  0.41800000000E+01 0.  1.
         -5    1    3    3    0  502 -0.40259838202E+02 -0.36446563166E+02 -0.13887181704E+03  0.14917124558E+03  0.41800000000E+01 0.  1.
        -11    1    4    4    0    0 -0.91251531410E+01 -0.25975298035E+02 -0.13078781446E+03  0.13365416918E+03  0.00000000000E+00 0.  1.
         11    1    4    4    0    0 -0.29767186927E+02  0.65116300844E+02 -0.12268253982E+03  0.14204655444E+03  0.00000000000E+00 0. -1.
</event>
<event>
 8    1  0.6703334E-009  0.1100423E+03  0.7561462E-02  0.1260492E+00
         -1   -1    0    0    0  501 -0.00000000000E+00  0.00000000000E+00  0.68078871524E+02  0.68078871524E+02  0.00000000000E+00 0.  1.
          1   -1    0    0  501    0  0.00000000000E+00 -0.00000000000E+00 -0.21277700472E+03  0.21277700472E+03  0.00000000000E+00 0. -1.
         25    2    1    2    0    0 -0.14367384582E+02 -0.38757279826E+02 -0.12051154642E+03  0.17855232658E+03  0.12509737019E+03 0.  0.
         23    2    1    2    0    0  0.14367384582E+02  0.38757279826E+02 -0.24186586783E+02  0.10230354966E+03  0.90401752276E+02 0.  0.
          5    1    3    3  502    0 -0.13339805740E+01  0.43583136861E+02 -0.20728939303E+02  0.48460609235E+02  0.41800000000E+01 0. -1.
         -5    1    3    3    0  502 -0.13033404008E+02 -0.82340416687E+02 -0.99782607115E+02  0.13009171735E+03  0.41800000000E+01 0. -1.
        -11    1    4    4    0    0  0.45139385734E+02  0.24336271811E+01  0.64920451999E+01  0.45668734782E+02  0.00000000000E+00 0.  1.
         11    1    4    4    0    0 -0.30772001153E+02  0.36323652645E+02 -0.30678631983E+02  0.56634814882E+02  0.00000000000E+00 0. -1.
</event>
<event>
 8    1  0.6703334E-009  0.1100210E+03  0.7561462E-02  0.1260531E+00
         -1   -1    0    0    0  501 -0.00000000000E+00  0.00000000000E+00  0.76685016419E+02  0.76685016419E+02  0.00000000000E+00 0.  1.
          1   -1    0    0  501    0  0.00000000000E+00 -0.00000000000E+00 -0.36941329122E+03  0.36941329122E+03  0.00000000000E+00 0. -1.
         25    2    1    2    0    0  0.53071062844E+02  0.16984279780E+02 -0.30731313381E+03  0.33644387854E+03  0.12509243673E+03 0.  0.
         23    2    1    2    0    0 -0.53071062844E+02 -0.16984279780E+02  0.14584859007E+02  0.10965442910E+03  0.93307943055E+02 0.  0.
          5    1    3    3  502    0  0.35236018686E+02  0.59877746125E+02 -0.26319475404E+03  0.27224230466E+03  0.41800000000E+01 0.  1.
         -5    1    3    3    0  502  0.17835044158E+02 -0.42893466345E+02 -0.44118379765E+02  0.64201573877E+02  0.41800000000E+01 0.  1.
        -11    1    4    4    0    0  0.21810541629E+01  0.30723066533E+02 -0.10384019729E+02  0.32503717944E+02  0.00000000000E+00 0. -1.
         11    1    4    4    0    0 -0.55252117007E+02 -0.47707346313E+02  0.24968878736E+02  0.77150711153E+02  0.00000000000E+00 0.  1.
</event>
<event>
 8    1  0.6703334E-009  0.9055878E+02  0.7561462E-02  0.1301504E+00
         -2   -1    0    0    0  501 -0.00000000000E+00  0.00000000000E+00  0.38821774751E+02  0.38821774751E+02  0.00000000000E+00 0. -1.
          2   -1    0    0  501    0  0.00000000000E+00 -0.00000000000E+00 -0.29662626736E+03  0.29662626736E+03  0.00000000000E+00 0.  1.
         25    2    1    2    0    0 -0.15779727309E+02  0.18684461196E+02 -0.12019291925E+03  0.17519174942E+03  0.12509077641E+03 0.  0.
         23    2    1    2    0    0  0.15779727309E+02 -0.18684461196E+02 -0.13761157335E+03  0.16025629269E+03  0.78402967680E+02 0.  0.
          5    1    3    3  502    0  0.36944892243E+02  0.52493677985E+02 -0.54256816226E+02  0.84153346923E+02  0.41800000000E+01 0. -1.
         -5    1    3    3    0  502 -0.52724619552E+02 -0.33809216789E+02 -0.65936103024E+02  0.91038402495E+02  0.41800000000E+01 0. -1.
        -11    1    4    4    0    0  0.67138268544E+01  0.16431530789E+02  0.20108843199E+00  0.17751369290E+02  0.00000000000E+00 0. -1.
         11    1    4    4    0    0  0.90659004543E+01 -0.35115991986E+02 -0.13781266179E+03  0.14250492340E+03  0.00000000000E+00 0.  1.
</event>
<event>
 8    1  0.6703334E-009  0.1177773E+03  0.7561462E-02  0.1246810E+00
          2   -1    0    0  501    0  0.00000000000E+00  0.00000000000E+00  0.18593027369E+04  0.18593027369E+04  0.00000000000E+00 0. -1.
         -2   -1    0    0    0  501 -0.00000000000E+00 -0.00000000000E+00 -0.18112888686E+02  0.18112888686E+02  0.00000000000E+00 0.  1.
         25    2    1    2    0    0 -0.93473267972E+02  0.75438663431E+01  0.15548514951E+04  0.15626892705E+04  0.12506167451E+03 0.  0.
         23    2    1    2    0    0  0.93473267972E+02 -0.75438663431E+01  0.28633835313E+03  0.31472635515E+03  0.90933296475E+02 0.  0.
          5    1    3    3  502    0 -0.69283028919E+02  0.42726014353E+02  0.47179791116E+03  0.47878637384E+03  0.41800000000E+01 0. -1.
         -5    1    3    3    0  502 -0.24190239053E+02 -0.35182148010E+02  0.10830535840E+04  0.10839028966E+04  0.41800000000E+01 0. -1.
        -11    1    4    4    0    0  0.54506497391E+02 -0.33824041109E+02  0.24111361660E+03  0.24950110245E+03  0.00000000000E+00 0. -1.
         11    1    4    4    0    0  0.38966770581E+02  0.26280174766E+02  0.45224736530E+02  0.65225252698E+02  0.00000000000E+00 0.  1.
</event>
<event>
 8    1  0.6703334E-009  0.1170285E+03  0.7561462E-02  0.1248081E+00
         -2   -1    0    0    0  501 -0.00000000000E+00  0.00000000000E+00  0.20257869419E+02  0.20257869419E+02  0.00000000000E+00 0.  1.
          2   -1    0    0  501    0  0.00000000000E+00 -0.00000000000E+00 -0.11385147637E+04  0.11385147637E+04  0.00000000000E+00 0. -1.
         25    2    1    2    0    0  0.60214315211E+01  0.62283304763E+02 -0.91462221915E+03  0.92525516659E+03  0.12509137398E+03 0.  0.
         23    2    1    2    0    0 -0.60214315211E+01 -0.62283304763E+02 -0.20363467516E+03  0.23351746656E+03  0.95644438266E+02 0.  0.
          5    1    3    3  502    0  0.57738217532E+02  0.27343177395E+02 -0.26481802599E+03  0.27244707817E+03  0.41800000000E+01 0.  1.
         -5    1    3    3    0  502 -0.51716786011E+02  0.34940127368E+02 -0.64980419316E+03  0.65280808842E+03  0.41800000000E+01 0.  1.
        -11    1    4    4    0    0  0.65320051612E+01  0.21650426724E+02 -0.82969044173E+02  0.85995757800E+02  0.00000000000E+00 0. -1.
         11    1    4    4    0    0 -0.12553436682E+02 -0.83933731487E+02 -0.12066563099E+03  0.14752170876E+03  0.00000000000E+00 0.  1.
</event>
<event>
 8    1  0.6703334E-009  0.1339103E+03  0.7561462E-02  0.1221766E+00
         -2   -1    0    0    0  501 -0.00000000000E+00  0.00000000000E+00  0.95557683396E+02  0.95557683396E+02  0.00000000000E+00 0.  1.
          2   -1    0    0  501    0  0.00000000000E+00 -0.00000000000E+00 -0.26604719656E+03  0.26604719656E+03  0.00000000000E+00 0. -1.
         25    2    1    2    0    0 -0.10770210224E+03 -0.16735685389E+02 -0.13187628104E+03  0.21194012130E+03  0.12508970991E+03 0.  0.
         23    2    1    2    0    0  0.10770210224E+03  0.16735685389E+02 -0.38613232122E+02  0.14966475865E+03  0.95019641625E+02 0.  0.
          5    1    3    3  502    0 -0.90271019008E+02 -0.61495951011E+02 -0.58055259704E+02  0.12376790554E+03  0.41800000000E+01 0. -1.
         -5    1    3    3    0  502 -0.17431083230E+02  0.44760265622E+02 -0.73821021333E+02  0.88172215759E+02  0.41800000000E+01 0. -1.
        -11    1    4    4    0    0  0.99117296287E+02  0.10469566469E+02  0.97527702343E+01  0.10014472913E+03  0.00000000000E+00 0.  1.
         11    1    4    4    0    0  0.85848059508E+01  0.62661189198E+01 -0.48366002356E+02  0.49520029518E+02  0.00000000000E+00 0. -1.
</event>
<event>
 8    1  0.6703334E-009  0.1472296E+03  0.7561462E-02  0.1203919E+00
          2   -1    0    0  501    0  0.00000000000E+00  0.00000000000E+00  0.50893019398E+02  0.50893019398E+02  0.00000000000E+00 0. -1.
         -2   -1    0    0    0  501 -0.00000000000E+00 -0.00000000000E+00 -0.48260772970E+03  0.48260772970E+03  0.00000000000E+00 0.  1.
         25    2    1    2    0    0  0.69474738958E+02 -0.89034266557E+02 -0.21966804683E+03  0.27686615900E+03  0.12508788602E+03 0.  0.
         23    2    1    2    0    0 -0.69474738958E+02  0.89034266557E+02 -0.21204666347E+03  0.25663459009E+03  0.90242370143E+02 0.  0.
          5    1    3    3  502    0  0.93772950466E+02 -0.93405642958E+02 -0.21324519845E+03  0.25101587089E+03  0.41800000000E+01 0.  1.
         -5    1    3    3    0  502 -0.24298211509E+02  0.43713764013E+01 -0.64228483771E+01  0.25850288111E+02  0.41800000000E+01 0.  1.
        -11    1    4    4    0    0 -0.74504240307E+02  0.34278115161E+02 -0.16504234459E+03  0.18429554122E+03  0.00000000000E+00 0.  1.
         11    1    4    4    0    0  0.50295013490E+01  0.54756151396E+02 -0.47004318872E+02  0.72339048875E+02  0.00000000000E+00 0. -1.
</event>
<event>
 8    1  0.6703334E-009  0.1069845E+03  0.7561462E-02  0.1266258E+00
          1   -1    0    0  501    0  0.00000000000E+00  0.00000000000E+00  0.40490247402E+02  0.40490247402E+02  0.00000000000E+00 0. -1.
         -1   -1    0    0    0  501 -0.00000000000E+00 -0.00000000000E+00 -0.54061006016E+03  0.54061006016E+03  0.00000000000E+00 0.  1.
         25    2    1    2    0    0 -0.55178173132E+02  0.66674783397E+02 -0.17337923726E+03  0.23064610161E+03  0.12508839571E+03 0.  0.
         23    2    1    2    0    0  0.55178173132E+02 -0.66674783397E+02 -0.32674057550E+03  0.35045420595E+03  0.92566674701E+02 0.  0.
          5    1    3    3  502    0 -0.46340026792E+02  0.53263824710E+02 -0.16151667355E+02  0.72545033353E+02  0.41800000000E+01 0. -1.
         -5    1    3    3    0  502 -0.88381463404E+01  0.13410958687E+02 -0.15722756991E+03  0.15810106825E+03  0.41800000000E+01 0. -1.
        -11    1    4    4    0    0 -0.18466820644E+02 -0.46885197923E+02 -0.13592973336E+03  0.14496943698E+03  0.00000000000E+00 0. -1.
         11    1    4    4    0    0  0.73644993776E+02 -0.19789585475E+02 -0.19081084214E+03  0.20548476897E+03  0.00000000000E+00 0.  1.
</event>
<event>
 8    1  0.6703334E-009  0.9963562E+02  0.7561462E-02  0.1281064E+00
          1   -1    0    0  501    0  0.00000000000E+00  0.00000000000E+00  0.15241838724E+03  0.15241838724E+03  0.00000000000E+00 0. -1.
         -1   -1    0    0    0  501 -0.00000000000E+00 -0.00000000000E+00 -0.80508708352E+02  0.80508708352E+02  0.00000000000E+00 0.  1.
         25    2    1    2    0    0  0.25643369152E+02  0.16257250442E+02  0.45848207062E+02  0.13663483704E+03  0.12508053417E+03 0.  0.
         23    2    1    2    0    0 -0.25643369152E+02 -0.16257250442E+02  0.26061471822E+02  0.96292258546E+02  0.87584919757E+02 0.  0.
          5    1    3    3  502    0 -0.24043985511E+02  0.43555003609E+02 -0.16194994350E+02  0.52487158626E+02  0.41800000000E+01 0. -1.
         -5    1    3    3    0  502  0.49687354663E+02 -0.27297753166E+02  0.62043201413E+02  0.84147678416E+02  0.41800000000E+01 0. -1.
        -11    1    4    4    0    0 -0.21000969945E+02  0.35115863599E+02  0.14670122944E+02  0.43466965873E+02  0.00000000000E+00 0. -1.
         11    1    4    4    0    0 -0.46423992064E+01 -0.51373114042E+02  0.11391348878E+02  0.52825292673E+02  0.00000000000E+00 0.  1.
</event>
<event>
 8    1  0.6703334E-009  0.1038882E+03  0.7561462E-02  0.1272326E+00
         -1   -1    0    0    0  501 -0.00000000000E+00  0.00000000000E+00  0.45061497346E+03  0.45061497346E+03  0.00000000000E+00 0.  1.
          1   -1    0    0  501    0  0.00000000000E+00 -0.00000000000E+00 -0.35490649252E+02  0.35490649252E+02  0.00000000000E+00 0. -1.
         25    2    1    2    0    0 -0.17783472073E+02  0.51744881660E+02  0.29152224859E+03  0.32191025809E+03  0.12508880119E+03 0.  0.
         23    2    1    2    0    0  0.17783472073E+02 -0.51744881660E+02  0.12360207562E+03  0.16419536463E+03  0.93214054786E+02 0.  0.
          5    1    3    3  502    0 -0.48455853146E+02  0.50929032716E+02  0.28023947205E+03  0.28895219357E+03  0.41800000000E+01 0. -1.
         -5    1    3    3    0  502  0.30672381073E+02  0.81584894403E+00  0.11282776545E+02  0.32958064518E+02  0.41800000000E+01 0. -1.
        -11    1    4    4    0    0 -0.24382266854E+02 -0.58782959327E+02  0.59335548367E+02  0.87009416411E+02  0.00000000000E+00 0.  1.
         11    1    4    4    0    0  0.42165738927E+02  0.70380776664E+01  0.64266527254E+02  0.77185948214E+02  0.00000000000E+00 0. -1.
</event>
<event>
 8    1  0.6703334E-009  0.8325579E+02  0.7561462E-02  0.1320058E+00
          2   -1    0    0  501    0  0.00000000000E+00  0.00000000000E+00  0.40140785337E+03  0.40140785337E+03  0.00000000000E+00 0. -1.
         -2   -1    0    0    0  501 -0.00000000000E+00 -0.00000000000E+00 -0.32583335903E+02  0.32583335903E+02  0.00000000000E+00 0.  1.
         25    2    1    2    0    0  0.16103391708E+02 -0.29177459044E+02  0.24033765487E+03  0.27298477093E+03  0.12509138047E+03 0.  0.
         23    2    1    2    0    0 -0.16103391708E+02  0.29177459044E+02  0.12848686260E+03  0.16100641835E+03  0.91123814383E+02 0.  0.
          5    1    3    3  502    0  0.50610503471E+02 -0.22298808845E+02  0.37207225283E+02  0.66787049274E+02  0.41800000000E+01 0. -1.
         -5    1    3    3    0  502 -0.34507111762E+02 -0.68786501986E+01  0.20313042959E+03  0.20619772165E+03  0.41800000000E+01 0. -1.
        -11    1    4    4    0    0  0.33394047432E+01  0.48258307026E+02  0.25913691241E+02  0.54877456344E+02  0.00000000000E+00 0.  1.
         11    1    4    4    0    0 -0.19442796452E+02 -0.19080847982E+02  0.10257317136E+03  0.10612896200E+03  0.00000000000E+00 0. -1.
</event>
<event>
 7    1  0.6703334E-009  0.1842279E+03  0.7561462E-02  0.1163773E+00
         -2   -1    0    0    0  501 -0.00000000000E+00  0.00000000000E+00  0.29628499919E+03  0.29628499919E+03  0.00000000000E+00 0. -1.
          2   -1    0    0  501    0  0.00000000000E+00 -0.00000000000E+00 -0.12933052678E+03  0.12933052678E+03  0.00000000000E+00 0.  1.
         23    2    1    2    0    0 -0.12810949083E+03 -0.98559750094E+02  0.97672814941E+02  0.20986531815E+03  0.91528176003E+02 0.  0.
          5    1    1    2  502    0  0.78246162054E+02 -0.14670567351E+02  0.36571735032E+02  0.87707762632E+02  0.41800000000E+01 0.  1.
         -5    1    1    2    0  502  0.49863328777E+02  0.11323031744E+03  0.32709922436E+02  0.12804244519E+03  0.41800000000E+01 0.  1.
        -11    1    3    3    0    0 -0.79973651988E+02 -0.40881111952E+02  0.41599054066E+01  0.89913042100E+02  0.00000000000E+00 0.  1.
         11    1    3    3    0    0 -0.48135838844E+02 -0.57678638142E+02  0.93512909534E+02  0.11995227605E+03  0.00000000000E+00 0. -1.
</event>
<event>
 8    1  0.6703334E-009  0.1336505E+03  0.7561462E-02  0.1222137E+00
         -1   -1    0    0    0  501 -0.00000000000E+00  0.00000000000E+00  0.20263642539E+02  0.20263642539E+02  0.00000000000E+00 0.  1.
          1   -1    0    0  501    0  0.00000000000E+00 -0.00000000000E+00 -0.10140341809E+04  0.10140341809E+04  0.00000000000E+00 0. -1.
         25    2    1    2    0    0  0.83756843172E+02  0.40330900683E+02 -0.54733893276E+03  0.56909509737E+03  0.12509009634E+03 0.  0.
         23    2    1    2    0    0 -0.83756843172E+02 -0.40330900683E+02 -0.44643160561E+03  0.46520272608E+03  0.92035903523E+02 0.  0.
          5    1    3    3  502    0  0.43365657433E+02  0.80986754689E+02 -0.25288443844E+03  0.26908631754E+03  0.41800000000E+01 0. -1.
         -5    1    3    3    0  502  0.40391185740E+02 -0.40655854006E+02 -0.29445449432E+03  0.30000877983E+03  0.41800000000E+01 0. -1.
        -11    1    4    4    0    0 -0.97186059410E+02 -0.33395791064E+02 -0.43285431533E+03  0.44488567891E+03  0.00000000000E+00 0. -1.
         11    1    4    4    0    0  0.13429216238E+02 -0.69351096187E+01 -0.13577290282E+02  0.20317047167E+02  0.00000000000E+00 0.  1.
</event>
<event>
 8    1  0.6703334E-009  0.1997316E+03  0.7561462E-02  0.1149966E+00
          1   -1    0    0  501    0  0.00000000000E+00  0.00000000000E+00  0.71532202245E+03  0.71532202245E+03  0.00000000000E+00 0. -1.
         -1   -1    0    0    0  501 -0.00000000000E+00 -0.00000000000E+00 -0.68421582903E+02  0.68421582903E+02  0.00000000000E+00 0.  1.
         25    2    1    2    0    0  0.20233025561E+02  0.17002125194E+03  0.17878256285E+03  0.27735859276E+03  0.12509189728E+03 0.  0.
         23    2    1    2    0    0 -0.20233025561E+02 -0.17002125194E+03  0.46811787670E+03  0.50638501259E+03  0.89301920780E+02 0.  0.
          5    1    3    3  502    0 -0.14422198254E+02 -0.13664443108E+02  0.38799483685E+02  0.43790285934E+02  0.41800000000E+01 0. -1.
         -5    1    3    3    0  502  0.34655223815E+02  0.18368569505E+03  0.13998307916E+03  0.23356830683E+03  0.41800000000E+01 0. -1.
        -11    1    4    4    0    0  0.14731614083E+02 -0.15225916541E+03  0.39124583547E+03  0.42008710724E+03  0.00000000000E+00 0.  1.
         11    1    4    4    0    0 -0.34964639644E+02 -0.17762086534E+02  0.76872041233E+02  0.86297905344E+02  0.00000000000E+00 0. -1.
</event>
<event>
 8    1  0.6703334E-009  0.1075221E+03  0.7561462E-02  0.1265229E+00
          2   -1    0    0  501    0  0.00000000000E+00  0.00000000000E+00  0.39103023855E+03  0.39103023855E+03  0.00000000000E+00 0. -1.
         -2   -1    0    0    0  501 -0.00000000000E+00 -0.00000000000E+00 -0.36189079904E+02  0.36189079904E+02  0.00000000000E+00 0.  1.
         25    2    1    2    0    0  0.16539579480E+02 -0.47215838958E+02  0.22746582121E+03  0.26437049704E+03  0.12509263269E+03 0.  0.
         23    2    1    2    0    0 -0.16539579480E+02  0.47215838958E+02  0.12737533744E+03  0.16284882141E+03  0.88274395542E+02 0.  0.
          5    1    3    3  502    0 -0.36631888491E+01 -0.88072171509E+02  0.13655228319E+03  0.16258574596E+03  0.41800000000E+01 0.  1.
         -5    1    3    3    0  502  0.20202768329E+02  0.40856332551E+02  0.90913538018E+02  0.10178475108E+03  0.41800000000E+01 0.  1.
        -11    1    4    4    0    0 -0.32643759479E+02  0.16345070424E+01  0.74166437675E+01  0.33515567293E+02  0.00000000000E+00 0.  1.
         11    1    4    4    0    0  0.16104179999E+02  0.45581331915E+02  0.11995869367E+03  0.12933325411E+03  0.00000000000E+00 0. -1.
</event>
<event>
 8    1  0.6703334E-009  0.1511584E+03  0.7561462E-02  0.1199057E+00
         -1   -1    0    0    0  501 -0.00000000000E+00  0.00000000000E+00  0.39139417643E+02  0.39139417643E+02  0.00000000000E+00 0.  1.
          1   -1    0    0  501    0  0.00000000000E+00 -0.00000000000E+00 -0.91785680318E+03  0.91785680318E+03  0.00000000000E+00 0. -1.
         25    2    1    2    0    0 -0.32965731926E+02 -0.12346895926E+03 -0.68148232612E+03  0.70455462881E+03  0.12509093001E+03 0.  0.
         23    2    1    2    0    0  0.32965731926E+02  0.12346895926E+03 -0.19723505941E+03  0.25244159201E+03  0.92161626151E+02 0.  0.
          5    1    3    3  502    0  0.32618008974E+02 -0.36173790270E+02 -0.39375957922E+03  0.39678275699E+03  0.41800000000E+01 0.  1.
         -5    1    3    3    0  502 -0.65583740900E+02 -0.87295168992E+02 -0.28772274690E+03  0.30777187182E+03  0.41800000000E+01 0.  1.
        -11    1    4    4    0    0 -0.20565493502E+02  0.28483111546E+02 -0.10127768113E+03  0.10719792844E+03  0.00000000000E+00 0. -1.
         11    1    4    4    0    0  0.53531225428E+02  0.94985847716E+02 -0.95957378279E+02  0.14524366357E+03  0.00000000000E+00 0.  1.
</event>
<event>
 8    1  0.6703334E-009  0.1172478E+03  0.7561462E-02  0.1247708E+00
          1   -1    0    0  501    0  0.00000000000E+00  0.00000000000E+00  0.11483660616E+03  0.11483660616E+03  0.00000000000E+00 0. -1.
         -1   -1    0    0    0  501 -0.00000000000E+00 -0.00000000000E+00 -0.16655333874E+03  0.16655333874E+03  0.00000000000E+00 0.  1.
         25    2    1    2    0    0  0.47104649670E+02  0.65639132952E+02 -0.23710196334E+01  0.14893048002E+03  0.12508925754E+03 0.  0.
         23    2    1    2    0    0 -0.47104649670E+02 -0.65639132952E+02 -0.49345712953E+02  0.13245946488E+03  0.92645381177E+02 0.  0.
          5    1    3    3  502    0  0.45028708137E+02 -0.21600663697E+02 -0.28613840086E+02  0.57709596023E+02  0.41800000000E+01 0. -1.
         -5    1    3    3    0  502  0.20759415328E+01  0.87239796649E+02  0.26242820452E+02  0.91220884001E+02  0.41800000000E+01 0. -1.
        -11    1    4    4    0    0 -0.31741520423E+02 -0.22841032508E+01 -0.58532416951E+02  0.66624207917E+02  0.00000000000E+00 0.  1.
         11    1    4    4    0    0 -0.15363129246E+02 -0.63355029701E+02  0.91867039975E+01  0.65835256960E+02  0.00000000000E+00 0. -1.
</event>
<event>
 8    1  0.6703334E-009  0.1427167E+03  0.7561462E-02  0.1209720E+00
         -2   -1    0    0    0  501 -0.00000000000E+00  0.00000000000E+00  0.60177236221E+03  0.60177236221E+03  0.00000000000E+00 0.  1.
          2   -1    0    0  501    0  0.00000000000E+00 -0.00000000000E+00 -0.54287623514E+02  0.54287623514E+02  0.00000000000E+00 0. -1.
         25    2    1    2    0    0 -0.82311524080E+02  0.48361132177E+02  0.93179291807E+02  0.18287740249E+03  0.12509107809E+03 0.  0.
         23    2    1    2    0    0  0.82311524080E+02 -0.48361132177E+02  0.45430544689E+03  0.47318258323E+03  0.91620586663E+02 0.  0.
          5    1    3    3  502    0 -0.12633043681E+02  0.79638949867E+02  0.44208088448E+02  0.92053156452E+02  0.41800000000E+01 0. -1.
         -5    1    3    3    0  502 -0.69678480399E+02 -0.31277817690E+02  0.48971203359E+02  0.90824246040E+02  0.41800000000E+01 0. -1.
        -11    1    4    4    0    0  0.56824236303E+02 -0.73161806745E+02  0.26923621519E+03  0.28472755990E+03  0.00000000000E+00 0.  1.
         11    1    4    4    0    0  0.25487287777E+02  0.24800674568E+02  0.18506923170E+03  0.18845502333E+03  0.00000000000E+00 0. -1.
</event>
<event>
 8    1  0.6703334E-009  0.1134663E+03  0.7561462E-02  0.1254282E+00
          2   -1    0    0  501    0  0.00000000000E+00  0.00000000000E+00  0.95575597481E+02  0.95575597481E+02  0.00000000000E+00 0. -1.
         -2   -1    0    0    0  501 -0.00000000000E+00 -0.00000000000E+00 -0.17126772985E+03  0.17126772985E+03  0.00000000000E+00 0.  1.
         25    2    1    2    0    0 -0.68467459116E+02 -0.86772536297E+01 -0.43972149847E+02  0.14948758301E+03  0.12509955964E+03 0.  0.
         23    2    1    2    0    0  0.68467459116E+02  0.86772536297E+01 -0.31719982526E+02  0.11735574433E+03  0.89460190852E+02 0.  0.
          5    1    3    3  502    0  0.33329648974E+01 -0.46126749776E+02 -0.49924609627E+02  0.68181557230E+02  0.41800000000E+01 0.  1.
         -5    1    3    3    0  502 -0.71800424013E+02  0.37449496146E+02  0.59524597799E+01  0.81306025776E+02  0.41800000000E+01 0.  1.
        -11    1    4    4    0    0  0.79769996547E+02  0.21201196323E+02 -0.12749531926E+01  0.82549188853E+02  0.00000000000E+00 0. -1.
         11    1    4    4    0    0 -0.11302537432E+02 -0.12523942693E+02 -0.30445029334E+02  0.34806555476E+02  0.00000000000E+00 0.  1.
</event>
<event>
 8    1  0.6703334E-009  0.1649365E+03  0.7561462E-02  0.1183234E+00
          2   -1    0    0  501    0  0.00000000000E+00  0.00000000000E+00  0.40889981963E+02  0.40889981963E+02  0.00000000000E+00 0. -1.
         -2   -1    0    0    0  501 -0.00000000000E+00 -0.00000000000E+00 -0.80335265554E+03  0.80335265554E+03  0.00000000000E+00 0.  1.
         25    2    1    2    0    0 -0.71092034361E+02 -0.13088416337E+03 -0.39696556206E+03  0.44205613039E+03  0.12508886194E+03 0.  0.
         23    2    1    2    0    0  0.71092034361E+02  0.13088416337E+03 -0.36549711152E+03  0.40218650712E+03  0.77337613139E+02 0.  0.
          5    1    3    3  502    0 -0.51593410784E+02 -0.10508694722E+02 -0.22553111642E+03  0.23163348111E+03  0.41800000000E+01 0.  1.
         -5    1    3    3    0  502 -0.19498623576E+02 -0.12037546865E+03 -0.17143444564E+03  0.21042264927E+03  0.41800000000E+01 0.  1.
        -11    1    4    4    0    0  0.29696928073E+01  0.46473391606E+02 -0.48914337344E+02  0.67536712983E+02  0.00000000000E+00 0. -1.
         11    1    4    4    0    0  0.68122341553E+02  0.84410771768E+02 -0.31658277418E+03  0.33464979414E+03  0.00000000000E+00 0.  1.
</event>
<event>
 8    1  0.6703334E-009  0.9491913E+02  0.7561462E-02  0.1291358E+00
         -2   -1    0    0    0  501 -0.00000000000E+00  0.00000000000E+00  0.45759875023E+02  0.45759875023E+02  0.00000000000E+00 0.  1.
          2   -1    0    0  501    0  0.00000000000E+00 -0.00000000000E+00 -0.38549163921E+03  0.38549163921E+03  0.00000000000E+00 0. -1.
         25    2    1    2    0    0 -0.21222971138E+02 -0.62607003204E+02 -0.25224247983E+03  0.28921456912E+03  0.12509495196E+03 0.  0.
         23    2    1    2    0    0  0.21222971138E+02  0.62607003204E+02 -0.87489284365E+02  0.14203694512E+03  0.90277724531E+02 0.  0.
          5    1    3    3  502    0 -0.37395308781E+02 -0.70565770766E+02 -0.70731893467E+02  0.10676333770E+03  0.41800000000E+01 0.  1.
         -5    1    3    3    0  502  0.16172337643E+02  0.79587675623E+01 -0.18151058636E+03  0.18245123142E+03  0.41800000000E+01 0.  1.
        -11    1    4    4    0    0  0.26783649359E+02  0.73993740908E+02 -0.31717394705E+02  0.84843566011E+02  0.00000000000E+00 0.  1.
         11    1    4    4    0    0 -0.55606782215E+01 -0.11386737704E+02 -0.55771889660E+02  0.57193379110E+02  0.00000000000E+00 0. -1.
</event>
<event>
 8    1  0.6703334E-009  0.1329846E+03  0.7561462E-02  0.1223093E+00
         -2   -1    0    0    0  501 -0.00000000000E+00  0.00000000000E+00  0.36670577049E+02  0.36670577049E+02  0.00000000000E+00 0.  1.
          2   -1    0    0  501    0  0.00000000000E+00 -0.00000000000E+00 -0.72232593206E+03  0.72232593206E+03  0.00000000000E+00 0. -1.
         25    2    1    2    0    0 -0.11916667304E+03  0.27699804725E+02 -0.36800204152E+03  0.40748113493E+03  0.12508955839E+03 0.  0.
         23    2    1    2    0    0  0.11916667304E+03 -0.27699804725E+02 -0.31765331349E+03  0.35151537417E+03  0.87700943926E+02 0.  0.
          5    1    3    3  502    0 -0.99810496716E+00  0.47785740667E+01 -0.20349154222E+03  0.20359300365E+03  0.41800000000E+01 0.  1.
         -5    1    3    3    0  502 -0.11816856807E+03  0.22921230659E+02 -0.16451049930E+03  0.20388813128E+03  0.41800000000E+01 0.  1.
        -11    1    4    4    0    0  0.25444231571E+02  0.21442175529E+02 -0.14695741811E+03  0.15067733257E+03  0.00000000000E+00 0. -1.
         11    1    4    4    0    0  0.93722441467E+02 -0.49141980254E+02 -0.17069589538E+03  0.20083804161E+03  0.00000000000E+00 0.  1.
</event>
<event>
 8    1  0.6703334E-009  0.1328874E+03  0.7561462E-02  0.1223233E+00
         -1   -1    0    0    0  501 -0.00000000000E+00  0.00000000000E+00  0.24095256455E+02  0.24095256455E+02  0.00000000000E+00 0.  1.
          1   -1    0    0  501    0  0.00000000000E+00 -0.00000000000E+00 -0.10722639571E+04  0.10722639571E+04  0.00000000000E+00 0. -1.
         25    2    1    2    0    0  0.11131453075E+03  0.27669945665E+02 -0.45903526551E+03  0.48940094102E+03  0.12507340022E+03 0.  0.
         23    2    1    2    0    0 -0.11131453075E+03 -0.27669945665E+02 -0.58913343517E+03  0.60695827257E+03  0.90352584661E+02 0.  0.
          5    1    3    3  502    0  0.39708041899E+02  0.30241365976E+02 -0.39549999237E+02  0.63819618043E+02  0.41800000000E+01 0. -1.
         -5    1    3    3    0  502  0.71606488852E+02 -0.25714203114E+01 -0.41948526627E+03  0.42558132298E+03  0.41800000000E+01 0. -1.
        -11    1    4    4    0    0 -0.79576578024E+02  0.24137643157E+02 -0.28841625750E+03  0.30016494662E+03  0.00000000000E+00 0.  1.
         11    1    4    4    0    0 -0.31737952727E+02 -0.51807588821E+02 -0.30071717767E+03  0.30679332595E+03  0.00000000000E+00 0. -1.
</event>
<event>
 8    1  0.6703334E-009  0.1561816E+03  0.7561462E-02  0.1193076E+00
         -2   -1    0    0    0  501 -0.00000000000E+00  0.00000000000E+00  0.16980208543E+03  0.16980208543E+03  0.00000000000E+00 0.  1.
          2   -1    0    0  501    0  0.00000000000E+00 -0.00000000000E+00 -0.16864449332E+03  0.16864449332E+03  0.00000000000E+00 0. -1.
         25    2    1    2    0    0 -0.12579163965E+03  0.33868194856E+02 -0.96373265595E+01  0.18086066375E+03  0.12508841034E+03 0.  0.
         23    2    1    2    0    0  0.12579163965E+03 -0.33868194856E+02  0.10794918665E+02  0.15758591500E+03  0.88012494042E+02 0.  0.
          5    1    3    3  502    0 -0.14389664771E+03  0.27502919674E+01 -0.12372074662E+02  0.14451418601E+03  0.41800000000E+01 0.  1.
         -5    1    3    3    0  502  0.18105008055E+02  0.31117902889E+02  0.27347481029E+01  0.36346477739E+02  0.41800000000E+01 0.  1.
        -11    1    4    4    0    0  0.56030857233E+02 -0.37646279608E+01  0.47178672729E+02  0.73344778590E+02  0.00000000000E+00 0.  1.
         11    1    4    4    0    0  0.69760782421E+02 -0.30103566895E+02 -0.36383754063E+02  0.84241136410E+02  0.00000000000E+00 0. -1.
</event>
<event>
 8    1  0.6703334E-009  0.1184058E+03  0.7561462E-02  0.1245750E+00
          2   -1    0    0  501    0  0.00000000000E+00  0.00000000000E+00  0.99567812158E+03  0.99567812158E+03  0.00000000000E+00 0. -1.
         -2   -1    0    0    0  501 -0.00000000000E+00 -0.00000000000E+00 -0.25826674196E+02  0.25826674196E+02  0.00000000000E+00 0.  1.
         25    2    1    2    0    0 -0.69640969982E+02 -0.64768757841E+02  0.74178942994E+03  0.75825066245E+03  0.12509057532E+03 0.  0.
         23    2    1    2    0    0  0.69640969982E+02  0.64768757841E+02  0.22806201744E+03  0.26325413333E+03  0.90805276409E+02 0.  0.
          5    1    3    3  502    0 -0.74627536268E+02 -0.78492895022E+02  0.35534020656E+03  0.37150308012E+03  0.41800000000E+01 0.  1.
         -5    1    3    3    0  502  0.49865662862E+01  0.13724137180E+02  0.38644922338E+03  0.38674758232E+03  0.41800000000E+01 0.  1.
        -11    1    4    4    0    0  0.34866806970E+02 -0.50552813292E+01  0.14536229640E+03  0.14957087722E+03  0.00000000000E+00 0. -1.
         11    1    4    4    0    0  0.34774163012E+02  0.69824039170E+02  0.82699721034E+02  0.11368325610E+03  0.00000000000E+00 0.  1.
</event>
<event>
 8    1  0.6703334E-009  0.2920745E+03  0.7561462E-02  0.1089271E+00
         -1   -1    0    0    0  501 -0.00000000000E+00  0.00000000000E+00  0.80655277785E+02  0.80655277785E+02  0.00000000000E+00 0.  1.
          1   -1    0    0  501    0  0.00000000000E+00 -0.00000000000E+00 -0.13593344106E+04  0.13593344106E+04  0.00000000000E+00 0. -1.
         25    2    1    2    0    0  0.33766112350E+02 -0.27499552397E+03 -0.33534512695E+03  0.45261506660E+03  0.12506540608E+03 0.  0.
         23    2    1    2    0    0 -0.33766112350E+02  0.27499552397E+03 -0.94333400589E+03  0.98737462181E+03  0.90922541630E+02 0.  0.
          5    1    3    3  502    0  0.20392360400E+01 -0.27174155098E+03 -0.30187729784E+03  0.40619577098E+03  0.41800000000E+01 0. -1.
         -5    1    3    3    0  502  0.31726876310E+02 -0.32539729940E+01 -0.33467829107E+02  0.46419295619E+02  0.41800000000E+01 0. -1.
        -11    1    4    4    0    0 -0.38414518569E+02  0.14139887212E+03 -0.62817375787E+03  0.64503611244E+03  0.00000000000E+00 0. -1.
         11    1    4    4    0    0  0.46484062190E+01  0.13359665185E+03 -0.31516024802E+03  0.34233850937E+03  0.00000000000E+00 0.  1.
</event>
<event>
 8    1  0.6703334E-009  0.1415016E+03  0.7561462E-02  0.1211323E+00
          2   -1    0    0  501    0  0.00000000000E+00  0.00000000000E+00  0.57902575425E+03  0.57902575425E+03  0.00000000000E+00 0. -1.
         -2   -1    0    0    0  501 -0.00000000000E+00 -0.00000000000E+00 -0.57057618330E+02  0.57057618330E+02  0.00000000000E+00 0.  1.
         25    2    1    2    0    0  0.74698219250E+02 -0.68460312295E+02  0.45886270682E+03  0.48628112202E+03  0.12509079743E+03 0.  0.
         23    2    1    2    0    0 -0.74698219250E+02  0.68460312295E+02  0.63105429105E+02  0.14980225057E+03  0.90508456919E+02 0.  0.
          5    1    3    3  502    0  0.85905992493E+02 -0.72816219623E+00  0.18666145221E+03  0.20552454819E+03  0.41800000000E+01 0. -1.
         -5    1    3    3    0  502 -0.11207773243E+02 -0.67732150099E+02  0.27220125461E+03  0.28075657383E+03  0.41800000000E+01 0. -1.
        -11    1    4    4    0    0 -0.35055021236E+02 -0.13183956441E+02  0.42660840302E+02  0.56768111793E+02  0.00000000000E+00 0. -1.
         11    1    4    4    0    0 -0.39643198014E+02  0.81644268736E+02  0.20444588803E+02  0.93034138774E+02  0.00000000000E+00 0.  1.
</event>
<event>
 8    1  0.6703334E-009  0.7656742E+02  0.7561462E-02  0.1339085E+00
         -2   -1    0    0    0  501 -0.00000000000E+00  0.00000000000E+00  0.73026183895E+02  0.73026183895E+02  0.00000000000E+00 0.  1.
          2   -1    0    0  501    0  0.00000000000E+00 -0.00000000000E+00 -0.19062872063E+03  0.19062872063E+03  0.00000000000E+00 0. -1.
         25    2    1    2    0    0 -0.22546738078E+02  0.40043384601E+02 -0.87922807673E+02  0.15965546121E+03  0.12509043983E+03 0.  0.
         23    2    1    2    0    0  0.22546738078E+02 -0.40043384601E+02 -0.29679729057E+02  0.10399944331E+03  0.88448684809E+02 0.  0.
          5    1    3    3  502    0 -0.23361565673E+02 -0.87793243245E+01  0.25606402175E+02  0.35999993314E+02  0.41800000000E+01 0.  1.
         -5    1    3    3    0  502  0.81482759567E+00  0.48822708925E+02 -0.11352920985E+03  0.12365546789E+03  0.41800000000E+01 0.  1.
        -11    1    4    4    0    0  0.30018809249E+02  0.72994123948E+01  0.18525371827E+02  0.36022211639E+02  0.00000000000E+00 0. -1.
         11    1    4    4    0    0 -0.74720711716E+01 -0.47342796996E+02 -0.48205100884E+02  0.67977231675E+02  0.00000000000E+00 0.  1.
</event>
<event>
 8    1  0.6703334E-009  0.9032576E+02  0.7561462E-02  0.1302065E+00
          1   -1    0    0  501    0  0.00000000000E+00  0.00000000000E+00  0.83443917871E+03  0.83443917871E+03  0.00000000000E+00 0. -1.
         -1   -1    0    0    0  501 -0.00000000000E+00 -0.00000000000E+00 -0.18646649114E+02  0.18646649114E+02  0.00000000000E+00 0.  1.
         25    2    1    2    0    0 -0.19610089275E+02 -0.54455310272E+02  0.52517374755E+03  0.54295925416E+03  0.12508936862E+03 0.  0.
         23    2    1    2    0    0  0.19610089275E+02  0.54455310272E+02  0.29061878204E+03  0.31012657366E+03  0.91483762475E+02 0.  0.
          5    1    3    3  502    0  0.13412012652E+02 -0.11036515227E+02  0.32283057404E+01  0.18154368888E+02  0.41800000000E+01 0. -1.
         -5    1    3    3    0  502 -0.33022101928E+02 -0.43418795044E+02  0.52194544181E+03  0.52480488527E+03  0.41800000000E+01 0. -1.
        -11    1    4    4    0    0  0.38171153502E+02 -0.11254771568E+02  0.98555056644E+02  0.10628643391E+03  0.00000000000E+00 0. -1.
         11    1    4    4    0    0 -0.18561064226E+02  0.65710081840E+02  0.19206372540E+03  0.20384013975E+03  0.00000000000E+00 0.  1.
</event>
<event>
 8    1  0.6703334E-009  0.1976926E+03  0.7561462E-02  0.1151701E+00
         -1   -1    0    0    0  501 -0.00000000000E+00  0.00000000000E+00  0.43180179193E+02  0.43180179193E+02  0.00000000000E+00 0.  1.
          1   -1    0    0  501    0  0.00000000000E+00 -0.00000000000E+00 -0.11542793012E+04  0.11542793012E+04  0.00000000000E+00 0. -1.
         25    2    1    2    0    0 -0.19166446186E+03 -0.10459384507E+02 -0.50978439180E+03  0.55890230588E+03  0.12508795597E+03 0.  0.
         23    2    1    2    0    0  0.19166446186E+03  0.10459384507E+02 -0.60131473022E+03  0.63855717453E+03  0.96598114350E+02 0.  0.
          5    1    3    3  502    0 -0.18993888787E+03 -0.10338422631E+01 -0.34554604924E+03  0.39433157938E+03  0.41800000000E+01 0.  1.
         -5    1    3    3    0  502 -0.17255739930E+01 -0.94255422437E+01 -0.16423834257E+03  0.16457072650E+03  0.41800000000E+01 0.  1.
        -11    1    4    4    0    0  0.12935542377E+03 -0.89949321293E+01 -0.25423959027E+03  0.28539709831E+03  0.00000000000E+00 0.  1.
         11    1    4    4    0    0  0.62309038092E+02  0.19454316636E+02 -0.34707513994E+03  0.35316007621E+03  0.00000000000E+00 0. -1.
</event>
<event>
 8    1  0.6703334E-009  0.1479116E+03  0.7561462E-02  0.1203063E+00
          2   -1    0    0  501    0  0.00000000000E+00  0.00000000000E+00  0.74541294116E+02  0.74541294116E+02  0.00000000000E+00 0. -1.
         -2   -1    0    0    0  501 -0.00000000000E+00 -0.00000000000E+00 -0.43876330940E+03  0.43876330940E+03  0.00000000000E+00 0.  1.
         25    2    1    2    0    0 -0.14300520334E+03  0.11906847608E+01 -0.21413551172E+03  0.28627045972E+03  0.12507938605E+03 0.  0.
         23    2    1    2    0    0  0.14300520334E+03 -0.11906847608E+01 -0.15008650356E+03  0.22703414380E+03  0.92556134244E+02 0.  0.
          5    1    3    3  502    0 -0.77955514836E+02  0.62613146201E+01 -0.19164099917E+02  0.80628788158E+02  0.41800000000E+01 0.  1.
         -5    1    3    3    0  502 -0.65049688503E+02 -0.50706298593E+01 -0.19497141180E+03  0.20564167156E+03  0.41800000000E+01 0.  1.
        -11    1    4    4    0    0  0.43372379052E+02 -0.24482289387E+02 -0.57872499142E+01  0.50140183683E+02  0.00000000000E+00 0. -1.
         11    1    4    4    0    0  0.99632824287E+02  0.23291604626E+02 -0.14429925365E+03  0.17689396012E+03  0.00000000000E+00 0.  1.
</event>
<event>
 8    1  0.6703334E-009  0.3134176E+03  0.7561462E-02  0.1078719E+00
          3   -1    0    0  501    0  0.00000000000E+00  0.00000000000E+00  0.28583392546E+03  0.28583392546E+03  0.00000000000E+00 0. -1.
         -3   -1    0    0    0  501 -0.00000000000E+00 -0.00000000000E+00 -0.52785721765E+03  0.52785721765E+03  0.00000000000E+00 0.  1.
         25    2    1    2    0    0 -0.89059946329E+02 -0.29052608440E+03  0.10365638616E+03  0.34457045163E+03  0.12508824881E+03 0.  0.
         23    2    1    2    0    0  0.89059946329E+02  0.29052608440E+03 -0.34567967834E+03  0.46912069148E+03  0.90789335257E+02 0.  0.
          5    1    3    3  502    0  0.22011159041E+02 -0.87868351394E+02 -0.13713326030E+01  0.90690083538E+02  0.41800000000E+01 0.  1.
         -5    1    3    3    0  502 -0.11107110537E+03 -0.20265773301E+03  0.10502771876E+03  0.25388036809E+03  0.41800000000E+01 0.  1.
        -11    1    4    4    0    0  0.46049558210E+02  0.19319910923E+03 -0.28263204043E+03  0.34543787849E+03  0.00000000000E+00 0.  1.
         11    1    4    4    0    0  0.43010388119E+02  0.97326975173E+02 -0.63047637914E+02  0.12368281299E+03  0.00000000000E+00 0. -1.
</event>
<event>
 8    1  0.6703334E-009  0.1306120E+03  0.7561462E-02  0.1226550E+00
          2   -1    0    0  501    0  0.00000000000E+00  0.00000000000E+00  0.68766174027E+03  0.68766174027E+03  0.00000000000E+00 0. -1.
         -2   -1    0    0    0  501 -0.00000000000E+00 -0.00000000000E+00 -0.55979059231E+02  0.55979059231E+02  0.00000000000E+00 0.  1.
         25    2    1    2    0    0  0.11420191891E+03  0.55673310245E+01  0.55380846826E+03  0.57915798146E+03  0.12508826690E+03 0.  0.
         23    2    1    2    0    0 -0.11420191891E+03 -0.55673310245E+01  0.77874212775E+02  0.16448281804E+03  0.88978261150E+02 0.  0.
          5    1    3    3  502    0  0.33062863289E+02  0.38438338771E+02  0.64936122986E+02  0.82491401278E+02  0.41800000000E+01 0. -1.
         -5    1    3    3    0  502  0.81139055618E+02 -0.32871007747E+02  0.48887234528E+03  0.49666658019E+03  0.41800000000E+01 0. -1.
        -11    1    4    4    0    0 -0.30907731422E+02  0.18478780336E+02 -0.13562324574E+02  0.38479732746E+02  0.00000000000E+00 0. -1.
         11    1    4    4    0    0 -0.83294187484E+02 -0.24046111360E+02  0.91436537350E+02  0.12600308529E+03  0.00000000000E+00 0.  1.
</event>
<event>
 8    1  0.6703334E-009  0.1060428E+03  0.7561462E-02  0.1268079E+00
          2   -1    0    0  501    0  0.00000000000E+00  0.00000000000E+00  0.69112625942E+03  0.69112625942E+03  0.00000000000E+00 0. -1.
         -2   -1    0    0    0  501 -0.00000000000E+00 -0.00000000000E+00 -0.22095309920E+02  0.22095309920E+02  0.00000000000E+00 0.  1.
         25    2    1    2    0    0  0.17315587750E+01 -0.29914119563E+02  0.52332474914E+03  0.53890069276E+03  0.12508921117E+03 0.  0.
         23    2    1    2    0    0 -0.17315587750E+01  0.29914119563E+02  0.14570620036E+03  0.17432087658E+03  0.90882442435E+02 0.  0.
          5    1    3    3  502    0 -0.50350189580E+02 -0.38396233772E+02  0.16671505245E+03  0.17838383747E+03  0.41800000000E+01 0. -1.
         -5    1    3    3    0  502  0.52081748355E+02  0.84821142096E+01  0.35660969670E+03  0.36051685529E+03  0.41800000000E+01 0. -1.
        -11    1    4    4    0    0 -0.46304343869E+02  0.14195781084E+02  0.73639445442E+02  0.88138416066E+02  0.00000000000E+00 0.  1.
         11    1    4    4    0    0  0.44572785094E+02  0.15718338479E+02  0.72066754918E+02  0.86182460512E+02  0.00000000000E+00 0. -1.
</event>
<event>
 8    1  0.6703334E-009  0.1356213E+03  0.7561462E-02  0.1219345E+00
          4   -1    0    0  501    0  0.00000000000E+00  0.00000000000E+00  0.77892796169E+02  0.77892796169E+02  0.00000000000E+00 0. -1.
         -4   -1    0    0    0  501 -0.00000000000E+00 -0.00000000000E+00 -0.24779191045E+03  0.24779191045E+03  0.00000000000E+00 0.  1.
         25    2    1    2    0    0  0.81409118695E+02  0.30080365653E+02 -0.94687047507E+02  0.17929109547E+03  0.12508951573E+03 0.  0.
         23    2    1    2    0    0 -0.81409118695E+02 -0.30080365653E+02 -0.75212066772E+02  0.14639361114E+03  0.90785248751E+02 0.  0.
          5    1    3    3  502    0 -0.76438872645E+01 -0.36261923388E+02 -0.74920470473E+01  0.38038917825E+02  0.41800000000E+01 0. -1.
         -5    1    3    3    0  502  0.89053005959E+02  0.66342289042E+02 -0.87195000459E+02  0.14125217765E+03  0.41800000000E+01 0. -1.
        -11    1    4    4    0    0 -0.21511056390E+02  0.30700504474E+02 -0.94510234205E+01  0.38659647770E+02  0.00000000000E+00 0.  1.
         11    1    4    4    0    0 -0.59898062304E+02 -0.60780870128E+02 -0.65761043352E+02  0.10773396337E+03  0.00000000000E+00 0. -1.
</event>
<event>
 8    1  0.6703334E-009  0.1318999E+03  0.7561462E-02  0.1224663E+00
          2   -1    0    0  501    0  0.00000000000E+00  0.00000000000E+00  0.26611563138E+04  0.26611563138E+04  0.00000000000E+00 0. -1.
         -2   -1    0    0    0  501 -0.00000000000E+00 -0.00000000000E+00 -0.11475043329E+02  0.11475043329E+02  0.00000000000E+00 0.  1.
         25    2    1    2    0    0  0.24431298178E+02 -0.10081150881E+03  0.20819182704E+04  0.20882506842E+04  0.12508951499E+03 0.  0.
         23    2    1    2    0    0 -0.24431298178E+02  0.10081150881E+03  0.56776300004E+03  0.58438067291E+03  0.91575640934E+02 0.  0.
          5    1    3    3  502    0 -0.33601832263E+01  0.22974184551E+02  0.73133603855E+03  0.73171645989E+03  0.41800000000E+01 0. -1.
         -5    1    3    3    0  502  0.27791481404E+02 -0.12378569337E+03  0.13505822319E+04  0.13565342243E+04  0.41800000000E+01 0. -1.
        -11    1    4    4    0    0  0.12771326799E+02  0.14731507893E+02  0.17545456572E+02  0.26229128070E+02  0.00000000000E+00 0.  1.
         11    1    4    4    0    0 -0.37202624976E+02  0.86080000922E+02  0.55021754347E+03  0.55815154484E+03  0.00000000000E+00 0. -1.
</event>
<event>
 8    1  0.6703334E-009  0.1042963E+03  0.7561462E-02  0.1271512E+00
         -1   -1    0    0    0  501 -0.00000000000E+00  0.00000000000E+00  0.13662579380E+02  0.13662579380E+02  0.00000000000E+00 0.  1.
          1   -1    0    0  501    0  0.00000000000E+00 -0.00000000000E+00 -0.11138297233E+04  0.11138297233E+04  0.00000000000E+00 0. -1.
         25    2    1    2    0    0  0.69137882901E+01 -0.34262024747E+02 -0.82972166392E+03  0.83982557820E+03  0.12508906993E+03 0.  0.
         23    2    1    2    0    0 -0.69137882901E+01  0.34262024747E+02 -0.27044548003E+03  0.28766672451E+03  0.91595305076E+02 0.  0.
          5    1    3    3  502    0 -0.61495326116E+01 -0.74090258871E+02 -0.68682118270E+03  0.69084585300E+03  0.41800000000E+01 0.  1.
         -5    1    3    3    0  502  0.13063320902E+02  0.39828234124E+02 -0.14290048122E+03  0.14897972520E+03  0.41800000000E+01 0.  1.
        -11    1    4    4    0    0 -0.12789389747E+02 -0.27309091291E+02 -0.47191813564E+02  0.56003769737E+02  0.00000000000E+00 0.  1.
         11    1    4    4    0    0  0.58756014568E+01  0.61571116038E+02 -0.22325366647E+03  0.23166295477E+03  0.00000000000E+00 0. -1.
</event>
<event>
 8    1  0.6703334E-009  0.1684852E+03  0.7561462E-02  0.1179437E+00
         -2   -1    0    0    0  501 -0.00000000000E+00  0.00000000000E+00  0.30797531908E+02  0.30797531908E+02  0.00000000000E+00 0.  1.
          2   -1    0    0  501    0  0.00000000000E+00 -0.00000000000E+00 -0.12320024491E+04  0.12320024491E+04  0.00000000000E+00 0. -1.
         25    2    1    2    0    0 -0.97463611301E+02  0.96292916825E+02 -0.33665773600E+03  0.38438923029E+03  0.12508064516E+03 0.  0.
         23    2    1    2    0    0  0.97463611301E+02 -0.96292916825E+02 -0.86454718117E+03  0.87841075070E+03  0.73431172628E+02 0.  0.
          5    1    3    3  502    0 -0.11377182760E+02 -0.28186973326E+02 -0.88745770031E+02  0.93900105704E+02  0.41800000000E+01 0. -1.
         -5    1    3    3    0  502 -0.86086428542E+02  0.12447989015E+03 -0.24791196597E+03  0.29048912458E+03  0.41800000000E+01 0. -1.
        -11    1    4    4    0    0  0.71410173443E+02 -0.19844099900E+02 -0.37650080554E+03  0.38372654032E+03  0.00000000000E+00 0.  1.
         11    1    4    4    0    0  0.26053437859E+02 -0.76448816926E+02 -0.48804637563E+03  0.49468421038E+03  0.00000000000E+00 0. -1.
</event>
<event>
 7    1  0.6703334E-009  0.1495946E+03  0.7561462E-02  0.1200972E+00
          1   -1    0    0  501    0  0.00000000000E+00  0.00000000000E+00  0.73702457480E+03  0.73702457480E+03  0.00000000000E+00 0. -1.
         -1   -1    0    0    0  501 -0.00000000000E+00 -0.00000000000E+00 -0.34586390808E+02  0.34586390808E+02  0.00000000000E+00 0.  1.
         23    2    1    2    0    0  0.13069532357E+02  0.11405458123E+03  0.37763328666E+03  0.40529577457E+03  0.92078800589E+02 0.  0.
          5    1    1    2  502    0  0.52421673674E+02 -0.44593866793E+02  0.18068154141E+03  0.19339063222E+03  0.41800000000E+01 0. -1.
         -5    1    1    2    0  502 -0.65491206031E+02 -0.69460714435E+02  0.14412335593E+03  0.17292455881E+03  0.41800000000E+01 0. -1.
        -11    1    3    3    0    0  0.38818953206E+02  0.95068902088E+02  0.34346798499E+03  0.35849025647E+03  0.00000000000E+00 0. -1.
         11    1    3    3    0    0 -0.25749420849E+02  0.18985679140E+02  0.34165301668E+02  0.46805518100E+02  0.00000000000E+00 0.  1.
</event>
<event>
 8    1  0.6703334E-009  0.1361611E+03  0.7561462E-02  0.1218590E+00
          1   -1    0    0  501    0  0.00000000000E+00  0.00000000000E+00  0.95963941548E+03  0.95963941548E+03  0.00000000000E+00 0. -1.
         -1   -1    0    0    0  501 -0.00000000000E+00 -0.00000000000E+00 -0.22483814028E+02  0.22483814028E+02  0.00000000000E+00 0.  1.
         25    2    1    2    0    0  0.75037936693E+02 -0.60063111524E+02  0.43640201715E+03  0.46404003227E+03  0.12509261238E+03 0.  0.
         23    2    1    2    0    0 -0.75037936693E+02  0.60063111524E+02  0.50075358431E+03  0.51808319724E+03  0.91748448252E+02 0.  0.
          5    1    3    3  502    0  0.41245936052E+02 -0.88465865863E+02  0.37965479505E+03  0.39202381620E+03  0.41800000000E+01 0.  1.
         -5    1    3    3    0  502  0.33792000640E+02  0.28402754339E+02  0.56747222094E+02  0.72016216068E+02  0.41800000000E+01 0.  1.
        -11    1    4    4    0    0 -0.89502811699E+02  0.25885362750E+02  0.40011291045E+03  0.41081765592E+03  0.00000000000E+00 0. -1.
         11    1    4    4    0    0  0.14464875006E+02  0.34177748774E+02  0.10064067386E+03  0.10726554132E+03  0.00000000000E+00 0.  1.
</event>
<event>
 8    1  0.6703334E-009  0.1686952E+03  0.7561462E-02  0.1179215E+00
         -1   -1    0    0    0  501 -0.00000000000E+00  0.00000000000E+00  0.58465862030E+02  0.58465862030E+02  0.00000000000E+00 0.  1.
          1   -1    0    0  501    0  0.00000000000E+00 -0.00000000000E+00 -0.53359746249E+03  0.53359746249E+03  0.00000000000E+00 0. -1.
         25    2    1    2    0    0  0.93775565778E+02  0.88112184216E+02 -0.25864200420E+03  0.31480242572E+03  0.12508903691E+03 0.  0.
         23    2    1    2    0    0 -0.93775565778E+02 -0.88112184216E+02 -0.21648959626E+03  0.27726089880E+03  0.11596657696E+03 0.  0.
          5    1    3    3  502    0 -0.20129895156E+02 -0.39761248252E+01 -0.44639720527E+01  0.21410784528E+02  0.41800000000E+01 0. -1.
         -5    1    3    3    0  502  0.11390546093E+03  0.92088309041E+02 -0.25417803215E+03  0.29339164119E+03  0.41800000000E+01 0. -1.
        -11    1    4    4    0    0 -0.48201919879E+02  0.20309445891E+02 -0.43249996039E+02  0.67870912987E+02  0.00000000000E+00 0.  1.
         11    1    4    4    0    0 -0.45573645899E+02 -0.10842163011E+03 -0.17323960022E+03  0.20938998581E+03  0.00000000000E+00 0. -1.
</event>
<event>
 8    1  0.6703334E-009  0.1009034E+03  0.7561462E-02  0.1278408E+00
          3   -1    0    0  501    0  0.00000000000E+00  0.00000000000E+00  0.61666796998E+03  0.61666796998E+03  0.00000000000E+00 0. -1.
         -3   -1    0    0    0  501 -0.00000000000E+00 -0.00000000000E+00 -0.23752027209E+02  0.23752027209E+02  0.00000000000E+00 0.  1.
         25    2    1    2    0    0  0.88144433129E+01 -0.44966133480E+02  0.40256781847E+03  0.42404236743E+03  0.12510568868E+03 0.  0.
         23    2    1    2    0    0 -0.88144433129E+01  0.44966133480E+02  0.19034812430E+03  0.21637762975E+03  0.92126123671E+02 0.  0.
          5    1    3    3  502    0  0.20471516907E+02 -0.68917358482E+02  0.11827883460E+03  0.13847758093E+03  0.41800000000E+01 0.  1.
         -5    1    3    3    0  502 -0.11657073594E+02  0.23951225002E+02  0.28428898387E+03  0.28556478651E+03  0.41800000000E+01 0.  1.
        -11    1    4    4    0    0 -0.34623777185E+02  0.62622974200E+02  0.13592788718E+03  0.15361260806E+03  0.00000000000E+00 0.  1.
         11    1    4    4    0    0  0.25809333872E+02 -0.17656840720E+02  0.54420237120E+02  0.62765021687E+02  0.00000000000E+00 0. -1.
</event>
<event>
 8    1  0.6703334E-009  0.1473769E+03  0.7561462E-02  0.1203734E+00
         -2   -1    0    0    0  501 -0.00000000000E+00  0.00000000000E+00  0.20786196353E+02  0.20786196353E+02  0.00000000000E+00 0.  1.
          2   -1    0    0  501    0  0.00000000000E+00 -0.00000000000E+00 -0.18699517029E+04  0.18699517029E+04  0.00000000000E+00 0. -1.
         25    2    1    2    0    0  0.35606412931E+02  0.12903692734E+03 -0.14303273191E+04  0.14420131285E+04  0.12508907982E+03 0.  0.
         23    2    1    2    0    0 -0.35606412931E+02 -0.12903692734E+03 -0.41883818748E+03  0.44872477074E+03  0.89499426379E+02 0.  0.
          5    1    3    3  502    0 -0.58685591749E+01  0.22188658512E+02 -0.85747510776E+03  0.85779240459E+03  0.41800000000E+01 0.  1.
         -5    1    3    3    0  502  0.41474972106E+02  0.10684826882E+03 -0.57285221134E+03  0.58422072395E+03  0.41800000000E+01 0.  1.
        -11    1    4    4    0    0 -0.53015994169E+02 -0.12884093008E+03 -0.33013721823E+03  0.35833122074E+03  0.00000000000E+00 0.  1.
         11    1    4    4    0    0  0.17409581237E+02 -0.19599725873E+00 -0.88700969254E+02  0.90393549993E+02  0.00000000000E+00 0. -1.
</event>
<event>
 8    1  0.6703334E-009  0.1088744E+03  0.7561462E-02  0.1262669E+00
         -1   -1    0    0    0  501 -0.00000000000E+00  0.00000000000E+00  0.55234454691E+02  0.55234454691E+02  0.00000000000E+00 0.  1.
          1   -1    0    0  501    0  0.00000000000E+00 -0.00000000000E+00 -0.26048924696E+03  0.26048924696E+03  0.00000000000E+00 0. -1.
         25    2    1    2    0    0 -0.24863323880E+02 -0.31427444260E+01 -0.99925152445E+02  0.16205207035E+03  0.12509106962E+03 0.  0.
         23    2    1    2    0    0  0.24863323880E+02  0.31427444260E+01 -0.10532963982E+03  0.15367163129E+03  0.10905308580E+03 0.  0.
          5    1    3    3  502    0 -0.65239244049E+02 -0.49326409403E+00 -0.10218854311E+03  0.12131105892E+03  0.41800000000E+01 0. -1.
         -5    1    3    3    0  502  0.40375920169E+02 -0.26494803320E+01  0.22633906631E+01  0.40741011436E+02  0.41800000000E+01 0. -1.
        -11    1    4    4    0    0  0.30088581049E+02 -0.49968453833E+02 -0.50408891572E+02  0.77092317630E+02  0.00000000000E+00 0. -1.
         11    1    4    4    0    0 -0.52252571686E+01  0.53111198259E+02 -0.54920748248E+02  0.76579313663E+02  0.00000000000E+00 0.  1.
</event>
<event>
 8    1  0.6703334E-009  0.9536513E+02  0.7561462E-02  0.1290356E+00
          1   -1    0    0  501    0  0.00000000000E+00  0.00000000000E+00  0.99003767630E+03  0.99003767630E+03  0.00000000000E+00 0. -1.
         -1   -1    0    0    0  501 -0.00000000000E+00 -0.00000000000E+00 -0.16266284001E+02  0.16266284001E+02  0.00000000000E+00 0.  1.
         25    2    1    2    0    0 -0.32452150880E+02  0.22814976912E+02  0.74947649563E+03  0.76087840793E+03  0.12508904384E+03 0.  0.
         23    2    1    2    0    0  0.32452150880E+02 -0.22814976912E+02  0.22429489667E+03  0.24542555237E+03  0.91388378994E+02 0.  0.
          5    1    3    3  502    0 -0.45181035180E+02 -0.25523247697E+02  0.14041995416E+03  0.14975980114E+03  0.41800000000E+01 0.  1.
         -5    1    3    3    0  502  0.12728884300E+02  0.48338224610E+02  0.60905654147E+03  0.61111860679E+03  0.41800000000E+01 0.  1.
        -11    1    4    4    0    0  0.47393692437E+02  0.13468467731E+02  0.17822325806E+03  0.18490833248E+03  0.00000000000E+00 0.  1.
         11    1    4    4    0    0 -0.14941541557E+02 -0.36283444643E+02  0.46071638610E+02  0.60517219892E+02  0.00000000000E+00 0. -1.
</event>
<event>
 8    1  0.6703334E-009  0.1170553E+03  0.7561462E-02  0.1248035E+00
         -1   -1    0    0    0  501 -0.00000000000E+00  0.00000000000E+00  0.13541978017E+03  0.13541978017E+03  0.00000000000E+00 0.  1.
          1   -1    0    0  501    0  0.00000000000E+00 -0.00000000000E+00 -0.12774636656E+03  0.12774636656E+03  0.00000000000E+00 0. -1.
         25    2    1    2    0    0  0.23108005151E+02  0.48596824422E+02  0.55384571177E+02  0.14700560940E+03  0.12509023633E+03 0.  0.
         23    2    1    2    0    0 -0.23108005151E+02 -0.48596824422E+02 -0.47711157560E+02  0.11616053733E+03  0.91221075584E+02 0.  0.
          5    1    3    3  502    0 -0.33808048248E+01  0.85672628689E+02  0.53624994440E+02  0.10121433484E+03  0.41800000000E+01 0. -1.
         -5    1    3    3    0  502  0.26488809976E+02 -0.37075804266E+02  0.17595767367E+01  0.45791274564E+02  0.41800000000E+01 0. -1.
        -11    1    4    4    0    0 -0.56082359713E+02 -0.22368744082E+02 -0.42208905289E+02  0.73669420172E+02  0.00000000000E+00 0. -1.
         11    1    4    4    0    0  0.32974354562E+02 -0.26228080341E+02 -0.55022522709E+01  0.42491117157E+02  0.00000000000E+00 0.  1.
</event>
<event>
 8    1  0.6703334E-009  0.1040737E+03  0.7561462E-02  0.1271955E+00
         -2   -1    0    0    0  501 -0.00000000000E+00  0.00000000000E+00  0.85232725492E+02  0.85232725492E+02  0.00000000000E+00 0.  1.
          2   -1    0    0  501    0  0.00000000000E+00 -0.00000000000E+00 -0.14914713648E+03  0.14914713648E+03  0.00000000000E+00 0. -1.
         25    2    1    2    0    0 -0.87974343158E+01  0.21216429916E+02 -0.59943367119E+02  0.14059830217E+03  0.12508854289E+03 0.  0.
         23    2    1    2    0    0  0.87974343158E+01 -0.21216429916E+02 -0.39710438726E+01  0.93781559809E+02  0.90838758368E+02 0.  0.
          5    1    3    3  502    0 -0.18067331629E+02  0.71936151876E+02 -0.44572835154E+02  0.86633991323E+02  0.41800000000E+01 0.  1.
         -5    1    3    3    0  502  0.92698973136E+01 -0.50719721959E+02 -0.15370531965E+02  0.53964310843E+02  0.41800000000E+01 0.  1.
        -11    1    4    4    0    0 -0.15880060055E+02 -0.45084032587E+02 -0.24570486284E+02  0.53744349451E+02  0.00000000000E+00 0.  1.
         11    1    4    4    0    0  0.24677494371E+02  0.23867602670E+02  0.20599442411E+02  0.40037210359E+02  0.00000000000E+00 0. -1.
</event>
<event>
 8    1  0.6703334E-009  0.2236582E+03  0.7561462E-02  0.1131185E+00
         -2   -1    0    0    0  501 -0.00000000000E+00  0.00000000000E+00  0.12539817801E+03  0.12539817801E+03  0.00000000000E+00 0. -1.
          2   -1    0    0  501    0  0.00000000000E+00 -0.00000000000E+00 -0.41425538844E+03  0.41425538844E+03  0.00000000000E+00 0.  1.
         25    2    1    2    0    0  0.15835805909E+03 -0.11309362714E+03 -0.98527987096E+02  0.25144104199E+03  0.12508952784E+03 0.  0.
         23    2    1    2    0    0 -0.15835805909E+03  0.11309362714E+03 -0.19032922334E+03  0.28821252446E+03  0.94730156873E+02 0.  0.
          5    1    3    3  502    0 -0.48657643137E+01 -0.58957364403E+02 -0.24275448777E+02  0.64081325618E+02  0.41800000000E+01 0. -1.
         -5    1    3    3    0  502  0.16322382341E+03 -0.54136262734E+02 -0.74252538319E+02  0.18735971637E+03  0.41800000000E+01 0. -1.
        -11    1    4    4    0    0 -0.13946607183E+03  0.46876017472E+02 -0.13803071807E+03  0.20174395985E+03  0.00000000000E+00 0.  1.
         11    1    4    4    0    0 -0.18891987265E+02  0.66217609665E+02 -0.52298505271E+02  0.86468564613E+02  0.00000000000E+00 0. -1.
</event>
<event>
 8    1  0.6703334E-009  0.1768007E+03  0.7561462E-02  0.1170936E+00
         -2   -1    0    0    0  501 -0.00000000000E+00  0.00000000000E+00  0.81292079977E+02  0.81292079977E+02  0.00000000000E+00 0.  1.
          2   -1    0    0  501    0  0.00000000000E+00 -0.00000000000E+00 -0.67966922154E+03  0.67966922154E+03  0.00000000000E+00 0. -1.
         25    2    1    2    0    0  0.15811383185E+02  0.17397686443E+03 -0.49113735875E+03  0.53607950955E+03  0.12508951277E+03 0.  0.
         23    2    1    2    0    0 -0.15811383185E+02 -0.17397686443E+03 -0.10723978282E+03  0.22488179197E+03  0.92485134731E+02 0.  0.
          5    1    3    3  502    0  0.13430256565E+02  0.65879188149E+02 -0.55730332172E+02  0.87428722664E+02  0.41800000000E+01 0. -1.
         -5    1    3    3    0  502  0.23811266198E+01  0.10809767628E+03 -0.43540702657E+03  0.44865078688E+03  0.41800000000E+01 0. -1.
        -11    1    4    4    0    0 -0.26731510783E+02 -0.13005192439E+03 -0.31194952482E+02  0.13638622279E+03  0.00000000000E+00 0.  1.
         11    1    4    4    0    0  0.10920127599E+02 -0.43924940044E+02 -0.76044830336E+02  0.88495569186E+02  0.00000000000E+00 0. -1.
</event>
<event>
 8    1  0.6703334E-009  0.1294624E+03  0.7561462E-02  0.1228256E+00
         -2   -1    0    0    0  501 -0.00000000000E+00  0.00000000000E+00  0.21196062937E+02  0.21196062937E+02  0.00000000000E+00 0.  1.
          2   -1    0    0  501    0  0.00000000000E+00 -0.00000000000E+00 -0.99599502451E+03  0.99599502451E+03  0.00000000000E+00 0. -1.
         25    2    1    2    0    0  0.67097077650E+01 -0.88423292353E+02 -0.64213309531E+03  0.66018622478E+03  0.12508893034E+03 0.  0.
         23    2    1    2    0    0 -0.67097077650E+01  0.88423292353E+02 -0.33266586627E+03  0.35700486267E+03  0.94457369109E+02 0.  0.
          5    1    3    3  502    0 -0.37839947750E+02 -0.89424830421E+02 -0.30541308114E+03  0.32050473393E+03  0.41800000000E+01 0.  1.
         -5    1    3    3    0  502  0.44549655515E+02  0.10015380681E+01 -0.33672001417E+03  0.33968149085E+03  0.41800000000E+01 0.  1.
        -11    1    4    4    0    0 -0.41644316284E+02  0.47490558864E+02 -0.10063219843E+03  0.11881263242E+03  0.00000000000E+00 0.  1.
         11    1    4    4    0    0  0.34934608519E+02  0.40932733489E+02 -0.23203366784E+03  0.23819223025E+03  0.00000000000E+00 0. -1.
</event>
<event>
 8    1  0.6703334E-009  0.3312861E+03  0.7561462E-02  0.1070569E+00
          1   -1    0    0  501    0  0.00000000000E+00  0.00000000000E+00  0.44460403099E+03  0.44460403099E+03  0.00000000000E+00 0. -1.
         -1   -1    0    0    0  501 -0.00000000000E+00 -0.00000000000E+00 -0.25450865931E+03  0.25450865931E+03  0.00000000000E+00 0.  1.
         25    2    1    2    0    0 -0.29824965195E+03 -0.10636034150E+03  0.11675640313E+03  0.35992296601E+03  0.12508839537E+03 0.  0.
         23    2    1    2    0    0  0.29824965195E+03  0.10636034150E+03  0.73338968555E+02  0.33918972429E+03  0.96982924373E+02 0.  0.
          5    1    3    3  502    0 -0.19215249335E+03 -0.12864327571E+03  0.68711603410E+02  0.24126837739E+03  0.41800000000E+01 0. -1.
         -5    1    3    3    0  502 -0.10609715861E+03  0.22282934209E+02  0.48044799717E+02  0.11865458862E+03  0.41800000000E+01 0. -1.
        -11    1    4    4    0    0  0.26010955024E+03  0.68314342910E+02  0.88682411676E+02  0.28317555988E+03  0.00000000000E+00 0. -1.
         11    1    4    4    0    0  0.38140101710E+02  0.38045998588E+02 -0.15343443121E+02  0.56014164404E+02  0.00000000000E+00 0.  1.
</event>
<event>
 8    1  0.6703334E-009  0.1046329E+03  0.7561462E-02  0.1270845E+00
         -1   -1    0    0    0  501 -0.00000000000E+00  0.00000000000E+00  0.40391682900E+02  0.40391682900E+02  0.00000000000E+00 0.  1.
          1   -1    0    0  501    0  0.00000000000E+00 -0.00000000000E+00 -0.36964282732E+03  0.36964282732E+03  0.00000000000E+00 0. -1.
         25    2    1    2    0    0 -0.12390181635E+02 -0.62482823053E+02 -0.22429749048E+03  0.26460185280E+03  0.12508859457E+03 0.  0.
         23    2    1    2    0    0  0.12390181635E+02  0.62482823053E+02 -0.10495365394E+03  0.14543265742E+03  0.77960044843E+02 0.  0.
          5    1    3    3  502    0  0.47770104693E+02  0.39142671773E+01 -0.55483414817E+02  0.73438314998E+02  0.41800000000E+01 0. -1.
         -5    1    3    3    0  502 -0.60160286328E+02 -0.66397090230E+02 -0.16881407566E+03  0.19116353780E+03  0.41800000000E+01 0. -1.
        -11    1    4    4    0    0  0.23383948757E+02  0.37971327656E+02 -0.86150026101E+01  0.45418598100E+02  0.00000000000E+00 0.  1.
         11    1    4    4    0    0 -0.10993767122E+02  0.24511495397E+02 -0.96338651328E+02  0.10001405932E+03  0.00000000000E+00 0. -1.
</event>
<event>
 8    1  0.6703334E-009  0.1089934E+03  0.7561462E-02  0.1262445E+00
         -2   -1    0    0    0  501 -0.00000000000E+00  0.00000000000E+00  0.29701248883E+02  0.29701248883E+02  0.00000000000E+00 0. -1.
          2   -1    0    0  501    0  0.00000000000E+00 -0.00000000000E+00 -0.16447539682E+04  0.16447539682E+04  0.00000000000E+00 0.  1.
         25    2    1    2    0    0 -0.52749675259E+01  0.84530905336E+02 -0.15082152409E+04  0.15157619165E+04  0.12509066866E+03 0.  0.
         23    2    1    2    0    0  0.52749675259E+01 -0.84530905336E+02 -0.10683747840E+03  0.15869330057E+03  0.81215870462E+02 0.  0.
          5    1    3    3  502    0  0.35109358695E+02  0.34605968375E+02 -0.11940292196E+04  0.11950537602E+04  0.41800000000E+01 0. -1.
         -5    1    3    3    0  502 -0.40384326221E+02  0.49924936961E+02 -0.31418602133E+03  0.32070815632E+03  0.41800000000E+01 0. -1.
        -11    1    4    4    0    0 -0.25540857199E+02 -0.19278405027E+02 -0.71517737450E+02  0.78350360923E+02  0.00000000000E+00 0.  1.
         11    1    4    4    0    0  0.30815824725E+02 -0.65252500309E+02 -0.35319740952E+02  0.80342939646E+02  0.00000000000E+00 0. -1.
</event>
<event>
 8    1  0.6703334E-009  0.1265768E+03  0.7561462E-02  0.1232625E+00
          2   -1    0    0  501    0  0.00000000000E+00  0.00000000000E+00  0.26055454126E+03  0.26055454126E+03  0.00000000000E+00 0. -1.
         -2   -1    0    0    0  501 -0.00000000000E+00 -0.00000000000E+00 -0.95687283317E+02  0.95687283317E+02  0.00000000000E+00 0.  1.
         25    2    1    2    0    0  0.78459533807E+02 -0.71772873999E+02  0.13688986304E+03  0.21375880857E+03  0.12508696876E+03 0.  0.
         23    2    1    2    0    0 -0.78459533807E+02  0.71772873999E+02  0.27977394907E+02  0.14248301600E+03  0.90616948392E+02 0.  0.
          5    1    3    3  502    0  0.82931005697E+02 -0.66364358473E+02  0.35542255672E+02  0.11208257724E+03  0.41800000000E+01 0.  1.
         -5    1    3    3    0  502 -0.44714718901E+01 -0.54085155251E+01  0.10134760736E+03  0.10167623134E+03  0.41800000000E+01 0.  1.
        -11    1    4    4    0    0 -0.59291704982E+02 -0.50530227168E+01  0.20547374345E+02  0.62954220754E+02  0.00000000000E+00 0.  1.
         11    1    4    4    0    0 -0.19167828825E+02  0.76825896715E+02  0.74300205625E+01  0.79528795248E+02  0.00000000000E+00 0. -1.
</event>
<event>
 8    1  0.6703334E-009  0.2510612E+03  0.7561462E-02  0.1112636E+00
         -3   -1    0    0    0  501 -0.00000000000E+00  0.00000000000E+00  0.35849804773E+03  0.35849804773E+03  0.00000000000E+00 0.  1.
          3   -1    0    0  501    0  0.00000000000E+00 -0.00000000000E+00 -0.19695811711E+03  0.19695811711E+03  0.00000000000E+00 0. -1.
         25    2    1    2    0    0 -0.19501619996E+03  0.12680648073E+03  0.12846477847E+02  0.26441821057E+03  0.12506300927E+03 0.  0.
         23    2    1    2    0    0  0.19501619996E+03 -0.12680648073E+03  0.14869345277E+03  0.29103795427E+03  0.92098567441E+02 0.  0.
          5    1    3    3  502    0 -0.28742161500E+02  0.88574583104E+02  0.97796984607E+01  0.93726642540E+02  0.41800000000E+01 0. -1.
         -5    1    3    3    0  502 -0.16627403846E+03  0.38231897630E+02  0.30667793864E+01  0.17069156803E+03  0.41800000000E+01 0. -1.
        -11    1    4    4    0    0  0.38362659978E+02 -0.52068095661E+02  0.35364262321E+01  0.64771031927E+02  0.00000000000E+00 0. -1.
         11    1    4    4    0    0  0.15665353998E+03 -0.74738385073E+02  0.14515702654E+03  0.22626692234E+03  0.00000000000E+00 0.  1.
</event>
<event>
 8    1  0.6703334E-009  0.1167785E+03  0.7561462E-02  0.1248508E+00
          2   -1    0    0  501    0  0.00000000000E+00  0.00000000000E+00  0.60716058901E+03  0.60716058901E+03  0.00000000000E+00 0. -1.
         -2   -1    0    0    0  501 -0.00000000000E+00 -0.00000000000E+00 -0.24234902933E+02  0.24234902933E+02  0.00000000000E+00 0.  1.
         25    2    1    2    0    0 -0.31756544834E+02  0.44336257615E+02  0.34472000815E+03  0.37074698358E+03  0.12508900806E+03 0.  0.
         23    2    1    2    0    0  0.31756544834E+02 -0.44336257615E+02  0.23820567793E+03  0.26064850836E+03  0.90672587008E+02 0.  0.
          5    1    3    3  502    0  0.10804295160E+02 -0.35524213648E+02  0.16863990281E+03  0.17272982304E+03  0.41800000000E+01 0.  1.
         -5    1    3    3    0  502 -0.42560839993E+02  0.79860471262E+02  0.17608010534E+03  0.19801716054E+03  0.41800000000E+01 0.  1.
        -11    1    4    4    0    0  0.41750806269E+02 -0.68067299884E+02  0.17285642702E+03  0.19040911611E+03  0.00000000000E+00 0. -1.
         11    1    4    4    0    0 -0.99942614352E+01  0.23731042270E+02  0.65349250912E+02  0.70239392250E+02  0.00000000000E+00 0.  1.
</event>
<event>
 8    1  0.6703334E-009  0.1103610E+03  0.7561462E-02  0.1259903E+00
         -2   -1    0    0    0  501 -0.00000000000E+00  0.00000000000E+00  0.18165239439E+02  0.18165239439E+02  0.00000000000E+00 0.  1.
          2   -1    0    0  501    0  0.00000000000E+00 -0.00000000000E+00 -0.91195654329E+03  0.91195654329E+03  0.00000000000E+00 0. -1.
         25    2    1    2    0    0  0.45423896942E+02  0.61303463450E+02 -0.54133236242E+03  0.56081085334E+03  0.12508653636E+03 0.  0.
         23    2    1    2    0    0 -0.45423896942E+02 -0.61303463450E+02 -0.35245894143E+03  0.36931092939E+03  0.79635495397E+02 0.  0.
          5    1    3    3  502    0  0.30183605812E+02  0.87783490785E+02 -0.23157675869E+03  0.24952406473E+03  0.41800000000E+01 0.  1.
         -5    1    3    3    0  502  0.15240291130E+02 -0.26480027335E+02 -0.30975560373E+03  0.31128678861E+03  0.41800000000E+01 0.  1.
        -11    1    4    4    0    0  0.13549469560E+02 -0.22834395330E+02 -0.33885355704E+02  0.43048984502E+02  0.00000000000E+00 0.  1.
         11    1    4    4    0    0 -0.58973366501E+02 -0.38469068120E+02 -0.31857358573E+03  0.32626194489E+03  0.00000000000E+00 0. -1.
</event>
<event>
 8    1  0.6703334E-009  0.1649025E+03  0.7561462E-02  0.1183270E+00
         -2   -1    0    0    0  501 -0.00000000000E+00  0.00000000000E+00  0.70482133121E+02  0.70482133121E+02  0.00000000000E+00 0.  1.
          2   -1    0    0  501    0  0.00000000000E+00 -0.00000000000E+00 -0.45367228370E+03  0.45367228370E+03  0.00000000000E+00 0. -1.
         25    2    1    2    0    0 -0.11514482541E+03 -0.83201672341E+02 -0.16419973228E+03  0.25057861641E+03  0.12508893566E+03 0.  0.
         23    2    1    2    0    0  0.11514482541E+03  0.83201672341E+02 -0.21899041830E+03  0.27357580041E+03  0.81890574327E+02 0.  0.
          5    1    3    3  502    0 -0.10556512982E+03 -0.26371637518E+02 -0.15879538396E+03  0.19254325817E+03  0.41800000000E+01 0. -1.
         -5    1    3    3    0  502 -0.95796955901E+01 -0.56830034823E+02 -0.54043483180E+01  0.58035358243E+02  0.41800000000E+01 0. -1.
        -11    1    4    4    0    0  0.59129971590E+02 -0.42463800636E+01 -0.93194531431E+02  0.11045182648E+03  0.00000000000E+00 0.  1.
         11    1    4    4    0    0  0.56014853819E+02  0.87448052405E+02 -0.12579588687E+03  0.16312397393E+03  0.00000000000E+00 0. -1.
</event>
<event>
 8    1  0.6703334E-009  0.1039155E+03  0.7561462E-02  0.1272271E+00
         -2   -1    0    0    0  501 -0.00000000000E+00  0.00000000000E+00  0.74731032337E+03  0.74731032337E+03  0.00000000000E+00 0.  1.
          2   -1    0    0  501    0  0.00000000000E+00 -0.00000000000E+00 -0.18291411867E+02  0.18291411867E+02  0.00000000000E+00 0. -1.
         25    2    1    2    0    0  0.25697771959E+02 -0.32693395474E+02  0.39735676538E+03  0.41865084755E+03  0.12508756762E+03 0.  0.
         23    2    1    2    0    0 -0.25697771959E+02  0.32693395474E+02  0.33166214612E+03  0.34695088768E+03  0.92983362506E+02 0.  0.
          5    1    3    3  502    0 -0.29343635700E+02 -0.60527447882E+02  0.24827173814E+03  0.25725658254E+03  0.41800000000E+01 0. -1.
         -5    1    3    3    0  502  0.55041407659E+02  0.27834052408E+02  0.14908502724E+03  0.16139426501E+03  0.41800000000E+01 0. -1.
        -11    1    4    4    0    0  0.22390009363E+02  0.43892209737E+01  0.20024537795E+02  0.30357204976E+02  0.00000000000E+00 0. -1.
         11    1    4    4    0    0 -0.48087781322E+02  0.28304174500E+02  0.31163760833E+03  0.31659368271E+03  0.00000000000E+00 0.  1.
</event>
<event>
 8    1  0.6703334E-009  0.1697548E+03  0.7561462E-02  0.1178104E+00
          2   -1    0    0  501    0  0.00000000000E+00  0.00000000000E+00  0.15905556927E+03  0.15905556927E+03  0.00000000000E+00 0. -1.
         -2   -1    0    0    0  501 -0.00000000000E+00 -0.00000000000E+00 -0.23402091916E+03  0.23402091916E+03  0.00000000000E+00 0.  1.
         25    2    1    2    0    0 -0.14334107529E+03  0.59684708632E+02 -0.72938277875E+00  0.19939025743E+03  0.12508802680E+03 0.  0.
         23    2    1    2    0    0  0.14334107529E+03 -0.59684708632E+02 -0.74235967118E+02  0.19368623100E+03  0.88850711625E+02 0.  0.
          5    1    3    3  502    0  0.26745631857E+01  0.57290567272E+01  0.38144056345E+02  0.38889803467E+02  0.41800000000E+01 0.  1.
         -5    1    3    3    0  502 -0.14601563848E+03  0.53955651905E+02 -0.38873439124E+02  0.16050045396E+03  0.41800000000E+01 0.  1.
        -11    1    4    4    0    0  0.12119686130E+03 -0.97554194783E+01 -0.66308689196E+02  0.13849436689E+03  0.00000000000E+00 0. -1.
         11    1    4    4    0    0  0.22144213991E+02 -0.49929289154E+02 -0.79272779214E+01  0.55191864110E+02  0.00000000000E+00 0.  1.
</event>
<event>
 8    1  0.6703334E-009  0.1549288E+03  0.7561462E-02  0.1194544E+00
          2   -1    0    0  501    0  0.00000000000E+00  0.00000000000E+00  0.42007506850E+03  0.42007506850E+03  0.00000000000E+00 0. -1.
         -2   -1    0    0    0  501 -0.00000000000E+00 -0.00000000000E+00 -0.19454967190E+03  0.19454967190E+03  0.00000000000E+00 0.  1.
         25    2    1    2    0    0 -0.97307983502E+02 -0.84574173514E+02  0.36317092073E+03  0.40516904168E+03  0.12508876924E+03 0.  0.
         23    2    1    2    0    0  0.97307983502E+02  0.84574173514E+02 -0.13764552412E+03  0.20945569872E+03  0.91124996233E+02 0.  0.
          5    1    3    3  502    0  0.29530941878E+02 -0.65381611680E+01  0.56339415594E+02  0.64081403146E+02  0.41800000000E+01 0.  1.
         -5    1    3    3    0  502 -0.12683892538E+03 -0.78036012346E+02  0.30683150514E+03  0.34108763853E+03  0.41800000000E+01 0.  1.
        -11    1    4    4    0    0  0.93084330248E+02  0.73862089361E+02 -0.15078792999E+03  0.19198255288E+03  0.00000000000E+00 0.  1.
         11    1    4    4    0    0  0.42236532540E+01  0.10712084153E+02  0.13142405863E+02  0.17473145841E+02  0.00000000000E+00 0. -1.
</event>
<event>
 8    1  0.6703334E-009  0.1279199E+03  0.7561462E-02  0.1230575E+00
         -2   -1    0    0    0  501 -0.00000000000E+00  0.00000000000E+00  0.82306487875E+02  0.82306487875E+02  0.00000000000E+00 0.  1.
          2   -1    0    0  501    0  0.00000000000E+00 -0.00000000000E+00 -0.21679114156E+03  0.21679114156E+03  0.00000000000E+00 0. -1.
         25    2    1    2    0    0  0.71245006109E+02  0.15576005807E+02 -0.11086201346E+03  0.18236689684E+03  0.12509530839E+03 0.  0.
         23    2    1    2    0    0 -0.71245006109E+02 -0.15576005807E+02 -0.23622640227E+02  0.11673073260E+03  0.88031653113E+02 0.  0.
          5    1    3    3  502    0 -0.12289607469E+02 -0.41072163912E+02 -0.25100594809E+02  0.49854481844E+02  0.41800000000E+01 0. -1.
         -5    1    3    3    0  502  0.83534613578E+02  0.56648169719E+02 -0.85761418653E+02  0.13251241499E+03  0.41800000000E+01 0. -1.
        -11    1    4    4    0    0 -0.27534006995E+02  0.35238307090E+02 -0.21622735469E+02  0.49672955588E+02  0.00000000000E+00 0. -1.
         11    1    4    4    0    0 -0.43710999114E+02 -0.50814312897E+02 -0.19999047585E+01  0.67057777012E+02  0.00000000000E+00 0.  1.
</event>
<event>
 8    1  0.6703334E-009  0.2016870E+03  0.7561462E-02  0.1148323E+00
         -1   -1    0    0    0  501 -0.00000000000E+00  0.00000000000E+00  0.76985363334E+02  0.76985363334E+02  0.00000000000E+00 0.  1.
          1   -1    0    0  501    0  0.00000000000E+00 -0.00000000000E+00 -0.66610429530E+03  0.66610429530E+03  0.00000000000E+00 0. -1.
         25    2    1    2    0    0  0.17122513577E+03 -0.51330801933E+02 -0.16493212146E+03  0.27350099723E+03  0.12508913801E+03 0.  0.
         23    2    1    2    0    0 -0.17122513577E+03  0.51330801933E+02 -0.42418681050E+03  0.46958866141E+03  0.92877135896E+02 0.  0.
          5    1    3    3  502    0  0.15521114214E+03  0.72996550224E+01 -0.10203381268E+03  0.18593588932E+03  0.41800000000E+01 0.  1.
         -5    1    3    3    0  502  0.16013993628E+02 -0.58630456955E+02 -0.62898308786E+02  0.87565107907E+02  0.41800000000E+01 0.  1.
        -11    1    4    4    0    0 -0.11317916490E+03  0.59538565879E+01 -0.33641199767E+03  0.35499014628E+03  0.00000000000E+00 0. -1.
         11    1    4    4    0    0 -0.58045970866E+02  0.45376945345E+02 -0.87774812830E+02  0.11459851513E+03  0.00000000000E+00 0.  1.
</event>
<event>
 8    1  0.6703334E-009  0.1316874E+03  0.7561462E-02  0.1224973E+00
         -3   -1    0    0    0  501 -0.00000000000E+00  0.00000000000E+00  0.13657786853E+03  0.13657786853E+03  0.00000000000E+00 0.  1.
          3   -1    0    0  501    0  0.00000000000E+00 -0.00000000000E+00 -0.23810021973E+03  0.23810021973E+03  0.00000000000E+00 0. -1.
         25    2    1    2    0    0 -0.86455565590E+02 -0.92795571656E+02 -0.12456298275E+03  0.21736306980E+03  0.12508071196E+03 0.  0.
         23    2    1    2    0    0  0.86455565590E+02  0.92795571656E+02  0.23040631549E+02  0.15731501845E+03  0.90175170575E+02 0.  0.
          5    1    3    3  502    0 -0.68875620095E+02 -0.74238653191E+02 -0.12238111516E+02  0.10209051104E+03  0.41800000000E+01 0.  1.
         -5    1    3    3    0  502 -0.17579945495E+02 -0.18556918465E+02 -0.11232487123E+03  0.11527255876E+03  0.41800000000E+01 0.  1.
        -11    1    4    4    0    0  0.66916018182E+02  0.95271378402E+02 -0.12080287361E+02  0.11704837622E+03  0.00000000000E+00 0. -1.
         11    1    4    4    0    0  0.19539547408E+02 -0.24758067466E+01  0.35120918910E+02  0.40266642237E+02  0.00000000000E+00 0.  1.
</event>
<event>
 8    1  0.6703334E-009  0.1167772E+03  0.7561462E-02  0.1248510E+00
         -1   -1    0    0    0  501 -0.00000000000E+00  0.00000000000E+00  0.31277689621E+02  0.31277689621E+02  0.00000000000E+00 0.  1.
          1   -1    0    0  501    0  0.00000000000E+00 -0.00000000000E+00 -0.75864026450E+03  0.75864026450E+03  0.00000000000E+00 0. -1.
         25    2    1    2    0    0  0.45524697119E+02  0.97872582992E+02 -0.34008808596E+03  0.37809836563E+03  0.12508767859E+03 0.  0.
         23    2    1    2    0    0 -0.45524697119E+02 -0.97872582992E+02 -0.38727448892E+03  0.41181958849E+03  0.89231738436E+02 0.  0.
          5    1    3    3  502    0  0.31774693849E+02  0.70935683752E+02 -0.33870712958E+03  0.34753632102E+03  0.41800000000E+01 0.  1.
         -5    1    3    3    0  502  0.13750003271E+02  0.26936899240E+02 -0.13809563795E+01  0.30562044616E+02  0.41800000000E+01 0.  1.
        -11    1    4    4    0    0  0.97147449735E+01  0.30080989281E+01 -0.28545707018E+01  0.10562835933E+02  0.00000000000E+00 0.  1.
         11    1    4    4    0    0 -0.55239442093E+02 -0.10088068192E+03 -0.38441991822E+03  0.40125675256E+03  0.00000000000E+00 0. -1.
</event>
<event>
 8    1  0.6703334E-009  0.1063610E+03  0.7561462E-02  0.1267461E+00
          4   -1    0    0  501    0  0.00000000000E+00  0.00000000000E+00  0.18466704033E+03  0.18466704033E+03  0.00000000000E+00 0. -1.
         -4   -1    0    0    0  501 -0.00000000000E+00 -0.00000000000E+00 -0.72208119633E+02  0.72208119633E+02  0.00000000000E+00 0.  1.
         25    2    1    2    0    0  0.32279148636E+02 -0.21170530330E+02  0.56441018608E+02  0.14255635130E+03  0.12508632989E+03 0.  0.
         23    2    1    2    0    0 -0.32279148636E+02  0.21170530330E+02  0.56017902087E+02  0.11431880866E+03  0.91873009461E+02 0.  0.
          5    1    3    3  502    0  0.58480264230E+02 -0.57768006683E+02  0.51480978708E+02  0.97081653618E+02  0.41800000000E+01 0. -1.
         -5    1    3    3    0  502 -0.26201115594E+02  0.36597476353E+02  0.49600398995E+01  0.45474697685E+02  0.41800000000E+01 0. -1.
        -11    1    4    4    0    0 -0.50472463245E+02 -0.77298097179E+01  0.61280762474E+02  0.79765602572E+02  0.00000000000E+00 0. -1.
         11    1    4    4    0    0  0.18193314608E+02  0.28900340048E+02 -0.52628603869E+01  0.34553206085E+02  0.00000000000E+00 0.  1.
</event>
<event>
 8    1  0.6703334E-009  0.1620611E+03  0.7561462E-02  0.1186389E+00
         -3   -1    0    0    0  501 -0.00000000000E+00  0.00000000000E+00  0.11868347235E+03  0.11868347235E+03  0.00000000000E+00 0.  1.
          3   -1    0    0  501    0  0.00000000000E+00 -0.00000000000E+00 -0.24219401963E+03  0.24219401963E+03  0.00000000000E+00 0. -1.
         25    2    1    2    0    0  0.67239944163E+02 -0.10540423525E+03 -0.26667550715E+02  0.17886076899E+03  0.12509497801E+03 0.  0.
         23    2    1    2    0    0 -0.67239944163E+02  0.10540423525E+03 -0.96842996566E+02  0.18201672299E+03  0.90112477307E+02 0.  0.
          5    1    3    3  502    0  0.43208464803E+02  0.19002152793E+02  0.64691596512E+01  0.47826516369E+02  0.41800000000E+01 0.  1.
         -5    1    3    3    0  502  0.24031479360E+02 -0.12440638804E+03 -0.33136710366E+02  0.13103425262E+03  0.41800000000E+01 0.  1.
        -11    1    4    4    0    0 -0.56218045306E+02  0.11950196107E+03 -0.97425208660E+02  0.16411233530E+03  0.00000000000E+00 0. -1.
         11    1    4    4    0    0 -0.11021898857E+02 -0.14097725817E+02  0.58221209362E+00  0.17904387690E+02  0.00000000000E+00 0.  1.
</event>
<event>
 8    1  0.6703334E-009  0.1291626E+03  0.7561462E-02  0.1228704E+00
          2   -1    0    0  501    0  0.00000000000E+00  0.00000000000E+00  0.45036463765E+02  0.45036463765E+02  0.00000000000E+00 0.  1.
         -2   -1    0    0    0  501 -0.00000000000E+00 -0.00000000000E+00 -0.49873029272E+03  0.49873029272E+03  0.00000000000E+00 0. -1.
         25    2    1    2    0    0 -0.64248428679E+02  0.80152539310E+02 -0.26152983162E+03  0.30756761586E+03  0.12509074847E+03 0.  0.
         23    2    1    2    0    0  0.64248428679E+02 -0.80152539310E+02 -0.19216399733E+03  0.23619914063E+03  0.91163271199E+02 0.  0.
          5    1    3    3  502    0 -0.38689904644E+00  0.63065676639E+02 -0.36491864513E+02  0.72983270935E+02  0.41800000000E+01 0.  1.
         -5    1    3    3    0  502 -0.63861529633E+02  0.17086862672E+02 -0.22503796711E+03  0.23458434493E+03  0.41800000000E+01 0.  1.
        -11    1    4    4    0    0 -0.51856601290E+01 -0.54673176882E+02 -0.12400187026E+03  0.13561899266E+03  0.00000000000E+00 0.  1.
         11    1    4    4    0    0  0.69434088808E+02 -0.25479362428E+02 -0.68162127076E+02  0.10058014797E+03  0.00000000000E+00 0. -1.
</event>
<event>
 8    1  0.6703334E-009  0.7794199E+02  0.7561462E-02  0.1334995E+00
         -1   -1    0    0    0  501 -0.00000000000E+00  0.00000000000E+00  0.46494314528E+02  0.46494314528E+02  0.00000000000E+00 0.  1.
          1   -1    0    0  501    0  0.00000000000E+00 -0.00000000000E+00 -0.33471883346E+03  0.33471883346E+03  0.00000000000E+00 0. -1.
         25    2    1    2    0    0  0.14923829699E+02 -0.22130584300E+02 -0.24912050333E+03  0.28003619355E+03  0.12508701396E+03 0.  0.
         23    2    1    2    0    0 -0.14923829699E+02  0.22130584300E+02 -0.39104015594E+02  0.10117695444E+03  0.89415706782E+02 0.  0.
          5    1    3    3  502    0  0.15638017197E+02 -0.44401275393E+02 -0.25270285406E+03  0.25708408292E+03  0.41800000000E+01 0.  1.
         -5    1    3    3    0  502 -0.71418749803E+00  0.22270691092E+02  0.35823507302E+01  0.22952110628E+02  0.41800000000E+01 0.  1.
        -11    1    4    4    0    0 -0.15294038534E+02 -0.30078191609E+02 -0.35292506001E+02  0.48827924438E+02  0.00000000000E+00 0. -1.
         11    1    4    4    0    0  0.37020883450E+00  0.52208775909E+02 -0.38115095928E+01  0.52349029999E+02  0.00000000000E+00 0.  1.
</event>
<event>
 8    1  0.6703334E-009  0.1513886E+03  0.7561462E-02  0.1198777E+00
         -1   -1    0    0    0  501 -0.00000000000E+00  0.00000000000E+00  0.27614468350E+03  0.27614468350E+03  0.00000000000E+00 0.  1.
          1   -1    0    0  501    0  0.00000000000E+00 -0.00000000000E+00 -0.11308603107E+03  0.11308603107E+03  0.00000000000E+00 0. -1.
         25    2    1    2    0    0  0.11179182320E+03  0.63573991591E+02  0.28583094845E+02  0.18166622403E+03  0.12508620828E+03 0.  0.
         23    2    1    2    0    0 -0.11179182320E+03 -0.63573991591E+02  0.13447555759E+03  0.20756449054E+03  0.91979769524E+02 0.  0.
          5    1    3    3  502    0  0.60238820114E+02  0.75380197416E+02  0.65794649979E+02  0.11686444274E+03  0.41800000000E+01 0. -1.
         -5    1    3    3    0  502  0.51553003085E+02 -0.11806205825E+02 -0.37211555134E+02  0.64801781292E+02  0.41800000000E+01 0. -1.
        -11    1    4    4    0    0 -0.42075863502E+02  0.18061237023E+02  0.18100227625E+02  0.49236214440E+02  0.00000000000E+00 0. -1.
         11    1    4    4    0    0 -0.69715959697E+02 -0.81635228615E+02  0.11637532997E+03  0.15832827610E+03  0.00000000000E+00 0.  1.
</event>
<event>
 8    1  0.6703334E-009  0.1029455E+03  0.7561462E-02  0.1274221E+00
         -1   -1    0    0    0  501 -0.00000000000E+00  0.00000000000E+00  0.10120024939E+03  0.10120024939E+03  0.00000000000E+00 0.  1.
          1   -1    0    0  501    0  0.00000000000E+00 -0.00000000000E+00 -0.17325863392E+03  0.17325863392E+03  0.00000000000E+00 0. -1.
         25    2    1    2    0    0  0.59115418171E+02 -0.33338500843E+02 -0.63625611064E+01  0.14245783840E+03  0.12509062808E+03 0.  0.
         23    2    1    2    0    0 -0.59115418171E+02  0.33338500843E+02 -0.65695823426E+02  0.13200104492E+03  0.92207626257E+02 0.  0.
          5    1    3    3  502    0  0.55130191602E+02 -0.51199741433E+02  0.45003060716E+02  0.87769581420E+02  0.41800000000E+01 0.  1.
         -5    1    3    3    0  502  0.39852265689E+01  0.17861240590E+02 -0.51365621822E+02  0.54688256979E+02  0.41800000000E+01 0.  1.
        -11    1    4    4    0    0 -0.82150136812E+02  0.18023484795E+02 -0.36199314182E+02  0.91563537119E+02  0.00000000000E+00 0.  1.
         11    1    4    4    0    0  0.23034718642E+02  0.15315016048E+02 -0.29496509244E+02  0.40437507800E+02  0.00000000000E+00 0. -1.
</event>
<event>
 7    1  0.6703334E-009  0.1213292E+03  0.7561462E-02  0.1240920E+00
          2   -1    0    0  501    0  0.00000000000E+00  0.00000000000E+00  0.39166190716E+02  0.39166190716E+02  0.00000000000E+00 0. -1.
         -2   -1    0    0    0  501 -0.00000000000E+00 -0.00000000000E+00 -0.73322603865E+03  0.73322603865E+03  0.00000000000E+00 0.  1.
         23    2    1    2    0    0  0.41648330806E+02  0.98624739837E+02 -0.16148397921E+03  0.21482045409E+03  0.92786470917E+02 0.  0.
          5    1    1    2  502    0 -0.49797395280E+02 -0.67679150130E+02 -0.51294368942E+03  0.51979702660E+03  0.41800000000E+01 0.  1.
         -5    1    1    2    0  502  0.81490644737E+01 -0.30945589707E+02 -0.19632179303E+02  0.37774748686E+02  0.41800000000E+01 0.  1.
        -11    1    3    3    0    0 -0.18563332103E+02  0.21300803096E+02 -0.87725663018E+02  0.92163514816E+02  0.00000000000E+00 0.  1.
         11    1    3    3    0    0  0.60211662909E+02  0.77323936742E+02 -0.73758316191E+02  0.12265693927E+03  0.00000000000E+00 0. -1.
</event>
<event>
 8    1  0.6703334E-009  0.1389952E+03  0.7561462E-02  0.1214687E+00
          2   -1    0    0  501    0  0.00000000000E+00  0.00000000000E+00  0.87779163059E+02  0.87779163059E+02  0.00000000000E+00 0. -1.
         -2   -1    0    0    0  501 -0.00000000000E+00 -0.00000000000E+00 -0.33207228043E+03  0.33207228043E+03  0.00000000000E+00 0.  1.
         25    2    1    2    0    0  0.50337182619E+02  0.12384124296E+03 -0.10829916169E+03  0.21271217498E+03  0.12508907047E+03 0.  0.
         23    2    1    2    0    0 -0.50337182619E+02 -0.12384124296E+03 -0.13599395568E+03  0.20713926850E+03  0.80881612015E+02 0.  0.
          5    1    3    3  502    0  0.38193782926E+02  0.11919155888E+03 -0.13412290473E+03  0.18349882490E+03  0.41800000000E+01 0.  1.
         -5    1    3    3    0  502  0.12143399693E+02  0.46496840792E+01  0.25823743049E+02  0.29213350085E+02  0.41800000000E+01 0.  1.
        -11    1    4    4    0    0 -0.83931281893E+01 -0.71667731402E+02 -0.11715887513E+03  0.13759691256E+03  0.00000000000E+00 0.  1.
         11    1    4    4    0    0 -0.41944054429E+02 -0.52173511562E+02 -0.18835080551E+02  0.69542355943E+02  0.00000000000E+00 0. -1.
</event>
<event>
 8    1  0.6703334E-009  0.1121666E+03  0.7561462E-02  0.1256609E+00
          2   -1    0    0  501    0  0.00000000000E+00  0.00000000000E+00  0.60667755277E+03  0.60667755277E+03  0.00000000000E+00 0. -1.
         -2   -1    0    0    0  501 -0.00000000000E+00 -0.00000000000E+00 -0.24173528958E+02  0.24173528958E+02  0.00000000000E+00 0.  1.
         25    2    1    2    0    0 -0.16955246285E+02  0.40956504192E+02  0.40486904202E+03  0.42606525999E+03  0.12509096279E+03 0.  0.
         23    2    1    2    0    0  0.16955246285E+02 -0.40956504192E+02  0.17763498179E+03  0.20478582174E+03  0.91750370114E+02 0.  0.
          5    1    3    3  502    0  0.45206592350E+01 -0.42294542491E+02  0.18668913878E+03  0.19151911556E+03  0.41800000000E+01 0.  1.
         -5    1    3    3    0  502 -0.21475905520E+02  0.83251046683E+02  0.21817990324E+03  0.23454614443E+03  0.41800000000E+01 0.  1.
        -11    1    4    4    0    0  0.10230725296E+01  0.26339138764E+02  0.86220570061E+02  0.90159767135E+02  0.00000000000E+00 0. -1.
         11    1    4    4    0    0  0.15932173755E+02 -0.67295642956E+02  0.91414411729E+02  0.11462605460E+03  0.00000000000E+00 0.  1.
</event>
<event>
 8    1  0.6703334E-009  0.1230245E+03  0.7561462E-02  0.1238189E+00
         -1   -1    0    0    0  501 -0.00000000000E+00  0.00000000000E+00  0.78512942130E+02  0.78512942130E+02  0.00000000000E+00 0.  1.
          1   -1    0    0  501    0  0.00000000000E+00 -0.00000000000E+00 -0.23438476154E+03  0.23438476154E+03  0.00000000000E+00 0. -1.
         25    2    1    2    0    0  0.69770399016E+02 -0.31207649529E+01 -0.38435088232E+02  0.14833346169E+03  0.12509161482E+03 0.  0.
         23    2    1    2    0    0 -0.69770399016E+02  0.31207649529E+01 -0.11743673117E+03  0.16456424197E+03  0.91718897477E+02 0.  0.
          5    1    3    3  502    0  0.10318491076E+03 -0.20375638046E+02 -0.31425903208E+02  0.10985150079E+03  0.41800000000E+01 0.  1.
         -5    1    3    3    0  502 -0.33414511740E+02  0.17254873094E+02 -0.70091850241E+01  0.38481960903E+02  0.41800000000E+01 0.  1.
        -11    1    4    4    0    0  0.16443514694E+02 -0.21075484337E+01 -0.56441837416E+02  0.58826116197E+02  0.00000000000E+00 0. -1.
         11    1    4    4    0    0 -0.86213913710E+02  0.52283133866E+01 -0.60994893758E+02  0.10573812578E+03  0.00000000000E+00 0.  1.
</event>
<event>
 8    1  0.6703334E-009  0.1405927E+03  0.7561462E-02  0.1212534E+00
         -1   -1    0    0    0  501 -0.00000000000E+00  0.00000000000E+00  0.78965856682E+02  0.78965856682E+02  0.00000000000E+00 0.  1.
          1   -1    0    0  501    0  0.00000000000E+00 -0.00000000000E+00 -0.40745904609E+03  0.40745904609E+03  0.00000000000E+00 0. -1.
         25    2    1    2    0    0  0.26509708402E+02 -0.71624331501E+02 -0.30296338844E+03  0.33654956407E+03  0.12508391120E+03 0.  0.
         23    2    1    2    0    0 -0.26509708402E+02  0.71624331501E+02 -0.25529800969E+02  0.14987533870E+03  0.12640425986E+03 0.  0.
          5    1    3    3  502    0 -0.33581867061E+02 -0.76391234891E+02 -0.14392287648E+03  0.16641703440E+03  0.41800000000E+01 0.  1.
         -5    1    3    3    0  502  0.60091575463E+02  0.47669033903E+01 -0.15904051195E+03  0.17013252967E+03  0.41800000000E+01 0.  1.
        -11    1    4    4    0    0  0.45253576277E+02  0.26667038351E+02 -0.37238383697E+02  0.64387221719E+02  0.00000000000E+00 0. -1.
         11    1    4    4    0    0 -0.71763284679E+02  0.44957293150E+02  0.11708582728E+02  0.85488116980E+02  0.00000000000E+00 0.  1.
</event>
<event>
 8    1  0.6703334E-009  0.1080524E+03  0.7561462E-02  0.1264220E+00
          2   -1    0    0  501    0  0.00000000000E+00  0.00000000000E+00  0.58155452915E+03  0.58155452915E+03  0.00000000000E+00 0. -1.
         -2   -1    0    0    0  501 -0.00000000000E+00 -0.00000000000E+00 -0.23878862109E+02  0.23878862109E+02  0.00000000000E+00 0.  1.
         25    2    1    2    0    0 -0.46167369771E+02 -0.10559111815E+02  0.31357730200E+03  0.34091187536E+03  0.12508901453E+03 0.  0.
         23    2    1    2    0    0  0.46167369771E+02  0.10559111815E+02  0.24409836504E+03  0.26452151590E+03  0.90247989922E+02 0.  0.
          5    1    3    3  502    0 -0.57207014132E+02 -0.59775220729E+02  0.18345399520E+03  0.20129222597E+03  0.41800000000E+01 0. -1.
         -5    1    3    3    0  502  0.11039644362E+02  0.49216108913E+02  0.13012330680E+03  0.13961964940E+03  0.41800000000E+01 0. -1.
        -11    1    4    4    0    0 -0.10660622589E+01  0.31116934387E+02  0.26429544093E+02  0.40840187259E+02  0.00000000000E+00 0. -1.
         11    1    4    4    0    0  0.47233432030E+02 -0.20557822572E+02  0.21766882094E+03  0.22368132864E+03  0.00000000000E+00 0.  1.
</event>
<event>
 8    1  0.6703334E-009  0.1079877E+03  0.7561462E-02  0.1264342E+00
          2   -1    0    0  501    0  0.00000000000E+00  0.00000000000E+00  0.60145566614E+03  0.60145566614E+03  0.00000000000E+00 0. -1.
         -2   -1    0    0    0  501 -0.00000000000E+00 -0.00000000000E+00 -0.21764250511E+02  0.21764250511E+02  0.00000000000E+00 0.  1.
         25    2    1    2    0    0  0.12354373632E+02  0.33474163479E+02  0.29303139747E+03  0.32060595496E+03  0.12509048038E+03 0.  0.
         23    2    1    2    0    0 -0.12354373632E+02 -0.33474163479E+02  0.28666001816E+03  0.30261396170E+03  0.90155940644E+02 0.  0.
          5    1    3    3  502    0 -0.39730917469E+02  0.57964724995E+02  0.13290372401E+03  0.15039723203E+03  0.41800000000E+01 0.  1.
         -5    1    3    3    0  502  0.52085291101E+02 -0.24490561517E+02  0.16012767346E+03  0.17020872292E+03  0.41800000000E+01 0.  1.
        -11    1    4    4    0    0  0.28962323506E+02  0.72506720658E+01  0.44400744322E+02  0.53505275671E+02  0.00000000000E+00 0.  1.
         11    1    4    4    0    0 -0.41316697138E+02 -0.40724835544E+02  0.24225927384E+03  0.24910868603E+03  0.00000000000E+00 0. -1.
</event>
<event>
 8    1  0.6703334E-009  0.1594116E+03  0.7561462E-02  0.1189363E+00
          1   -1    0    0  501    0  0.00000000000E+00  0.00000000000E+00  0.36135597173E+03  0.36135597173E+03  0.00000000000E+00 0. -1.
         -1   -1    0    0    0  501 -0.00000000000E+00 -0.00000000000E+00 -0.11371702033E+03  0.11371702033E+03  0.00000000000E+00 0.  1.
         25    2    1    2    0    0 -0.48688307486E+02 -0.11380770111E+03 -0.80580963295E+01  0.17618625653E+03  0.12511562634E+03 0.  0.
         23    2    1    2    0    0  0.48688307486E+02  0.11380770111E+03  0.25569704773E+03  0.29888673553E+03  0.92895405371E+02 0.  0.
          5    1    3    3  502    0 -0.73808569472E+02 -0.34966426846E+02 -0.35155876223E+02  0.89015526550E+02  0.41800000000E+01 0.  1.
         -5    1    3    3    0  502  0.25120261986E+02 -0.78841274263E+02  0.27097779893E+02  0.87170729977E+02  0.41800000000E+01 0.  1.
        -11    1    4    4    0    0  0.43763788441E+02  0.36404714571E+01  0.84839009475E+02  0.95531040714E+02  0.00000000000E+00 0. -1.
         11    1    4    4    0    0  0.49245190451E+01  0.11016722965E+03  0.17085803825E+03  0.20335569481E+03  0.00000000000E+00 0.  1.
</event>
<event>
 8    1  0.6703334E-009  0.1115215E+03  0.7561462E-02  0.1257778E+00
         -1   -1    0    0    0  501 -0.00000000000E+00  0.00000000000E+00  0.25263715350E+03  0.25263715350E+03  0.00000000000E+00 0.  1.
          1   -1    0    0  501    0  0.00000000000E+00 -0.00000000000E+00 -0.79795608384E+02  0.79795608384E+02  0.00000000000E+00 0. -1.
         25    2    1    2    0    0  0.75571052384E+02  0.50637196888E+02  0.10534022857E+03  0.18713396531E+03  0.12508975798E+03 0.  0.
         23    2    1    2    0    0 -0.75571052384E+02 -0.50637196888E+02  0.67501316547E+02  0.14529879657E+03  0.90995620133E+02 0.  0.
          5    1    3    3  502    0 -0.14679254318E+01 -0.19345110871E+02 -0.17229902975E+02  0.26281744162E+02  0.41800000000E+01 0. -1.
         -5    1    3    3    0  502  0.77038977816E+02  0.69982307758E+02  0.12257013155E+03  0.16085222115E+03  0.41800000000E+01 0. -1.
        -11    1    4    4    0    0 -0.12130011881E+02  0.64066845600E+01  0.57832212802E+02  0.59436921462E+02  0.00000000000E+00 0.  1.
         11    1    4    4    0    0 -0.63441040503E+02 -0.57043881448E+02  0.96691037446E+01  0.85861875113E+02  0.00000000000E+00 0. -1.
</event>
<event>
 7    1  0.6703334E-009  0.1582827E+03  0.7561462E-02  0.1190649E+00
          1   -1    0    0  501    0  0.00000000000E+00  0.00000000000E+00  0.41113122525E+03  0.41113122525E+03  0.00000000000E+00 0. -1.
         -1   -1    0    0    0  501 -0.00000000000E+00 -0.00000000000E+00 -0.85052278976E+02  0.85052278976E+02  0.00000000000E+00 0.  1.
         23    2    1    2    0    0 -0.19733364930E+02  0.14006443645E+03  0.80804719279E+02  0.18661518873E+03  0.91040507230E+02 0.  0.
          5    1    1    2  502    0 -0.86146794076E+01 -0.79292491237E+00  0.11904757378E+03  0.11943466270E+03  0.41800000000E+01 0. -1.
         -5    1    1    2    0  502  0.28348044337E+02 -0.13927151154E+03  0.12622665322E+03  0.19013365280E+03  0.41800000000E+01 0. -1.
        -11    1    3    3    0    0  0.33316414740E+02  0.46362518411E+02  0.10584018511E+02  0.58064516293E+02  0.00000000000E+00 0.  1.
         11    1    3    3    0    0 -0.53049779669E+02  0.93701918042E+02  0.70220700768E+02  0.12855067244E+03  0.00000000000E+00 0. -1.
</event>
<event>
 8    1  0.6703334E-009  0.1087872E+03  0.7561462E-02  0.1262832E+00
         -2   -1    0    0    0  501 -0.00000000000E+00  0.00000000000E+00  0.10719256611E+03  0.10719256611E+03  0.00000000000E+00 0.  1.
          2   -1    0    0  501    0  0.00000000000E+00 -0.00000000000E+00 -0.39517445262E+03  0.39517445262E+03  0.00000000000E+00 0. -1.
         25    2    1    2    0    0  0.33824272080E+02  0.94185586936E+02  0.24406572117E+02  0.16204321137E+03  0.12508922983E+03 0.  0.
         23    2    1    2    0    0 -0.33824272080E+02 -0.94185586936E+02 -0.31238845863E+03  0.34032380737E+03  0.90657259005E+02 0.  0.
          5    1    3    3  502    0  0.68534917126E+01  0.86859660117E+02  0.67647839414E+02  0.11038692623E+03  0.41800000000E+01 0.  1.
         -5    1    3    3    0  502  0.26970780367E+02  0.73259268194E+01 -0.43241267297E+02  0.51656285143E+02  0.41800000000E+01 0.  1.
        -11    1    4    4    0    0 -0.27396741843E+02 -0.46514216660E+02 -0.50060547145E+02  0.73622090405E+02  0.00000000000E+00 0.  1.
         11    1    4    4    0    0 -0.64275302368E+01 -0.47671370276E+02 -0.26232791148E+03  0.26670171696E+03  0.00000000000E+00 0. -1.
</event>
<event>
 8    1  0.6703334E-009  0.1113606E+03  0.7561462E-02  0.1258071E+00
          2   -1    0    0  501    0  0.00000000000E+00  0.00000000000E+00  0.73312428797E+03  0.73312428797E+03  0.00000000000E+00 0. -1.
         -2   -1    0    0    0  501 -0.00000000000E+00 -0.00000000000E+00 -0.26388976417E+02  0.26388976417E+02  0.00000000000E+00 0.  1.
         25    2    1    2    0    0  0.77262559286E+02 -0.22493650850E+02  0.47308723721E+03  0.49591800162E+03  0.12509061886E+03 0.  0.
         23    2    1    2    0    0 -0.77262559286E+02  0.22493650850E+02  0.23364807434E+03  0.26359526276E+03  0.91736429574E+02 0.  0.
          5    1    3    3  502    0  0.61741580597E+02 -0.43988698387E+02  0.12125791128E+03  0.14306635457E+03  0.41800000000E+01 0.  1.
         -5    1    3    3    0  502  0.15520978688E+02  0.21495047537E+02  0.35182932593E+03  0.35285164706E+03  0.41800000000E+01 0.  1.
        -11    1    4    4    0    0 -0.88901788654E+02  0.41152801653E+02  0.20724893998E+03  0.22923613204E+03  0.00000000000E+00 0.  1.
         11    1    4    4    0    0  0.11639229368E+02 -0.18659150802E+02  0.26399134360E+02  0.34359130721E+02  0.00000000000E+00 0. -1.
</event>
<event>
 8    1  0.6703334E-009  0.9002544E+02  0.7561462E-02  0.1302790E+00
         -2   -1    0    0    0  501 -0.00000000000E+00  0.00000000000E+00  0.70427149505E+02  0.70427149505E+02  0.00000000000E+00 0.  1.
          2   -1    0    0  501    0  0.00000000000E+00 -0.00000000000E+00 -0.19038035960E+03  0.19038035960E+03  0.00000000000E+00 0. -1.
         25    2    1    2    0    0  0.24821476592E+02 -0.18656705924E+02 -0.38030536485E+02  0.13438585383E+03  0.12509619350E+03 0.  0.
         23    2    1    2    0    0 -0.24821476592E+02  0.18656705924E+02 -0.81922673609E+02  0.12642165527E+03  0.91142372664E+02 0.  0.
          5    1    3    3  502    0  0.81914062305E+01  0.39956893835E+02 -0.57200283867E+02  0.70377534593E+02  0.41800000000E+01 0.  1.
         -5    1    3    3    0  502  0.16630070361E+02 -0.58613599759E+02  0.19169747382E+02  0.64008319237E+02  0.41800000000E+01 0.  1.
        -11    1    4    4    0    0 -0.43277933954E+02  0.33147516475E+02 -0.16558302849E+02  0.56972930494E+02  0.00000000000E+00 0.  1.
         11    1    4    4    0    0  0.18456457362E+02 -0.14490810551E+02 -0.65364370759E+02  0.69448724780E+02  0.00000000000E+00 0. -1.
</event>
<event>
 8    1  0.6703334E-009  0.1082067E+03  0.7561462E-02  0.1263927E+00
          2   -1    0    0  501    0  0.00000000000E+00  0.00000000000E+00  0.29764465841E+03  0.29764465841E+03  0.00000000000E+00 0. -1.
         -2   -1    0    0    0  501 -0.00000000000E+00 -0.00000000000E+00 -0.57504167635E+02  0.57504167635E+02  0.00000000000E+00 0.  1.
         25    2    1    2    0    0  0.40480928340E+02 -0.57172641115E+00  0.21513744386E+03  0.25213279599E+03  0.12509114531E+03 0.  0.
         23    2    1    2    0    0 -0.40480928340E+02  0.57172641115E+00  0.25003046910E+02  0.10301603005E+03  0.91368034135E+02 0.  0.
          5    1    3    3  502    0  0.79889121927E+02  0.18460868291E+02  0.10321582145E+03  0.13188651810E+03  0.41800000000E+01 0. -1.
         -5    1    3    3    0  502 -0.39408193587E+02 -0.19032594702E+02  0.11192162241E+03  0.12024627789E+03  0.41800000000E+01 0. -1.
        -11    1    4    4    0    0 -0.20252055611E+02  0.40672545995E+02 -0.94518639644E+01  0.46408398879E+02  0.00000000000E+00 0.  1.
         11    1    4    4    0    0 -0.20228872729E+02 -0.40100819584E+02  0.34454910874E+02  0.56607631169E+02  0.00000000000E+00 0. -1.
</event>
<event>
 8    1  0.6703334E-009  0.1116290E+03  0.7561462E-02  0.1257583E+00
         -3   -1    0    0    0  501 -0.00000000000E+00  0.00000000000E+00  0.20754548916E+02  0.20754548916E+02  0.00000000000E+00 0.  1.
          3   -1    0    0  501    0  0.00000000000E+00 -0.00000000000E+00 -0.74890382041E+03  0.74890382041E+03  0.00000000000E+00 0. -1.
         25    2    1    2    0    0  0.56818570602E+02 -0.20196590945E+02 -0.45082804283E+03  0.47173118270E+03  0.12509249488E+03 0.  0.
         23    2    1    2    0    0 -0.56818570602E+02  0.20196590945E+02 -0.27732122866E+03  0.29792718663E+03  0.90649282481E+02 0.  0.
          5    1    3    3  502    0 -0.36824132409E+02  0.26680667404E+01 -0.19069760236E+03  0.19428376992E+03  0.41800000000E+01 0. -1.
         -5    1    3    3    0  502  0.93642703011E+02 -0.22864657685E+02 -0.26013044047E+03  0.27744741278E+03  0.41800000000E+01 0. -1.
        -11    1    4    4    0    0 -0.65315991028E+02  0.33826387855E+02 -0.27076637579E+03  0.28057946015E+03  0.00000000000E+00 0. -1.
         11    1    4    4    0    0  0.84974204262E+01 -0.13629796910E+02 -0.65548528685E+01  0.17347726475E+02  0.00000000000E+00 0.  1.
</event>
<event>
 8    1  0.6703334E-009  0.1186508E+03  0.7561462E-02  0.1245339E+00
          1   -1    0    0  501    0  0.00000000000E+00  0.00000000000E+00  0.46667213986E+02  0.46667213986E+02  0.00000000000E+00 0. -1.
         -1   -1    0    0    0  501 -0.00000000000E+00 -0.00000000000E+00 -0.47151547214E+03  0.47151547214E+03  0.00000000000E+00 0.  1.
         25    2    1    2    0    0  0.85826642209E+02  0.50905925319E+02 -0.20743173585E+03  0.26197853499E+03  0.12508877651E+03 0.  0.
         23    2    1    2    0    0 -0.85826642209E+02 -0.50905925319E+02 -0.21741652230E+03  0.25620415114E+03  0.91722391734E+02 0.  0.
          5    1    3    3  502    0  0.42942160887E+02  0.59464336828E+02 -0.30283058192E+02  0.79464284741E+02  0.41800000000E+01 0. -1.
         -5    1    3    3    0  502  0.42884481322E+02 -0.85584115092E+01 -0.17714867766E+03  0.18251425025E+03  0.41800000000E+01 0. -1.
        -11    1    4    4    0    0 -0.34754448527E+02  0.13866955870E+02 -0.13306060260E+03  0.13822188004E+03  0.00000000000E+00 0. -1.
         11    1    4    4    0    0 -0.51072193682E+02 -0.64772881189E+02 -0.84355919704E+02  0.11798227110E+03  0.00000000000E+00 0.  1.
</event>
<event>
 8    1  0.6703334E-009  0.1727363E+03  0.7561462E-02  0.1175024E+00
         -1   -1    0    0    0  501 -0.00000000000E+00  0.00000000000E+00  0.81754543925E+02  0.81754543925E+02  0.00000000000E+00 0.  1.
          1   -1    0    0  501    0  0.00000000000E+00 -0.00000000000E+00 -0.42484445101E+03  0.42484445101E+03  0.00000000000E+00 0. -1.
         25    2    1    2    0    0 -0.13357418988E+03 -0.58032018969E+02 -0.12731451142E+03  0.23036058494E+03  0.12508890779E+03 0.  0.
         23    2    1    2    0    0  0.13357418988E+03  0.58032018969E+02 -0.21577539567E+03  0.27623840999E+03  0.92405943273E+02 0.  0.
          5    1    3    3  502    0 -0.39549620639E+02 -0.84598439681E+02 -0.72102466378E+02  0.11805637021E+03  0.41800000000E+01 0.  1.
         -5    1    3    3    0  502 -0.94024569238E+02  0.26566420712E+02 -0.55212045040E+02  0.11230421474E+03  0.41800000000E+01 0.  1.
        -11    1    4    4    0    0  0.44240399409E+02  0.46397959297E+02 -0.32182368634E+02  0.71733453965E+02  0.00000000000E+00 0.  1.
         11    1    4    4    0    0  0.89333790468E+02  0.11634059671E+02 -0.18359302704E+03  0.20450495603E+03  0.00000000000E+00 0. -1.
</event>
<event>
 8    1  0.6703334E-009  0.2175423E+03  0.7561462E-02  0.1135729E+00
          2   -1    0    0  501    0  0.00000000000E+00  0.00000000000E+00  0.67629783979E+03  0.67629783979E+03  0.00000000000E+00 0. -1.
         -2   -1    0    0    0  501 -0.00000000000E+00 -0.00000000000E+00 -0.13091283306E+03  0.13091283306E+03  0.00000000000E+00 0.  1.
         25    2    1    2    0    0  0.14306037620E+03  0.14348766092E+03  0.53342898675E+03  0.58416492608E+03  0.12508875605E+03 0.  0.
         23    2    1    2    0    0 -0.14306037620E+03 -0.14348766092E+03  0.11956019988E+02  0.22304574676E+03  0.92474205372E+02 0.  0.
          5    1    3    3  502    0  0.11036256978E+02  0.86775046575E+02  0.27292603123E+03  0.28663181715E+03  0.41800000000E+01 0.  1.
         -5    1    3    3    0  502  0.13202411922E+03  0.56712614347E+02  0.26050295551E+03  0.29753310894E+03  0.41800000000E+01 0.  1.
        -11    1    4    4    0    0 -0.34687123220E+02 -0.22563949313E+02  0.40813696001E+02  0.58121305106E+02  0.00000000000E+00 0. -1.
         11    1    4    4    0    0 -0.10837325298E+03 -0.12092371161E+03 -0.28857676013E+02  0.16492444166E+03  0.00000000000E+00 0.  1.
</event>
<event>
 8    1  0.6703334E-009  0.1260014E+03  0.7561462E-02  0.1233513E+00
          2   -1    0    0  501    0  0.00000000000E+00  0.00000000000E+00  0.12215360077E+04  0.12215360077E+04  0.00000000000E+00 0. -1.
         -2   -1    0    0    0  501 -0.00000000000E+00 -0.00000000000E+00 -0.20127744831E+02  0.20127744831E+02  0.00000000000E+00 0.  1.
         25    2    1    2    0    0 -0.14776803881E+02  0.73635640035E+02  0.98486176094E+03  0.99561054204E+03  0.12508837611E+03 0.  0.
         23    2    1    2    0    0  0.14776803881E+02 -0.73635640035E+02  0.21654650189E+03  0.24605321045E+03  0.89494320925E+02 0.  0.
          5    1    3    3  502    0 -0.67988306168E+01 -0.30162571868E+02  0.10318094675E+03  0.10779510663E+03  0.41800000000E+01 0. -1.
         -5    1    3    3    0  502 -0.79779732639E+01  0.10379821190E+03  0.88168081419E+03  0.88781543541E+03  0.41800000000E+01 0. -1.
        -11    1    4    4    0    0 -0.25577896578E+02  0.69356979794E+01  0.43126114841E+02  0.50618124038E+02  0.00000000000E+00 0.  1.
         11    1    4    4    0    0  0.40354700458E+02 -0.80571338015E+02  0.17342038704E+03  0.19543508641E+03  0.00000000000E+00 0. -1.
</event>
<event>
 8    1  0.6703334E-009  0.1542697E+03  0.7561462E-02  0.1195322E+00
          1   -1    0    0  501    0  0.00000000000E+00  0.00000000000E+00  0.65972715296E+03  0.65972715296E+03  0.00000000000E+00 0. -1.
         -1   -1    0    0    0  501 -0.00000000000E+00 -0.00000000000E+00 -0.63729113566E+02  0.63729113566E+02  0.00000000000E+00 0.  1.
         25    2    1    2    0    0  0.79460939628E+01 -0.14381447416E+03  0.48149984825E+03  0.51790872070E+03  0.12506636530E+03 0.  0.
         23    2    1    2    0    0 -0.79460939628E+01  0.14381447416E+03  0.11449819115E+03  0.20554754583E+03  0.91619945604E+02 0.  0.
          5    1    3    3  502    0  0.10373984192E+02 -0.12910077343E+03  0.48501488171E+03  0.50202742667E+03  0.41800000000E+01 0. -1.
         -5    1    3    3    0  502 -0.24278902294E+01 -0.14713700725E+02 -0.35150334582E+01  0.15881294035E+02  0.41800000000E+01 0. -1.
        -11    1    4    4    0    0 -0.42300028864E+02  0.65792722455E+02  0.84572262156E+02  0.11519740577E+03  0.00000000000E+00 0. -1.
         11    1    4    4    0    0  0.34353934902E+02  0.78021751703E+02  0.29925928990E+02  0.90350140055E+02  0.00000000000E+00 0.  1.
</event>
<event>
 8    1  0.6703334E-009  0.1434415E+03  0.7561462E-02  0.1208772E+00
         -2   -1    0    0    0  501 -0.00000000000E+00  0.00000000000E+00  0.44005327078E+03  0.44005327078E+03  0.00000000000E+00 0.  1.
          2   -1    0    0  501    0  0.00000000000E+00 -0.00000000000E+00 -0.61331700476E+02  0.61331700476E+02  0.00000000000E+00 0. -1.
         25    2    1    2    0    0 -0.12163794680E+03  0.18257083793E+02  0.20330255442E+03  0.26852720783E+03  0.12508325827E+03 0.  0.
         23    2    1    2    0    0  0.12163794680E+03 -0.18257083793E+02  0.17541901588E+03  0.23285776342E+03  0.91223876513E+02 0.  0.
          5    1    3    3  502    0 -0.54192467913E+02 -0.19410034281E+02  0.77572128790E+01  0.58234180349E+02  0.41800000000E+01 0. -1.
         -5    1    3    3    0  502 -0.67445478885E+02  0.37667118074E+02  0.19554534155E+03  0.21029302748E+03  0.41800000000E+01 0. -1.
        -11    1    4    4    0    0  0.67737509006E+02 -0.54425055595E+02  0.11536036893E+03  0.14442462229E+03  0.00000000000E+00 0.  1.
         11    1    4    4    0    0  0.53900437792E+02  0.36167971802E+02  0.60058646941E+02  0.88433141134E+02  0.00000000000E+00 0. -1.
</event>
<event>
 8    1  0.6703334E-009  0.8135317E+02  0.7561462E-02  0.1325255E+00
         -1   -1    0    0    0  501 -0.00000000000E+00  0.00000000000E+00  0.63734195755E+02  0.63734195755E+02  0.00000000000E+00 0.  1.
          1   -1    0    0  501    0  0.00000000000E+00 -0.00000000000E+00 -0.18179196196E+03  0.18179196196E+03  0.00000000000E+00 0. -1.
         25    2    1    2    0    0 -0.10309191100E+01 -0.20174356994E+02 -0.90796343829E+02  0.15588481671E+03  0.12509209629E+03 0.  0.
         23    2    1    2    0    0  0.10309191100E+01  0.20174356994E+02 -0.27261422378E+02  0.89641341002E+02  0.82971786725E+02 0.  0.
          5    1    3    3  502    0 -0.56566726398E+02 -0.15655611393E+02 -0.79452666166E+02  0.98869061209E+02  0.41800000000E+01 0. -1.
         -5    1    3    3    0  502  0.55535807288E+02 -0.45187456016E+01 -0.11343677663E+02  0.57015755506E+02  0.41800000000E+01 0. -1.
        -11    1    4    4    0    0  0.22286405017E+02  0.10346362930E+02 -0.50804940239E+02  0.56434679295E+02  0.00000000000E+00 0. -1.
         11    1    4    4    0    0 -0.21255485907E+02  0.98279940646E+01  0.23543517861E+02  0.33206661707E+02  0.00000000000E+00 0.  1.
</event>
<event>
 8    1  0.6703334E-009  0.1118173E+03  0.7561462E-02  0.1257241E+00
         -3   -1    0    0    0  501 -0.00000000000E+00  0.00000000000E+00  0.27291542811E+02  0.27291542811E+02  0.00000000000E+00 0. -1.
          3   -1    0    0  501    0  0.00000000000E+00 -0.00000000000E+00 -0.67844206590E+03  0.67844206590E+03  0.00000000000E+00 0.  1.
         25    2    1    2    0    0  0.45573784866E+02 -0.42911633242E+02 -0.49304971263E+03  0.51250668836E+03  0.12508680326E+03 0.  0.
         23    2    1    2    0    0 -0.45573784866E+02  0.42911633242E+02 -0.15810081045E+03  0.19322692035E+03  0.91773625554E+02 0.  0.
          5    1    3    3  502    0 -0.32028426755E+02  0.10422086299E+02 -0.24158999220E+03  0.24396236746E+03  0.41800000000E+01 0.  1.
         -5    1    3    3    0  502  0.77602211621E+02 -0.53333719541E+02 -0.25145972043E+03  0.26854432090E+03  0.41800000000E+01 0.  1.
        -11    1    4    4    0    0 -0.22756854443E+02  0.61775879581E+02 -0.54458705069E+02  0.85439360250E+02  0.00000000000E+00 0.  1.
         11    1    4    4    0    0 -0.22816930423E+02 -0.18864246339E+02 -0.10364210538E+03  0.10778756010E+03  0.00000000000E+00 0. -1.
</event>
<event>
 8    1  0.6703334E-009  0.1006767E+03  0.7561462E-02  0.1278879E+00
         -2   -1    0    0    0  501 -0.00000000000E+00  0.00000000000E+00  0.69003977286E+02  0.69003977286E+02  0.00000000000E+00 0.  1.
          2   -1    0    0  501    0  0.00000000000E+00 -0.00000000000E+00 -0.22168435985E+03  0.22168435985E+03  0.00000000000E+00 0. -1.
         25    2    1    2    0    0  0.34667042634E+02 -0.13003379949E+02 -0.14295385434E+03  0.19353131308E+03  0.12509065887E+03 0.  0.
         23    2    1    2    0    0 -0.34667042634E+02  0.13003379949E+02 -0.97265282267E+01  0.97157024061E+02  0.89297201736E+02 0.  0.
          5    1    3    3  502    0  0.84084452442E+01  0.53451690803E+02 -0.37063371782E+02  0.65718727384E+02  0.41800000000E+01 0.  1.
         -5    1    3    3    0  502  0.26258597390E+02 -0.66455070752E+02 -0.10589048256E+03  0.12781258570E+03  0.41800000000E+01 0.  1.
        -11    1    4    4    0    0  0.14334164960E+02  0.21433693848E+02 -0.33312011621E+02  0.42125546113E+02  0.00000000000E+00 0. -1.
         11    1    4    4    0    0 -0.49001207595E+02 -0.84303138984E+01  0.23585483395E+02  0.55031477948E+02  0.00000000000E+00 0.  1.
</event>
<event>
 8    1  0.6703334E-009  0.2773873E+03  0.7561462E-02  0.1097125E+00
         -2   -1    0    0    0  501 -0.00000000000E+00  0.00000000000E+00  0.34690968710E+03  0.34690968710E+03  0.00000000000E+00 0.  1.
          2   -1    0    0  501    0  0.00000000000E+00 -0.00000000000E+00 -0.23865666061E+03  0.23865666061E+03  0.00000000000E+00 0. -1.
         25    2    1    2    0    0  0.20074641006E+03  0.16938709454E+03  0.99008271893E+02  0.30730108039E+03  0.12506081384E+03 0.  0.
         23    2    1    2    0    0 -0.20074641006E+03 -0.16938709454E+03  0.92447545977E+01  0.27826526732E+03  0.91405604629E+02 0.  0.
          5    1    3    3  502    0  0.28060678626E+02  0.77292250009E+02  0.72606450773E+02  0.10977551043E+03  0.41800000000E+01 0. -1.
         -5    1    3    3    0  502  0.17268573144E+03  0.92094844531E+02  0.26401821121E+02  0.19752556996E+03  0.41800000000E+01 0. -1.
        -11    1    4    4    0    0 -0.81025576604E+02 -0.16817296038E+02  0.15675815894E+02  0.84224086305E+02  0.00000000000E+00 0.  1.
         11    1    4    4    0    0 -0.11972083346E+03 -0.15256979850E+03 -0.64310612963E+01  0.19404118101E+03  0.00000000000E+00 0. -1.
</event>
<event>
 8    1  0.6703334E-009  0.2951064E+03  0.7561462E-02  0.1087713E+00
          2   -1    0    0  501    0  0.00000000000E+00  0.00000000000E+00  0.67586877725E+03  0.67586877725E+03  0.00000000000E+00 0. -1.
         -2   -1    0    0    0  501 -0.00000000000E+00 -0.00000000000E+00 -0.18690788973E+03  0.18690788973E+03  0.00000000000E+00 0.  1.
         25    2    1    2    0    0 -0.25399577510E+03  0.11481724370E+03  0.48368283485E+03  0.57209628191E+03  0.12509283685E+03 0.  0.
         23    2    1    2    0    0  0.25399577510E+03 -0.11481724370E+03  0.52780526717E+01  0.29068038506E+03  0.82282289688E+02 0.  0.
          5    1    3    3  502    0 -0.86455652814E+02  0.98648141450E+02  0.26861901634E+03  0.29896435248E+03  0.41800000000E+01 0. -1.
         -5    1    3    3    0  502 -0.16754012229E+03  0.16169102254E+02  0.21506381851E+03  0.27313192943E+03  0.41800000000E+01 0. -1.
        -11    1    4    4    0    0  0.15265775952E+03 -0.24012961578E+02  0.77574370473E+00  0.15453677764E+03  0.00000000000E+00 0.  1.
         11    1    4    4    0    0  0.10133801558E+03 -0.90804282127E+02  0.45023089670E+01  0.13614360742E+03  0.00000000000E+00 0. -1.
</event>
<event>
 8    1  0.6703334E-009  0.1259859E+03  0.7561462E-02  0.1233537E+00
          1   -1    0    0  501    0  0.00000000000E+00  0.00000000000E+00  0.13157144888E+03  0.13157144888E+03  0.00000000000E+00 0. -1.
         -1   -1    0    0    0  501 -0.00000000000E+00 -0.00000000000E+00 -0.12860001174E+03  0.12860001174E+03  0.00000000000E+00 0.  1.
         25    2    1    2    0    0  0.68141834341E+02 -0.23952481125E+02  0.19294742645E+02  0.14572832282E+03  0.12508967199E+03 0.  0.
         23    2    1    2    0    0 -0.68141834341E+02  0.23952481125E+02 -0.16323305506E+02  0.11444313780E+03  0.87256808032E+02 0.  0.
          5    1    3    3  502    0 -0.15378724447E+02 -0.49868832201E+02 -0.10213358527E+02  0.53340328862E+02  0.41800000000E+01 0.  1.
         -5    1    3    3    0  502  0.83520558787E+02  0.25916351077E+02  0.29508101171E+02  0.92387993960E+02  0.41800000000E+01 0.  1.
        -11    1    4    4    0    0 -0.53957831090E+02 -0.26176672862E+02 -0.17022499503E+02  0.62341248202E+02  0.00000000000E+00 0.  1.
         11    1    4    4    0    0 -0.14184003251E+02  0.50129153987E+02  0.69919399736E+00  0.52101889600E+02  0.00000000000E+00 0. -1.
</event>
<event>
 8    1  0.6703334E-009  0.9688878E+02  0.7561462E-02  0.1286978E+00
         -1   -1    0    0    0  501 -0.00000000000E+00  0.00000000000E+00  0.17644749483E+03  0.17644749483E+03  0.00000000000E+00 0.  1.
          1   -1    0    0  501    0  0.00000000000E+00 -0.00000000000E+00 -0.78376617870E+02  0.78376617870E+02  0.00000000000E+00 0. -1.
         25    2    1    2    0    0  0.25348728830E+02  0.32718763187E+02  0.34361367739E+02  0.13616524428E+03  0.12508874705E+03 0.  0.
         23    2    1    2    0    0 -0.25348728830E+02 -0.32718763187E+02  0.63709509221E+02  0.11865886842E+03  0.91147956485E+02 0.  0.
          5    1    3    3  502    0  0.47829895961E+02 -0.98893567249E+01  0.63107787858E+02  0.79909721639E+02  0.41800000000E+01 0. -1.
         -5    1    3    3    0  502 -0.22481167131E+02  0.42608119912E+02 -0.28746420119E+02  0.56255522642E+02  0.41800000000E+01 0. -1.
        -11    1    4    4    0    0 -0.54909298194E+02 -0.37449837123E+02  0.57935110255E+02  0.88170280305E+02  0.00000000000E+00 0. -1.
         11    1    4    4    0    0  0.29560569365E+02  0.47310739357E+01  0.57743989651E+01  0.30488588113E+02  0.00000000000E+00 0.  1.
</event>
<event>
 8    1  0.6703334E-009  0.2049886E+03  0.7561462E-02  0.1145597E+00
          2   -1    0    0  501    0  0.00000000000E+00  0.00000000000E+00  0.71060752258E+03  0.71060752258E+03  0.00000000000E+00 0.  1.
         -2   -1    0    0    0  501 -0.00000000000E+00 -0.00000000000E+00 -0.80406320253E+02  0.80406320253E+02  0.00000000000E+00 0. -1.
         25    2    1    2    0    0  0.12182867845E+03  0.15022269525E+03  0.17883063368E+03  0.29161154801E+03  0.12509122402E+03 0.  0.
         23    2    1    2    0    0 -0.12182867845E+03 -0.15022269525E+03  0.45137056864E+03  0.49940229482E+03  0.90874511162E+02 0.  0.
          5    1    3    3  502    0 -0.97963698210E+00  0.68269618517E+02  0.10791364083E+03  0.12776747152E+03  0.41800000000E+01 0. -1.
         -5    1    3    3    0  502  0.12280831543E+03  0.81953076734E+02  0.70916992854E+02  0.16384407649E+03  0.41800000000E+01 0. -1.
        -11    1    4    4    0    0 -0.94933786895E+02 -0.10781158232E+03  0.40967092118E+03  0.43412673822E+03  0.00000000000E+00 0.  1.
         11    1    4    4    0    0 -0.26894891553E+02 -0.42411112931E+02  0.41699647463E+02  0.65275556606E+02  0.00000000000E+00 0. -1.
</event>
<event>
 8    1  0.6703334E-009  0.1496510E+03  0.7561462E-02  0.1200903E+00
          2   -1    0    0  501    0  0.00000000000E+00  0.00000000000E+00  0.94200586682E+03  0.94200586682E+03  0.00000000000E+00 0. -1.
         -2   -1    0    0    0  501 -0.00000000000E+00 -0.00000000000E+00 -0.46654928484E+02  0.46654928484E+02  0.00000000000E+00 0.  1.
         25    2    1    2    0    0  0.11513763942E+03  0.22639674924E+02  0.79296143400E+03  0.81129807359E+03  0.12508995765E+03 0.  0.
         23    2    1    2    0    0 -0.11513763942E+03 -0.22639674924E+02  0.10238950434E+03  0.17736272172E+03  0.84880466332E+02 0.  0.
          5    1    3    3  502    0  0.21542954428E+02  0.54795436334E+02  0.15816796851E+03  0.16882303573E+03  0.41800000000E+01 0. -1.
         -5    1    3    3    0  502  0.93594684992E+02 -0.32155761410E+02  0.63479346549E+03  0.64247503786E+03  0.41800000000E+01 0. -1.
        -11    1    4    4    0    0 -0.93862891434E+02 -0.50170454385E+02  0.58808893402E+02  0.12159688658E+03  0.00000000000E+00 0.  1.
         11    1    4    4    0    0 -0.21274747986E+02  0.27530779461E+02  0.43580610936E+02  0.55765835142E+02  0.00000000000E+00 0. -1.
</event>
<event>
 7    1  0.6703334E-009  0.1818795E+03  0.7561462E-02  0.1165996E+00
          2   -1    0    0  501    0  0.00000000000E+00  0.00000000000E+00  0.30000791768E+04  0.30000791768E+04  0.00000000000E+00 0.  1.
         -2   -1    0    0    0  501 -0.00000000000E+00 -0.00000000000E+00 -0.14634581054E+02  0.14634581054E+02  0.00000000000E+00 0. -1.
         23    2    1    2    0    0  0.10907700631E+03  0.94659661254E+02  0.73548018455E+03  0.75666191061E+03  0.10367208068E+03 0.  0.
          5    1    1    2  502    0 -0.54688361631E+02  0.22290333846E+02  0.54352075117E+03  0.54673572705E+03  0.41800000000E+01 0.  1.
         -5    1    1    2    0  502 -0.54388644682E+02 -0.11694999510E+03  0.17064436600E+04  0.17113161202E+04  0.41800000000E+01 0.  1.
        -11    1    3    3    0    0  0.10643531062E+03  0.29708349152E+02  0.51894082595E+03  0.53057576480E+03  0.00000000000E+00 0.  1.
         11    1    3    3    0    0  0.26416956929E+01  0.64951312102E+02  0.21653935860E+03  0.22608614580E+03  0.00000000000E+00 0. -1.
</event>
<event>
 8    1  0.6703334E-009  0.2427606E+03  0.7561462E-02  0.1117967E+00
         -1   -1    0    0    0  501 -0.00000000000E+00  0.00000000000E+00  0.16446879482E+03  0.16446879482E+03  0.00000000000E+00 0.  1.
          1   -1    0    0  501    0  0.00000000000E+00 -0.00000000000E+00 -0.40903745367E+03  0.40903745367E+03  0.00000000000E+00 0. -1.
         25    2    1    2    0    0 -0.88103181787E+02 -0.20853553432E+03 -0.19604965390E+03  0.32454956530E+03  0.12509082230E+03 0.  0.
         23    2    1    2    0    0  0.88103181787E+02  0.20853553432E+03 -0.48519004947E+02  0.24895668319E+03  0.91521016990E+02 0.  0.
          5    1    3    3  502    0 -0.10573378551E+03 -0.19395639730E+03 -0.20324261295E+03  0.30020617844E+03  0.41800000000E+01 0. -1.
         -5    1    3    3    0  502  0.17630603724E+02 -0.14579137022E+02  0.71929590483E+01  0.24343386861E+02  0.41800000000E+01 0. -1.
        -11    1    4    4    0    0  0.76353782994E+02  0.74186655756E+02 -0.25968931522E+01  0.10649086310E+03  0.00000000000E+00 0. -1.
         11    1    4    4    0    0  0.11749398793E+02  0.13434887856E+03 -0.45922111795E+02  0.14246582010E+03  0.00000000000E+00 0.  1.
</event>
<event>
 8    1  0.6703334E-009  0.4166980E+03  0.7561462E-02  0.1038146E+00
         -2   -1    0    0    0  501 -0.00000000000E+00  0.00000000000E+00  0.59227537090E+03  0.59227537090E+03  0.00000000000E+00 0.  1.
          2   -1    0    0  501    0  0.00000000000E+00 -0.00000000000E+00 -0.45823031572E+03  0.45823031572E+03  0.00000000000E+00 0. -1.
         25    2    1    2    0    0  0.30279894762E+03 -0.27960967053E+03  0.36917481460E+03  0.56728004109E+03  0.12509128968E+03 0.  0.
         23    2    1    2    0    0 -0.30279894762E+03  0.27960967053E+03 -0.23512975941E+03  0.48322564553E+03  0.91390646128E+02 0.  0.
          5    1    3    3  502    0  0.16075572601E+03 -0.20189334192E+03  0.16370197033E+03  0.30564543583E+03  0.41800000000E+01 0. -1.
         -5    1    3    3    0  502  0.14204322161E+03 -0.77716328615E+02  0.20547284426E+03  0.26163460526E+03  0.41800000000E+01 0. -1.
        -11    1    4    4    0    0 -0.19457236759E+03  0.15905218208E+03 -0.93828522702E+02  0.26825322836E+03  0.00000000000E+00 0.  1.
         11    1    4    4    0    0 -0.10822658003E+03  0.12055748845E+03 -0.14130123671E+03  0.21497241716E+03  0.00000000000E+00 0. -1.
</event>
<event>
 8    1  0.6703334E-009  0.1177925E+03  0.7561462E-02  0.1246784E+00
          2   -1    0    0  501    0  0.00000000000E+00  0.00000000000E+00  0.40616382361E+02  0.40616382361E+02  0.00000000000E+00 0. -1.
         -2   -1    0    0    0  501 -0.00000000000E+00 -0.00000000000E+00 -0.66913953391E+03  0.66913953391E+03  0.00000000000E+00 0.  1.
         25    2    1    2    0    0  0.83499852661E+02  0.11872224271E+02 -0.53064906862E+03  0.55167750293E+03  0.12508580296E+03 0.  0.
         23    2    1    2    0    0 -0.83499852661E+02 -0.11872224271E+02 -0.97874082924E+02  0.15807841334E+03  0.91083881961E+02 0.  0.
          5    1    3    3  502    0  0.38077270196E+02  0.52077540070E+02 -0.42410457500E+03  0.42900362658E+03  0.41800000000E+01 0. -1.
         -5    1    3    3    0  502  0.45422582464E+02 -0.40205315799E+02 -0.10654449363E+03  0.12267387635E+03  0.41800000000E+01 0. -1.
        -11    1    4    4    0    0 -0.94996544286E+02 -0.20620704959E+01 -0.48976597178E+02  0.10689856235E+03  0.00000000000E+00 0. -1.
         11    1    4    4    0    0  0.11496691626E+02 -0.98101537753E+01 -0.48897485746E+02  0.51179850994E+02  0.00000000000E+00 0.  1.
</event>
<event>
 8    1  0.6703334E-009  0.6436390E+02  0.7561462E-02  0.1380380E+00
         -1   -1    0    0    0  501 -0.00000000000E+00  0.00000000000E+00  0.36016542744E+02  0.36016542744E+02  0.00000000000E+00 0.  1.
          1   -1    0    0  501    0  0.00000000000E+00 -0.00000000000E+00 -0.38308963774E+03  0.38308963774E+03  0.00000000000E+00 0. -1.
         25    2    1    2    0    0  0.67667921481E+01 -0.34708718838E+02 -0.25803515235E+03  0.28892761146E+03  0.12508613102E+03 0.  0.
         23    2    1    2    0    0 -0.67667921481E+01  0.34708718838E+02 -0.89037942645E+02  0.13017856903E+03  0.88137506003E+02 0.  0.
          5    1    3    3  502    0 -0.19612345630E+02 -0.55699009913E+02 -0.48140912110E+02  0.76302317299E+02  0.41800000000E+01 0.  1.
         -5    1    3    3    0  502  0.26379137778E+02  0.20990291075E+02 -0.20989424024E+03  0.21262529416E+03  0.41800000000E+01 0.  1.
        -11    1    4    4    0    0 -0.43258038970E+01  0.12712761648E+02  0.17108710056E+02  0.21749364309E+02  0.00000000000E+00 0.  1.
         11    1    4    4    0    0 -0.24409882511E+01  0.21995957190E+02 -0.10614665270E+03  0.10842920472E+03  0.00000000000E+00 0. -1.
</event>
<event>
 8    1  0.6703334E-009  0.1413413E+03  0.7561462E-02  0.1211535E+00
         -1   -1    0    0    0  501 -0.00000000000E+00  0.00000000000E+00  0.16978037745E+03  0.16978037745E+03  0.00000000000E+00 0.  1.
          1   -1    0    0  501    0  0.00000000000E+00 -0.00000000000E+00 -0.15548448808E+03  0.15548448808E+03  0.00000000000E+00 0. -1.
         25    2    1    2    0    0 -0.33921651548E+02 -0.84589376357E+02 -0.69714167237E+02  0.16974618180E+03  0.12509060750E+03 0.  0.
         23    2    1    2    0    0  0.33921651548E+02  0.84589376357E+02  0.84010056610E+02  0.15551868373E+03  0.93927260908E+02 0.  0.
          5    1    3    3  502    0 -0.49606379960E+02 -0.11078375048E+03 -0.42628657664E+02  0.12871871332E+03  0.41800000000E+01 0. -1.
         -5    1    3    3    0  502  0.15684728412E+02  0.26194374126E+02 -0.27085509573E+02  0.41027468482E+02  0.41800000000E+01 0. -1.
        -11    1    4    4    0    0 -0.31885290576E+02  0.17231851637E+02  0.17614860638E+02  0.40297540636E+02  0.00000000000E+00 0. -1.
         11    1    4    4    0    0  0.65806942125E+02  0.67357524719E+02  0.66395195972E+02  0.11522114310E+03  0.00000000000E+00 0.  1.
</event>
<event>
 8    1  0.6703334E-009  0.1021631E+03  0.7561462E-02  0.1275812E+00
         -2   -1    0    0    0  501 -0.00000000000E+00  0.00000000000E+00  0.72727903815E+02  0.72727903815E+02  0.00000000000E+00 0.  1.
          2   -1    0    0  501    0  0.00000000000E+00 -0.00000000000E+00 -0.31707106325E+03  0.31707106325E+03  0.00000000000E+00 0. -1.
         25    2    1    2    0    0  0.19595259618E+02  0.15295332317E+02 -0.34248288481E+00  0.12752732954E+03  0.12508069833E+03 0.  0.
         23    2    1    2    0    0 -0.19595259618E+02 -0.15295332317E+02 -0.24400067655E+03  0.26227163753E+03  0.92909419892E+02 0.  0.
          5    1    3    3  502    0  0.67636905308E+02  0.50493694623E+01 -0.24998248144E+02  0.72406021171E+02  0.41800000000E+01 0.  1.
         -5    1    3    3    0  502 -0.48041645690E+02  0.10245962855E+02  0.24655765259E+02  0.55121308366E+02  0.41800000000E+01 0.  1.
        -11    1    4    4    0    0  0.32506236076E+02  0.87977092311E+00 -0.15090508734E+03  0.15436895661E+03  0.00000000000E+00 0. -1.
         11    1    4    4    0    0 -0.52101495693E+02 -0.16175103240E+02 -0.93095589208E+02  0.10790268091E+03  0.00000000000E+00 0.  1.
</event>
<event>
 8    1  0.6703334E-009  0.1185675E+03  0.7561462E-02  0.1245479E+00
          2   -1    0    0  501    0  0.00000000000E+00  0.00000000000E+00  0.28299831298E+03  0.28299831298E+03  0.00000000000E+00 0. -1.
         -2   -1    0    0    0  501 -0.00000000000E+00 -0.00000000000E+00 -0.67273754732E+02  0.67273754732E+02  0.00000000000E+00 0.  1.
         25    2    1    2    0    0  0.54461704519E+02 -0.52428239030E+02  0.69301872704E+02  0.16175950339E+03  0.12509432389E+03 0.  0.
         23    2    1    2    0    0 -0.54461704519E+02  0.52428239030E+02  0.14642268554E+03  0.18851256433E+03  0.91556466509E+02 0.  0.
          5    1    3    3  502    0 -0.87278887646E+00  0.37095687223E+02  0.34479491207E+02  0.50824792030E+02  0.41800000000E+01 0. -1.
         -5    1    3    3    0  502  0.55334493395E+02 -0.89523926253E+02  0.34822381498E+02  0.11093471136E+03  0.41800000000E+01 0. -1.
        -11    1    4    4    0    0 -0.33020976814E+02 -0.47870072138E+01  0.11512456764E+03  0.11986228107E+03  0.00000000000E+00 0. -1.
         11    1    4    4    0    0 -0.21440727705E+02  0.57215246243E+02  0.31298117902E+02  0.68650283258E+02  0.00000000000E+00 0.  1.
</event>
<event>
 8    1  0.6703334E-009  0.1803272E+03  0.7561462E-02  0.1167487E+00
         -2   -1    0    0    0  501 -0.00000000000E+00  0.00000000000E+00  0.35179243375E+02  0.35179243375E+02  0.00000000000E+00 0.  1.
          2   -1    0    0  501    0  0.00000000000E+00 -0.00000000000E+00 -0.14879118985E+04  0.14879118985E+04  0.00000000000E+00 0. -1.
         25    2    1    2    0    0 -0.72536766510E+02  0.12618727907E+03 -0.12202489002E+04  0.12352488076E+04  0.12508967289E+03 0.  0.
         23    2    1    2    0    0  0.72536766510E+02 -0.12618727907E+03 -0.23248375491E+03  0.28784233429E+03  0.87290899981E+02 0.  0.
          5    1    3    3  502    0  0.34389276825E+02  0.47907234754E+02 -0.34993330465E+03  0.35489225915E+03  0.41800000000E+01 0.  1.
         -5    1    3    3    0  502 -0.10692604334E+03  0.78280044314E+02 -0.87031559553E+03  0.88035654840E+03  0.41800000000E+01 0.  1.
        -11    1    4    4    0    0 -0.39234965626E+01 -0.79009445484E+02 -0.12257228216E+03  0.14588300331E+03  0.00000000000E+00 0.  1.
         11    1    4    4    0    0  0.76460263072E+02 -0.47177833583E+02 -0.10991147275E+03  0.14195933098E+03  0.00000000000E+00 0. -1.
</event>
<event>
 8    1  0.6703334E-009  0.8956814E+02  0.7561462E-02  0.1303901E+00
         -1   -1    0    0    0  501 -0.00000000000E+00  0.00000000000E+00  0.21818992439E+02  0.21818992439E+02  0.00000000000E+00 0.  1.
          1   -1    0    0  501    0  0.00000000000E+00 -0.00000000000E+00 -0.52297741828E+03  0.52297741828E+03  0.00000000000E+00 0. -1.
         25    2    1    2    0    0  0.30168732805E+02  0.51927718814E+01 -0.30364180855E+03  0.32982077635E+03  0.12508508821E+03 0.  0.
         23    2    1    2    0    0 -0.30168732805E+02 -0.51927718814E+01 -0.19751661730E+03  0.21497563438E+03  0.79149175290E+02 0.  0.
          5    1    3    3  502    0 -0.67250233023E+01  0.47195449673E+02 -0.24121556175E+03  0.24591676648E+03  0.41800000000E+01 0. -1.
         -5    1    3    3    0  502  0.36893756107E+02 -0.42002677792E+02 -0.62426246801E+02  0.83904009863E+02  0.41800000000E+01 0. -1.
        -11    1    4    4    0    0 -0.51451967142E+02 -0.12078548034E+02 -0.83756847985E+02  0.99037396118E+02  0.00000000000E+00 0.  1.
         11    1    4    4    0    0  0.21283234337E+02  0.68857761523E+01 -0.11375976931E+03  0.11593823826E+03  0.00000000000E+00 0. -1.
</event>
<event>
 8    1  0.6703334E-009  0.1177169E+03  0.7561462E-02  0.1246912E+00
          1   -1    0    0  501    0  0.00000000000E+00  0.00000000000E+00  0.86825586816E+03  0.86825586816E+03  0.00000000000E+00 0. -1.
         -1   -1    0    0    0  501 -0.00000000000E+00 -0.00000000000E+00 -0.17286785574E+02  0.17286785574E+02  0.00000000000E+00 0.  1.
         25    2    1    2    0    0  0.12990373409E+02  0.47145216687E+02  0.37774834326E+03  0.40091402942E+03  0.12508727709E+03 0.  0.
         23    2    1    2    0    0 -0.12990373409E+02 -0.47145216687E+02  0.47322073932E+03  0.48462862431E+03  0.92388387377E+02 0.  0.
          5    1    3    3  502    0  0.52117194507E+02  0.70912764556E+02  0.23683447800E+03  0.25269124343E+03  0.41800000000E+01 0. -1.
         -5    1    3    3    0  502 -0.39126821098E+02 -0.23767547869E+02  0.14091386527E+03  0.14822278599E+03  0.41800000000E+01 0. -1.
        -11    1    4    4    0    0 -0.21073277840E+02  0.22743148857E+02  0.95357307697E+02  0.10027138171E+03  0.00000000000E+00 0.  1.
         11    1    4    4    0    0  0.80829044307E+01 -0.69888365545E+02  0.37786343162E+03  0.38435724260E+03  0.00000000000E+00 0. -1.
</event>
<event>
 8    1  0.6703334E-009  0.1178296E+03  0.7561462E-02  0.1246721E+00
         -2   -1    0    0    0  501 -0.00000000000E+00  0.00000000000E+00  0.16652640070E+02  0.16652640070E+02  0.00000000000E+00 0.  1.
          2   -1    0    0  501    0  0.00000000000E+00 -0.00000000000E+00 -0.10841748934E+04  0.10841748934E+04  0.00000000000E+00 0. -1.
         25    2    1    2    0    0  0.38784274938E+02 -0.55842971159E+02 -0.77848196313E+03  0.79139345780E+03  0.12508709252E+03 0.  0.
         23    2    1    2    0    0 -0.38784274938E+02  0.55842971159E+02 -0.28904029024E+03  0.30943407571E+03  0.87077554052E+02 0.  0.
          5    1    3    3  502    0  0.21897695178E+02  0.33860083050E+02 -0.12143341245E+03  0.12802171822E+03  0.41800000000E+01 0.  1.
         -5    1    3    3    0  502  0.16886579760E+02 -0.89703054209E+02 -0.65704855068E+03  0.66337173957E+03  0.41800000000E+01 0.  1.
        -11    1    4    4    0    0 -0.12783044886E+02 -0.19906302763E+02 -0.12092125805E+03  0.12321370774E+03  0.00000000000E+00 0. -1.
         11    1    4    4    0    0 -0.26001230052E+02  0.75749273922E+02 -0.16811903219E+03  0.18622036797E+03  0.00000000000E+00 0.  1.
</event>
<event>
 8    1  0.6703334E-009  0.9363819E+02  0.7561462E-02  0.1294273E+00
          2   -1    0    0  501    0  0.00000000000E+00  0.00000000000E+00  0.76049476099E+03  0.76049476099E+03  0.00000000000E+00 0.  1.
         -2   -1    0    0    0  501 -0.00000000000E+00 -0.00000000000E+00 -0.18124710689E+02  0.18124710689E+02  0.00000000000E+00 0. -1.
         25    2    1    2    0    0 -0.36138115619E+02  0.13447558402E+02  0.51195021344E+03  0.52841998596E+03  0.12509140775E+03 0.  0.
         23    2    1    2    0    0  0.36138115619E+02 -0.13447558402E+02  0.23041983686E+03  0.25019948571E+03  0.89552672810E+02 0.  0.
          5    1    3    3  502    0  0.40905010244E+02 -0.13433180224E+02  0.25940293004E+03  0.26298483361E+03  0.41800000000E+01 0.  1.
         -5    1    3    3    0  502 -0.77043125863E+02  0.26880738626E+02  0.25254728340E+03  0.26543515235E+03  0.41800000000E+01 0.  1.
        -11    1    4    4    0    0  0.45982424341E+02 -0.20357630816E+02  0.23260185250E+03  0.23797570940E+03  0.00000000000E+00 0.  1.
         11    1    4    4    0    0 -0.98443087222E+01  0.69100724149E+01 -0.21820156431E+01  0.12223776309E+02  0.00000000000E+00 0. -1.
</event>
<event>
 8    1  0.6703334E-009  0.1759538E+03  0.7561462E-02  0.1171777E+00
          2   -1    0    0  501    0  0.00000000000E+00  0.00000000000E+00  0.93675631222E+03  0.93675631222E+03  0.00000000000E+00 0. -1.
         -2   -1    0    0    0  501 -0.00000000000E+00 -0.00000000000E+00 -0.38621270324E+02  0.38621270324E+02  0.00000000000E+00 0.  1.
         25    2    1    2    0    0 -0.27293628801E+02 -0.15264545658E+03  0.50882083505E+03  0.54643523078E+03  0.12508893505E+03 0.  0.
         23    2    1    2    0    0  0.27293628801E+02  0.15264545658E+03  0.38931420684E+03  0.42894235176E+03  0.91544589655E+02 0.  0.
          5    1    3    3  502    0 -0.53649030216E+02 -0.48379584043E+02  0.32902344724E+03  0.33688678192E+03  0.41800000000E+01 0. -1.
         -5    1    3    3    0  502  0.26355401415E+02 -0.10426587253E+03  0.17979738781E+03  0.20954844887E+03  0.41800000000E+01 0. -1.
        -11    1    4    4    0    0  0.44456887794E+02  0.46264428901E+02  0.87759265110E+02  0.10871292870E+03  0.00000000000E+00 0.  1.
         11    1    4    4    0    0 -0.17163258993E+02  0.10638102768E+03  0.30155494173E+03  0.32022942306E+03  0.00000000000E+00 0. -1.
</event>
<event>
 8    1  0.6703334E-009  0.2040713E+03  0.7561462E-02  0.1146349E+00
         -1   -1    0    0    0  501 -0.00000000000E+00  0.00000000000E+00  0.36826842593E+03  0.36826842593E+03  0.00000000000E+00 0.  1.
          1   -1    0    0  501    0  0.00000000000E+00 -0.00000000000E+00 -0.13382507311E+03  0.13382507311E+03  0.00000000000E+00 0. -1.
         25    2    1    2    0    0  0.17940307710E+03  0.32647327424E+02  0.19378554796E+03  0.29402293758E+03  0.12508132221E+03 0.  0.
         23    2    1    2    0    0 -0.17940307710E+03 -0.32647327424E+02  0.40657804859E+02  0.20807056146E+03  0.91591426413E+02 0.  0.
          5    1    3    3  502    0  0.91652111649E+02 -0.40289241668E+02  0.12690353408E+03  0.16169512029E+03  0.41800000000E+01 0. -1.
         -5    1    3    3    0  502  0.87750965446E+02  0.72936569092E+02  0.66882013878E+02  0.13232781729E+03  0.41800000000E+01 0. -1.
        -11    1    4    4    0    0 -0.10617699160E+03 -0.51697044429E+02  0.56267919669E+02  0.13081367181E+03  0.00000000000E+00 0.  1.
         11    1    4    4    0    0 -0.73226085495E+02  0.19049717005E+02 -0.15610114809E+02  0.77256889656E+02  0.00000000000E+00 0. -1.
</event>
<event>
 8    1  0.6703334E-009  0.1818022E+03  0.7561462E-02  0.1166070E+00
          2   -1    0    0  501    0  0.00000000000E+00  0.00000000000E+00  0.13423606043E+04  0.13423606043E+04  0.00000000000E+00 0. -1.
         -2   -1    0    0    0  501 -0.00000000000E+00 -0.00000000000E+00 -0.30071466412E+02  0.30071466412E+02  0.00000000000E+00 0.  1.
         25    2    1    2    0    0 -0.93768750009E+02  0.13412441808E+03  0.54824237535E+03  0.58566243699E+03  0.12509536347E+03 0.  0.
         23    2    1    2    0    0  0.93768750009E+02 -0.13412441808E+03  0.76404676251E+03  0.78676963369E+03  0.91962292302E+02 0.  0.
          5    1    3    3  502    0  0.10492683491E+02  0.29921053180E+02  0.21180464252E+02  0.38359487694E+02  0.41800000000E+01 0.  1.
         -5    1    3    3    0  502 -0.10426143350E+03  0.10420336490E+03  0.52706191110E+03  0.54730294929E+03  0.41800000000E+01 0.  1.
        -11    1    4    4    0    0  0.15723838573E+02  0.11129090402E+02  0.43145355702E+02  0.47250581703E+02  0.00000000000E+00 0.  1.
         11    1    4    4    0    0  0.78044911437E+02 -0.14525350848E+03  0.72090140680E+03  0.73951905199E+03  0.00000000000E+00 0. -1.
</event>
<event>
 8    1  0.6703334E-009  0.8206479E+02  0.7561462E-02  0.1323292E+00
         -1   -1    0    0    0  501 -0.00000000000E+00  0.00000000000E+00  0.20274038436E+02  0.20274038436E+02  0.00000000000E+00 0.  1.
          1   -1    0    0  501    0  0.00000000000E+00 -0.00000000000E+00 -0.83018040695E+03  0.83018040695E+03  0.00000000000E+00 0. -1.
         25    2    1    2    0    0  0.31702230379E+02 -0.23892678380E+02 -0.25585076833E+03  0.28754636610E+03  0.12508958994E+03 0.  0.
         23    2    1    2    0    0 -0.31702230379E+02  0.23892678380E+02 -0.55405560018E+03  0.56290807928E+03  0.91170204212E+02 0.  0.
          5    1    3    3  502    0  0.28194368588E+02  0.10145035208E+02 -0.89164167316E+00  0.30267335269E+02  0.41800000000E+01 0. -1.
         -5    1    3    3    0  502  0.35078617910E+01 -0.34037713588E+02 -0.25495912666E+03  0.25727903083E+03  0.41800000000E+01 0. -1.
        -11    1    4    4    0    0 -0.77432460906E+00 -0.33871437197E+02 -0.19597248081E+03  0.19887957932E+03  0.00000000000E+00 0. -1.
         11    1    4    4    0    0 -0.30927905770E+02  0.57764115577E+02 -0.35808311937E+03  0.36402849995E+03  0.00000000000E+00 0.  1.
</event>
<event>
 8    1  0.6703334E-009  0.1075448E+03  0.7561462E-02  0.1265185E+00
         -1   -1    0    0    0  501 -0.00000000000E+00  0.00000000000E+00  0.73719639279E+03  0.73719639279E+03  0.00000000000E+00 0.  1.
          1   -1    0    0  501    0  0.00000000000E+00 -0.00000000000E+00 -0.18078917167E+02  0.18078917167E+02  0.00000000000E+00 0. -1.
         25    2    1    2    0    0  0.90872507568E+01 -0.29276659420E+02  0.46681657367E+03  0.48425677491E+03  0.12508880717E+03 0.  0.
         23    2    1    2    0    0 -0.90872507568E+01  0.29276659420E+02  0.25230090196E+03  0.27101853506E+03  0.94104199165E+02 0.  0.
          5    1    3    3  502    0  0.25037559987E+01 -0.72737608162E+02  0.37918831383E+03  0.38613246196E+03  0.41800000000E+01 0.  1.
         -5    1    3    3    0  502  0.65834947580E+01  0.43460948742E+02  0.87628259838E+02  0.98124312946E+02  0.41800000000E+01 0.  1.
        -11    1    4    4    0    0  0.21411293082E+02  0.54437035943E+02  0.13182563007E+03  0.14422146545E+03  0.00000000000E+00 0. -1.
         11    1    4    4    0    0 -0.30498543838E+02 -0.25160376523E+02  0.12047527189E+03  0.12679706961E+03  0.00000000000E+00 0.  1.
</event>
<event>
 7    1  0.6703334E-009  0.3034079E+03  0.7561462E-02  0.1083549E+00
         -1   -1    0    0    0  501 -0.00000000000E+00  0.00000000000E+00  0.89112745282E+03  0.89112745282E+03  0.00000000000E+00 0.  1.
          1   -1    0    0  501    0  0.00000000000E+00 -0.00000000000E+00 -0.14687371090E+03  0.14687371090E+03  0.00000000000E+00 0. -1.
         25    2    1    2    0    0  0.23437483670E+03 -0.71460311538E+02  0.11093891019E+03  0.29663641882E+03  0.12509029926E+03 0.  0.
          5    1    3    3  502    0 -0.94175354844E+01 -0.53884079876E+01  0.28699675654E+02  0.30965605078E+02  0.41800000000E+01 0. -1.
         -5    1    3    3    0  502  0.24379237219E+03 -0.66071903550E+02  0.82239234540E+02  0.26567081374E+03  0.41800000000E+01 0. -1.
        -11    1    1    2    0    0 -0.24573281206E+03  0.13339116172E+03  0.33440349199E+03  0.43589392334E+03  0.00000000000E+00 0. -1.
         11    1    1    2    0    0  0.11357975356E+02 -0.61930850183E+02  0.29891133973E+03  0.30547082156E+03  0.00000000000E+00 0.  1.
</event>
<event>
 8    1  0.6703334E-009  0.1279991E+03  0.7561462E-02  0.1230455E+00
         -3   -1    0    0    0  501 -0.00000000000E+00  0.00000000000E+00  0.32263800494E+03  0.32263800494E+03  0.00000000000E+00 0.  1.
          3   -1    0    0  501    0  0.00000000000E+00 -0.00000000000E+00 -0.76892520615E+02  0.76892520615E+02  0.00000000000E+00 0. -1.
         25    2    1    2    0    0 -0.67383370935E+01  0.86005985148E+02  0.38132904307E+02  0.15666330505E+03  0.12508732187E+03 0.  0.
         23    2    1    2    0    0  0.67383370935E+01 -0.86005985148E+02  0.20761258001E+03  0.24286722050E+03  0.91864404116E+02 0.  0.
          5    1    3    3  502    0  0.51752787285E+02  0.32245308300E+02 -0.12470472619E+02  0.62378650085E+02  0.41800000000E+01 0. -1.
         -5    1    3    3    0  502 -0.58491124378E+02  0.53760676849E+02  0.50603376927E+02  0.94284654969E+02  0.41800000000E+01 0. -1.
        -11    1    4    4    0    0 -0.30513859359E+02 -0.66740619568E+02  0.17492302746E+03  0.18969309805E+03  0.00000000000E+00 0.  1.
         11    1    4    4    0    0  0.37252196452E+02 -0.19265365580E+02  0.32689552555E+02  0.53174122444E+02  0.00000000000E+00 0. -1.
</event>
<event>
 8    1  0.6703334E-009  0.1601209E+03  0.7561462E-02  0.1188560E+00
         -2   -1    0    0    0  501 -0.00000000000E+00  0.00000000000E+00  0.29873143826E+02  0.29873143826E+02  0.00000000000E+00 0.  1.
          2   -1    0    0  501    0  0.00000000000E+00 -0.00000000000E+00 -0.12161060106E+04  0.12161060106E+04  0.00000000000E+00 0. -1.
         25    2    1    2    0    0  0.54100483970E+02 -0.11872258654E+03 -0.34232528099E+03  0.38711308664E+03  0.12509208178E+03 0.  0.
         23    2    1    2    0    0 -0.54100483970E+02  0.11872258654E+03 -0.84390758577E+03  0.85886606777E+03  0.91918410183E+02 0.  0.
          5    1    3    3  502    0  0.43222544639E+02 -0.10750259376E+01 -0.29007055947E+02  0.52232420397E+02  0.41800000000E+01 0.  1.
         -5    1    3    3    0  502  0.10877939331E+02 -0.11764756060E+03 -0.31331822505E+03  0.33488066625E+03  0.41800000000E+01 0.  1.
        -11    1    4    4    0    0 -0.52964210561E+02  0.15269097143E+02 -0.24887948026E+03  0.25491047178E+03  0.00000000000E+00 0. -1.
         11    1    4    4    0    0 -0.11362734085E+01  0.10345348940E+03 -0.59502810551E+03  0.60395559599E+03  0.00000000000E+00 0.  1.
</event>
<event>
 8    1  0.6703334E-009  0.8807842E+02  0.7561462E-02  0.1307573E+00
         -1   -1    0    0    0  501 -0.00000000000E+00  0.00000000000E+00  0.38687140800E+02  0.38687140800E+02  0.00000000000E+00 0.  1.
          1   -1    0    0  501    0  0.00000000000E+00 -0.00000000000E+00 -0.32248399337E+03  0.32248399337E+03  0.00000000000E+00 0. -1.
         25    2    1    2    0    0 -0.15569092950E+02 -0.11183478236E+02 -0.12421416885E+03  0.17732106763E+03  0.12508450920E+03 0.  0.
         23    2    1    2    0    0  0.15569092950E+02  0.11183478236E+02 -0.15958268372E+03  0.18385006654E+03  0.89256636635E+02 0.  0.
          5    1    3    3  502    0  0.30537994809E+02  0.12350395729E+02 -0.12079337922E+03  0.12527415641E+03  0.41800000000E+01 0. -1.
         -5    1    3    3    0  502 -0.46107087759E+02 -0.23533873965E+02 -0.34207896309E+01  0.52046911216E+02  0.41800000000E+01 0. -1.
        -11    1    4    4    0    0 -0.20529866670E+02  0.39911753618E+02 -0.71577451346E+02  0.84485235654E+02  0.00000000000E+00 0. -1.
         11    1    4    4    0    0  0.36098959621E+02 -0.28728275382E+02 -0.88005232370E+02  0.99364830884E+02  0.00000000000E+00 0.  1.
</event>
<event>
 8    1  0.6703334E-009  0.2402078E+03  0.7561462E-02  0.1119654E+00
          1   -1    0    0  501    0  0.00000000000E+00  0.00000000000E+00  0.69901886934E+03  0.69901886934E+03  0.00000000000E+00 0. -1.
         -1   -1    0    0    0  501 -0.00000000000E+00 -0.00000000000E+00 -0.95557116770E+02  0.95557116770E+02  0.00000000000E+00 0.  1.
         25    2    1    2    0    0  0.21377996718E+03  0.78199752220E+02  0.39540249245E+03  0.47307784386E+03  0.12506973936E+03 0.  0.
         23    2    1    2    0    0 -0.21377996718E+03 -0.78199752220E+02  0.20805926012E+03  0.32149814225E+03  0.90858814278E+02 0.  0.
          5    1    3    3  502    0  0.10254465634E+03 -0.96108658163E+01  0.91920193018E+02  0.13811071490E+03  0.41800000000E+01 0.  1.
         -5    1    3    3    0  502  0.11123531084E+03  0.87810618037E+02  0.30348229943E+03  0.33496712896E+03  0.41800000000E+01 0.  1.
        -11    1    4    4    0    0 -0.15065450020E+03 -0.24403609491E+02  0.17503228429E+03  0.23222535419E+03  0.00000000000E+00 0.  1.
         11    1    4    4    0    0 -0.63125466982E+02 -0.53796142730E+02  0.33026975825E+02  0.89272788051E+02  0.00000000000E+00 0. -1.
</event>
<event>
 8    1  0.6703334E-009  0.2360243E+03  0.7561462E-02  0.1122470E+00
          1   -1    0    0  501    0  0.00000000000E+00  0.00000000000E+00  0.93096361537E+03  0.93096361537E+03  0.00000000000E+00 0. -1.
         -1   -1    0    0    0  501 -0.00000000000E+00 -0.00000000000E+00 -0.62090589946E+02  0.62090589946E+02  0.00000000000E+00 0.  1.
         25    2    1    2    0    0 -0.19477681036E+03  0.88628987575E+02  0.42005909716E+03  0.48773757880E+03  0.12508076339E+03 0.  0.
         23    2    1    2    0    0  0.19477681036E+03 -0.88628987575E+02  0.44881392826E+03  0.50531662651E+03  0.90099098435E+02 0.  0.
          5    1    3    3  502    0 -0.30128960082E+02  0.71710147817E+02  0.17987455686E+03  0.19601639763E+03  0.41800000000E+01 0. -1.
         -5    1    3    3    0  502 -0.16464785028E+03  0.16918839758E+02  0.24018454030E+03  0.29172118117E+03  0.41800000000E+01 0. -1.
        -11    1    4    4    0    0  0.33769731648E+02  0.15169871474E+02  0.11043639247E+03  0.11647624890E+03  0.00000000000E+00 0. -1.
         11    1    4    4    0    0  0.16100707871E+03 -0.10379885905E+03  0.33837753579E+03  0.38884037761E+03  0.00000000000E+00 0.  1.
</event>
<event>
 8    1  0.6703334E-009  0.1008820E+03  0.7561462E-02  0.1278452E+00
         -1   -1    0    0    0  501 -0.00000000000E+00  0.00000000000E+00  0.15041470862E+03  0.15041470862E+03  0.00000000000E+00 0.  1.
          1   -1    0    0  501    0  0.00000000000E+00 -0.00000000000E+00 -0.15254109697E+03  0.15254109697E+03  0.00000000000E+00 0. -1.
         25    2    1    2    0    0 -0.66298854890E+02 -0.26121967956E+02  0.75628844781E+02  0.16262004951E+03  0.12509061903E+03 0.  0.
         23    2    1    2    0    0  0.66298854890E+02  0.26121967956E+02 -0.77755233136E+02  0.14033575608E+03  0.92576199880E+02 0.  0.
          5    1    3    3  502    0 -0.26157643074E+02  0.38781126436E+02 -0.98180776034E+01  0.47979840627E+02  0.41800000000E+01 0.  1.
         -5    1    3    3    0  502 -0.40141211817E+02 -0.64903094391E+02  0.85446922384E+02  0.11464020888E+03  0.41800000000E+01 0.  1.
        -11    1    4    4    0    0  0.44009110322E+02 -0.30554616290E-01  0.10827603096E+02  0.45321514910E+02  0.00000000000E+00 0.  1.
         11    1    4    4    0    0  0.22289744568E+02  0.26152522572E+02 -0.88582836232E+02  0.95014241168E+02  0.00000000000E+00 0. -1.
</event>
<event>
 8    1  0.6703334E-009  0.1408792E+03  0.7561462E-02  0.1212151E+00
          2   -1    0    0  501    0  0.00000000000E+00  0.00000000000E+00  0.18519582343E+03  0.18519582343E+03  0.00000000000E+00 0. -1.
         -2   -1    0    0    0  501 -0.00000000000E+00 -0.00000000000E+00 -0.13390301982E+03  0.13390301982E+03  0.00000000000E+00 0.  1.
         25    2    1    2    0    0  0.28366592690E+02 -0.11078338090E+03  0.12875615626E+02  0.16996985059E+03  0.12508536112E+03 0.  0.
         23    2    1    2    0    0 -0.28366592690E+02  0.11078338090E+03  0.38417187980E+02  0.14912899267E+03  0.87669578857E+02 0.  0.
          5    1    3    3  502    0  0.72874187013E+02 -0.39271718465E+02  0.20212801201E+02  0.85316731866E+02  0.41800000000E+01 0.  1.
         -5    1    3    3    0  502 -0.44507594323E+02 -0.71511662438E+02 -0.73371855741E+01  0.84653118721E+02  0.41800000000E+01 0.  1.
        -11    1    4    4    0    0 -0.73919690101E+01  0.19017610098E+02 -0.27477552084E+02  0.34224648548E+02  0.00000000000E+00 0.  1.
         11    1    4    4    0    0 -0.20974623680E+02  0.91765770804E+02  0.65894740064E+02  0.11490434412E+03  0.00000000000E+00 0. -1.
</event>
<event>
 8    1  0.6703334E-009  0.1033339E+03  0.7561462E-02  0.1273437E+00
          1   -1    0    0  501    0  0.00000000000E+00  0.00000000000E+00  0.59711218444E+03  0.59711218444E+03  0.00000000000E+00 0. -1.
         -1   -1    0    0    0  501 -0.00000000000E+00 -0.00000000000E+00 -0.33065079411E+02  0.33065079411E+02  0.00000000000E+00 0.  1.
         25    2    1    2    0    0  0.41670414636E+01 -0.59265092501E+02  0.45760658876E+03  0.47810120890E+03  0.12508901013E+03 0.  0.
         23    2    1    2    0    0 -0.41670414636E+01  0.59265092501E+02  0.10644051627E+03  0.15207605495E+03  0.90927595157E+02 0.  0.
          5    1    3    3  502    0  0.19894683019E+02  0.33543811695E+02  0.82622173374E+02  0.91459726921E+02  0.41800000000E+01 0.  1.
         -5    1    3    3    0  502 -0.15727641555E+02 -0.92808904196E+02  0.37498441538E+03  0.38664148198E+03  0.41800000000E+01 0.  1.
        -11    1    4    4    0    0 -0.20311250288E+02  0.12746907766E+02 -0.97471830706E+01  0.25885094624E+02  0.00000000000E+00 0.  1.
         11    1    4    4    0    0  0.16144208825E+02  0.46518184735E+02  0.11618769934E+03  0.12619096032E+03  0.00000000000E+00 0. -1.
</event>
<event>
 8    1  0.6703334E-009  0.1137083E+03  0.7561462E-02  0.1253853E+00
          2   -1    0    0  501    0  0.00000000000E+00  0.00000000000E+00  0.14478200202E+03  0.14478200202E+03  0.00000000000E+00 0. -1.
         -2   -1    0    0    0  501 -0.00000000000E+00 -0.00000000000E+00 -0.97877740563E+02  0.97877740563E+02  0.00000000000E+00 0.  1.
         25    2    1    2    0    0  0.46958261519E+02  0.12149119248E+02  0.42252882682E+02  0.14066086687E+03  0.12508994345E+03 0.  0.
         23    2    1    2    0    0 -0.46958261519E+02 -0.12149119248E+02  0.46513787718E+01  0.10199887571E+03  0.89607231279E+02 0.  0.
          5    1    3    3  502    0 -0.10273775939E+02  0.58630898627E+02  0.25758838637E+02  0.64993252833E+02  0.41800000000E+01 0.  1.
         -5    1    3    3    0  502  0.57232037458E+02 -0.46481779379E+02  0.16494044046E+02  0.75667614041E+02  0.41800000000E+01 0.  1.
        -11    1    4    4    0    0 -0.69327545799E+02 -0.20589518131E+01 -0.14515823118E+02  0.70860828459E+02  0.00000000000E+00 0. -1.
         11    1    4    4    0    0  0.22369284280E+02 -0.10090167435E+02  0.19167201889E+02  0.31138047247E+02  0.00000000000E+00 0.  1.
</event>
<event>
 8    1  0.6703334E-009  0.1092070E+03  0.7561462E-02  0.1262045E+00
          1   -1    0    0  501    0  0.00000000000E+00  0.00000000000E+00  0.26988192036E+03  0.26988192036E+03  0.00000000000E+00 0. -1.
         -1   -1    0    0    0  501 -0.00000000000E+00 -0.00000000000E+00 -0.74775048088E+02  0.74775048088E+02  0.00000000000E+00 0.  1.
         25    2    1    2    0    0 -0.55669436640E+02  0.50499103972E+02  0.43147822573E+02  0.15217684327E+03  0.12508721500E+03 0.  0.
         23    2    1    2    0    0  0.55669436640E+02 -0.50499103972E+02  0.15195904970E+03  0.19248012518E+03  0.91147134493E+02 0.  0.
          5    1    3    3  502    0  0.38038990280E+02  0.76742361759E+01 -0.31259219402E+01  0.39154852450E+02  0.41800000000E+01 0. -1.
         -5    1    3    3    0  502 -0.93708426919E+02  0.42824867796E+02  0.46273744513E+02  0.11302199082E+03  0.41800000000E+01 0. -1.
        -11    1    4    4    0    0  0.41698742280E+02 -0.44736376677E+02  0.16278247806E+03  0.17389152846E+03  0.00000000000E+00 0. -1.
         11    1    4    4    0    0  0.13970694360E+02 -0.57627272944E+01 -0.10823428358E+02  0.18588596725E+02  0.00000000000E+00 0.  1.
</event>
<event>
 8    1  0.6703334E-009  0.8863630E+02  0.7561462E-02  0.1306188E+00
          1   -1    0    0  501    0  0.00000000000E+00  0.00000000000E+00  0.78951205198E+03  0.78951205198E+03  0.00000000000E+00 0. -1.
         -1   -1    0    0    0  501 -0.00000000000E+00 -0.00000000000E+00 -0.16311190143E+02  0.16311190143E+02  0.00000000000E+00 0.  1.
         25    2    1    2    0    0 -0.14800691268E+02 -0.18929657699E+02  0.52875123195E+03  0.54387669581E+03  0.12508638037E+03 0.  0.
         23    2    1    2    0    0  0.14800691268E+02  0.18929657699E+02  0.24444962989E+03  0.26194654631E+03  0.91010873915E+02 0.  0.
          5    1    3    3  502    0  0.29874443928E+02  0.80292066828E+01  0.33207536471E+02  0.45575908531E+02  0.41800000000E+01 0.  1.
         -5    1    3    3    0  502 -0.44675135196E+02 -0.26958864382E+02  0.49554369548E+03  0.49830078728E+03  0.41800000000E+01 0.  1.
        -11    1    4    4    0    0  0.31442287383E+02 -0.29123269443E+02  0.12418671923E+03  0.13137398331E+03  0.00000000000E+00 0. -1.
         11    1    4    4    0    0 -0.16641596116E+02  0.48052927142E+02  0.12026291066E+03  0.13057256300E+03  0.00000000000E+00 0.  1.
</event>
<event>
 8    1  0.6703334E-009  0.1051016E+03  0.7561462E-02  0.1269920E+00
          2   -1    0    0  501    0  0.00000000000E+00  0.00000000000E+00  0.11385090109E+03  0.11385090109E+03  0.00000000000E+00 0.  1.
         -2   -1    0    0    0  501 -0.00000000000E+00 -0.00000000000E+00 -0.15918343060E+03  0.15918343060E+03  0.00000000000E+00 0. -1.
         25    2    1    2    0    0 -0.39941112843E+02  0.56558377426E+02  0.16299800798E+02  0.14389872465E+03  0.12508803659E+03 0.  0.
         23    2    1    2    0    0  0.39941112843E+02 -0.56558377426E+02 -0.61632330301E+02  0.12913560704E+03  0.89907276210E+02 0.  0.
          5    1    3    3  502    0 -0.81424854992E+02  0.47853472598E+02  0.29955448078E+02  0.99170374204E+02  0.41800000000E+01 0.  1.
         -5    1    3    3    0  502  0.41483742149E+02  0.87049048277E+01 -0.13655647280E+02  0.44728350443E+02  0.41800000000E+01 0.  1.
        -11    1    4    4    0    0  0.26769293355E+02 -0.17825626652E+02  0.19966645291E+02  0.37855184010E+02  0.00000000000E+00 0.  1.
         11    1    4    4    0    0  0.13171819488E+02 -0.38732750773E+02 -0.81598975592E+02  0.91280423031E+02  0.00000000000E+00 0. -1.
</event>
<event>
 8    1  0.6703334E-009  0.1246943E+03  0.7561462E-02  0.1235548E+00
          2   -1    0    0  501    0  0.00000000000E+00  0.00000000000E+00  0.31095552003E+03  0.31095552003E+03  0.00000000000E+00 0. -1.
         -2   -1    0    0    0  501 -0.00000000000E+00 -0.00000000000E+00 -0.60166374188E+02  0.60166374188E+02  0.00000000000E+00 0.  1.
         25    2    1    2    0    0 -0.54160727510E+02  0.28191100250E+02  0.21228382349E+03  0.25385081802E+03  0.12509074129E+03 0.  0.
         23    2    1    2    0    0  0.54160727510E+02 -0.28191100250E+02  0.38505322359E+02  0.11727107620E+03  0.92421441917E+02 0.  0.
          5    1    3    3  502    0  0.32462796412E+02 -0.21026459909E+02  0.49573296179E+02  0.63015309737E+02  0.41800000000E+01 0. -1.
         -5    1    3    3    0  502 -0.86623523923E+02  0.49217560159E+02  0.16271052731E+03  0.19083550828E+03  0.41800000000E+01 0. -1.
        -11    1    4    4    0    0  0.75193015473E+02  0.49990917174E+00  0.26000859934E+02  0.79563083163E+02  0.00000000000E+00 0.  1.
         11    1    4    4    0    0 -0.21032287962E+02 -0.28691009421E+02  0.12504462426E+02  0.37707993040E+02  0.00000000000E+00 0. -1.
</event>
<event>
 8    1  0.6703334E-009  0.1788836E+03  0.7561462E-02  0.1168888E+00
          1   -1    0    0  501    0  0.00000000000E+00  0.00000000000E+00  0.28219965165E+03  0.28219965165E+03  0.00000000000E+00 0. -1.
         -1   -1    0    0    0  501 -0.00000000000E+00 -0.00000000000E+00 -0.15276683687E+03  0.15276683687E+03  0.00000000000E+00 0.  1.
         25    2    1    2    0    0  0.13186954419E+03 -0.98530704598E+02  0.12371517858E+00  0.20674970943E+03  0.12509016992E+03 0.  0.
         23    2    1    2    0    0 -0.13186954419E+03  0.98530704598E+02  0.12930909960E+03  0.22821677909E+03  0.90907527667E+02 0.  0.
          5    1    3    3  502    0  0.14559191407E+02 -0.70973714390E+02 -0.35819378223E+02  0.80930454374E+02  0.41800000000E+01 0.  1.
         -5    1    3    3    0  502  0.11731035279E+03 -0.27556990207E+02  0.35943093402E+02  0.12581925506E+03  0.41800000000E+01 0.  1.
        -11    1    4    4    0    0 -0.95698071397E+02  0.70802320034E+02  0.35992087693E+02  0.12436446344E+03  0.00000000000E+00 0.  1.
         11    1    4    4    0    0 -0.36171472795E+02  0.27728384564E+02  0.93317011904E+02  0.10385231565E+03  0.00000000000E+00 0. -1.
</event>
<event>
 8    1  0.6703334E-009  0.1369361E+03  0.7561462E-02  0.1217512E+00
          1   -1    0    0  501    0  0.00000000000E+00  0.00000000000E+00  0.81790843844E+02  0.81790843844E+02  0.00000000000E+00 0. -1.
         -1   -1    0    0    0  501 -0.00000000000E+00 -0.00000000000E+00 -0.27225786982E+03  0.27225786982E+03  0.00000000000E+00 0.  1.
         25    2    1    2    0    0  0.87837536702E+01  0.92745414035E+02 -0.64289124247E+02  0.16869978125E+03  0.12509060135E+03 0.  0.
         23    2    1    2    0    0 -0.87837536702E+01 -0.92745414035E+02 -0.12617790173E+03  0.18534893241E+03  0.98764860697E+02 0.  0.
          5    1    3    3  502    0 -0.21451115624E+02  0.11000047619E+03 -0.22915694545E+02  0.11446770977E+03  0.41800000000E+01 0. -1.
         -5    1    3    3    0  502  0.30234869295E+02 -0.17255062160E+02 -0.41373429703E+02  0.54232071478E+02  0.41800000000E+01 0. -1.
        -11    1    4    4    0    0 -0.41327024499E+02 -0.82948665960E+02 -0.11862591734E+03  0.15053409050E+03  0.00000000000E+00 0.  1.
         11    1    4    4    0    0  0.32543270829E+02 -0.97967480749E+01 -0.75519843924E+01  0.34814841912E+02  0.00000000000E+00 0. -1.
</event>
<event>
 8    1  0.6703334E-009  0.2153552E+03  0.7561462E-02  0.1137394E+00
         -3   -1    0    0    0  501 -0.00000000000E+00  0.00000000000E+00  0.25216425939E+03  0.25216425939E+03  0.00000000000E+00 0.  1.
          3   -1    0    0  501    0  0.00000000000E+00 -0.00000000000E+00 -0.21382821142E+03  0.21382821142E+03  0.00000000000E+00 0. -1.
         25    2    1    2    0    0  0.15195308971E+03 -0.11066952502E+03  0.10002652974E+03  0.24696318809E+03  0.12509206361E+03 0.  0.
         23    2    1    2    0    0 -0.15195308971E+03  0.11066952502E+03 -0.61690481776E+02  0.21902928272E+03  0.93971410062E+02 0.  0.
          5    1    3    3  502    0  0.76671898864E+02  0.13213014023E+02  0.16623202546E+02  0.79667854734E+02  0.41800000000E+01 0. -1.
         -5    1    3    3    0  502  0.75281190841E+02 -0.12388253904E+03  0.83403327198E+02  0.16729533335E+03  0.41800000000E+01 0. -1.
        -11    1    4    4    0    0 -0.11084211819E+03  0.26298336394E+02 -0.17367070322E+02  0.11523537995E+03  0.00000000000E+00 0.  1.
         11    1    4    4    0    0 -0.41110971518E+02  0.84371188625E+02 -0.44323411454E+02  0.10379390277E+03  0.00000000000E+00 0. -1.
</event>
<event>
 8    1  0.6703334E-009  0.9578900E+02  0.7561462E-02  0.1289409E+00
         -2   -1    0    0    0  501 -0.00000000000E+00  0.00000000000E+00  0.66889158858E+02  0.66889158858E+02  0.00000000000E+00 0.  1.
          2   -1    0    0  501    0  0.00000000000E+00 -0.00000000000E+00 -0.52406023334E+03  0.52406023334E+03  0.00000000000E+00 0. -1.
         25    2    1    2    0    0 -0.22842526281E+02  0.16172600910E+00 -0.47775364250E+03  0.49438644094E+03  0.12509037890E+03 0.  0.
         23    2    1    2    0    0  0.22842526281E+02 -0.16172600910E+00  0.20582568019E+02  0.96562951265E+02  0.91536628125E+02 0.  0.
          5    1    3    3  502    0 -0.10796069103E+01  0.52000804604E+02 -0.36080055125E+03  0.36455419270E+03  0.41800000000E+01 0.  1.
         -5    1    3    3    0  502 -0.21762919371E+02 -0.51839078594E+02 -0.11695309125E+03  0.12983224824E+03  0.41800000000E+01 0.  1.
        -11    1    4    4    0    0 -0.10294813139E+02  0.33942407672E+02  0.31876451555E+02  0.47688346374E+02  0.00000000000E+00 0.  1.
         11    1    4    4    0    0  0.33137339420E+02 -0.34104133681E+02 -0.11293883536E+02  0.48874604891E+02  0.00000000000E+00 0. -1.
</event>
<event>
 8    1  0.6703334E-009  0.1047613E+03  0.7561462E-02  0.1270591E+00
         -1   -1    0    0    0  501 -0.00000000000E+00  0.00000000000E+00  0.30054451036E+02  0.30054451036E+02  0.00000000000E+00 0. -1.
          1   -1    0    0  501    0  0.00000000000E+00 -0.00000000000E+00 -0.44682596478E+03  0.44682596478E+03  0.00000000000E+00 0.  1.
         25    2    1    2    0    0  0.35899258582E+02  0.81425703806E+01 -0.20001169190E+03  0.23876461761E+03  0.12509519378E+03 0.  0.
         23    2    1    2    0    0 -0.35899258582E+02 -0.81425703806E+01 -0.21675982185E+03  0.23811579821E+03  0.91428960241E+02 0.  0.
          5    1    3    3  502    0 -0.14314523970E+02  0.55406092433E+02 -0.62305597567E+02  0.84700652674E+02  0.41800000000E+01 0. -1.
         -5    1    3    3    0  502  0.50213782552E+02 -0.47263522053E+02 -0.13770609433E+03  0.15406396493E+03  0.41800000000E+01 0. -1.
        -11    1    4    4    0    0  0.41073167604E+01  0.28508475601E+02 -0.22872056077E+02  0.36779534815E+02  0.00000000000E+00 0. -1.
         11    1    4    4    0    0 -0.40006575342E+02 -0.36651045981E+02 -0.19388776577E+03  0.20133626340E+03  0.00000000000E+00 0.  1.
</event>
<event>
 8    1  0.6703334E-009  0.3278015E+03  0.7561462E-02  0.1072114E+00
          1   -1    0    0  501    0  0.00000000000E+00  0.00000000000E+00  0.15771145038E+04  0.15771145038E+04  0.00000000000E+00 0. -1.
         -1   -1    0    0    0  501 -0.00000000000E+00 -0.00000000000E+00 -0.69048698840E+02  0.69048698840E+02  0.00000000000E+00 0.  1.
         25    2    1    2    0    0 -0.55014584378E+02 -0.30561467968E+03  0.71154345171E+03  0.78635900068E+03  0.12505781604E+03 0.  0.
         23    2    1    2    0    0  0.55014584378E+02  0.30561467968E+03  0.79652235329E+03  0.85980420200E+03  0.91588588585E+02 0.  0.
          5    1    3    3  502    0  0.39397649099E+02 -0.84737871454E+02  0.22728195274E+03  0.24577884379E+03  0.41800000000E+01 0. -1.
         -5    1    3    3    0  502 -0.94412233477E+02 -0.22087680822E+03  0.48426149897E+03  0.54058015689E+03  0.41800000000E+01 0. -1.
        -11    1    4    4    0    0  0.77528296906E+02  0.21881200588E+03  0.61462645341E+03  0.65700457225E+03  0.00000000000E+00 0.  1.
         11    1    4    4    0    0 -0.22513712528E+02  0.86802673797E+02  0.18189589989E+03  0.20279962975E+03  0.00000000000E+00 0. -1.
</event>
<event>
 8    1  0.6703334E-009  0.1173430E+03  0.7561462E-02  0.1247546E+00
         -2   -1    0    0    0  501 -0.00000000000E+00  0.00000000000E+00  0.13238046721E+03  0.13238046721E+03  0.00000000000E+00 0.  1.
          2   -1    0    0  501    0  0.00000000000E+00 -0.00000000000E+00 -0.12108701744E+03  0.12108701744E+03  0.00000000000E+00 0. -1.
         25    2    1    2    0    0 -0.47913454619E+02 -0.21276193233E+00  0.50364938342E+02  0.14310841908E+03  0.12509055998E+03 0.  0.
         23    2    1    2    0    0  0.47913454619E+02  0.21276193233E+00 -0.39071488576E+02  0.11035906556E+03  0.91415522377E+02 0.  0.
          5    1    3    3  502    0 -0.39768234402E+02  0.60023992996E+02  0.35526896270E+02  0.80399160202E+02  0.41800000000E+01 0. -1.
         -5    1    3    3    0  502 -0.81452202168E+01 -0.60236754928E+02  0.14838042072E+02  0.62709258880E+02  0.41800000000E+01 0. -1.
        -11    1    4    4    0    0  0.47105068601E+02 -0.39766395776E+02 -0.14175723054E+02  0.63255077623E+02  0.00000000000E+00 0.  1.
         11    1    4    4    0    0  0.80838601766E+00  0.39979157708E+02 -0.24895765523E+02  0.47103987941E+02  0.00000000000E+00 0. -1.
</event>
<event>
 8    1  0.6703334E-009  0.2221545E+03  0.7561462E-02  0.1132287E+00
         -1   -1    0    0    0  501 -0.00000000000E+00  0.00000000000E+00  0.67563350728E+02  0.67563350728E+02  0.00000000000E+00 0.  1.
          1   -1    0    0  501    0  0.00000000000E+00 -0.00000000000E+00 -0.89887518916E+03  0.89887518916E+03  0.00000000000E+00 0. -1.
         25    2    1    2    0    0  0.13442019305E+03  0.16307081856E+03 -0.30178481152E+03  0.38907913394E+03  0.12509044663E+03 0.  0.
         23    2    1    2    0    0 -0.13442019305E+03 -0.16307081856E+03 -0.52952702692E+03  0.57735940595E+03  0.91017202978E+02 0.  0.
          5    1    3    3  502    0  0.53336882458E+02  0.40097033684E+02 -0.17877503212E+02  0.69207461026E+02  0.41800000000E+01 0. -1.
         -5    1    3    3    0  502  0.81083310594E+02  0.12297378488E+03 -0.28390730830E+03  0.31987167291E+03  0.41800000000E+01 0. -1.
        -11    1    4    4    0    0  0.80314251897E+01 -0.43128569162E+02 -0.10259336101E+03  0.11157945596E+03  0.00000000000E+00 0. -1.
         11    1    4    4    0    0 -0.14245161824E+03 -0.11994224940E+03 -0.42693366590E+03  0.46577994999E+03  0.00000000000E+00 0.  1.
</event>
<event>
 8    1  0.6703334E-009  0.1460641E+03  0.7561462E-02  0.1205394E+00
          2   -1    0    0  501    0  0.00000000000E+00  0.00000000000E+00  0.40322866559E+03  0.40322866559E+03  0.00000000000E+00 0. -1.
         -2   -1    0    0    0  501 -0.00000000000E+00 -0.00000000000E+00 -0.56219046014E+02  0.56219046014E+02  0.00000000000E+00 0.  1.
         25    2    1    2    0    0  0.84954379052E+02  0.56973991620E+02  0.16152104802E+03  0.22845979860E+03  0.12506617601E+03 0.  0.
         23    2    1    2    0    0 -0.84954379052E+02 -0.56973991620E+02  0.18548857156E+03  0.23098791301E+03  0.92120158142E+02 0.  0.
          5    1    3    3  502    0  0.10773683689E+03  0.74861112452E+02  0.14147493111E+03  0.19298715167E+03  0.41800000000E+01 0. -1.
         -5    1    3    3    0  502 -0.22782457833E+02 -0.17887120831E+02  0.20046116915E+02  0.35472646926E+02  0.41800000000E+01 0. -1.
        -11    1    4    4    0    0  0.10406702966E+02 -0.31100311431E+02  0.79946256700E+02  0.86411415901E+02  0.00000000000E+00 0. -1.
         11    1    4    4    0    0 -0.95361082018E+02 -0.25873680189E+02  0.10554231486E+03  0.14457649711E+03  0.00000000000E+00 0.  1.
</event>
<event>
 8    1  0.6703334E-009  0.1629499E+03  0.7561462E-02  0.1185406E+00
          1   -1    0    0  501    0  0.00000000000E+00  0.00000000000E+00  0.15462464538E+03  0.15462464538E+03  0.00000000000E+00 0. -1.
         -1   -1    0    0    0  501 -0.00000000000E+00 -0.00000000000E+00 -0.23030348514E+03  0.23030348514E+03  0.00000000000E+00 0.  1.
         25    2    1    2    0    0  0.97434527874E+02 -0.99144797713E+02 -0.10683419191E+03  0.21537839304E+03  0.12510447431E+03 0.  0.
         23    2    1    2    0    0 -0.97434527874E+02  0.99144797713E+02  0.31155352148E+02  0.16954973748E+03  0.91941717279E+02 0.  0.
          5    1    3    3  502    0  0.62329191422E+02  0.16070003580E+02 -0.52553299857E+02  0.83201531502E+02  0.41800000000E+01 0.  1.
         -5    1    3    3    0  502  0.35105336452E+02 -0.11521480129E+03 -0.54280892050E+02  0.13217686154E+03  0.41800000000E+01 0.  1.
        -11    1    4    4    0    0 -0.66197302727E+02  0.81523903876E+02 -0.20170588001E+02  0.10693494476E+03  0.00000000000E+00 0.  1.
         11    1    4    4    0    0 -0.31237225147E+02  0.17620893838E+02  0.51325940149E+02  0.62614792715E+02  0.00000000000E+00 0. -1.
</event>
<event>
 8    1  0.6703334E-009  0.1252114E+03  0.7561462E-02  0.1234739E+00
         -2   -1    0    0    0  501 -0.00000000000E+00  0.00000000000E+00  0.60463193306E+02  0.60463193306E+02  0.00000000000E+00 0. -1.
          2   -1    0    0  501    0  0.00000000000E+00 -0.00000000000E+00 -0.47028423974E+03  0.47028423974E+03  0.00000000000E+00 0.  1.
         25    2    1    2    0    0  0.16134767192E+02 -0.10716448184E+03 -0.10857050737E+03  0.19793980510E+03  0.12509218398E+03 0.  0.
         23    2    1    2    0    0 -0.16134767192E+02  0.10716448184E+03 -0.30125053906E+03  0.33280762794E+03  0.90909147228E+02 0.  0.
          5    1    3    3  502    0  0.12926503652E+01 -0.36222231777E+02 -0.11911663702E+03  0.12457915811E+03  0.41800000000E+01 0.  1.
         -5    1    3    3    0  502  0.14842116827E+02 -0.70942250067E+02  0.10546129652E+02  0.73360646992E+02  0.41800000000E+01 0.  1.
        -11    1    4    4    0    0  0.33548963089E+02  0.74974412732E+02 -0.16841890349E+03  0.18738095565E+03  0.00000000000E+00 0. -1.
         11    1    4    4    0    0 -0.49683730281E+02  0.32190069112E+02 -0.13283163557E+03  0.14542667229E+03  0.00000000000E+00 0.  1.
</event>
<event>
 8    1  0.6703334E-009  0.3622391E+03  0.7561462E-02  0.1057701E+00
          4   -1    0    0  501    0  0.00000000000E+00  0.00000000000E+00  0.44165106906E+03  0.44165106906E+03  0.00000000000E+00 0. -1.
         -4   -1    0    0    0  501 -0.00000000000E+00 -0.00000000000E+00 -0.34729463674E+03  0.34729463674E+03  0.00000000000E+00 0.  1.
         25    2    1    2    0    0  0.22529776515E+02 -0.35722363191E+03 -0.68087828275E+02  0.38522753372E+03  0.12509191161E+03 0.  0.
         23    2    1    2    0    0 -0.22529776515E+02  0.35722363191E+03  0.16244426059E+03  0.40371817209E+03  0.92108146470E+02 0.  0.
          5    1    3    3  502    0 -0.11080299751E+02 -0.20724006647E+03  0.19122340450E+02  0.20845708070E+03  0.41800000000E+01 0. -1.
         -5    1    3    3    0  502  0.33610076266E+02 -0.14998356545E+03 -0.87210168724E+02  0.17677045302E+03  0.41800000000E+01 0. -1.
        -11    1    4    4    0    0 -0.43893607174E+02  0.24504106808E+03  0.75340421947E+02  0.26009220091E+03  0.00000000000E+00 0. -1.
         11    1    4    4    0    0  0.21363830659E+02  0.11218256383E+03  0.87103838648E+02  0.14362597118E+03  0.00000000000E+00 0.  1.
</event>
<event>
 8    1  0.6703334E-009  0.1040331E+03  0.7561462E-02  0.1272036E+00
          4   -1    0    0  501    0  0.00000000000E+00  0.00000000000E+00  0.15187756497E+02  0.15187756497E+02  0.00000000000E+00 0. -1.
         -4   -1    0    0    0  501 -0.00000000000E+00 -0.00000000000E+00 -0.86294644634E+03  0.86294644634E+03  0.00000000000E+00 0.  1.
         25    2    1    2    0    0  0.29632619501E+02 -0.10850575410E+01 -0.56111410193E+03  0.57565253482E+03  0.12509011143E+03 0.  0.
         23    2    1    2    0    0 -0.29632619501E+02  0.10850575410E+01 -0.28664458792E+03  0.30248166801E+03  0.91928070873E+02 0.  0.
          5    1    3    3  502    0  0.45894406501E+01  0.61081417952E+02 -0.27144198470E+03  0.27829880712E+03  0.41800000000E+01 0. -1.
         -5    1    3    3    0  502  0.25043178851E+02 -0.62166475493E+02 -0.28967211722E+03  0.29735372770E+03  0.41800000000E+01 0. -1.
        -11    1    4    4    0    0 -0.39507128856E+02 -0.28248777241E+02 -0.24925873928E+03  0.25394630486E+03  0.00000000000E+00 0.  1.
         11    1    4    4    0    0  0.98745093543E+01  0.29333834782E+02 -0.37385848638E+02  0.48535363153E+02  0.00000000000E+00 0. -1.
</event>
<event>
 8    1  0.6703334E-009  0.1641124E+03  0.7561462E-02  0.1184131E+00
         -2   -1    0    0    0  501 -0.00000000000E+00  0.00000000000E+00  0.21566585879E+02  0.21566585879E+02  0.00000000000E+00 0.  1.
          2   -1    0    0  501    0  0.00000000000E+00 -0.00000000000E+00 -0.17965667648E+04  0.17965667648E+04  0.00000000000E+00 0. -1.
         25    2    1    2    0    0  0.12049331316E+03  0.96012051083E+02 -0.12531682094E+04  0.12687848031E+04  0.12508942017E+03 0.  0.
         23    2    1    2    0    0 -0.12049331316E+03 -0.96012051083E+02 -0.52183196957E+03  0.54934854764E+03  0.75751368657E+02 0.  0.
          5    1    3    3  502    0  0.94643100902E+02  0.10699193885E+03 -0.67705177270E+03  0.69196905050E+03  0.41800000000E+01 0. -1.
         -5    1    3    3    0  502  0.25850212259E+02 -0.10979887767E+02 -0.57611643667E+03  0.57681575257E+03  0.41800000000E+01 0. -1.
        -11    1    4    4    0    0 -0.52769124606E+02 -0.23688926421E+02 -0.31178769405E+03  0.31710772919E+03  0.00000000000E+00 0. -1.
         11    1    4    4    0    0 -0.67724188555E+02 -0.72323124662E+02 -0.21004427552E+03  0.23224081845E+03  0.00000000000E+00 0.  1.
</event>
<event>
 8    1  0.6703334E-009  0.1047324E+03  0.7561462E-02  0.1270648E+00
          4   -1    0    0  501    0  0.00000000000E+00  0.00000000000E+00  0.69580327493E+02  0.69580327493E+02  0.00000000000E+00 0. -1.
         -4   -1    0    0    0  501 -0.00000000000E+00 -0.00000000000E+00 -0.22547490635E+03  0.22547490635E+03  0.00000000000E+00 0.  1.
         25    2    1    2    0    0 -0.11489967015E+02  0.37311430007E+02 -0.13308757420E+03  0.18676787765E+03  0.12508307465E+03 0.  0.
         23    2    1    2    0    0  0.11489967015E+02 -0.37311430007E+02 -0.22807004656E+02  0.10828735619E+03  0.98396290067E+02 0.  0.
          5    1    3    3  502    0  0.44242006052E+02  0.52041951466E+01 -0.71715232215E+01  0.45313815685E+02  0.41800000000E+01 0. -1.
         -5    1    3    3    0  502 -0.55731973067E+02  0.32107234861E+02 -0.12591605098E+03  0.14145406197E+03  0.41800000000E+01 0. -1.
        -11    1    4    4    0    0  0.20696424508E+02 -0.66507951419E+02  0.75235172204E+00  0.69657846812E+02  0.00000000000E+00 0. -1.
         11    1    4    4    0    0 -0.92064574932E+01  0.29196521412E+02 -0.23559356378E+02  0.38629509382E+02  0.00000000000E+00 0.  1.
</event>
<event>
 8    1  0.6703334E-009  0.1033923E+03  0.7561462E-02  0.1273320E+00
          3   -1    0    0  501    0  0.00000000000E+00  0.00000000000E+00  0.26769688802E+03  0.26769688802E+03  0.00000000000E+00 0. -1.
         -3   -1    0    0    0  501 -0.00000000000E+00 -0.00000000000E+00 -0.10209135841E+03  0.10209135841E+03  0.00000000000E+00 0.  1.
         25    2    1    2    0    0 -0.19220047481E+02 -0.89860828137E+02 -0.14828311071E+01  0.15522192435E+03  0.12508904169E+03 0.  0.
         23    2    1    2    0    0  0.19220047481E+02  0.89860828137E+02  0.16708836072E+03  0.21456632209E+03  0.98365683196E+02 0.  0.
          5    1    3    3  502    0 -0.84504078108E+00 -0.53179666762E+02 -0.62123496951E+02  0.81887681151E+02  0.41800000000E+01 0.  1.
         -5    1    3    3    0  502 -0.18375006700E+02 -0.36681161375E+02  0.60640665844E+02  0.73334243195E+02  0.41800000000E+01 0.  1.
        -11    1    4    4    0    0  0.38827444743E+02  0.29594895506E+02  0.17083296407E+02  0.51722986393E+02  0.00000000000E+00 0.  1.
         11    1    4    4    0    0 -0.19607397262E+02  0.60265932631E+02  0.15000506431E+03  0.16284333570E+03  0.00000000000E+00 0. -1.
</event>
<event>
 8    1  0.6703334E-009  0.1106178E+03  0.7561462E-02  0.1259430E+00
          2   -1    0    0  501    0  0.00000000000E+00  0.00000000000E+00  0.94725258655E+02  0.94725258655E+02  0.00000000000E+00 0. -1.
         -2   -1    0    0    0  501 -0.00000000000E+00 -0.00000000000E+00 -0.19269027997E+03  0.19269027997E+03  0.00000000000E+00 0.  1.
         25    2    1    2    0    0  0.48262447358E+01  0.80182005628E+02 -0.66798010771E+02  0.16297361923E+03  0.12508389048E+03 0.  0.
         23    2    1    2    0    0 -0.48262447358E+01 -0.80182005628E+02 -0.31167010540E+02  0.12444191939E+03  0.89788429599E+02 0.  0.
          5    1    3    3  502    0  0.42825715442E+02  0.81863521529E+00  0.12111004957E+02  0.44708622298E+02  0.41800000000E+01 0.  1.
         -5    1    3    3    0  502 -0.37999470706E+02  0.79363370413E+02 -0.78909015728E+02  0.11826499694E+03  0.41800000000E+01 0.  1.
        -11    1    4    4    0    0  0.17737889720E+02 -0.44320871501E+02  0.25156605376E+02  0.53961348911E+02  0.00000000000E+00 0. -1.
         11    1    4    4    0    0 -0.22564134456E+02 -0.35861134128E+02 -0.56323615916E+02  0.70480570475E+02  0.00000000000E+00 0.  1.
</event>
<event>
 8    1  0.6703334E-009  0.2019980E+03  0.7561462E-02  0.1148064E+00
          1   -1    0    0  501    0  0.00000000000E+00  0.00000000000E+00  0.73389655262E+03  0.73389655262E+03  0.00000000000E+00 0. -1.
         -1   -1    0    0    0  501 -0.00000000000E+00 -0.00000000000E+00 -0.70302383366E+02  0.70302383366E+02  0.00000000000E+00 0.  1.
         25    2    1    2    0    0  0.74046865975E+02  0.15945691539E+03  0.17909199844E+03  0.28041374740E+03  0.12509388313E+03 0.  0.
         23    2    1    2    0    0 -0.74046865975E+02 -0.15945691539E+03  0.48450217081E+03  0.52378518858E+03  0.93269094752E+02 0.  0.
          5    1    3    3  502    0  0.80793396004E+02  0.17381061781E+03  0.18129856051E+03  0.26386425325E+03  0.41800000000E+01 0. -1.
         -5    1    3    3    0  502 -0.67465300292E+01 -0.14353702415E+02 -0.22065620641E+01  0.16549494150E+02  0.41800000000E+01 0. -1.
        -11    1    4    4    0    0 -0.23322929358E+02  0.49341531553E+01  0.33772022152E+02  0.41338291951E+02  0.00000000000E+00 0.  1.
         11    1    4    4    0    0 -0.50723936617E+02 -0.16439106855E+03  0.45073014865E+03  0.48244689663E+03  0.00000000000E+00 0. -1.
</event>
<event>
 8    1  0.6703334E-009  0.1210865E+03  0.7561462E-02  0.1241315E+00
         -2   -1    0    0    0  501 -0.00000000000E+00  0.00000000000E+00  0.23434675048E+02  0.23434675048E+02  0.00000000000E+00 0.  1.
          2   -1    0    0  501    0  0.00000000000E+00 -0.00000000000E+00 -0.68428853945E+03  0.68428853945E+03  0.00000000000E+00 0. -1.
         25    2    1    2    0    0 -0.24802038923E+02 -0.51667134904E+02 -0.45546488472E+03  0.47579492690E+03  0.12509163558E+03 0.  0.
         23    2    1    2    0    0  0.24802038923E+02  0.51667134904E+02 -0.20538897969E+03  0.23192828760E+03  0.91222056807E+02 0.  0.
          5    1    3    3  502    0 -0.73438443507E+02 -0.43356121484E+02 -0.33115281004E+03  0.34198335376E+03  0.41800000000E+01 0. -1.
         -5    1    3    3    0  502  0.48636404583E+02 -0.83110134194E+01 -0.12431207468E+03  0.13381157314E+03  0.41800000000E+01 0. -1.
        -11    1    4    4    0    0 -0.34370045514E+02  0.24196797522E+02 -0.70207092513E+02  0.81827995686E+02  0.00000000000E+00 0. -1.
         11    1    4    4    0    0  0.59172084437E+02  0.27470337382E+02 -0.13518188718E+03  0.15010029192E+03  0.00000000000E+00 0.  1.
</event>
<event>
 8    1  0.6703334E-009  0.1050336E+03  0.7561462E-02  0.1270054E+00
          1   -1    0    0  501    0  0.00000000000E+00  0.00000000000E+00  0.98710457066E+03  0.98710457066E+03  0.00000000000E+00 0. -1.
         -1   -1    0    0    0  501 -0.00000000000E+00 -0.00000000000E+00 -0.19405669214E+02  0.19405669214E+02  0.00000000000E+00 0.  1.
         25    2    1    2    0    0 -0.40533297328E+02  0.25226824706E+01  0.80497303721E+03  0.81564031200E+03  0.12505285207E+03 0.  0.
         23    2    1    2    0    0  0.40533297328E+02 -0.25226824706E+01  0.16272586423E+03  0.19086992787E+03  0.91117014627E+02 0.  0.
          5    1    3    3  502    0 -0.41885163785E+02  0.51569607489E+02  0.64060369031E+03  0.64405306599E+03  0.41800000000E+01 0.  1.
         -5    1    3    3    0  502  0.13518664570E+01 -0.49046925018E+02  0.16436934690E+03  0.17158724602E+03  0.41800000000E+01 0.  1.
        -11    1    4    4    0    0 -0.26840644689E+02 -0.12643537732E+01  0.78702560045E+02  0.83163163453E+02  0.00000000000E+00 0. -1.
         11    1    4    4    0    0  0.67373942017E+02 -0.12583286975E+01  0.84023304189E+02  0.10770676442E+03  0.00000000000E+00 0.  1.
</event>
<event>
 8    1  0.6703334E-009  0.9479245E+02  0.7561462E-02  0.1291644E+00
          2   -1    0    0  501    0  0.00000000000E+00  0.00000000000E+00  0.33717984582E+02  0.33717984582E+02  0.00000000000E+00 0. -1.
         -2   -1    0    0    0  501 -0.00000000000E+00 -0.00000000000E+00 -0.38577518139E+03  0.38577518139E+03  0.00000000000E+00 0.  1.
         25    2    1    2    0    0 -0.93954993560E+01  0.50250539856E+01 -0.13738718805E+03  0.18610803090E+03  0.12508970042E+03 0.  0.
         23    2    1    2    0    0  0.93954993560E+01 -0.50250539856E+01 -0.21467000876E+03  0.23338513507E+03  0.90949887493E+02 0.  0.
          5    1    3    3  502    0  0.23920021851E+02  0.42369481897E+02 -0.10928267949E+02  0.50042380858E+02  0.41800000000E+01 0. -1.
         -5    1    3    3    0  502 -0.33315521207E+02 -0.37344427911E+02 -0.12645892010E+03  0.13606565005E+03  0.41800000000E+01 0. -1.
        -11    1    4    4    0    0 -0.36304602008E+02 -0.21213684166E+02 -0.11738119408E+03  0.12468516049E+03  0.00000000000E+00 0.  1.
         11    1    4    4    0    0  0.45700101364E+02  0.16188630180E+02 -0.97288814679E+02  0.10869997458E+03  0.00000000000E+00 0. -1.
</event>
<event>
 8    1  0.6703334E-009  0.1394409E+03  0.7561462E-02  0.1214083E+00
          2   -1    0    0  501    0  0.00000000000E+00  0.00000000000E+00  0.56497030228E+02  0.56497030228E+02  0.00000000000E+00 0. -1.
         -2   -1    0    0    0  501 -0.00000000000E+00 -0.00000000000E+00 -0.39778652323E+03  0.39778652323E+03  0.00000000000E+00 0.  1.
         25    2    1    2    0    0  0.83724489310E+00  0.93165370040E+02 -0.15027309807E+03  0.21658968836E+03  0.12509437217E+03 0.  0.
         23    2    1    2    0    0 -0.83724489310E+00 -0.93165370040E+02 -0.19101639494E+03  0.23769386510E+03  0.10644540016E+03 0.  0.
          5    1    3    3  502    0  0.57481243218E+02  0.76859918489E+02 -0.10361505010E+03  0.14129788179E+03  0.41800000000E+01 0. -1.
         -5    1    3    3    0  502 -0.56643998325E+02  0.16305451551E+02 -0.46658047966E+02  0.75291806570E+02  0.41800000000E+01 0. -1.
        -11    1    4    4    0    0  0.38833810898E+02 -0.62493268622E+02 -0.52518030474E+02  0.90396996724E+02  0.00000000000E+00 0. -1.
         11    1    4    4    0    0 -0.39671055791E+02 -0.30672101418E+02 -0.13849836446E+03  0.14729686837E+03  0.00000000000E+00 0.  1.
</event>
<event>
 8    1  0.6703334E-009  0.1020820E+03  0.7561462E-02  0.1275978E+00
         -2   -1    0    0    0  501 -0.00000000000E+00  0.00000000000E+00  0.18805157277E+02  0.18805157277E+02  0.00000000000E+00 0. -1.
          2   -1    0    0  501    0  0.00000000000E+00 -0.00000000000E+00 -0.15623357086E+04  0.15623357086E+04  0.00000000000E+00 0.  1.
         25    2    1    2    0    0 -0.46553503023E+02  0.33230791579E+02 -0.13651194448E+04  0.13720313821E+04  0.12508997116E+03 0.  0.
         23    2    1    2    0    0  0.46553503023E+02 -0.33230791579E+02 -0.17841110654E+03  0.20910948374E+03  0.92869473465E+02 0.  0.
          5    1    3    3  502    0 -0.59320642809E+02 -0.88002513818E+01 -0.29816055487E+03  0.30416043787E+03  0.41800000000E+01 0.  1.
         -5    1    3    3    0  502  0.12767139786E+02  0.42031042961E+02 -0.10669588899E+04  0.10678709443E+04  0.41800000000E+01 0.  1.
        -11    1    4    4    0    0  0.89028178022E+00  0.25507634485E+02 -0.90051574550E+02  0.93598707777E+02  0.00000000000E+00 0.  1.
         11    1    4    4    0    0  0.45663221242E+02 -0.58738426064E+02 -0.88359531992E+02  0.11551077597E+03  0.00000000000E+00 0. -1.
</event>
<event>
 8    1  0.6703334E-009  0.1305647E+03  0.7561462E-02  0.1226620E+00
          1   -1    0    0  501    0  0.00000000000E+00  0.00000000000E+00  0.79033819086E+02  0.79033819086E+02  0.00000000000E+00 0. -1.
         -1   -1    0    0    0  501 -0.00000000000E+00 -0.00000000000E+00 -0.37256123353E+03  0.37256123353E+03  0.00000000000E+00 0.  1.
         25    2    1    2    0    0 -0.10704554308E+03 -0.84402793777E+01 -0.25866908388E+03  0.30673765985E+03  0.12509320687E+03 0.  0.
         23    2    1    2    0    0  0.10704554308E+03  0.84402793777E+01 -0.34858330565E+02  0.14485739277E+03  0.90766593089E+02 0.  0.
          5    1    3    3  502    0 -0.11198945647E+03 -0.28048773786E+02 -0.12011669926E+03  0.16665493066E+03  0.41800000000E+01 0. -1.
         -5    1    3    3    0  502  0.49439133944E+01  0.19608494409E+02 -0.13855238462E+03  0.14008272919E+03  0.41800000000E+01 0. -1.
        -11    1    4    4    0    0  0.67945656847E+02 -0.26098272696E+02  0.13144873173E+02  0.73962962439E+02  0.00000000000E+00 0. -1.
         11    1    4    4    0    0  0.39099886233E+02  0.34538552074E+02 -0.48003203738E+02  0.70894430331E+02  0.00000000000E+00 0.  1.
</event>
<event>
 8    1  0.6703334E-009  0.1025023E+03  0.7561462E-02  0.1275120E+00
          1   -1    0    0  501    0  0.00000000000E+00  0.00000000000E+00  0.56186465599E+02  0.56186465599E+02  0.00000000000E+00 0. -1.
         -1   -1    0    0    0  501 -0.00000000000E+00 -0.00000000000E+00 -0.27201855491E+03  0.27201855491E+03  0.00000000000E+00 0.  1.
         25    2    1    2    0    0 -0.24171315224E+02 -0.46137554231E+02 -0.72472179387E+02  0.15366396424E+03  0.12508985062E+03 0.  0.
         23    2    1    2    0    0  0.24171315224E+02  0.46137554231E+02 -0.14335990992E+03  0.17454105627E+03  0.84850398714E+02 0.  0.
          5    1    3    3  502    0  0.31769741267E+02  0.20157926392E+02 -0.52204214900E+02  0.64485741912E+02  0.41800000000E+01 0. -1.
         -5    1    3    3    0  502 -0.55941056491E+02 -0.66295480623E+02 -0.20267964487E+02  0.89178222324E+02  0.41800000000E+01 0. -1.
        -11    1    4    4    0    0 -0.20637813864E+02  0.11181984898E+02 -0.10091608702E+03  0.10360990670E+03  0.00000000000E+00 0. -1.
         11    1    4    4    0    0  0.44809129087E+02  0.34955569333E+02 -0.42443822903E+02  0.70931149571E+02  0.00000000000E+00 0.  1.
</event>
<event>
 8    1  0.6703334E-009  0.1225856E+03  0.7561462E-02  0.1238892E+00
         -1   -1    0    0    0  501 -0.00000000000E+00  0.00000000000E+00  0.10276569310E+03  0.10276569310E+03  0.00000000000E+00 0.  1.
          1   -1    0    0  501    0  0.00000000000E+00 -0.00000000000E+00 -0.24970556638E+03  0.24970556638E+03  0.00000000000E+00 0. -1.
         25    2    1    2    0    0  0.66826333948E+02 -0.14872322406E+02 -0.18389070838E+03  0.23270381073E+03  0.12509326928E+03 0.  0.
         23    2    1    2    0    0 -0.66826333948E+02  0.14872322406E+02  0.36950835110E+02  0.11976744875E+03  0.91060049863E+02 0.  0.
          5    1    3    3  502    0  0.78461804856E+02 -0.51769428223E+02 -0.86443795994E+02  0.12777453105E+03  0.41800000000E+01 0.  1.
         -5    1    3    3    0  502 -0.11635470909E+02  0.36897105817E+02 -0.97446912386E+02  0.10492927968E+03  0.41800000000E+01 0.  1.
        -11    1    4    4    0    0 -0.50386186566E+02  0.51479324537E+02  0.33640318763E+02  0.79501947762E+02  0.00000000000E+00 0.  1.
         11    1    4    4    0    0 -0.16440147381E+02 -0.36607002131E+02  0.33105163470E+01  0.40265500983E+02  0.00000000000E+00 0. -1.
</event>
<event>
 8    1  0.6703334E-009  0.8735257E+02  0.7561462E-02  0.1309392E+00
          2   -1    0    0  501    0  0.00000000000E+00  0.00000000000E+00  0.18960134339E+03  0.18960134339E+03  0.00000000000E+00 0.  1.
         -2   -1    0    0    0  501 -0.00000000000E+00 -0.00000000000E+00 -0.13777407640E+03  0.13777407640E+03  0.00000000000E+00 0. -1.
         25    2    1    2    0    0 -0.72268181215E+02 -0.11149318159E+02 -0.67456303993E+02  0.15978169610E+03  0.12503135667E+03 0.  0.
         23    2    1    2    0    0  0.72268181215E+02  0.11149318159E+02  0.11928357099E+03  0.16759372368E+03  0.92260980916E+02 0.  0.
          5    1    3    3  502    0 -0.24978306209E+02 -0.25658119137E+02  0.32268973769E+02  0.48384025534E+02  0.41800000000E+01 0. -1.
         -5    1    3    3    0  502 -0.47289875006E+02  0.14508800978E+02 -0.99725277762E+02  0.11139767057E+03  0.41800000000E+01 0. -1.
        -11    1    4    4    0    0  0.52031345383E+02 -0.16646521061E+02  0.12142174876E+03  0.13314506614E+03  0.00000000000E+00 0.  1.
         11    1    4    4    0    0  0.20236835832E+02  0.27795839220E+02 -0.21381777722E+01  0.34448657545E+02  0.00000000000E+00 0. -1.
</event>
<event>
 8    1  0.6703334E-009  0.8591491E+02  0.7561462E-02  0.1313057E+00
         -2   -1    0    0    0  501 -0.00000000000E+00  0.00000000000E+00  0.46376596489E+02  0.46376596489E+02  0.00000000000E+00 0.  1.
          2   -1    0    0  501    0  0.00000000000E+00 -0.00000000000E+00 -0.40998247380E+03  0.40998247380E+03  0.00000000000E+00 0. -1.
         25    2    1    2    0    0  0.62965894434E+02  0.17276458674E+01 -0.10748992876E+03  0.17654370192E+03  0.12508359317E+03 0.  0.
         23    2    1    2    0    0 -0.62965894434E+02 -0.17276458674E+01 -0.25611594855E+03  0.27981536837E+03  0.93453585542E+02 0.  0.
          5    1    3    3  502    0  0.17307523114E+02  0.76698974081E-01 -0.12586764399E+03  0.12712077896E+03  0.41800000000E+01 0. -1.
         -5    1    3    3    0  502  0.45658371320E+02  0.16509468933E+01  0.18377715230E+02  0.49422922964E+02  0.41800000000E+01 0. -1.
        -11    1    4    4    0    0  0.42182616953E+01 -0.33544208586E+02 -0.47130153487E+02  0.58002232966E+02  0.00000000000E+00 0.  1.
         11    1    4    4    0    0 -0.67184156129E+02  0.31816562719E+02 -0.20898579507E+03  0.22181313540E+03  0.00000000000E+00 0. -1.
</event>
<event>
 8    1  0.6703334E-009  0.1261956E+03  0.7561462E-02  0.1233213E+00
         -2   -1    0    0    0  501 -0.00000000000E+00  0.00000000000E+00  0.21745919040E+02  0.21745919040E+02  0.00000000000E+00 0.  1.
          2   -1    0    0  501    0  0.00000000000E+00 -0.00000000000E+00 -0.13849038696E+04  0.13849038696E+04  0.00000000000E+00 0. -1.
         25    2    1    2    0    0 -0.16071700531E+02 -0.94927306733E+02 -0.10430425744E+04  0.10549191557E+04  0.12508844881E+03 0.  0.
         23    2    1    2    0    0  0.16071700531E+02  0.94927306733E+02 -0.32011537615E+03  0.35173063288E+03  0.10941248073E+03 0.  0.
          5    1    3    3  502    0  0.46930982232E+02 -0.59340860128E+02 -0.71283229635E+03  0.71684810796E+03  0.41800000000E+01 0.  1.
         -5    1    3    3    0  502 -0.63002682763E+02 -0.35586446605E+02 -0.33021027804E+03  0.33807104777E+03  0.41800000000E+01 0.  1.
        -11    1    4    4    0    0 -0.13355264058E+02  0.31851320138E+02 -0.13123324793E+02  0.36947142328E+02  0.00000000000E+00 0.  1.
         11    1    4    4    0    0  0.29426964589E+02  0.63075986594E+02 -0.30699205135E+03  0.31478349055E+03  0.00000000000E+00 0. -1.
</event>
<event>
 8    1  0.6703334E-009  0.1009416E+03  0.7561462E-02  0.1278328E+00
         -2   -1    0    0    0  501 -0.00000000000E+00  0.00000000000E+00  0.17027481333E+02  0.17027481333E+02  0.00000000000E+00 0.  1.
          2   -1    0    0  501    0  0.00000000000E+00 -0.00000000000E+00 -0.13775094305E+04  0.13775094305E+04  0.00000000000E+00 0. -1.
         25    2    1    2    0    0 -0.21686481614E+02 -0.72560354691E+02 -0.10846370836E+04  0.10944499578E+04  0.12509116058E+03 0.  0.
         23    2    1    2    0    0  0.21686481614E+02  0.72560354691E+02 -0.27584486557E+03  0.30008695403E+03  0.90699953484E+02 0.  0.
          5    1    3    3  502    0 -0.57066281979E+02 -0.36476808775E+02 -0.91197467732E+03  0.91449570944E+03  0.41800000000E+01 0.  1.
         -5    1    3    3    0  502  0.35379800365E+02 -0.36083545916E+02 -0.17266240624E+03  0.17995424832E+03  0.41800000000E+01 0.  1.
        -11    1    4    4    0    0  0.27880638852E+02  0.32666043739E+02 -0.33674654518E+02  0.54574561778E+02  0.00000000000E+00 0.  1.
         11    1    4    4    0    0 -0.61941572381E+01  0.39894310953E+02 -0.24217021105E+03  0.24551239225E+03  0.00000000000E+00 0. -1.
</event>
<event>
 8    1  0.6703334E-009  0.1086865E+03  0.7561462E-02  0.1263022E+00
          2   -1    0    0  501    0  0.00000000000E+00  0.00000000000E+00  0.69653068431E+03  0.69653068431E+03  0.00000000000E+00 0. -1.
         -2   -1    0    0    0  501 -0.00000000000E+00 -0.00000000000E+00 -0.20052046329E+02  0.20052046329E+02  0.00000000000E+00 0.  1.
         25    2    1    2    0    0  0.29241407760E+02  0.23116720150E+02  0.39878427527E+03  0.41960189117E+03  0.12508959265E+03 0.  0.
         23    2    1    2    0    0 -0.29241407760E+02 -0.23116720150E+02  0.27769436270E+03  0.29698083946E+03  0.98458200544E+02 0.  0.
          5    1    3    3  502    0  0.37569658591E+02 -0.39913069159E+02  0.10014147890E+03  0.11423799952E+03  0.41800000000E+01 0.  1.
         -5    1    3    3    0  502 -0.83282508308E+01  0.63029789309E+02  0.29864279637E+03  0.30536389165E+03  0.41800000000E+01 0.  1.
        -11    1    4    4    0    0  0.64797328677E+01 -0.52213106791E+02  0.95313639891E+02  0.10887095760E+03  0.00000000000E+00 0.  1.
         11    1    4    4    0    0 -0.35721140628E+02  0.29096386641E+02  0.18238072281E+03  0.18810988187E+03  0.00000000000E+00 0. -1.
</event>
<event>
 8    1  0.6703334E-009  0.1761821E+03  0.7561462E-02  0.1171550E+00
         -1   -1    0    0    0  501 -0.00000000000E+00  0.00000000000E+00  0.62359635385E+02  0.62359635385E+02  0.00000000000E+00 0.  1.
          1   -1    0    0  501    0  0.00000000000E+00 -0.00000000000E+00 -0.59649250063E+03  0.59649250063E+03  0.00000000000E+00 0. -1.
         25    2    1    2    0    0 -0.13144127887E+03 -0.83114655792E+02 -0.32660429272E+03  0.38275703238E+03  0.12509087103E+03 0.  0.
         23    2    1    2    0    0  0.13144127887E+03  0.83114655792E+02 -0.20752857252E+03  0.27609510364E+03  0.94739337337E+02 0.  0.
          5    1    3    3  502    0 -0.12754444577E+03 -0.99634709795E+02 -0.21160756452E+03  0.26643928916E+03  0.41800000000E+01 0.  1.
         -5    1    3    3    0  502 -0.38968330990E+01  0.16520054002E+02 -0.11499672819E+03  0.11631774322E+03  0.41800000000E+01 0.  1.
        -11    1    4    4    0    0  0.78698762929E+02  0.51682550614E+01 -0.52528513475E+02  0.94759964515E+02  0.00000000000E+00 0.  1.
         11    1    4    4    0    0  0.52742515941E+02  0.77946400731E+02 -0.15500005905E+03  0.18133513912E+03  0.00000000000E+00 0. -1.
</event>
<event>
 8    1  0.6703334E-009  0.1280387E+03  0.7561462E-02  0.1230395E+00
         -3   -1    0    0    0  501 -0.00000000000E+00  0.00000000000E+00  0.36341059073E+03  0.36341059073E+03  0.00000000000E+00 0.  1.
          3   -1    0    0  501    0  0.00000000000E+00 -0.00000000000E+00 -0.72876335188E+02  0.72876335188E+02  0.00000000000E+00 0. -1.
         25    2    1    2    0    0 -0.81957279699E+02  0.63424675097E+02  0.73383693145E+02  0.17824982537E+03  0.12509256060E+03 0.  0.
         23    2    1    2    0    0  0.81957279699E+02 -0.63424675097E+02  0.21715056239E+03  0.25803710055E+03  0.93215306700E+02 0.  0.
          5    1    3    3  502    0 -0.27099587155E+02  0.78805803006E+02  0.85915452324E+02  0.11976510159E+03  0.41800000000E+01 0.  1.
         -5    1    3    3    0  502 -0.54857692545E+02 -0.15381127909E+02 -0.12531759179E+02  0.58484723776E+02  0.41800000000E+01 0.  1.
        -11    1    4    4    0    0  0.49104921099E+02 -0.66332376064E+02  0.73067827899E+02  0.11022787698E+03  0.00000000000E+00 0. -1.
         11    1    4    4    0    0  0.32852358600E+02  0.29077009672E+01  0.14408273449E+03  0.14780922356E+03  0.00000000000E+00 0.  1.
</event>
<event>
 8    1  0.6703334E-009  0.1501144E+03  0.7561462E-02  0.1200332E+00
          2   -1    0    0  501    0  0.00000000000E+00  0.00000000000E+00  0.49914318129E+02  0.49914318129E+02  0.00000000000E+00 0. -1.
         -2   -1    0    0    0  501 -0.00000000000E+00 -0.00000000000E+00 -0.66065582345E+03  0.66065582345E+03  0.00000000000E+00 0.  1.
         25    2    1    2    0    0 -0.57763379155E+02  0.12684078638E+03 -0.24167588133E+03  0.30574424175E+03  0.12508843546E+03 0.  0.
         23    2    1    2    0    0  0.57763379155E+02 -0.12684078638E+03 -0.36906562399E+03  0.40482589983E+03  0.90826104720E+02 0.  0.
          5    1    3    3  502    0 -0.53518713867E+02  0.26340365246E+02 -0.17514316892E+03  0.18506936428E+03  0.41800000000E+01 0.  1.
         -5    1    3    3    0  502 -0.42446652872E+01  0.10050042113E+03 -0.66532712404E+02  0.12067487747E+03  0.41800000000E+01 0.  1.
        -11    1    4    4    0    0  0.34065441492E+02 -0.62348713939E+02 -0.29649773533E+03  0.30489133062E+03  0.00000000000E+00 0.  1.
         11    1    4    4    0    0  0.23697937662E+02 -0.64492072442E+02 -0.72567888662E+02  0.99934569205E+02  0.00000000000E+00 0. -1.
</event>
<event>
 8    1  0.6703334E-009  0.2524107E+03  0.7561462E-02  0.1111791E+00
         -1   -1    0    0    0  501 -0.00000000000E+00  0.00000000000E+00  0.86975508256E+02  0.86975508256E+02  0.00000000000E+00 0.  1.
          1   -1    0    0  501    0  0.00000000000E+00 -0.00000000000E+00 -0.89174141831E+03  0.89174141831E+03  0.00000000000E+00 0. -1.
         25    2    1    2    0    0 -0.13916541951E+03 -0.18464199300E+03 -0.21825158255E+03  0.34167393474E+03  0.12509054653E+03 0.  0.
         23    2    1    2    0    0  0.13916541951E+03  0.18464199300E+03 -0.58651432751E+03  0.63704299182E+03  0.91460578925E+02 0.  0.
          5    1    3    3  502    0  0.21606448391E+02 -0.85505221385E+01 -0.12565749380E+02  0.26745476223E+02  0.41800000000E+01 0. -1.
         -5    1    3    3    0  502 -0.16077186790E+03 -0.17609147086E+03 -0.20568583317E+03  0.31492845852E+03  0.41800000000E+01 0. -1.
        -11    1    4    4    0    0  0.41920603517E+02  0.11697397947E+03 -0.36896637935E+03  0.38932818799E+03  0.00000000000E+00 0.  1.
         11    1    4    4    0    0  0.97244815994E+02  0.67668013529E+02 -0.21754794816E+03  0.24771480384E+03  0.00000000000E+00 0. -1.
</event>
<event>
 8    1  0.6703334E-009  0.7891296E+02  0.7561462E-02  0.1332165E+00
          2   -1    0    0  501    0  0.00000000000E+00  0.00000000000E+00  0.19808333540E+03  0.19808333540E+03  0.00000000000E+00 0. -1.
         -2   -1    0    0    0  501 -0.00000000000E+00 -0.00000000000E+00 -0.77452948272E+02  0.77452948272E+02  0.00000000000E+00 0.  1.
         25    2    1    2    0    0  0.13443703196E+02  0.68317378427E+01  0.13165040044E+03  0.18222653248E+03  0.12508906989E+03 0.  0.
         23    2    1    2    0    0 -0.13443703196E+02 -0.68317378427E+01 -0.11020013311E+02  0.93309751189E+02  0.91421349673E+02 0.  0.
          5    1    3    3  502    0 -0.33440495975E+02  0.50328052373E+01 -0.78678811363E+01  0.34971014472E+02  0.41800000000E+01 0.  1.
         -5    1    3    3    0  502  0.46884199171E+02  0.17989326054E+01  0.13951828157E+03  0.14725551801E+03  0.41800000000E+01 0.  1.
        -11    1    4    4    0    0  0.11673320456E+02  0.29928949984E+02 -0.30879234531E+02  0.44559348995E+02  0.00000000000E+00 0.  1.
         11    1    4    4    0    0 -0.25117023652E+02 -0.36760687827E+02  0.19859221220E+02  0.48750402194E+02  0.00000000000E+00 0. -1.
</event>
<event>
 8    1  0.6703334E-009  0.2389363E+03  0.7561462E-02  0.1120503E+00
         -1   -1    0    0    0  501 -0.00000000000E+00  0.00000000000E+00  0.57625905135E+02  0.57625905135E+02  0.00000000000E+00 0.  1.
          1   -1    0    0  501    0  0.00000000000E+00 -0.00000000000E+00 -0.13706391726E+04  0.13706391726E+04  0.00000000000E+00 0. -1.
         25    2    1    2    0    0 -0.18739396695E+03  0.12506788567E+03 -0.34850093552E+03  0.43342702680E+03  0.12509040979E+03 0.  0.
         23    2    1    2    0    0  0.18739396695E+03 -0.12506788567E+03 -0.96451233191E+03  0.99483805090E+03  0.93060379559E+02 0.  0.
          5    1    3    3  502    0 -0.22385429051E+01  0.27280643177E+02 -0.12131724329E+03  0.12443709449E+03  0.41800000000E+01 0. -1.
         -5    1    3    3    0  502 -0.18515542405E+03  0.97787242494E+02 -0.22718369223E+03  0.30898993231E+03  0.41800000000E+01 0. -1.
        -11    1    4    4    0    0  0.89754546078E+02 -0.10728657484E+02 -0.28955604220E+03  0.30333757468E+03  0.00000000000E+00 0.  1.
         11    1    4    4    0    0  0.97639420877E+02 -0.11433922819E+03 -0.67495628971E+03  0.69150047623E+03  0.00000000000E+00 0. -1.
</event>
<event>
 8    1  0.6703334E-009  0.1256216E+03  0.7561462E-02  0.1234101E+00
         -1   -1    0    0    0  501 -0.00000000000E+00  0.00000000000E+00  0.75222128129E+02  0.75222128129E+02  0.00000000000E+00 0.  1.
          1   -1    0    0  501    0  0.00000000000E+00 -0.00000000000E+00 -0.22469330655E+03  0.22469330655E+03  0.00000000000E+00 0. -1.
         25    2    1    2    0    0  0.38807631458E+02 -0.50970497110E+02 -0.47749821391E+02  0.14840067651E+03  0.12505475405E+03 0.  0.
         23    2    1    2    0    0 -0.38807631458E+02  0.50970497110E+02 -0.10172135703E+03  0.15151475817E+03  0.92225070514E+02 0.  0.
          5    1    3    3  502    0  0.60272889732E+02  0.21763287650E+02 -0.16740142115E+02  0.66363895938E+02  0.41800000000E+01 0. -1.
         -5    1    3    3    0  502 -0.21465258274E+02 -0.72733784759E+02 -0.31009679276E+02  0.82036780574E+02  0.41800000000E+01 0. -1.
        -11    1    4    4    0    0 -0.38751991412E+02  0.76389122712E+02 -0.68461615859E+02  0.10965403665E+03  0.00000000000E+00 0. -1.
         11    1    4    4    0    0 -0.55640046583E-01 -0.25418625603E+02 -0.33259741168E+02  0.41860721517E+02  0.00000000000E+00 0.  1.
</event>
<event>
 8    1  0.6703334E-009  0.7246304E+02  0.7561462E-02  0.1351912E+00
         -1   -1    0    0    0  501 -0.00000000000E+00  0.00000000000E+00  0.47585975783E+02  0.47585975783E+02  0.00000000000E+00 0.  1.
          1   -1    0    0  501    0  0.00000000000E+00 -0.00000000000E+00 -0.29013777694E+03  0.29013777694E+03  0.00000000000E+00 0. -1.
         25    2    1    2    0    0 -0.37761289967E+02 -0.23226282135E+02 -0.14802920659E+03  0.19879182359E+03  0.12506065697E+03 0.  0.
         23    2    1    2    0    0  0.37761289967E+02  0.23226282135E+02 -0.94522594569E+02  0.13893192914E+03  0.91663432446E+02 0.  0.
          5    1    3    3  502    0 -0.57828696120E+01  0.98124017215E+01  0.20626857619E+02  0.23930408766E+02  0.41800000000E+01 0. -1.
         -5    1    3    3    0  502 -0.31978420355E+02 -0.33038683856E+02 -0.16865606421E+03  0.17486141482E+03  0.41800000000E+01 0. -1.
        -11    1    4    4    0    0  0.52217667533E+02 -0.74169326778E+01 -0.18830515578E+02  0.56002535745E+02  0.00000000000E+00 0.  1.
         11    1    4    4    0    0 -0.14456377565E+02  0.30643214812E+02 -0.75692078991E+02  0.82929393392E+02  0.00000000000E+00 0. -1.
</event>
<event>
 8    1  0.6703334E-009  0.2133701E+03  0.7561462E-02  0.1138925E+00
         -2   -1    0    0    0  501 -0.00000000000E+00  0.00000000000E+00  0.32434517827E+02  0.32434517827E+02  0.00000000000E+00 0.  1.
          2   -1    0    0  501    0  0.00000000000E+00 -0.00000000000E+00 -0.15150197708E+04  0.15150197708E+04  0.00000000000E+00 0. -1.
         25    2    1    2    0    0 -0.17188630098E+03  0.74358329602E+02 -0.93655212592E+03  0.96325054084E+03  0.12509059998E+03 0.  0.
         23    2    1    2    0    0  0.17188630098E+03 -0.74358329602E+02 -0.54603312709E+03  0.58420374784E+03  0.89820829740E+02 0.  0.
          5    1    3    3  502    0 -0.40126348411E+02 -0.30826258712E+02 -0.13699622353E+03  0.14610208665E+03  0.41800000000E+01 0.  1.
         -5    1    3    3    0  502 -0.13175995257E+03  0.10518458831E+03 -0.79955590240E+03  0.81714845419E+03  0.41800000000E+01 0.  1.
        -11    1    4    4    0    0  0.22819386395E+02 -0.51737860335E+02 -0.13352897384E+03  0.14500868058E+03  0.00000000000E+00 0.  1.
         11    1    4    4    0    0  0.14906691459E+03 -0.22620469267E+02 -0.41250415325E+03  0.43919506726E+03  0.00000000000E+00 0. -1.
</event>
<event>
 7    1  0.6703334E-009  0.7793955E+02  0.7561462E-02  0.1335002E+00
         -2   -1    0    0    0  501 -0.00000000000E+00  0.00000000000E+00  0.16382536627E+03  0.16382536627E+03  0.00000000000E+00 0.  1.
          2   -1    0    0  501    0  0.00000000000E+00 -0.00000000000E+00 -0.16237263240E+03  0.16237263240E+03  0.00000000000E+00 0. -1.
         23    2    1    2    0    0 -0.50121542456E+02 -0.53764266358E+00 -0.11266354566E+03  0.14926380845E+03  0.84107977702E+02 0.  0.
          5    1    1    2  502    0 -0.12322609001E+02  0.28420069189E+02 -0.11941225617E+02  0.33460608102E+02  0.41800000000E+01 0. -1.
         -5    1    1    2    0  502  0.62444151457E+02 -0.27882426525E+02  0.12605750515E+03  0.14347358212E+03  0.41800000000E+01 0. -1.
        -11    1    3    3    0    0 -0.20203793905E+02  0.12188722004E+02 -0.11430050263E+03  0.11671059564E+03  0.00000000000E+00 0. -1.
         11    1    3    3    0    0 -0.29917748552E+02 -0.12726364668E+02  0.16369569695E+01  0.32553212809E+02  0.00000000000E+00 0.  1.
</event>
<event>
 8    1  0.6703334E-009  0.1538604E+03  0.7561462E-02  0.1195808E+00
         -2   -1    0    0    0  501 -0.00000000000E+00  0.00000000000E+00  0.63787530595E+03  0.63787530595E+03  0.00000000000E+00 0.  1.
          2   -1    0    0  501    0  0.00000000000E+00 -0.00000000000E+00 -0.50983124740E+02  0.50983124740E+02  0.00000000000E+00 0. -1.
         25    2    1    2    0    0  0.33967599957E+02  0.13937043453E+03  0.30646005580E+03  0.36075382186E+03  0.12509052049E+03 0.  0.
         23    2    1    2    0    0 -0.33967599957E+02 -0.13937043453E+03  0.28043212542E+03  0.32810460884E+03  0.91828870757E+02 0.  0.
          5    1    3    3  502    0  0.33291227358E+02  0.14747997421E+03  0.18503897914E+03  0.23898858720E+03  0.41800000000E+01 0. -1.
         -5    1    3    3    0  502  0.67637259908E+00 -0.81095396797E+01  0.12142107666E+03  0.12176523465E+03  0.41800000000E+01 0. -1.
        -11    1    4    4    0    0 -0.29421500817E+02 -0.51315962022E+02  0.20067703898E+03  0.20921335197E+03  0.00000000000E+00 0.  1.
         11    1    4    4    0    0 -0.45460991398E+01 -0.88054472511E+02  0.79755086437E+02  0.11889125687E+03  0.00000000000E+00 0. -1.
</event>
<event>
 8    1  0.6703334E-009  0.1346286E+03  0.7561462E-02  0.1220745E+00
         -2   -1    0    0    0  501 -0.00000000000E+00  0.00000000000E+00  0.37457074253E+02  0.37457074253E+02  0.00000000000E+00 0.  1.
          2   -1    0    0  501    0  0.00000000000E+00 -0.00000000000E+00 -0.60881742902E+03  0.60881742902E+03  0.00000000000E+00 0. -1.
         25    2    1    2    0    0  0.10450810992E+03 -0.82547809420E+01 -0.32379486019E+03  0.36260169362E+03  0.12508713078E+03 0.  0.
         23    2    1    2    0    0 -0.10450810992E+03  0.82547809420E+01 -0.24756549458E+03  0.28367280965E+03  0.90506918975E+02 0.  0.
          5    1    3    3  502    0  0.33621881801E+02  0.37044686956E+02 -0.33545299550E+02  0.60377970233E+02  0.41800000000E+01 0. -1.
         -5    1    3    3    0  502  0.70886228117E+02 -0.45299467898E+02 -0.29024956064E+03  0.30222372339E+03  0.41800000000E+01 0. -1.
        -11    1    4    4    0    0 -0.50422314739E+02  0.46496142612E+02 -0.15825744296E+03  0.17248106955E+03  0.00000000000E+00 0. -1.
         11    1    4    4    0    0 -0.54085795179E+02 -0.38241361670E+02 -0.89308051620E+02  0.11119174010E+03  0.00000000000E+00 0.  1.
</event>
<event>
 8    1  0.6703334E-009  0.1218355E+03  0.7561462E-02  0.1240099E+00
         -4   -1    0    0    0  501 -0.00000000000E+00  0.00000000000E+00  0.95725286127E+02  0.95725286127E+02  0.00000000000E+00 0.  1.
          4   -1    0    0  501    0  0.00000000000E+00 -0.00000000000E+00 -0.21302209010E+03  0.21302209010E+03  0.00000000000E+00 0. -1.
         25    2    1    2    0    0  0.79034720575E+02 -0.46666808039E+02 -0.50812111018E+02  0.16325994897E+03  0.12509061629E+03 0.  0.
         23    2    1    2    0    0 -0.79034720575E+02  0.46666808039E+02 -0.66484692952E+02  0.14548742725E+03  0.91225539527E+02 0.  0.
          5    1    3    3  502    0  0.76265506417E+02 -0.64127793697E+02  0.95843322582E+01  0.10019048467E+03  0.41800000000E+01 0.  1.
         -5    1    3    3    0  502  0.27692141586E+01  0.17460985659E+02 -0.60396443276E+02  0.63069464305E+02  0.41800000000E+01 0.  1.
        -11    1    4    4    0    0 -0.70438497192E+01  0.53035548608E+02 -0.11617849165E+02  0.54748147496E+02  0.00000000000E+00 0.  1.
         11    1    4    4    0    0 -0.71990870856E+02 -0.63687405693E+01 -0.54866843788E+02  0.90739279754E+02  0.00000000000E+00 0. -1.
</event>
<event>
 8    1  0.6703334E-009  0.1446006E+03  0.7561462E-02  0.1207269E+00
          1   -1    0    0  501    0  0.00000000000E+00  0.00000000000E+00  0.73206264719E+03  0.73206264719E+03  0.00000000000E+00 0. -1.
         -1   -1    0    0    0  501 -0.00000000000E+00 -0.00000000000E+00 -0.37977448224E+02  0.37977448224E+02  0.00000000000E+00 0.  1.
         25    2    1    2    0    0 -0.10351639440E+03  0.72417394810E+02  0.38843115329E+03  0.42718367073E+03  0.12508878733E+03 0.  0.
         23    2    1    2    0    0  0.10351639440E+03 -0.72417394810E+02  0.30565404568E+03  0.34285642468E+03  0.90367080975E+02 0.  0.
          5    1    3    3  502    0 -0.46504928994E+02  0.34066618873E+01  0.29126598630E+03  0.29500451004E+03  0.41800000000E+01 0.  1.
         -5    1    3    3    0  502 -0.57011465409E+02  0.69010732922E+02  0.97165166983E+02  0.13217916069E+03  0.41800000000E+01 0.  1.
        -11    1    4    4    0    0 -0.18166103058E+01 -0.43506594206E+02  0.11731054998E+03  0.12513148664E+03  0.00000000000E+00 0. -1.
         11    1    4    4    0    0  0.10533300471E+03 -0.28910800604E+02  0.18834349570E+03  0.21772493804E+03  0.00000000000E+00 0.  1.
</event>
<event>
 8    1  0.6703334E-009  0.1439832E+03  0.7561462E-02  0.1208068E+00
          1   -1    0    0  501    0  0.00000000000E+00  0.00000000000E+00  0.76468567306E+02  0.76468567306E+02  0.00000000000E+00 0. -1.
         -1   -1    0    0    0  501 -0.00000000000E+00 -0.00000000000E+00 -0.30786281495E+03  0.30786281495E+03  0.00000000000E+00 0.  1.
         25    2    1    2    0    0  0.15099807672E+02  0.10772419656E+03 -0.10979006005E+03  0.19883231631E+03  0.12509167040E+03 0.  0.
         23    2    1    2    0    0 -0.15099807672E+02 -0.10772419656E+03 -0.12160418759E+03  0.18549906595E+03  0.88259947387E+02 0.  0.
          5    1    3    3  502    0  0.20475908598E+02  0.13077874012E+03 -0.11361075425E+03  0.17449131091E+03  0.41800000000E+01 0. -1.
         -5    1    3    3    0  502 -0.53761009265E+01 -0.23054543557E+02  0.38206941949E+01  0.24341005401E+02  0.41800000000E+01 0. -1.
        -11    1    4    4    0    0 -0.42154967179E+02 -0.89318983958E+02 -0.11591416668E+03  0.15228596846E+03  0.00000000000E+00 0.  1.
         11    1    4    4    0    0  0.27055159508E+02 -0.18405212605E+02 -0.56900209125E+01  0.33213097492E+02  0.00000000000E+00 0. -1.
</event>
<event>
 7    1  0.6703334E-009  0.1294847E+03  0.7561462E-02  0.1228222E+00
          2   -1    0    0  501    0  0.00000000000E+00  0.00000000000E+00  0.54936319148E+03  0.54936319148E+03  0.00000000000E+00 0. -1.
         -2   -1    0    0    0  501 -0.00000000000E+00 -0.00000000000E+00 -0.63253365861E+02  0.63253365861E+02  0.00000000000E+00 0.  1.
         25    2    1    2    0    0 -0.89989896672E+02 -0.87359840171E+02  0.97687294579E+02  0.20228863615E+03  0.12509181274E+03 0.  0.
          5    1    3    3  502    0 -0.28124894524E+02 -0.60616604751E+01 -0.27933285918E+02  0.40317419087E+02  0.41800000000E+01 0.  1.
         -5    1    3    3    0  502 -0.61865002148E+02 -0.81298179696E+02  0.12562058050E+03  0.16197121706E+03  0.41800000000E+01 0.  1.
        -11    1    1    2    0    0  0.46686175634E+02  0.28927182822E+02  0.11569203635E+03  0.12806649904E+03  0.00000000000E+00 0. -1.
         11    1    1    2    0    0  0.43303721038E+02  0.58432657349E+02  0.27273049469E+03  0.28226142215E+03  0.00000000000E+00 0.  1.
</event>
<event>
 8    1  0.6703334E-009  0.8583918E+02  0.7561462E-02  0.1313252E+00
          2   -1    0    0  501    0  0.00000000000E+00  0.00000000000E+00  0.33375094977E+02  0.33375094977E+02  0.00000000000E+00 0. -1.
         -2   -1    0    0    0  501 -0.00000000000E+00 -0.00000000000E+00 -0.39628011574E+03  0.39628011574E+03  0.00000000000E+00 0.  1.
         25    2    1    2    0    0 -0.77289243352E+01  0.97052160143E+01 -0.13831696961E+03  0.18690327298E+03  0.12508925566E+03 0.  0.
         23    2    1    2    0    0  0.77289243352E+01 -0.97052160143E+01 -0.22458805115E+03  0.24275193773E+03  0.91295033072E+02 0.  0.
          5    1    3    3  502    0 -0.31210603682E+02  0.36557194650E+02 -0.14277991466E+03  0.15071199917E+03  0.41800000000E+01 0. -1.
         -5    1    3    3    0  502  0.23481679347E+02 -0.26851978636E+02  0.44629450527E+01  0.36191273812E+02  0.41800000000E+01 0. -1.
        -11    1    4    4    0    0  0.67473191296E+01  0.38606780027E+02 -0.13949144750E+03  0.14489262819E+03  0.00000000000E+00 0. -1.
         11    1    4    4    0    0  0.98160520563E+00 -0.48311996041E+02 -0.85096603652E+02  0.97859309538E+02  0.00000000000E+00 0.  1.
</event>
<event>
 8    1  0.6703334E-009  0.1164602E+03  0.7561462E-02  0.1249053E+00
         -1   -1    0    0    0  501 -0.00000000000E+00  0.00000000000E+00  0.78403130031E+02  0.78403130031E+02  0.00000000000E+00 0.  1.
          1   -1    0    0  501    0  0.00000000000E+00 -0.00000000000E+00 -0.30111033485E+03  0.30111033485E+03  0.00000000000E+00 0. -1.
         25    2    1    2    0    0 -0.42119924274E+02  0.69199376023E+02 -0.20977597061E+03  0.25732496038E+03  0.12509011044E+03 0.  0.
         23    2    1    2    0    0  0.42119924274E+02 -0.69199376023E+02 -0.12931234211E+02  0.12218850450E+03  0.90554801916E+02 0.  0.
          5    1    3    3  502    0  0.24091458532E+02  0.16180914700E+02 -0.15153933145E+03  0.15434980321E+03  0.41800000000E+01 0.  1.
         -5    1    3    3    0  502 -0.66211382806E+02  0.53018461323E+02 -0.58236639152E+02  0.10297515717E+03  0.41800000000E+01 0.  1.
        -11    1    4    4    0    0  0.68863982295E+02 -0.56462867616E+02  0.18755091324E+01  0.89071999031E+02  0.00000000000E+00 0. -1.
         11    1    4    4    0    0 -0.26744058021E+02 -0.12736508407E+02 -0.14806743344E+02  0.33116505466E+02  0.00000000000E+00 0.  1.
</event>
<event>
 8    1  0.6703334E-009  0.1347141E+03  0.7561462E-02  0.1220624E+00
          1   -1    0    0  501    0  0.00000000000E+00  0.00000000000E+00  0.87842894908E+03  0.87842894908E+03  0.00000000000E+00 0. -1.
         -1   -1    0    0    0  501 -0.00000000000E+00 -0.00000000000E+00 -0.25132112791E+02  0.25132112791E+02  0.00000000000E+00 0.  1.
         25    2    1    2    0    0  0.54011469516E+02  0.84291232232E+02  0.50525830078E+03  0.53005256273E+03  0.12509003988E+03 0.  0.
         23    2    1    2    0    0 -0.54011469516E+02 -0.84291232232E+02  0.34803853551E+03  0.37350849914E+03  0.91408566677E+02 0.  0.
          5    1    3    3  502    0  0.39902981569E+02 -0.10280970246E+02  0.50404916663E+02  0.65238595257E+02  0.41800000000E+01 0.  1.
         -5    1    3    3    0  502  0.14108487948E+02  0.94572202478E+02  0.45485338412E+03  0.46481396747E+03  0.41800000000E+01 0.  1.
        -11    1    4    4    0    0 -0.73276364880E+02 -0.38836701589E+02  0.25553279195E+03  0.26865353674E+03  0.00000000000E+00 0. -1.
         11    1    4    4    0    0  0.19264895364E+02 -0.45454530643E+02  0.92505743565E+02  0.10485496241E+03  0.00000000000E+00 0.  1.
</event>
<event>
 8    1  0.6703334E-009  0.1671575E+03  0.7561462E-02  0.1180845E+00
         -2   -1    0    0    0  501 -0.00000000000E+00  0.00000000000E+00  0.14313827090E+03  0.14313827090E+03  0.00000000000E+00 0.  1.
          2   -1    0    0  501    0  0.00000000000E+00 -0.00000000000E+00 -0.28402188259E+03  0.28402188259E+03  0.00000000000E+00 0. -1.
         25    2    1    2    0    0 -0.44522564578E+02 -0.13889328910E+03 -0.16374463416E+03  0.25245479045E+03  0.12509001356E+03 0.  0.
         23    2    1    2    0    0  0.44522564578E+02  0.13889328910E+03  0.22861022468E+02  0.17470536303E+03  0.93411632091E+02 0.  0.
          5    1    3    3  502    0 -0.38897938386E+02 -0.22622662387E+02  0.70323671517E+01  0.45735774312E+02  0.41800000000E+01 0. -1.
         -5    1    3    3    0  502 -0.56246261922E+01 -0.11627062671E+03 -0.17077700131E+03  0.20671901614E+03  0.41800000000E+01 0. -1.
        -11    1    4    4    0    0  0.58914882336E+02  0.36637205935E+02  0.23083829660E+01  0.69415969713E+02  0.00000000000E+00 0. -1.
         11    1    4    4    0    0 -0.14392317757E+02  0.10225608317E+03  0.20552639502E+02  0.10528939332E+03  0.00000000000E+00 0.  1.
</event>
<event>
 8    1  0.6703334E-009  0.1149435E+03  0.7561462E-02  0.1251680E+00
          2   -1    0    0  501    0  0.00000000000E+00  0.00000000000E+00  0.44769486190E+03  0.44769486190E+03  0.00000000000E+00 0. -1.
         -2   -1    0    0    0  501 -0.00000000000E+00 -0.00000000000E+00 -0.41474874940E+02  0.41474874940E+02  0.00000000000E+00 0.  1.
         25    2    1    2    0    0 -0.45975836002E+02 -0.44145866679E+02  0.32628397574E+03  0.35520567290E+03  0.12508877725E+03 0.  0.
         23    2    1    2    0    0  0.45975836002E+02  0.44145866679E+02  0.79936011220E+02  0.13396406394E+03  0.86567716254E+02 0.  0.
          5    1    3    3  502    0  0.26367791666E+02 -0.57577539478E+02  0.11376275113E+03  0.13026845141E+03  0.41800000000E+01 0. -1.
         -5    1    3    3    0  502 -0.72343627668E+02  0.13431672799E+02  0.21252122462E+03  0.22493722149E+03  0.41800000000E+01 0. -1.
        -11    1    4    4    0    0  0.25055842792E+02  0.60943637272E+02  0.84072134627E+02  0.10681781688E+03  0.00000000000E+00 0. -1.
         11    1    4    4    0    0  0.20919993210E+02 -0.16797770594E+02 -0.41361234069E+01  0.27146247064E+02  0.00000000000E+00 0.  1.
</event>
<event>
 8    1  0.6703334E-009  0.1270625E+03  0.7561462E-02  0.1231881E+00
         -4   -1    0    0    0  501 -0.00000000000E+00  0.00000000000E+00  0.72025974918E+03  0.72025974918E+03  0.00000000000E+00 0.  1.
          4   -1    0    0  501    0  0.00000000000E+00 -0.00000000000E+00 -0.30775826812E+02  0.30775826812E+02  0.00000000000E+00 0. -1.
         25    2    1    2    0    0 -0.92736056891E+02  0.40708427064E+02  0.37413578650E+03  0.40728817246E+03  0.12509562901E+03 0.  0.
         23    2    1    2    0    0  0.92736056891E+02 -0.40708427064E+02  0.31534813586E+03  0.34374740353E+03  0.91981945853E+02 0.  0.
          5    1    3    3  502    0  0.15940950062E+02 -0.20547554138E+02  0.13489611073E+03  0.13744362103E+03  0.41800000000E+01 0.  1.
         -5    1    3    3    0  502 -0.10867700695E+03  0.61255981202E+02  0.23923967577E+03  0.26984455143E+03  0.41800000000E+01 0.  1.
        -11    1    4    4    0    0  0.30577575157E+02 -0.41685237171E+01  0.13989615744E+02  0.33883241301E+02  0.00000000000E+00 0. -1.
         11    1    4    4    0    0  0.62158481734E+02 -0.36539903347E+02  0.30135852012E+03  0.30986416223E+03  0.00000000000E+00 0.  1.
</event>
<event>
 8    1  0.6703334E-009  0.8424176E+02  0.7561462E-02  0.1317427E+00
          2   -1    0    0  501    0  0.00000000000E+00  0.00000000000E+00  0.60886304983E+03  0.60886304983E+03  0.00000000000E+00 0.  1.
         -2   -1    0    0    0  501 -0.00000000000E+00 -0.00000000000E+00 -0.19575300259E+02  0.19575300259E+02  0.00000000000E+00 0. -1.
         25    2    1    2    0    0  0.10972728949E+01 -0.12043426658E+02  0.31534170333E+03  0.33946926631E+03  0.12511092990E+03 0.  0.
         23    2    1    2    0    0 -0.10972728949E+01  0.12043426658E+02  0.27394604625E+03  0.28896908378E+03  0.91161653081E+02 0.  0.
          5    1    3    3  502    0  0.21137446796E+02  0.26816242477E+02  0.28260067317E+03  0.28468669691E+03  0.41800000000E+01 0.  1.
         -5    1    3    3    0  502 -0.20040173901E+02 -0.38859669135E+02  0.32741030155E+02  0.54782569408E+02  0.41800000000E+01 0.  1.
        -11    1    4    4    0    0  0.44572285929E+01 -0.38779901715E+02  0.91123131331E+02  0.99132097361E+02  0.00000000000E+00 0.  1.
         11    1    4    4    0    0 -0.55545014879E+01  0.50823328373E+02  0.18282291492E+03  0.18983698642E+03  0.00000000000E+00 0. -1.
</event>
<event>
 8    1  0.6703334E-009  0.1473012E+03  0.7561462E-02  0.1203829E+00
          2   -1    0    0  501    0  0.00000000000E+00  0.00000000000E+00  0.15363872097E+04  0.15363872097E+04  0.00000000000E+00 0. -1.
         -2   -1    0    0    0  501 -0.00000000000E+00 -0.00000000000E+00 -0.15854087889E+02  0.15854087889E+02  0.00000000000E+00 0.  1.
         25    2    1    2    0    0  0.66615886387E+02  0.89459472718E+02  0.87629359990E+03  0.89217670744E+03  0.12509248780E+03 0.  0.
         23    2    1    2    0    0 -0.66615886387E+02 -0.89459472718E+02  0.64423952188E+03  0.66006459011E+03  0.90554005936E+02 0.  0.
          5    1    3    3  502    0  0.36273966677E+02  0.10877078326E+03  0.45178157872E+03  0.46612332190E+03  0.41800000000E+01 0.  1.
         -5    1    3    3    0  502  0.30341919710E+02 -0.19311310544E+02  0.42451202118E+03  0.42605338554E+03  0.41800000000E+01 0.  1.
        -11    1    4    4    0    0 -0.86997015535E+02 -0.52946628377E+02  0.45306015121E+03  0.46436550990E+03  0.00000000000E+00 0. -1.
         11    1    4    4    0    0  0.20381129148E+02 -0.36512844341E+02  0.19117937067E+03  0.19569908022E+03  0.00000000000E+00 0.  1.
</event>
<event>
 8    1  0.6703334E-009  0.1643717E+03  0.7561462E-02  0.1183848E+00
          2   -1    0    0  501    0  0.00000000000E+00  0.00000000000E+00  0.85663752662E+03  0.85663752662E+03  0.00000000000E+00 0. -1.
         -2   -1    0    0    0  501 -0.00000000000E+00 -0.00000000000E+00 -0.33169698279E+02  0.33169698279E+02  0.00000000000E+00 0.  1.
         25    2    1    2    0    0  0.35898123633E+02 -0.12437031406E+03  0.37092439127E+03  0.41229690941E+03  0.12508871718E+03 0.  0.
         23    2    1    2    0    0 -0.35898123633E+02  0.12437031406E+03  0.45254343707E+03  0.47751031550E+03  0.80398312595E+02 0.  0.
          5    1    3    3  502    0 -0.46029861397E+02 -0.30844620965E+02  0.11851359726E+03  0.13089340670E+03  0.41800000000E+01 0.  1.
         -5    1    3    3    0  502  0.81927985030E+02 -0.93525693097E+02  0.25241079402E+03  0.28140350271E+03  0.41800000000E+01 0.  1.
        -11    1    4    4    0    0  0.22169210133E+02  0.47643481950E+02  0.11345465272E+03  0.12503332945E+03  0.00000000000E+00 0.  1.
         11    1    4    4    0    0 -0.58067333767E+02  0.76726832112E+02  0.33908878435E+03  0.35247698605E+03  0.00000000000E+00 0. -1.
</event>
<event>
 8    1  0.6703334E-009  0.1214505E+03  0.7561462E-02  0.1240723E+00
          1   -1    0    0  501    0  0.00000000000E+00  0.00000000000E+00  0.73413734359E+02  0.73413734359E+02  0.00000000000E+00 0. -1.
         -1   -1    0    0    0  501 -0.00000000000E+00 -0.00000000000E+00 -0.30706547530E+03  0.30706547530E+03  0.00000000000E+00 0.  1.
         25    2    1    2    0    0  0.73961180924E+02 -0.35113034385E+02 -0.69889131910E+02  0.16503268401E+03  0.12509242409E+03 0.  0.
         23    2    1    2    0    0 -0.73961180924E+02  0.35113034385E+02 -0.16376260903E+03  0.21544652566E+03  0.11355981610E+03 0.  0.
          5    1    3    3  502    0  0.42289960332E+02 -0.53051518817E+02  0.17571813426E+02  0.70207872925E+02  0.41800000000E+01 0.  1.
         -5    1    3    3    0  502  0.31671220592E+02  0.17938484431E+02 -0.87460945336E+02  0.94824811081E+02  0.41800000000E+01 0.  1.
        -11    1    4    4    0    0 -0.40410647741E+02  0.75591223284E+02 -0.11732029349E+03  0.14529660957E+03  0.00000000000E+00 0.  1.
         11    1    4    4    0    0 -0.33550533183E+02 -0.40478188899E+02 -0.46442315541E+02  0.70149916081E+02  0.00000000000E+00 0. -1.
</event>
<event>
 8    1  0.6703334E-009  0.1636413E+03  0.7561462E-02  0.1184646E+00
          1   -1    0    0  501    0  0.00000000000E+00  0.00000000000E+00  0.51577900945E+03  0.51577900945E+03  0.00000000000E+00 0. -1.
         -1   -1    0    0    0  501 -0.00000000000E+00 -0.00000000000E+00 -0.56955468446E+02  0.56955468446E+02  0.00000000000E+00 0.  1.
         25    2    1    2    0    0 -0.10832323359E+03  0.57883579485E+02  0.16250469005E+03  0.23903892458E+03  0.12508957377E+03 0.  0.
         23    2    1    2    0    0  0.10832323359E+03 -0.57883579485E+02  0.29631885095E+03  0.33369555331E+03  0.91996897566E+02 0.  0.
          5    1    3    3  502    0  0.25823865663E+02  0.26888452382E+02  0.32567618478E+02  0.49678799125E+02  0.41800000000E+01 0. -1.
         -5    1    3    3    0  502 -0.13414709926E+03  0.30995127104E+02  0.12993707158E+03  0.18936012546E+03  0.41800000000E+01 0. -1.
        -11    1    4    4    0    0  0.52699988023E+02  0.19956447587E+02  0.88586033083E+02  0.10499063670E+03  0.00000000000E+00 0. -1.
         11    1    4    4    0    0  0.55623245571E+02 -0.77840027072E+02  0.20773281787E+03  0.22870491661E+03  0.00000000000E+00 0.  1.
</event>
<event>
 8    1  0.6703334E-009  0.9242010E+02  0.7561462E-02  0.1297095E+00
          1   -1    0    0  501    0  0.00000000000E+00  0.00000000000E+00  0.24218918900E+02  0.24218918900E+02  0.00000000000E+00 0. -1.
         -1   -1    0    0    0  501 -0.00000000000E+00 -0.00000000000E+00 -0.81683977201E+03  0.81683977201E+03  0.00000000000E+00 0.  1.
         25    2    1    2    0    0 -0.33685474118E+02 -0.16177247968E+02 -0.67627428517E+03  0.68876071237E+03  0.12509194859E+03 0.  0.
         23    2    1    2    0    0  0.33685474118E+02  0.16177247968E+02 -0.11634656795E+03  0.15229797855E+03  0.90894091549E+02 0.  0.
          5    1    3    3  502    0 -0.50265227690E+02  0.44654002065E+02 -0.34790482948E+03  0.35436678145E+03  0.41800000000E+01 0. -1.
         -5    1    3    3    0  502  0.16579753572E+02 -0.60831250032E+02 -0.32836945568E+03  0.33439393092E+03  0.41800000000E+01 0. -1.
        -11    1    4    4    0    0  0.10797260493E+02  0.26918544453E+02 -0.12282088675E+03  0.12619888705E+03  0.00000000000E+00 0.  1.
         11    1    4    4    0    0  0.22888213625E+02 -0.10741296485E+02  0.64743188048E+01  0.26099091500E+02  0.00000000000E+00 0. -1.
</event>
<event>
 8    1  0.6703334E-009  0.1287986E+03  0.7561462E-02  0.1229249E+00
         -1   -1    0    0    0  501 -0.00000000000E+00  0.00000000000E+00  0.94367522468E+02  0.94367522468E+02  0.00000000000E+00 0.  1.
          1   -1    0    0  501    0  0.00000000000E+00 -0.00000000000E+00 -0.25307178862E+03  0.25307178862E+03  0.00000000000E+00 0. -1.
         25    2    1    2    0    0  0.91209612450E+02  0.22750204092E+02 -0.20794798830E+02  0.15785076499E+03  0.12509066775E+03 0.  0.
         23    2    1    2    0    0 -0.91209612450E+02 -0.22750204092E+02 -0.13790946732E+03  0.18958854610E+03  0.89933477898E+02 0.  0.
          5    1    3    3  502    0  0.31425670320E+02  0.68850465123E+02 -0.30331322771E+02  0.81642028659E+02  0.41800000000E+01 0.  1.
         -5    1    3    3    0  502  0.59783942130E+02 -0.46100261030E+02  0.95365239409E+01  0.76208736327E+02  0.41800000000E+01 0.  1.
        -11    1    4    4    0    0 -0.44196425344E+02 -0.36375780978E+02 -0.17889842159E+02  0.59971392408E+02  0.00000000000E+00 0.  1.
         11    1    4    4    0    0 -0.47013187106E+02  0.13625576886E+02 -0.12001962517E+03  0.12961715370E+03  0.00000000000E+00 0. -1.
</event>
<event>
 8    1  0.6703334E-009  0.9576009E+02  0.7561462E-02  0.1289473E+00
         -2   -1    0    0    0  501 -0.00000000000E+00  0.00000000000E+00  0.33838998743E+02  0.33838998743E+02  0.00000000000E+00 0.  1.
          2   -1    0    0  501    0  0.00000000000E+00 -0.00000000000E+00 -0.50043545065E+03  0.50043545065E+03  0.00000000000E+00 0. -1.
         25    2    1    2    0    0  0.42220148261E+02 -0.44733069204E+02 -0.17927501127E+03  0.22708790829E+03  0.12508317244E+03 0.  0.
         23    2    1    2    0    0 -0.42220148261E+02  0.44733069204E+02 -0.28732144064E+03  0.30718654110E+03  0.89590023909E+02 0.  0.
          5    1    3    3  502    0 -0.13708602034E+01 -0.53259882282E+02 -0.17416879641E+03  0.18218324939E+03  0.41800000000E+01 0.  1.
         -5    1    3    3    0  502  0.43591008464E+02  0.85268130780E+01 -0.51062148607E+01  0.44904658894E+02  0.41800000000E+01 0.  1.
        -11    1    4    4    0    0 -0.42220424163E+02  0.62650019180E+02 -0.27562096284E+03  0.28578751596E+03  0.00000000000E+00 0. -1.
         11    1    4    4    0    0  0.27590165520E-03 -0.17916949976E+02 -0.11700477802E+02  0.21399025148E+02  0.00000000000E+00 0.  1.
</event>
<event>
 8    1  0.6703334E-009  0.1024035E+03  0.7561462E-02  0.1275321E+00
          1   -1    0    0  501    0  0.00000000000E+00  0.00000000000E+00  0.72196089911E+02  0.72196089911E+02  0.00000000000E+00 0. -1.
         -1   -1    0    0    0  501 -0.00000000000E+00 -0.00000000000E+00 -0.23043340431E+03  0.23043340431E+03  0.00000000000E+00 0.  1.
         25    2    1    2    0    0 -0.38054007104E+02  0.39153188740E+02 -0.42879675647E+02  0.14306081665E+03  0.12508657415E+03 0.  0.
         23    2    1    2    0    0  0.38054007104E+02 -0.39153188740E+02 -0.11535763875E+03  0.15956867757E+03  0.95779425753E+02 0.  0.
          5    1    3    3  502    0 -0.26340478292E+02  0.83805642952E+02 -0.15729603057E+02  0.89342595662E+02  0.41800000000E+01 0.  1.
         -5    1    3    3    0  502 -0.11713528812E+02 -0.44652454213E+02 -0.27150072590E+02  0.53718220988E+02  0.41800000000E+01 0.  1.
        -11    1    4    4    0    0  0.46709772146E+02 -0.22737752565E+02 -0.10397175178E+02  0.52980274229E+02  0.00000000000E+00 0. -1.
         11    1    4    4    0    0 -0.86557650424E+01 -0.16415436174E+02 -0.10496046357E+03  0.10658840334E+03  0.00000000000E+00 0.  1.
</event>
<event>
 8    1  0.6703334E-009  0.1639609E+03  0.7561462E-02  0.1184296E+00
          1   -1    0    0  501    0  0.00000000000E+00  0.00000000000E+00  0.52984153595E+03  0.52984153595E+03  0.00000000000E+00 0. -1.
         -1   -1    0    0    0  501 -0.00000000000E+00 -0.00000000000E+00 -0.61981050797E+02  0.61981050797E+02  0.00000000000E+00 0.  1.
         25    2    1    2    0    0  0.13342832977E+03 -0.10381601548E+02  0.33420161452E+03  0.38111615812E+03  0.12509160642E+03 0.  0.
         23    2    1    2    0    0 -0.13342832977E+03  0.10381601548E+02  0.13365887064E+03  0.21070642863E+03  0.92852617258E+02 0.  0.
          5    1    3    3  502    0  0.88032751268E+02 -0.53081836796E+02  0.28039466892E+03  0.29867388479E+03  0.41800000000E+01 0. -1.
         -5    1    3    3    0  502  0.45395578498E+02  0.42700235248E+02  0.53806945594E+02  0.82442273329E+02  0.41800000000E+01 0. -1.
        -11    1    4    4    0    0 -0.63671636953E+02  0.51245100302E+02  0.60680899449E+02  0.10179542826E+03  0.00000000000E+00 0.  1.
         11    1    4    4    0    0 -0.69756692813E+02 -0.40863498754E+02  0.72977971187E+02  0.10891100037E+03  0.00000000000E+00 0. -1.
</event>
<event>
 8    1  0.6703334E-009  0.6453979E+02  0.7561462E-02  0.1379711E+00
          2   -1    0    0  501    0  0.00000000000E+00  0.00000000000E+00  0.39255119174E+03  0.39255119174E+03  0.00000000000E+00 0. -1.
         -2   -1    0    0    0  501 -0.00000000000E+00 -0.00000000000E+00 -0.36409510631E+02  0.36409510631E+02  0.00000000000E+00 0.  1.
         25    2    1    2    0    0 -0.47106412625E+02  0.67684295558E+01  0.22837854006E+03  0.26471018219E+03  0.12509954935E+03 0.  0.
         23    2    1    2    0    0  0.47106412625E+02 -0.67684295558E+01  0.12776314105E+03  0.16425052018E+03  0.91596874507E+02 0.  0.
          5    1    3    3  502    0 -0.20261658995E+02  0.80339999901E+01  0.23554173151E+03  0.23658499458E+03  0.41800000000E+01 0.  1.
         -5    1    3    3    0  502 -0.26844753630E+02 -0.12655704343E+01 -0.71631914509E+01  0.28125187604E+02  0.41800000000E+01 0.  1.
        -11    1    4    4    0    0 -0.15768224356E+02 -0.58156415114E+01 -0.48430682468E+01  0.17490394381E+02  0.00000000000E+00 0.  1.
         11    1    4    4    0    0  0.62874636982E+02 -0.95278804441E+00  0.13260620930E+03  0.14676012580E+03  0.00000000000E+00 0. -1.
</event>
<event>
 8    1  0.6703334E-009  0.1200435E+03  0.7561462E-02  0.1243025E+00
         -2   -1    0    0    0  501 -0.00000000000E+00  0.00000000000E+00  0.18945019273E+02  0.18945019273E+02  0.00000000000E+00 0.  1.
          2   -1    0    0  501    0  0.00000000000E+00 -0.00000000000E+00 -0.76393749073E+03  0.76393749073E+03  0.00000000000E+00 0. -1.
         25    2    1    2    0    0 -0.48464107178E+02 -0.17869218026E+02 -0.42988949265E+03  0.45068859486E+03  0.12508858862E+03 0.  0.
         23    2    1    2    0    0  0.48464107178E+02  0.17869218026E+02 -0.31510297880E+03  0.33219391514E+03  0.91623312383E+02 0.  0.
          5    1    3    3  502    0  0.11592337379E+02  0.45730374215E+02 -0.13476664880E+03  0.14284667109E+03  0.41800000000E+01 0.  1.
         -5    1    3    3    0  502 -0.60056444557E+02 -0.63599592242E+02 -0.29512284385E+03  0.30784192377E+03  0.41800000000E+01 0.  1.
        -11    1    4    4    0    0  0.38918338136E+01 -0.35446121895E+02 -0.11055900389E+03  0.11616741053E+03  0.00000000000E+00 0. -1.
         11    1    4    4    0    0  0.44572273365E+02  0.53315339922E+02 -0.20454397491E+03  0.21602650462E+03  0.00000000000E+00 0.  1.
</event>
<event>
 8    1  0.6703334E-009  0.1082363E+03  0.7561462E-02  0.1263871E+00
         -2   -1    0    0    0  501 -0.00000000000E+00  0.00000000000E+00  0.40866113065E+02  0.40866113065E+02  0.00000000000E+00 0.  1.
          2   -1    0    0  501    0  0.00000000000E+00 -0.00000000000E+00 -0.51712065527E+03  0.51712065527E+03  0.00000000000E+00 0. -1.
         25    2    1    2    0    0 -0.38038216648E+02 -0.75178557716E+02 -0.17046302085E+03  0.22760552508E+03  0.12509161485E+03 0.  0.
         23    2    1    2    0    0  0.38038216648E+02  0.75178557716E+02 -0.30579152135E+03  0.33038124325E+03  0.92436950906E+02 0.  0.
          5    1    3    3  502    0 -0.40573849663E+02 -0.84333891324E+02 -0.18638284281E+03  0.20860124399E+03  0.41800000000E+01 0.  1.
         -5    1    3    3    0  502  0.25356330153E+01  0.91553336080E+01  0.15919821964E+02  0.19004281087E+02  0.41800000000E+01 0.  1.
        -11    1    4    4    0    0  0.53231365786E+02  0.22857264659E+02 -0.22907552916E+03  0.23628717890E+03  0.00000000000E+00 0.  1.
         11    1    4    4    0    0 -0.15193149139E+02  0.52321293056E+02 -0.76715992191E+02  0.94094064348E+02  0.00000000000E+00 0. -1.
</event>
<event>
 8    1  0.6703334E-009  0.1471034E+03  0.7561462E-02  0.1204078E+00
          1   -1    0    0  501    0  0.00000000000E+00  0.00000000000E+00  0.41199894654E+03  0.41199894654E+03  0.00000000000E+00 0. -1.
         -1   -1    0    0    0  501 -0.00000000000E+00 -0.00000000000E+00 -0.81578010555E+02  0.81578010555E+02  0.00000000000E+00 0.  1.
         25    2    1    2    0    0 -0.12175492237E+03  0.64774969441E+02  0.24936490704E+03  0.31120290781E+03  0.12507731681E+03 0.  0.
         23    2    1    2    0    0  0.12175492237E+03 -0.64774969441E+02  0.81056028952E+02  0.18237404929E+03  0.87579428151E+02 0.  0.
          5    1    3    3  502    0  0.17788738093E+01  0.18689789577E+02 -0.89038258881E+01  0.21194884805E+02  0.41800000000E+01 0. -1.
         -5    1    3    3    0  502 -0.12353379618E+03  0.46085179864E+02  0.25826873292E+03  0.29000802301E+03  0.41800000000E+01 0. -1.
        -11    1    4    4    0    0  0.26742072405E+02 -0.33847240239E+02 -0.13099219996E+02  0.45081744341E+02  0.00000000000E+00 0.  1.
         11    1    4    4    0    0  0.95012849969E+02 -0.30927729202E+02  0.94155248948E+02  0.13729230495E+03  0.00000000000E+00 0. -1.
</event>
<event>
 8    1  0.6703334E-009  0.1495721E+03  0.7561462E-02  0.1201000E+00
          1   -1    0    0  501    0  0.00000000000E+00  0.00000000000E+00  0.30220783806E+02  0.30220783806E+02  0.00000000000E+00 0. -1.
         -1   -1    0    0    0  501 -0.00000000000E+00 -0.00000000000E+00 -0.92770356020E+03  0.92770356020E+03  0.00000000000E+00 0.  1.
         25    2    1    2    0    0 -0.12292015917E+03  0.11650126711E+02 -0.40287593020E+03  0.43954701448E+03  0.12508985500E+03 0.  0.
         23    2    1    2    0    0  0.12292015917E+03 -0.11650126711E+02 -0.49460684620E+03  0.51837732953E+03  0.93989533872E+02 0.  0.
          5    1    3    3  502    0 -0.72942925979E+02 -0.55298048242E+02 -0.22683091122E+03  0.24463907962E+03  0.41800000000E+01 0. -1.
         -5    1    3    3    0  502 -0.49977233194E+02  0.66948174953E+02 -0.17604501897E+03  0.19490793486E+03  0.41800000000E+01 0. -1.
        -11    1    4    4    0    0  0.78852061688E+02 -0.27073373812E+01 -0.44281498325E+03  0.44978893573E+03  0.00000000000E+00 0.  1.
         11    1    4    4    0    0  0.44068097484E+02 -0.89427893296E+01 -0.51791862947E+02  0.68588393802E+02  0.00000000000E+00 0. -1.
</event>
<event>
 8    1  0.6703334E-009  0.9305721E+02  0.7561462E-02  0.1295613E+00
          3   -1    0    0  501    0  0.00000000000E+00  0.00000000000E+00  0.54380943417E+03  0.54380943417E+03  0.00000000000E+00 0. -1.
         -3   -1    0    0    0  501 -0.00000000000E+00 -0.00000000000E+00 -0.19182969839E+02  0.19182969839E+02  0.00000000000E+00 0.  1.
         25    2    1    2    0    0  0.20528791863E+01 -0.23981872764E+02  0.33760869182E+03  0.36084245514E+03  0.12509318169E+03 0.  0.
         23    2    1    2    0    0 -0.20528791863E+01  0.23981872764E+02  0.18701777251E+03  0.20214994887E+03  0.72867071156E+02 0.  0.
          5    1    3    3  502    0  0.48148856854E+02  0.16203131551E+02  0.24172245966E+03  0.24703860790E+03  0.41800000000E+01 0. -1.
         -5    1    3    3    0  502 -0.46095977668E+02 -0.40185004315E+02  0.95886232158E+02  0.11380384724E+03  0.41800000000E+01 0. -1.
        -11    1    4    4    0    0 -0.18748294952E+02  0.43970834315E+02  0.14538966002E+03  0.15304602600E+03  0.00000000000E+00 0.  1.
         11    1    4    4    0    0  0.16695415765E+02 -0.19988961552E+02  0.41628112488E+02  0.49103922866E+02  0.00000000000E+00 0. -1.
</event>
<event>
 8    1  0.6703334E-009  0.1928914E+03  0.7561462E-02  0.1155879E+00
          4   -1    0    0  501    0  0.00000000000E+00  0.00000000000E+00  0.59038041734E+02  0.59038041734E+02  0.00000000000E+00 0. -1.
         -4   -1    0    0    0  501 -0.00000000000E+00 -0.00000000000E+00 -0.83386074848E+03  0.83386074848E+03  0.00000000000E+00 0.  1.
         25    2    1    2    0    0  0.15225575851E+02  0.18462032357E+03 -0.29016039437E+03  0.36627418252E+03  0.12508892953E+03 0.  0.
         23    2    1    2    0    0 -0.15225575851E+02 -0.18462032357E+03 -0.48466231238E+03  0.52662460769E+03  0.90107926110E+02 0.  0.
          5    1    3    3  502    0 -0.19558577228E+02  0.14609846950E+03 -0.27500038308E+03  0.31204163797E+03  0.41800000000E+01 0. -1.
         -5    1    3    3    0  502  0.34784153080E+02  0.38521854068E+02 -0.15160011281E+02  0.54232544550E+02  0.41800000000E+01 0. -1.
        -11    1    4    4    0    0 -0.16378667297E+01 -0.12845970791E+03 -0.42318521796E+03  0.44225593027E+03  0.00000000000E+00 0.  1.
         11    1    4    4    0    0 -0.13587709122E+02 -0.56160615660E+02 -0.61477094424E+02  0.84368677419E+02  0.00000000000E+00 0. -1.
</event>
<event>
 8    1  0.6703334E-009  0.1454844E+03  0.7561462E-02  0.1206134E+00
          2   -1    0    0  501    0  0.00000000000E+00  0.00000000000E+00  0.93137193996E+03  0.93137193996E+03  0.00000000000E+00 0. -1.
         -2   -1    0    0    0  501 -0.00000000000E+00 -0.00000000000E+00 -0.29328280223E+02  0.29328280223E+02  0.00000000000E+00 0.  1.
         25    2    1    2    0    0  0.12305384091E+03  0.14830635469E+02  0.46742084830E+03  0.49949173687E+03  0.12509016856E+03 0.  0.
         23    2    1    2    0    0 -0.12305384091E+03 -0.14830635469E+02  0.43462281144E+03  0.46120848331E+03  0.91946078453E+02 0.  0.
          5    1    3    3  502    0  0.10273191110E+03  0.57875019030E+02  0.39869617249E+03  0.41578777489E+03  0.41800000000E+01 0.  1.
         -5    1    3    3    0  502  0.20321929808E+02 -0.43044383561E+02  0.68724675802E+02  0.83703961982E+02  0.41800000000E+01 0.  1.
        -11    1    4    4    0    0 -0.55712976107E+02  0.21339898909E+01  0.67373462729E+02  0.87450975407E+02  0.00000000000E+00 0.  1.
         11    1    4    4    0    0 -0.67340864803E+02 -0.16964625360E+02  0.36724934871E+03  0.37375750790E+03  0.00000000000E+00 0. -1.
</event>
<event>
 8    1  0.6703334E-009  0.9707734E+02  0.7561462E-02  0.1286565E+00
         -2   -1    0    0    0  501 -0.00000000000E+00  0.00000000000E+00  0.34004697209E+03  0.34004697209E+03  0.00000000000E+00 0. -1.
          2   -1    0    0  501    0  0.00000000000E+00 -0.00000000000E+00 -0.43905186762E+02  0.43905186762E+02  0.00000000000E+00 0.  1.
         25    2    1    2    0    0 -0.30501028602E+02  0.17332827110E+01  0.21458076777E+03  0.25025538471E+03  0.12509810016E+03 0.  0.
         23    2    1    2    0    0  0.30501028602E+02 -0.17332827110E+01  0.81561017563E+02  0.13369677415E+03  0.10143624015E+03 0.  0.
          5    1    3    3  502    0 -0.60123300058E+02 -0.44037316003E+01  0.21102920708E+03  0.21951082593E+03  0.41800000000E+01 0. -1.
         -5    1    3    3    0  502  0.29622271456E+02  0.61370143113E+01  0.35515606897E+01  0.30744558774E+02  0.41800000000E+01 0. -1.
        -11    1    4    4    0    0  0.53163000433E+01  0.47547437584E+02  0.22873792305E+02  0.53030484076E+02  0.00000000000E+00 0.  1.
         11    1    4    4    0    0  0.25184728558E+02 -0.49280720295E+02  0.58687225257E+02  0.80666290070E+02  0.00000000000E+00 0. -1.
</event>
<event>
 8    1  0.6703334E-009  0.1023295E+03  0.7561462E-02  0.1275472E+00
         -2   -1    0    0    0  501 -0.00000000000E+00  0.00000000000E+00  0.80647124098E+03  0.80647124098E+03  0.00000000000E+00 0.  1.
          2   -1    0    0  501    0  0.00000000000E+00 -0.00000000000E+00 -0.15037992929E+02  0.15037992929E+02  0.00000000000E+00 0. -1.
         25    2    1    2    0    0  0.26388406094E+02  0.10915744467E+02  0.53785940727E+03  0.55295335972E+03  0.12509666093E+03 0.  0.
         23    2    1    2    0    0 -0.26388406094E+02 -0.10915744467E+02  0.25357384078E+03  0.26855587419E+03  0.83708203794E+02 0.  0.
          5    1    3    3  502    0 -0.49093553499E+02  0.61491881614E+01  0.15812275394E+03  0.16573553398E+03  0.41800000000E+01 0.  1.
         -5    1    3    3    0  502  0.75481959594E+02  0.47665563061E+01  0.37973665333E+03  0.38721782573E+03  0.41800000000E+01 0.  1.
        -11    1    4    4    0    0 -0.17742624763E+02 -0.42741937033E+02  0.20278605397E+03  0.20799965769E+03  0.00000000000E+00 0.  1.
         11    1    4    4    0    0 -0.86457813317E+01  0.31826192566E+02  0.50787786812E+02  0.60556216505E+02  0.00000000000E+00 0. -1.
</event>
<event>
 8    1  0.6703334E-009  0.1088069E+03  0.7561462E-02  0.1262795E+00
         -1   -1    0    0    0  501 -0.00000000000E+00  0.00000000000E+00  0.61983095345E+02  0.61983095345E+02  0.00000000000E+00 0.  1.
          1   -1    0    0  501    0  0.00000000000E+00 -0.00000000000E+00 -0.21119835357E+03  0.21119835357E+03  0.00000000000E+00 0. -1.
         25    2    1    2    0    0 -0.15845721109E+02  0.23682738195E+02 -0.59940168086E+02  0.14160741942E+03  0.12509148060E+03 0.  0.
         23    2    1    2    0    0  0.15845721109E+02 -0.23682738195E+02 -0.89275090139E+02  0.13157402950E+03  0.92356507907E+02 0.  0.
          5    1    3    3  502    0 -0.23843360876E+02 -0.48240283965E+02 -0.37517064870E+02  0.65731525248E+02  0.41800000000E+01 0. -1.
         -5    1    3    3    0  502  0.79976397665E+01  0.71923022160E+02 -0.22423103216E+02  0.75875894171E+02  0.41800000000E+01 0. -1.
        -11    1    4    4    0    0  0.22047950836E+02 -0.54986097133E+02 -0.35560683024E+02  0.69095189349E+02  0.00000000000E+00 0.  1.
         11    1    4    4    0    0 -0.62022297268E+01  0.31303358939E+02 -0.53714407116E+02  0.62478840148E+02  0.00000000000E+00 0. -1.
</event>
<event>
 8    1  0.6703334E-009  0.1161209E+03  0.7561462E-02  0.1249637E+00
          1   -1    0    0  501    0  0.00000000000E+00  0.00000000000E+00  0.29134928801E+03  0.29134928801E+03  0.00000000000E+00 0. -1.
         -1   -1    0    0    0  501 -0.00000000000E+00 -0.00000000000E+00 -0.95761306364E+02  0.95761306364E+02  0.00000000000E+00 0.  1.
         25    2    1    2    0    0 -0.25221033403E+02 -0.10312137805E+03  0.24437020375E+02  0.16587617422E+03  0.12509043958E+03 0.  0.
         23    2    1    2    0    0  0.25221033403E+02  0.10312137805E+03  0.17115096127E+03  0.22123442016E+03  0.91552706028E+02 0.  0.
          5    1    3    3  502    0  0.20820259621E+01 -0.56686906780E+02 -0.48746566991E+02  0.74909548295E+02  0.41800000000E+01 0.  1.
         -5    1    3    3    0  502 -0.27303059365E+02 -0.46434471265E+02  0.73183587366E+02  0.90966625925E+02  0.41800000000E+01 0.  1.
        -11    1    4    4    0    0  0.35566618375E+02  0.27367416633E+02  0.12287013684E+03  0.13080913715E+03  0.00000000000E+00 0. -1.
         11    1    4    4    0    0 -0.10345584972E+02  0.75753961413E+02  0.48280824435E+02  0.90425283003E+02  0.00000000000E+00 0.  1.
</event>
<event>
 8    1  0.6703334E-009  0.1197263E+03  0.7561462E-02  0.1243549E+00
          2   -1    0    0  501    0  0.00000000000E+00  0.00000000000E+00  0.20013359571E+03  0.20013359571E+03  0.00000000000E+00 0. -1.
         -2   -1    0    0    0  501 -0.00000000000E+00 -0.00000000000E+00 -0.78135075246E+02  0.78135075246E+02  0.00000000000E+00 0.  1.
         25    2    1    2    0    0  0.13873367612E+02  0.58904988868E+02  0.43886825514E+02  0.14572554684E+03  0.12509042131E+03 0.  0.
         23    2    1    2    0    0 -0.13873367612E+02 -0.58904988868E+02  0.78111694954E+02  0.13254312412E+03  0.88340108793E+02 0.  0.
          5    1    3    3  502    0 -0.86087930552E+01  0.92102442755E+02  0.10137205049E+02  0.93151524977E+02  0.41800000000E+01 0.  1.
         -5    1    3    3    0  502  0.22482160667E+02 -0.33197453887E+02  0.33749620465E+02  0.52574021859E+02  0.41800000000E+01 0.  1.
        -11    1    4    4    0    0 -0.36807988479E+02  0.63710889610E+01  0.21172582857E+02  0.42938293576E+02  0.00000000000E+00 0.  1.
         11    1    4    4    0    0  0.22934620867E+02 -0.65276077829E+02  0.56939112097E+02  0.89604830548E+02  0.00000000000E+00 0. -1.
</event>
<event>
 8    1  0.6703334E-009  0.1122953E+03  0.7561462E-02  0.1256378E+00
         -2   -1    0    0    0  501 -0.00000000000E+00  0.00000000000E+00  0.27934771470E+02  0.27934771470E+02  0.00000000000E+00 0.  1.
          2   -1    0    0  501    0  0.00000000000E+00 -0.00000000000E+00 -0.50576687526E+03  0.50576687526E+03  0.00000000000E+00 0. -1.
         25    2    1    2    0    0  0.18816904783E+02 -0.18989090985E+02 -0.18527616033E+03  0.22514356458E+03  0.12509079744E+03 0.  0.
         23    2    1    2    0    0 -0.18816904783E+02  0.18989090985E+02 -0.29255594346E+03  0.30855808215E+03  0.94363385506E+02 0.  0.
          5    1    3    3  502    0 -0.53571059249E+02 -0.11442319783E+02 -0.75781828042E+02  0.93600977198E+02  0.41800000000E+01 0. -1.
         -5    1    3    3    0  502  0.72387964032E+02 -0.75467712012E+01 -0.10949433229E+03  0.13154258738E+03  0.41800000000E+01 0. -1.
        -11    1    4    4    0    0 -0.10986583978E+02  0.56945643604E+02 -0.14979866994E+03  0.16063359820E+03  0.00000000000E+00 0. -1.
         11    1    4    4    0    0 -0.78303208052E+01 -0.37956552620E+02 -0.14275727351E+03  0.14792448395E+03  0.00000000000E+00 0.  1.
</event>
<event>
 8    1  0.6703334E-009  0.9234247E+02  0.7561462E-02  0.1297276E+00
          1   -1    0    0  501    0  0.00000000000E+00  0.00000000000E+00  0.45250837694E+02  0.45250837694E+02  0.00000000000E+00 0. -1.
         -1   -1    0    0    0  501 -0.00000000000E+00 -0.00000000000E+00 -0.34833618507E+03  0.34833618507E+03  0.00000000000E+00 0.  1.
         25    2    1    2    0    0 -0.56799780182E+02 -0.24945817362E+02 -0.15316955125E+03  0.20725401520E+03  0.12507920112E+03 0.  0.
         23    2    1    2    0    0  0.56799780182E+02  0.24945817362E+02 -0.14991579613E+03  0.18633300757E+03  0.91633699847E+02 0.  0.
          5    1    3    3  502    0 -0.18838973610E+02 -0.29912302147E+02 -0.16354090438E+03  0.16737010651E+03  0.41800000000E+01 0. -1.
         -5    1    3    3    0  502 -0.37960806572E+02  0.49664847851E+01  0.10371353132E+02  0.39883908691E+02  0.41800000000E+01 0. -1.
        -11    1    4    4    0    0  0.51074875790E+02 -0.27371432980E+02 -0.74979052003E+02  0.94761260648E+02  0.00000000000E+00 0. -1.
         11    1    4    4    0    0  0.57249043922E+01  0.52317250342E+02 -0.74936744128E+02  0.91571746921E+02  0.00000000000E+00 0.  1.
</event>
<event>
 8    1  0.6703334E-009  0.1005776E+03  0.7561462E-02  0.1279086E+00
         -2   -1    0    0    0  501 -0.00000000000E+00  0.00000000000E+00  0.11893959573E+02  0.11893959573E+02  0.00000000000E+00 0. -1.
          2   -1    0    0  501    0  0.00000000000E+00 -0.00000000000E+00 -0.12166439315E+04  0.12166439315E+04  0.00000000000E+00 0.  1.
         25    2    1    2    0    0  0.12332301225E+02 -0.39759064616E+02 -0.82342530119E+03  0.83391213686E+03  0.12508939398E+03 0.  0.
         23    2    1    2    0    0 -0.12332301225E+02  0.39759064616E+02 -0.38132467070E+03  0.39462575418E+03  0.92672069704E+02 0.  0.
          5    1    3    3  502    0  0.55068888538E+02 -0.23007847940E+02 -0.19927772091E+03  0.20806495621E+03  0.41800000000E+01 0.  1.
         -5    1    3    3    0  502 -0.42736587313E+02 -0.16751216676E+02 -0.62414758029E+03  0.62584718065E+03  0.41800000000E+01 0.  1.
        -11    1    4    4    0    0 -0.31188688534E+02 -0.16933093492E+02 -0.21470370106E+03  0.21761696441E+03  0.00000000000E+00 0.  1.
         11    1    4    4    0    0  0.18856387309E+02  0.56692158108E+02 -0.16662096964E+03  0.17700878977E+03  0.00000000000E+00 0. -1.
</event>
<event>
 8    1  0.6703334E-009  0.1332344E+03  0.7561462E-02  0.1222734E+00
          1   -1    0    0  501    0  0.00000000000E+00  0.00000000000E+00  0.39824180396E+03  0.39824180396E+03  0.00000000000E+00 0. -1.
         -1   -1    0    0    0  501 -0.00000000000E+00 -0.00000000000E+00 -0.60380264808E+02  0.60380264808E+02  0.00000000000E+00 0.  1.
         25    2    1    2    0    0 -0.57270784625E+02  0.67307803383E+02  0.83327977898E+02  0.17436067655E+03  0.12509120856E+03 0.  0.
         23    2    1    2    0    0  0.57270784625E+02 -0.67307803383E+02  0.25453356125E+03  0.28426139222E+03  0.90592064411E+02 0.  0.
          5    1    3    3  502    0  0.29189325389E+02 -0.12287176377E+01  0.51667294592E+02  0.59502169659E+02  0.41800000000E+01 0. -1.
         -5    1    3    3    0  502 -0.86460110014E+02  0.68536521021E+02  0.31660683306E+02  0.11485850689E+03  0.41800000000E+01 0. -1.
        -11    1    4    4    0    0  0.57174970430E+02  0.20285807636E+01  0.11699840946E+03  0.13023716904E+03  0.00000000000E+00 0. -1.
         11    1    4    4    0    0  0.95814194842E-01 -0.69336384147E+02  0.13753515179E+03  0.15402422318E+03  0.00000000000E+00 0.  1.
</event>
<event>
 8    1  0.6703334E-009  0.1526258E+03  0.7561462E-02  0.1197283E+00
          2   -1    0    0  501    0  0.00000000000E+00  0.00000000000E+00  0.56466702286E+03  0.56466702286E+03  0.00000000000E+00 0.  1.
         -2   -1    0    0    0  501 -0.00000000000E+00 -0.00000000000E+00 -0.61446102169E+02  0.61446102169E+02  0.00000000000E+00 0. -1.
         25    2    1    2    0    0  0.12705164839E+03 -0.43269594281E+02  0.38018761195E+03  0.42215078437E+03  0.12511708642E+03 0.  0.
         23    2    1    2    0    0 -0.12705164839E+03  0.43269594281E+02  0.12303330874E+03  0.20396234066E+03  0.91918780446E+02 0.  0.
          5    1    3    3  502    0  0.11751578506E+03 -0.71722123179E+02  0.22328955165E+03  0.26235418610E+03  0.41800000000E+01 0. -1.
         -5    1    3    3    0  502  0.95358633322E+01  0.28452528898E+02  0.15689806030E+03  0.15979659826E+03  0.41800000000E+01 0. -1.
        -11    1    4    4    0    0 -0.66635436679E+02  0.37658774296E+02  0.12060711327E+02  0.77485001520E+02  0.00000000000E+00 0.  1.
         11    1    4    4    0    0 -0.60416211715E+02  0.56108199858E+01  0.11097259742E+03  0.12647733914E+03  0.00000000000E+00 0. -1.
</event>
<event>
 8    1  0.6703334E-009  0.2085695E+03  0.7561462E-02  0.1142704E+00
         -4   -1    0    0    0  501 -0.00000000000E+00  0.00000000000E+00  0.16966346168E+03  0.16966346168E+03  0.00000000000E+00 0.  1.
          4   -1    0    0  501    0  0.00000000000E+00 -0.00000000000E+00 -0.30188268575E+03  0.30188268575E+03  0.00000000000E+00 0. -1.
         25    2    1    2    0    0 -0.10900238877E+03  0.15949431708E+03 -0.22864169583E+02  0.23127804869E+03  0.12508720006E+03 0.  0.
         23    2    1    2    0    0  0.10900238877E+03 -0.15949431708E+03 -0.10935505449E+03  0.24026809873E+03  0.91925368575E+02 0.  0.
          5    1    3    3  502    0 -0.11569885429E+03  0.91496054712E+02 -0.52579290558E+02  0.15665186596E+03  0.41800000000E+01 0.  1.
         -5    1    3    3    0  502  0.66964655220E+01  0.67998262365E+02  0.29715120975E+02  0.74626182735E+02  0.41800000000E+01 0.  1.
        -11    1    4    4    0    0  0.97165024975E+02 -0.96212285891E+02 -0.33515475878E+02  0.14078754618E+03  0.00000000000E+00 0.  1.
         11    1    4    4    0    0  0.11837363796E+02 -0.63282031186E+02 -0.75839578613E+02  0.99480552556E+02  0.00000000000E+00 0. -1.
</event>
<event>
 8    1  0.6703334E-009  0.8224874E+02  0.7561462E-02  0.1322788E+00
          1   -1    0    0  501    0  0.00000000000E+00  0.00000000000E+00  0.79094182777E+03  0.79094182777E+03  0.00000000000E+00 0. -1.
         -1   -1    0    0    0  501 -0.00000000000E+00 -0.00000000000E+00 -0.27987480893E+02  0.27987480893E+02  0.00000000000E+00 0.  1.
         25    2    1    2    0    0  0.38254949637E+02  0.52174457203E+02  0.61910596779E+03  0.63492065681E+03  0.12508567436E+03 0.  0.
         23    2    1    2    0    0 -0.38254949637E+02 -0.52174457203E+02  0.14384837909E+03  0.18400865186E+03  0.94769259976E+02 0.  0.
          5    1    3    3  502    0  0.42556228708E+02  0.60775094445E+02  0.61996258202E+03  0.62440028844E+03  0.41800000000E+01 0.  1.
         -5    1    3    3    0  502 -0.43012790716E+01 -0.86006372417E+01 -0.85661422465E+00  0.10520368365E+02  0.41800000000E+01 0.  1.
        -11    1    4    4    0    0 -0.30086805760E+02 -0.34353694696E+01 -0.16694505082E+01  0.30328282332E+02  0.00000000000E+00 0.  1.
         11    1    4    4    0    0 -0.81681438769E+01 -0.48739087734E+02  0.14551782959E+03  0.15368036953E+03  0.00000000000E+00 0. -1.
</event>
<event>
 8    1  0.6703334E-009  0.8710071E+02  0.7561462E-02  0.1310029E+00
          2   -1    0    0  501    0  0.00000000000E+00  0.00000000000E+00  0.18035764717E+04  0.18035764717E+04  0.00000000000E+00 0. -1.
         -2   -1    0    0    0  501 -0.00000000000E+00 -0.00000000000E+00 -0.48365865150E+02  0.48365865150E+02  0.00000000000E+00 0.  1.
         25    2    1    2    0    0 -0.20742675177E+01  0.73222793253E+02  0.17260043043E+04  0.17320809716E+04  0.12509098166E+03 0.  0.
         23    2    1    2    0    0  0.20742675177E+01 -0.73222793253E+02  0.29206302324E+02  0.11986136532E+03  0.90265490435E+02 0.  0.
          5    1    3    3  502    0  0.22199360836E+02  0.64661505928E+02  0.40011194478E+03  0.40593221444E+03  0.41800000000E+01 0.  1.
         -5    1    3    3    0  502 -0.24273628354E+02  0.85612873258E+01  0.13258923595E+04  0.13261487571E+04  0.41800000000E+01 0.  1.
        -11    1    4    4    0    0 -0.14337779147E+02 -0.41630614160E+02 -0.28218130700E+02  0.52296681027E+02  0.00000000000E+00 0.  1.
         11    1    4    4    0    0  0.16412046665E+02 -0.31592179094E+02  0.57424433024E+02  0.67564684294E+02  0.00000000000E+00 0. -1.
</event>
<event>
 8    1  0.6703334E-009  0.1060894E+03  0.7561462E-02  0.1267988E+00
         -2   -1    0    0    0  501 -0.00000000000E+00  0.00000000000E+00  0.46654995180E+02  0.46654995180E+02  0.00000000000E+00 0.  1.
          2   -1    0    0  501    0  0.00000000000E+00 -0.00000000000E+00 -0.36672146785E+03  0.36672146785E+03  0.00000000000E+00 0. -1.
         25    2    1    2    0    0  0.58037964174E+01 -0.48946804957E+02 -0.25679072676E+03  0.28985993488E+03  0.12509128959E+03 0.  0.
         23    2    1    2    0    0 -0.58037964174E+01  0.48946804957E+02 -0.63275745906E+02  0.12351652815E+03  0.93931032876E+02 0.  0.
          5    1    3    3  502    0 -0.59438781452E+02 -0.22608617004E+02 -0.11333473903E+03  0.13002443530E+03  0.41800000000E+01 0.  1.
         -5    1    3    3    0  502  0.65242577869E+02 -0.26338187952E+02 -0.14345598773E+03  0.15983549959E+03  0.41800000000E+01 0.  1.
        -11    1    4    4    0    0  0.26984653575E+02  0.28876285777E+02  0.10000604640E+02  0.40767922464E+02  0.00000000000E+00 0.  1.
         11    1    4    4    0    0 -0.32788449993E+02  0.20070519180E+02 -0.73276350546E+02  0.82748605683E+02  0.00000000000E+00 0. -1.
</event>
<event>
 8    1  0.6703334E-009  0.1330577E+03  0.7561462E-02  0.1222988E+00
          1   -1    0    0  501    0  0.00000000000E+00  0.00000000000E+00  0.72226310867E+03  0.72226310867E+03  0.00000000000E+00 0. -1.
         -1   -1    0    0    0  501 -0.00000000000E+00 -0.00000000000E+00 -0.27030787504E+02  0.27030787504E+02  0.00000000000E+00 0.  1.
         25    2    1    2    0    0 -0.56983294820E+02  0.62796159106E+02  0.32912589083E+03  0.36216135290E+03  0.12508613045E+03 0.  0.
         23    2    1    2    0    0  0.56983294820E+02 -0.62796159106E+02  0.36610643034E+03  0.38713254328E+03  0.92990506201E+02 0.  0.
          5    1    3    3  502    0 -0.30875765630E+02 -0.36496130828E+02  0.93117012226E+02  0.10475462202E+03  0.41800000000E+01 0. -1.
         -5    1    3    3    0  502 -0.26107529191E+02  0.99292289935E+02  0.23600887861E+03  0.25740673088E+03  0.41800000000E+01 0. -1.
        -11    1    4    4    0    0  0.57976356966E+02 -0.56829415875E+01  0.26186463679E+03  0.26826599075E+03  0.00000000000E+00 0.  1.
         11    1    4    4    0    0 -0.99306214517E+00 -0.57113217519E+02  0.10424179354E+03  0.11886655252E+03  0.00000000000E+00 0. -1.
</event>
<event>
 8    1  0.6703334E-009  0.1265467E+03  0.7561462E-02  0.1232672E+00
         -1   -1    0    0    0  501 -0.00000000000E+00  0.00000000000E+00  0.10938493482E+03  0.10938493482E+03  0.00000000000E+00 0.  1.
          1   -1    0    0  501    0  0.00000000000E+00 -0.00000000000E+00 -0.15985009672E+03  0.15985009672E+03  0.00000000000E+00 0. -1.
         25    2    1    2    0    0 -0.65289636846E+02  0.95143683951E+01 -0.63735626910E+02  0.15512571557E+03  0.12509395512E+03 0.  0.
         23    2    1    2    0    0  0.65289636846E+02 -0.95143683951E+01  0.13270465019E+02  0.11410931597E+03  0.92149719824E+02 0.  0.
          5    1    3    3  502    0 -0.10087546229E+03 -0.78204472150E+01 -0.40703209835E+02  0.10913863650E+03  0.41800000000E+01 0.  1.
         -5    1    3    3    0  502  0.35585825444E+02  0.17334815610E+02 -0.23032417074E+02  0.45987079067E+02  0.41800000000E+01 0.  1.
        -11    1    4    4    0    0  0.80862274388E+02  0.15716786595E+02  0.20308861337E+01  0.82400541858E+02  0.00000000000E+00 0.  1.
         11    1    4    4    0    0 -0.15572637541E+02 -0.25231154990E+02  0.11239578886E+02  0.31708774111E+02  0.00000000000E+00 0. -1.
</event>
<event>
 8    1  0.6703334E-009  0.1309943E+03  0.7561462E-02  0.1225988E+00
          2   -1    0    0  501    0  0.00000000000E+00  0.00000000000E+00  0.12570369552E+03  0.12570369552E+03  0.00000000000E+00 0. -1.
         -2   -1    0    0    0  501 -0.00000000000E+00 -0.00000000000E+00 -0.21357987781E+03  0.21357987781E+03  0.00000000000E+00 0.  1.
         25    2    1    2    0    0  0.83971502578E+02 -0.81837175310E+02 -0.87134190771E+01  0.17167447679E+03  0.12509063035E+03 0.  0.
         23    2    1    2    0    0 -0.83971502578E+02  0.81837175310E+02 -0.79162763213E+02  0.16760909654E+03  0.89875078052E+02 0.  0.
          5    1    3    3  502    0  0.32163162831E+02 -0.40985275145E+02 -0.66006187447E+02  0.84193533025E+02  0.41800000000E+01 0.  1.
         -5    1    3    3    0  502  0.51808339747E+02 -0.40851900166E+02  0.57292768369E+02  0.87480943765E+02  0.41800000000E+01 0.  1.
        -11    1    4    4    0    0 -0.35032293835E+02  0.87591099422E+02 -0.32592910845E+02  0.99808617597E+02  0.00000000000E+00 0. -1.
         11    1    4    4    0    0 -0.48939208743E+02 -0.57539241118E+01 -0.46569852367E+02  0.67800478941E+02  0.00000000000E+00 0.  1.
</event>
<event>
 8    1  0.6703334E-009  0.1116705E+03  0.7561462E-02  0.1257507E+00
         -1   -1    0    0    0  501 -0.00000000000E+00  0.00000000000E+00  0.11483831185E+04  0.11483831185E+04  0.00000000000E+00 0.  1.
          1   -1    0    0  501    0  0.00000000000E+00 -0.00000000000E+00 -0.12369496550E+02  0.12369496550E+02  0.00000000000E+00 0. -1.
         25    2    1    2    0    0 -0.11290077851E+02 -0.22488040648E+01  0.74914363601E+03  0.75960346221E+03  0.12509480183E+03 0.  0.
         23    2    1    2    0    0  0.11290077851E+02  0.22488040648E+01  0.38686998591E+03  0.40114915281E+03  0.10545014854E+03 0.  0.
          5    1    3    3  502    0 -0.61091388933E+02  0.22688141963E+02  0.50186087334E+03  0.50609161046E+03  0.41800000000E+01 0. -1.
         -5    1    3    3    0  502  0.49801311081E+02 -0.24936946027E+02  0.24728276267E+03  0.25351185175E+03  0.41800000000E+01 0. -1.
        -11    1    4    4    0    0 -0.34463650456E+02 -0.30418313412E+02  0.22899701091E+03  0.23356508300E+03  0.00000000000E+00 0.  1.
         11    1    4    4    0    0  0.45753728308E+02  0.32667117476E+02  0.15787297500E+03  0.16758406981E+03  0.00000000000E+00 0. -1.
</event>
<event>
 8    1  0.6703334E-009  0.1137018E+03  0.7561462E-02  0.1253864E+00
          1   -1    0    0  501    0  0.00000000000E+00  0.00000000000E+00  0.58937080158E+02  0.58937080158E+02  0.00000000000E+00 0. -1.
         -1   -1    0    0    0  501 -0.00000000000E+00 -0.00000000000E+00 -0.36696839965E+03  0.36696839965E+03  0.00000000000E+00 0.  1.
         25    2    1    2    0    0  0.47805492720E+02  0.69404172821E+02 -0.12483006810E+03  0.19578600842E+03  0.12508921157E+03 0.  0.
         23    2    1    2    0    0 -0.47805492720E+02 -0.69404172821E+02 -0.18320125139E+03  0.23011947138E+03  0.11086012926E+03 0.  0.
          5    1    3    3  502    0  0.66978739529E+02  0.85524279774E+02 -0.13041592228E+03  0.16978321226E+03  0.41800000000E+01 0. -1.
         -5    1    3    3    0  502 -0.19173246810E+02 -0.16120106952E+02  0.55858541822E+01  0.26002796164E+02  0.41800000000E+01 0. -1.
        -11    1    4    4    0    0 -0.25746859878E+02 -0.63819445102E+01 -0.15563906771E+03  0.15788334114E+03  0.00000000000E+00 0.  1.
         11    1    4    4    0    0 -0.22058632842E+02 -0.63022228311E+02 -0.27562183672E+02  0.72236130246E+02  0.00000000000E+00 0. -1.
</event>
<event>
 8    1  0.6703334E-009  0.1105386E+03  0.7561462E-02  0.1259576E+00
         -1   -1    0    0    0  501 -0.00000000000E+00  0.00000000000E+00  0.26624403971E+02  0.26624403971E+02  0.00000000000E+00 0.  1.
          1   -1    0    0  501    0  0.00000000000E+00 -0.00000000000E+00 -0.68866694670E+03  0.68866694670E+03  0.00000000000E+00 0. -1.
         25    2    1    2    0    0  0.27233582384E+02 -0.77044508762E+02 -0.36918146738E+03  0.39827003658E+03  0.12508613769E+03 0.  0.
         23    2    1    2    0    0 -0.27233582384E+02  0.77044508762E+02 -0.29286107535E+03  0.31702131409E+03  0.89762908777E+02 0.  0.
          5    1    3    3  502    0  0.12726233683E+01  0.20834690892E+02 -0.19944389117E+03  0.20057677343E+03  0.41800000000E+01 0. -1.
         -5    1    3    3    0  502  0.25960959016E+02 -0.97879199654E+02 -0.16973757621E+03  0.19769326316E+03  0.41800000000E+01 0. -1.
        -11    1    4    4    0    0 -0.22177591606E+02  0.97185032784E+00 -0.10515711658E+02  0.24563596116E+02  0.00000000000E+00 0.  1.
         11    1    4    4    0    0 -0.50559907782E+01  0.76072658434E+02 -0.28234536369E+03  0.29245771797E+03  0.00000000000E+00 0. -1.
</event>
<event>
 8    1  0.6703334E-009  0.1482044E+03  0.7561462E-02  0.1202697E+00
          2   -1    0    0  501    0  0.00000000000E+00  0.00000000000E+00  0.49882575960E+03  0.49882575960E+03  0.00000000000E+00 0. -1.
         -2   -1    0    0    0  501 -0.00000000000E+00 -0.00000000000E+00 -0.70021742940E+02  0.70021742940E+02  0.00000000000E+00 0.  1.
         25    2    1    2    0    0  0.61549834080E+00  0.12210199880E+03  0.91367766783E+02  0.19724140046E+03  0.12508726673E+03 0.  0.
         23    2    1    2    0    0 -0.61549834080E+00 -0.12210199880E+03  0.33743624988E+03  0.37160610208E+03  0.96532872234E+02 0.  0.
          5    1    3    3  502    0  0.53626994729E+02  0.10295273948E+03  0.75496586043E+02  0.13853637802E+03  0.41800000000E+01 0. -1.
         -5    1    3    3    0  502 -0.53011496388E+02  0.19149259320E+02  0.15871180740E+02  0.58705022441E+02  0.41800000000E+01 0. -1.
        -11    1    4    4    0    0  0.71473489515E+01 -0.10091749333E+03  0.33374735810E+03  0.34874449687E+03  0.00000000000E+00 0. -1.
         11    1    4    4    0    0 -0.77628472923E+01 -0.21184505476E+02  0.36888917773E+01  0.22861605213E+02  0.00000000000E+00 0.  1.
</event>
<event>
 8    1  0.6703334E-009  0.9165890E+02  0.7561462E-02  0.1298883E+00
          1   -1    0    0  501    0  0.00000000000E+00  0.00000000000E+00  0.88670287111E+02  0.88670287111E+02  0.00000000000E+00 0. -1.
         -1   -1    0    0    0  501 -0.00000000000E+00 -0.00000000000E+00 -0.21174645138E+03  0.21174645138E+03  0.00000000000E+00 0.  1.
         25    2    1    2    0    0  0.19247339828E+02  0.76864408276E+02 -0.41761225653E+02  0.15384761958E+03  0.12508594138E+03 0.  0.
         23    2    1    2    0    0 -0.19247339828E+02 -0.76864408276E+02 -0.81314938618E+02  0.14656911891E+03  0.92691909178E+02 0.  0.
          5    1    3    3  502    0  0.28475194054E+02  0.43834964863E+02  0.39431761059E+02  0.65610037351E+02  0.41800000000E+01 0. -1.
         -5    1    3    3    0  502 -0.92278542261E+01  0.33029443414E+02 -0.81192986713E+02  0.88237582227E+02  0.41800000000E+01 0. -1.
        -11    1    4    4    0    0 -0.64016510571E+01 -0.82180024937E+02 -0.95875023183E+02  0.12643795991E+03  0.00000000000E+00 0.  1.
         11    1    4    4    0    0 -0.12845688771E+02  0.53156166602E+01  0.14560084566E+02  0.20131159009E+02  0.00000000000E+00 0. -1.
</event>
<event>
 8    1  0.6703334E-009  0.1032907E+03  0.7561462E-02  0.1273524E+00
         -2   -1    0    0    0  501 -0.00000000000E+00  0.00000000000E+00  0.11777347004E+02  0.11777347004E+02  0.00000000000E+00 0.  1.
          2   -1    0    0  501    0  0.00000000000E+00 -0.00000000000E+00 -0.10186314151E+04  0.10186314151E+04  0.00000000000E+00 0. -1.
         25    2    1    2    0    0  0.59860495863E+01  0.49769647240E+00 -0.73160905172E+03  0.74224283762E+03  0.12504617125E+03 0.  0.
         23    2    1    2    0    0 -0.59860495863E+01 -0.49769647240E+00 -0.27524501639E+03  0.28816592450E+03  0.85109931877E+02 0.  0.
          5    1    3    3  502    0 -0.40220737744E+02 -0.44717095821E+02 -0.36874594584E+03  0.37364203642E+03  0.41800000000E+01 0.  1.
         -5    1    3    3    0  502  0.46206787330E+02  0.45214792293E+02 -0.36286310588E+03  0.36860080120E+03  0.41800000000E+01 0.  1.
        -11    1    4    4    0    0  0.37623530779E+02  0.30979792951E+01 -0.85879714075E+02  0.93810728777E+02  0.00000000000E+00 0.  1.
         11    1    4    4    0    0 -0.43609580365E+02 -0.35956757675E+01 -0.18936530232E+03  0.19435519573E+03  0.00000000000E+00 0. -1.
</event>
<event>
 8    1  0.6703334E-009  0.3100847E+03  0.7561462E-02  0.1080305E+00
         -1   -1    0    0    0  501 -0.00000000000E+00  0.00000000000E+00  0.68943129774E+03  0.68943129774E+03  0.00000000000E+00 0.  1.
          1   -1    0    0  501    0  0.00000000000E+00 -0.00000000000E+00 -0.15733496082E+03  0.15733496082E+03  0.00000000000E+00 0. -1.
         25    2    1    2    0    0 -0.28798069418E+03 -0.10023860972E+03  0.34191410648E+03  0.47490252264E+03  0.12508593327E+03 0.  0.
         23    2    1    2    0    0  0.28798069418E+03  0.10023860972E+03  0.19018223044E+03  0.37186373591E+03  0.95565151686E+02 0.  0.
          5    1    3    3  502    0 -0.25418326745E+03 -0.10710217047E+03  0.23466476850E+03  0.36216713592E+03  0.41800000000E+01 0. -1.
         -5    1    3    3    0  502 -0.33797426729E+02  0.68635607568E+01  0.10724933798E+03  0.11273538671E+03  0.41800000000E+01 0. -1.
        -11    1    4    4    0    0  0.13672802942E+03  0.75874169414E+02  0.49902160192E+02  0.16413917633E+03  0.00000000000E+00 0. -1.
         11    1    4    4    0    0  0.15125266475E+03  0.24364440303E+02  0.14028007025E+03  0.20772455959E+03  0.00000000000E+00 0.  1.
</event>
<event>
 8    1  0.6703334E-009  0.2495409E+03  0.7561462E-02  0.1113595E+00
          1   -1    0    0  501    0  0.00000000000E+00  0.00000000000E+00  0.73992691672E+02  0.73992691672E+02  0.00000000000E+00 0. -1.
         -1   -1    0    0    0  501 -0.00000000000E+00 -0.00000000000E+00 -0.88798592718E+03  0.88798592718E+03  0.00000000000E+00 0.  1.
         25    2    1    2    0    0 -0.22322289580E+03 -0.60975127215E+02 -0.45067498995E+03  0.52182578396E+03  0.12509106639E+03 0.  0.
         23    2    1    2    0    0  0.22322289580E+03  0.60975127215E+02 -0.36331824555E+03  0.44015283488E+03  0.90487254134E+02 0.  0.
          5    1    3    3  502    0 -0.82950692419E+02  0.29960192552E+02 -0.10052793377E+03  0.13379749018E+03  0.41800000000E+01 0. -1.
         -5    1    3    3    0  502 -0.14027220338E+03 -0.90935319767E+02 -0.35014705618E+03  0.38802829378E+03  0.41800000000E+01 0. -1.
        -11    1    4    4    0    0  0.79930933087E+02  0.60545801993E+02 -0.19365263694E+03  0.21807359307E+03  0.00000000000E+00 0.  1.
         11    1    4    4    0    0  0.14329196271E+03  0.42932522151E+00 -0.16966560861E+03  0.22207924181E+03  0.00000000000E+00 0. -1.
</event>
<event>
 8    1  0.6703334E-009  0.2058342E+03  0.7561462E-02  0.1144908E+00
         -1   -1    0    0    0  501 -0.00000000000E+00  0.00000000000E+00  0.24486626206E+02  0.24486626206E+02  0.00000000000E+00 0.  1.
          1   -1    0    0  501    0  0.00000000000E+00 -0.00000000000E+00 -0.17364900988E+04  0.17364900988E+04  0.00000000000E+00 0. -1.
         25    2    1    2    0    0 -0.97239052599E+02  0.14521657196E+03 -0.88968090838E+03  0.91527184437E+03  0.12508854556E+03 0.  0.
         23    2    1    2    0    0  0.97239052599E+02 -0.14521657196E+03 -0.82232256417E+03  0.84570488060E+03  0.91973144967E+02 0.  0.
          5    1    3    3  502    0 -0.10501123899E+03  0.46247029117E+02 -0.43894544051E+03  0.45371435966E+03  0.41800000000E+01 0.  1.
         -5    1    3    3    0  502  0.77721863952E+01  0.98969542846E+02 -0.45073546787E+03  0.46155748471E+03  0.41800000000E+01 0.  1.
        -11    1    4    4    0    0  0.12237014372E+02 -0.10087350594E+03 -0.42579008901E+03  0.43774696871E+03  0.00000000000E+00 0.  1.
         11    1    4    4    0    0  0.85002038227E+02 -0.44343066021E+02 -0.39653247517E+03  0.40795791189E+03  0.00000000000E+00 0. -1.
</event>
<event>
 8    1  0.6703334E-009  0.9501449E+02  0.7561462E-02  0.1291143E+00
         -1   -1    0    0    0  501 -0.00000000000E+00  0.00000000000E+00  0.79809321464E+01  0.79809321464E+01  0.00000000000E+00 0.  1.
          1   -1    0    0  501    0  0.00000000000E+00 -0.00000000000E+00 -0.16578294625E+04  0.16578294625E+04  0.00000000000E+00 0. -1.
         25    2    1    2    0    0 -0.78503206383E+01  0.12755576699E+02 -0.12125491873E+04  0.12190771525E+04  0.12509692118E+03 0.  0.
         23    2    1    2    0    0  0.78503206383E+01 -0.12755576699E+02 -0.43729934300E+03  0.44673324217E+03  0.90086303023E+02 0.  0.
          5    1    3    3  502    0  0.43295867752E+02  0.18189571525E+02 -0.21116972148E+03  0.21636893573E+03  0.41800000000E+01 0. -1.
         -5    1    3    3    0  502 -0.51146188391E+02 -0.54339948264E+01 -0.10013794658E+04  0.10027082167E+04  0.41800000000E+01 0. -1.
        -11    1    4    4    0    0  0.38715477728E+02 -0.35822319469E+02 -0.25957551065E+03  0.26488029846E+03  0.00000000000E+00 0. -1.
         11    1    4    4    0    0 -0.30865157090E+02  0.23066742771E+02 -0.17772383236E+03  0.18185294370E+03  0.00000000000E+00 0.  1.
</event>
<event>
 8    1  0.6703334E-009  0.1169614E+03  0.7561462E-02  0.1248196E+00
          3   -1    0    0  501    0  0.00000000000E+00  0.00000000000E+00  0.37753004142E+02  0.37753004142E+02  0.00000000000E+00 0. -1.
         -3   -1    0    0    0  501 -0.00000000000E+00 -0.00000000000E+00 -0.49893777835E+03  0.49893777835E+03  0.00000000000E+00 0.  1.
         25    2    1    2    0    0 -0.54441708195E+01 -0.53719440719E+02 -0.37776024913E+03  0.40159464355E+03  0.12514005992E+03 0.  0.
         23    2    1    2    0    0  0.54441708195E+01  0.53719440719E+02 -0.83424525078E+02  0.13509613894E+03  0.91519932616E+02 0.  0.
          5    1    3    3  502    0 -0.42873677035E+02 -0.73895698721E+02 -0.18023877183E+03  0.19950492160E+03  0.41800000000E+01 0. -1.
         -5    1    3    3    0  502  0.37429506215E+02  0.20176258002E+02 -0.19752147731E+03  0.20208972195E+03  0.41800000000E+01 0. -1.
        -11    1    4    4    0    0 -0.12418458115E+02 -0.23405161316E+02 -0.14933763014E+02  0.30414420198E+02  0.00000000000E+00 0.  1.
         11    1    4    4    0    0  0.17862628934E+02  0.77124602035E+02 -0.68490762064E+02  0.10468171875E+03  0.00000000000E+00 0. -1.
</event>
<event>
 8    1  0.6703334E-009  0.1102611E+03  0.7561462E-02  0.1260087E+00
         -1   -1    0    0    0  501 -0.00000000000E+00  0.00000000000E+00  0.13401259138E+03  0.13401259138E+03  0.00000000000E+00 0.  1.
          1   -1    0    0  501    0  0.00000000000E+00 -0.00000000000E+00 -0.13808445295E+03  0.13808445295E+03  0.00000000000E+00 0. -1.
         25    2    1    2    0    0  0.50143379018E+02  0.34430310997E+02 -0.57598559669E+02  0.15054631761E+03  0.12508714920E+03 0.  0.
         23    2    1    2    0    0 -0.50143379018E+02 -0.34430310997E+02  0.53526698092E+02  0.12155072672E+03  0.90607212641E+02 0.  0.
          5    1    3    3  502    0 -0.30229354036E+02  0.30382743056E+01 -0.56344806595E+02  0.64150250088E+02  0.41800000000E+01 0. -1.
         -5    1    3    3    0  502  0.80372733054E+02  0.31392036692E+02 -0.12537530737E+01  0.86396067520E+02  0.41800000000E+01 0. -1.
        -11    1    4    4    0    0 -0.66641648658E+02 -0.47980975360E+02  0.56943575165E+02  0.99929245394E+02  0.00000000000E+00 0.  1.
         11    1    4    4    0    0  0.16498269640E+02  0.13550664362E+02 -0.34168770731E+01  0.21621481325E+02  0.00000000000E+00 0. -1.
</event>
<event>
 8    1  0.6703334E-009  0.1108591E+03  0.7561462E-02  0.1258987E+00
          1   -1    0    0  501    0  0.00000000000E+00  0.00000000000E+00  0.17922640706E+04  0.17922640706E+04  0.00000000000E+00 0. -1.
         -1   -1    0    0    0  501 -0.00000000000E+00 -0.00000000000E+00 -0.80239348150E+01  0.80239348150E+01  0.00000000000E+00 0.  1.
         25    2    1    2    0    0 -0.15281645661E+01 -0.30924030463E+02  0.13459989116E+04  0.13521532789E+04  0.12508712456E+03 0.  0.
         23    2    1    2    0    0  0.15281645661E+01  0.30924030463E+02  0.43824122427E+03  0.44813472657E+03  0.88378343308E+02 0.  0.
          5    1    3    3  502    0 -0.56463825870E+02  0.12450174305E+02  0.53638646734E+03  0.53951004181E+03  0.41800000000E+01 0. -1.
         -5    1    3    3    0  502  0.54935661304E+02 -0.43374204768E+02  0.80961244422E+03  0.81264323707E+03  0.41800000000E+01 0. -1.
        -11    1    4    4    0    0 -0.35934637432E+02  0.41309752875E+02  0.25205547952E+03  0.25793363218E+03  0.00000000000E+00 0.  1.
         11    1    4    4    0    0  0.37462801998E+02 -0.10385722412E+02  0.18618574475E+03  0.19020109440E+03  0.00000000000E+00 0. -1.
</event>
<event>
 8    1  0.6703334E-009  0.7460704E+02  0.7561462E-02  0.1345092E+00
          1   -1    0    0  501    0  0.00000000000E+00  0.00000000000E+00  0.18364141349E+03  0.18364141349E+03  0.00000000000E+00 0. -1.
         -1   -1    0    0    0  501 -0.00000000000E+00 -0.00000000000E+00 -0.63847306144E+02  0.63847306144E+02  0.00000000000E+00 0.  1.
         25    2    1    2    0    0  0.31770130455E+01 -0.10832069623E+01  0.54242959318E+02  0.13638512646E+03  0.12508931743E+03 0.  0.
         23    2    1    2    0    0 -0.31770130455E+01  0.10832069623E+01  0.65551148027E+02  0.11110359317E+03  0.89642560532E+02 0.  0.
          5    1    3    3  502    0  0.22203121932E+02 -0.56908599261E+02  0.88977534054E+01  0.61872527902E+02  0.41800000000E+01 0.  1.
         -5    1    3    3    0  502 -0.19026108886E+02  0.55825392298E+02  0.45345205912E+02  0.74512598558E+02  0.41800000000E+01 0.  1.
        -11    1    4    4    0    0  0.11807396248E+02  0.57917945123E+01 -0.20102197678E+02  0.24022028251E+02  0.00000000000E+00 0.  1.
         11    1    4    4    0    0 -0.14984409293E+02 -0.47085875500E+01  0.85653345705E+02  0.87081564921E+02  0.00000000000E+00 0. -1.
</event>
<event>
 8    1  0.6703334E-009  0.1709051E+03  0.7561462E-02  0.1176907E+00
          1   -1    0    0  501    0  0.00000000000E+00  0.00000000000E+00  0.88639519951E+02  0.88639519951E+02  0.00000000000E+00 0. -1.
         -1   -1    0    0    0  501 -0.00000000000E+00 -0.00000000000E+00 -0.40596080578E+03  0.40596080578E+03  0.00000000000E+00 0.  1.
         25    2    1    2    0    0 -0.15380112174E+03 -0.13348211631E+02 -0.14587708736E+03  0.24649570354E+03  0.12508815870E+03 0.  0.
         23    2    1    2    0    0  0.15380112174E+03  0.13348211631E+02 -0.17144419847E+03  0.24810462219E+03  0.91267905440E+02 0.  0.
          5    1    3    3  502    0 -0.79961699258E+01 -0.19557257184E+02  0.17236920026E+02  0.27586388927E+02  0.41800000000E+01 0.  1.
         -5    1    3    3    0  502 -0.14580495181E+03  0.62090455526E+01 -0.16311400739E+03  0.21890931461E+03  0.41800000000E+01 0.  1.
        -11    1    4    4    0    0  0.86821087720E+02 -0.32936743763E+02 -0.12025094122E+03  0.15193096863E+03  0.00000000000E+00 0. -1.
         11    1    4    4    0    0  0.66980034016E+02  0.46284955394E+02 -0.51193257242E+02  0.96173653563E+02  0.00000000000E+00 0.  1.
</event>
<event>
 8    1  0.6703334E-009  0.9881448E+02  0.7561462E-02  0.1282809E+00
         -3   -1    0    0    0  501 -0.00000000000E+00  0.00000000000E+00  0.39903339322E+03  0.39903339322E+03  0.00000000000E+00 0.  1.
          3   -1    0    0  501    0  0.00000000000E+00 -0.00000000000E+00 -0.40957544704E+02  0.40957544704E+02  0.00000000000E+00 0. -1.
         25    2    1    2    0    0 -0.37684282506E+02 -0.40295158329E+02  0.12468465142E+03  0.18503213744E+03  0.12508726814E+03 0.  0.
         23    2    1    2    0    0  0.37684282506E+02  0.40295158329E+02  0.23339119710E+03  0.25495880049E+03  0.86537472417E+02 0.  0.
          5    1    3    3  502    0 -0.70812944254E+02 -0.24709539939E+02  0.25668306261E+02  0.79381161394E+02  0.41800000000E+01 0.  1.
         -5    1    3    3    0  502  0.33128661748E+02 -0.15585618390E+02  0.99016345159E+02  0.10565097604E+03  0.41800000000E+01 0.  1.
        -11    1    4    4    0    0  0.56065428345E+02  0.23595092812E+02  0.21660315066E+03  0.22498218938E+03  0.00000000000E+00 0.  1.
         11    1    4    4    0    0 -0.18381145839E+02  0.16700065517E+02  0.16788046431E+02  0.29976611109E+02  0.00000000000E+00 0. -1.
</event>
<event>
 8    1  0.6703334E-009  0.1358969E+03  0.7561462E-02  0.1218959E+00
         -2   -1    0    0    0  501 -0.00000000000E+00  0.00000000000E+00  0.96921502991E+02  0.96921502991E+02  0.00000000000E+00 0.  1.
          2   -1    0    0  501    0  0.00000000000E+00 -0.00000000000E+00 -0.21473640689E+03  0.21473640689E+03  0.00000000000E+00 0. -1.
         25    2    1    2    0    0  0.32426926976E+02 -0.88363425411E+02 -0.48618695603E+02  0.16392781096E+03  0.12509575972E+03 0.  0.
         23    2    1    2    0    0 -0.32426926976E+02  0.88363425411E+02 -0.69196208297E+02  0.14773009893E+03  0.90423815129E+02 0.  0.
          5    1    3    3  502    0 -0.26789096411E+02  0.78659959373E+01  0.17239756826E+02  0.33078863252E+02  0.41800000000E+01 0.  1.
         -5    1    3    3    0  502  0.59216023387E+02 -0.96229421348E+02 -0.65858452429E+02  0.13084894770E+03  0.41800000000E+01 0.  1.
        -11    1    4    4    0    0 -0.62376604458E+02  0.41642939449E+02 -0.38292017144E+02  0.84209582392E+02  0.00000000000E+00 0.  1.
         11    1    4    4    0    0  0.29949677483E+02  0.46720485962E+02 -0.30904191154E+02  0.63520516534E+02  0.00000000000E+00 0. -1.
</event>
<event>
 8    1  0.6703334E-009  0.1367269E+03  0.7561462E-02  0.1217802E+00
         -2   -1    0    0    0  501 -0.00000000000E+00  0.00000000000E+00  0.25975433384E+02  0.25975433384E+02  0.00000000000E+00 0.  1.
          2   -1    0    0  501    0  0.00000000000E+00 -0.00000000000E+00 -0.11778026998E+04  0.11778026998E+04  0.00000000000E+00 0. -1.
         25    2    1    2    0    0  0.10422584271E+03 -0.36897543689E+02 -0.33347871562E+03  0.37293353675E+03  0.12508762546E+03 0.  0.
         23    2    1    2    0    0 -0.10422584271E+03  0.36897543689E+02 -0.81834855080E+03  0.83084459644E+03  0.91563845547E+02 0.  0.
          5    1    3    3  502    0  0.94137246020E+02 -0.20598113590E+01 -0.10313843978E+03  0.13971783734E+03  0.41800000000E+01 0. -1.
         -5    1    3    3    0  502  0.10088596694E+02 -0.34837732330E+02 -0.23034027584E+03  0.23321569941E+03  0.41800000000E+01 0. -1.
        -11    1    4    4    0    0 -0.10661999762E+03  0.58054069889E+02 -0.72541415624E+03  0.73550241128E+03  0.00000000000E+00 0. -1.
         11    1    4    4    0    0  0.23941549037E+01 -0.21156526199E+02 -0.92934394564E+02  0.95342185162E+02  0.00000000000E+00 0.  1.
</event>
<event>
 8    1  0.6703334E-009  0.1081842E+03  0.7561462E-02  0.1263970E+00
          3   -1    0    0  501    0  0.00000000000E+00  0.00000000000E+00  0.44073539787E+03  0.44073539787E+03  0.00000000000E+00 0. -1.
         -3   -1    0    0    0  501 -0.00000000000E+00 -0.00000000000E+00 -0.39051495701E+02  0.39051495701E+02  0.00000000000E+00 0.  1.
         25    2    1    2    0    0  0.60001027938E+02  0.11548573171E+01  0.29485839596E+03  0.32586884043E+03  0.12509024920E+03 0.  0.
         23    2    1    2    0    0 -0.60001027938E+02 -0.11548573171E+01  0.10682550621E+03  0.15391805314E+03  0.93153750635E+02 0.  0.
          5    1    3    3  502    0  0.21765510818E+02 -0.61193598599E+02  0.15109701235E+03  0.16451800361E+03  0.41800000000E+01 0.  1.
         -5    1    3    3    0  502  0.38235517120E+02  0.62348455916E+02  0.14376138361E+03  0.16135083682E+03  0.41800000000E+01 0.  1.
        -11    1    4    4    0    0 -0.27719423412E+02 -0.25445021482E+02  0.10710018629E+03  0.11351768786E+03  0.00000000000E+00 0. -1.
         11    1    4    4    0    0 -0.32281604527E+02  0.24290164165E+02 -0.27468008531E+00  0.40400365284E+02  0.00000000000E+00 0.  1.
</event>
<event>
 8    1  0.6703334E-009  0.1341424E+03  0.7561462E-02  0.1221435E+00
         -2   -1    0    0    0  501 -0.00000000000E+00  0.00000000000E+00  0.75571483953E+02  0.75571483953E+02  0.00000000000E+00 0.  1.
          2   -1    0    0  501    0  0.00000000000E+00 -0.00000000000E+00 -0.72872104856E+03  0.72872104856E+03  0.00000000000E+00 0. -1.
         25    2    1    2    0    0  0.41011398020E+02  0.71801918053E+02 -0.10909665145E+02  0.15034123257E+03  0.12508403261E+03 0.  0.
         23    2    1    2    0    0 -0.41011398020E+02 -0.71801918053E+02 -0.64223989946E+03  0.65395129995E+03  0.91338732399E+02 0.  0.
          5    1    3    3  502    0  0.45293875256E+02 -0.23304807534E+02 -0.19404364178E+02  0.54668555304E+02  0.41800000000E+01 0. -1.
         -5    1    3    3    0  502 -0.42824772358E+01  0.95106725587E+02  0.84946990324E+01  0.95672677264E+02  0.41800000000E+01 0. -1.
        -11    1    4    4    0    0  0.93257087850E+01  0.17237188195E+02 -0.72456752743E+02  0.75060445771E+02  0.00000000000E+00 0.  1.
         11    1    4    4    0    0 -0.50337106805E+02 -0.89039106248E+02 -0.56978314672E+03  0.57889085417E+03  0.00000000000E+00 0. -1.
</event>
<event>
 8    1  0.6703334E-009  0.1297953E+03  0.7561462E-02  0.1227760E+00
         -1   -1    0    0    0  501 -0.00000000000E+00  0.00000000000E+00  0.10614898443E+03  0.10614898443E+03  0.00000000000E+00 0.  1.
          1   -1    0    0  501    0  0.00000000000E+00 -0.00000000000E+00 -0.16373296175E+03  0.16373296175E+03  0.00000000000E+00 0. -1.
         25    2    1    2    0    0  0.29454630331E+02 -0.69303466893E+02 -0.23905179250E+02  0.14795220869E+03  0.12509137736E+03 0.  0.
         23    2    1    2    0    0 -0.29454630331E+02  0.69303466893E+02 -0.33678798076E+02  0.12192973749E+03  0.89788939592E+02 0.  0.
          5    1    3    3  502    0 -0.39637789903E+02  0.67728735681E+01 -0.19799285430E+02  0.45016778076E+02  0.41800000000E+01 0.  1.
         -5    1    3    3    0  502  0.69092420235E+02 -0.76076340461E+02 -0.41058938202E+01  0.10293543061E+03  0.41800000000E+01 0.  1.
        -11    1    4    4    0    0  0.25270148771E+02  0.53784815873E+02 -0.97545436397E+01  0.60220743594E+02  0.00000000000E+00 0.  1.
         11    1    4    4    0    0 -0.54724779102E+02  0.15518651019E+02 -0.23924254436E+02  0.61708993895E+02  0.00000000000E+00 0. -1.
</event>
<event>
 8    1  0.6703334E-009  0.9395022E+02  0.7561462E-02  0.1293558E+00
          1   -1    0    0  501    0  0.00000000000E+00  0.00000000000E+00  0.15035466742E+03  0.15035466742E+03  0.00000000000E+00 0. -1.
         -1   -1    0    0    0  501 -0.00000000000E+00 -0.00000000000E+00 -0.14695028588E+03  0.14695028588E+03  0.00000000000E+00 0.  1.
         25    2    1    2    0    0 -0.53938925904E+02  0.33926931725E+02  0.79263510264E+02  0.16123437871E+03  0.12511345409E+03 0.  0.
         23    2    1    2    0    0  0.53938925904E+02 -0.33926931725E+02 -0.75859128731E+02  0.13607057459E+03  0.93274591573E+02 0.  0.
          5    1    3    3  502    0 -0.41745738811E+02  0.37467413408E+01 -0.26991006482E+02  0.50027308647E+02  0.41800000000E+01 0. -1.
         -5    1    3    3    0  502 -0.12193187093E+02  0.30180190384E+02  0.10625451675E+03  0.11120707006E+03  0.41800000000E+01 0. -1.
        -11    1    4    4    0    0  0.76761839050E+02 -0.61455674791E+01 -0.51403776785E+02  0.92587775660E+02  0.00000000000E+00 0. -1.
         11    1    4    4    0    0 -0.22822913146E+02 -0.27781364246E+02 -0.24455351946E+02  0.43482798929E+02  0.00000000000E+00 0.  1.
</event>
<event>
 8    1  0.6703334E-009  0.1043351E+03  0.7561462E-02  0.1271435E+00
         -1   -1    0    0    0  501 -0.00000000000E+00  0.00000000000E+00  0.41713426814E+03  0.41713426814E+03  0.00000000000E+00 0.  1.
          1   -1    0    0  501    0  0.00000000000E+00 -0.00000000000E+00 -0.61027685217E+02  0.61027685217E+02  0.00000000000E+00 0. -1.
         25    2    1    2    0    0 -0.20585052390E+02  0.84871046486E+02  0.73369469391E+02  0.16927973743E+03  0.12508281877E+03 0.  0.
         23    2    1    2    0    0  0.20585052390E+02 -0.84871046486E+02  0.28273711353E+03  0.30888221593E+03  0.88550036899E+02 0.  0.
          5    1    3    3  502    0 -0.31521112195E+01  0.53334286733E+02  0.10709068897E+03  0.11975128396E+03  0.41800000000E+01 0. -1.
         -5    1    3    3    0  502 -0.17432941170E+02  0.31536759753E+02 -0.33721219575E+02  0.49528453471E+02  0.41800000000E+01 0. -1.
        -11    1    4    4    0    0  0.51833079862E+02 -0.54984430566E+02  0.13234953601E+03  0.15240195358E+03  0.00000000000E+00 0. -1.
         11    1    4    4    0    0 -0.31248027473E+02 -0.29886615920E+02  0.15038757752E+03  0.15648026234E+03  0.00000000000E+00 0.  1.
</event>
<event>
 8    1  0.6703334E-009  0.8231593E+02  0.7561462E-02  0.1322605E+00
          1   -1    0    0  501    0  0.00000000000E+00  0.00000000000E+00  0.26468934052E+03  0.26468934052E+03  0.00000000000E+00 0. -1.
         -1   -1    0    0    0  501 -0.00000000000E+00 -0.00000000000E+00 -0.48770324641E+02  0.48770324641E+02  0.00000000000E+00 0.  1.
         25    2    1    2    0    0 -0.12842223991E+02  0.15553378163E+02  0.85475772983E+02  0.15283826027E+03  0.12508635316E+03 0.  0.
         23    2    1    2    0    0  0.12842223991E+02 -0.15553378163E+02  0.13044324290E+03  0.16062140489E+03  0.91525765783E+02 0.  0.
          5    1    3    3  502    0 -0.29812374159E+02  0.39860696287E+02  0.10556353689E+03  0.11678521089E+03  0.41800000000E+01 0.  1.
         -5    1    3    3    0  502  0.16970150168E+02 -0.24307318124E+02 -0.20087763907E+02  0.36053049384E+02  0.41800000000E+01 0.  1.
        -11    1    4    4    0    0  0.38954788158E+02 -0.34853905942E+02  0.11120948060E+03  0.12288132021E+03  0.00000000000E+00 0. -1.
         11    1    4    4    0    0 -0.26112564167E+02  0.19300527780E+02  0.19233762297E+02  0.37740084685E+02  0.00000000000E+00 0.  1.
</event>
<event>
 8    1  0.6703334E-009  0.2071161E+03  0.7561462E-02  0.1143870E+00
          1   -1    0    0  501    0  0.00000000000E+00  0.00000000000E+00  0.19322739738E+04  0.19322739738E+04  0.00000000000E+00 0. -1.
         -1   -1    0    0    0  501 -0.00000000000E+00 -0.00000000000E+00 -0.26390239716E+02  0.26390239716E+02  0.00000000000E+00 0.  1.
         25    2    1    2    0    0  0.82269508093E+02 -0.16953327269E+03  0.12444763522E+04  0.12648637678E+04  0.12509659180E+03 0.  0.
         23    2    1    2    0    0 -0.82269508093E+02  0.16953327269E+03  0.66140738188E+03  0.69380044576E+03  0.91594384203E+02 0.  0.
          5    1    3    3  502    0  0.11434625710E+03 -0.14419542012E+03  0.10602084564E+04  0.10760700856E+04  0.41800000000E+01 0.  1.
         -5    1    3    3    0  502 -0.32076749008E+02 -0.25337852576E+02  0.18426789586E+03  0.18879368222E+03  0.41800000000E+01 0.  1.
        -11    1    4    4    0    0 -0.41835865183E+02  0.68839692053E+02  0.43906385737E+03  0.44639244356E+03  0.00000000000E+00 0. -1.
         11    1    4    4    0    0 -0.40433642910E+02  0.10069358064E+03  0.22234352451E+03  0.24740800220E+03  0.00000000000E+00 0.  1.
</event>
<event>
 8    1  0.6703334E-009  0.8794659E+02  0.7561462E-02  0.1307902E+00
          2   -1    0    0  501    0  0.00000000000E+00  0.00000000000E+00  0.80166678472E+03  0.80166678472E+03  0.00000000000E+00 0. -1.
         -2   -1    0    0    0  501 -0.00000000000E+00 -0.00000000000E+00 -0.16246010075E+02  0.16246010075E+02  0.00000000000E+00 0.  1.
         25    2    1    2    0    0 -0.18696759621E+02  0.79593509597E+01  0.55129603315E+03  0.56567462648E+03  0.12509015463E+03 0.  0.
         23    2    1    2    0    0  0.18696759621E+02 -0.79593509597E+01  0.23412474149E+03  0.25223816831E+03  0.91633939610E+02 0.  0.
          5    1    3    3  502    0 -0.59608308063E+02 -0.16400005009E+01  0.47258399711E+03  0.47634960556E+03  0.41800000000E+01 0.  1.
         -5    1    3    3    0  502  0.40911548442E+02  0.95993514605E+01  0.78712036046E+02  0.89325020923E+02  0.41800000000E+01 0.  1.
        -11    1    4    4    0    0  0.37710359145E+02 -0.27460892836E+02  0.21221844288E+03  0.21728515669E+03  0.00000000000E+00 0. -1.
         11    1    4    4    0    0 -0.19013599524E+02  0.19501541876E+02  0.21906298614E+02  0.34953011621E+02  0.00000000000E+00 0.  1.
</event>
<event>
 8    1  0.6703334E-009  0.1055554E+03  0.7561462E-02  0.1269029E+00
         -2   -1    0    0    0  501 -0.00000000000E+00  0.00000000000E+00  0.20092801441E+03  0.20092801441E+03  0.00000000000E+00 0.  1.
          2   -1    0    0  501    0  0.00000000000E+00 -0.00000000000E+00 -0.78999380910E+02  0.78999380910E+02  0.00000000000E+00 0. -1.
         25    2    1    2    0    0  0.61231944531E+02  0.32133738649E+02  0.60622294467E+02  0.15525657540E+03  0.12509042101E+03 0.  0.
         23    2    1    2    0    0 -0.61231944531E+02 -0.32133738649E+02  0.61306339029E+02  0.12467081992E+03  0.83680451382E+02 0.  0.
          5    1    3    3  502    0  0.19609686827E+00 -0.43899536953E+02  0.28538722968E+02  0.52527506198E+02  0.41800000000E+01 0. -1.
         -5    1    3    3    0  502  0.61035847662E+02  0.76033275602E+02  0.32083571499E+02  0.10272906920E+03  0.41800000000E+01 0. -1.
        -11    1    4    4    0    0 -0.21850482533E+02 -0.82038814860E+01  0.73405791356E+02  0.77026991782E+02  0.00000000000E+00 0.  1.
         11    1    4    4    0    0 -0.39381461997E+02 -0.23929857163E+02 -0.12099452327E+02  0.47643828136E+02  0.00000000000E+00 0. -1.
</event>
<event>
 8    1  0.6703334E-009  0.1011333E+03  0.7561462E-02  0.1277931E+00
          2   -1    0    0  501    0  0.00000000000E+00  0.00000000000E+00  0.24685084332E+03  0.24685084332E+03  0.00000000000E+00 0. -1.
         -2   -1    0    0    0  501 -0.00000000000E+00 -0.00000000000E+00 -0.13416515260E+03  0.13416515260E+03  0.00000000000E+00 0.  1.
         25    2    1    2    0    0  0.32375287008E+02 -0.81912715997E+02 -0.62330430319E+02  0.16521536147E+03  0.12511267271E+03 0.  0.
         23    2    1    2    0    0 -0.32375287008E+02  0.81912715997E+02  0.17501612104E+03  0.21580063444E+03  0.90451196518E+02 0.  0.
          5    1    3    3  502    0  0.29424223640E+02 -0.81054897722E+02 -0.97175882947E+02  0.12998579156E+03  0.41800000000E+01 0. -1.
         -5    1    3    3    0  502  0.29510633675E+01 -0.85781827525E+00  0.34845452628E+02  0.35229569910E+02  0.41800000000E+01 0. -1.
        -11    1    4    4    0    0 -0.52065822356E+02  0.71570706887E+02  0.83700333889E+02  0.12181527751E+03  0.00000000000E+00 0.  1.
         11    1    4    4    0    0  0.19690535348E+02  0.10342009110E+02  0.91315787152E+02  0.93985356934E+02  0.00000000000E+00 0. -1.
</event>
<event>
 8    1  0.6703334E-009  0.3557981E+03  0.7561462E-02  0.1060260E+00
         -2   -1    0    0    0  501 -0.00000000000E+00  0.00000000000E+00  0.51914502447E+02  0.51914502447E+02  0.00000000000E+00 0.  1.
          2   -1    0    0  501    0  0.00000000000E+00 -0.00000000000E+00 -0.25282095027E+04  0.25282095027E+04  0.00000000000E+00 0. -1.
         25    2    1    2    0    0  0.23801165486E+00 -0.34471701272E+03 -0.11830698556E+04  0.12386024161E+04  0.12510709995E+03 0.  0.
         23    2    1    2    0    0 -0.23801165486E+00  0.34471701272E+03 -0.12932251447E+04  0.13415215890E+04  0.91755237295E+02 0.  0.
          5    1    3    3  502    0  0.56594514245E+02 -0.21242055504E+03 -0.79030843945E+03  0.82032331011E+03  0.41800000000E+01 0. -1.
         -5    1    3    3    0  502 -0.56356502590E+02 -0.13229645769E+03 -0.39276141613E+03  0.41827910598E+03  0.41800000000E+01 0. -1.
        -11    1    4    4    0    0 -0.21551211830E+02  0.24215970351E+03 -0.10280936566E+04  0.10564479842E+04  0.00000000000E+00 0. -1.
         11    1    4    4    0    0  0.21313200175E+02  0.10255730921E+03 -0.26513148810E+03  0.28507360481E+03  0.00000000000E+00 0.  1.
</event>
<event>
 8    1  0.6703334E-009  0.1248176E+03  0.7561462E-02  0.1235355E+00
          3   -1    0    0  501    0  0.00000000000E+00  0.00000000000E+00  0.14130784254E+02  0.14130784254E+02  0.00000000000E+00 0. -1.
         -3   -1    0    0    0  501 -0.00000000000E+00 -0.00000000000E+00 -0.12647617307E+04  0.12647617307E+04  0.00000000000E+00 0.  1.
         25    2    1    2    0    0 -0.38320601016E+02 -0.67168112236E+02 -0.69912569533E+03  0.71442552799E+03  0.12508826249E+03 0.  0.
         23    2    1    2    0    0  0.38320601016E+02  0.67168112236E+02 -0.55150525113E+03  0.56446698698E+03  0.92113590741E+02 0.  0.
          5    1    3    3  502    0  0.37126236585E+02 -0.21484568992E+01 -0.94549022842E+02  0.10168561073E+03  0.41800000000E+01 0.  1.
         -5    1    3    3    0  502 -0.75446837601E+02 -0.65019655337E+02 -0.60457667249E+03  0.61273991726E+03  0.41800000000E+01 0.  1.
        -11    1    4    4    0    0  0.14361022008E+02 -0.18586377725E+02 -0.51601730741E+02  0.56695952285E+02  0.00000000000E+00 0. -1.
         11    1    4    4    0    0  0.23959579008E+02  0.85754489961E+02 -0.49990352039E+03  0.50777103469E+03  0.00000000000E+00 0.  1.
</event>
<event>
 8    1  0.6703334E-009  0.1396215E+03  0.7561462E-02  0.1213839E+00
         -1   -1    0    0    0  501 -0.00000000000E+00  0.00000000000E+00  0.43391175400E+02  0.43391175400E+02  0.00000000000E+00 0.  1.
          1   -1    0    0  501    0  0.00000000000E+00 -0.00000000000E+00 -0.69825414972E+03  0.69825414972E+03  0.00000000000E+00 0. -1.
         25    2    1    2    0    0 -0.11874442249E+02 -0.12168030828E+03 -0.47321323391E+03  0.50450497366E+03  0.12508958353E+03 0.  0.
         23    2    1    2    0    0  0.11874442249E+02  0.12168030828E+03 -0.18164974041E+03  0.23714035146E+03  0.91059421783E+02 0.  0.
          5    1    3    3  502    0 -0.37182025402E+02 -0.12208824164E+02 -0.36945790049E+02  0.53981683956E+02  0.41800000000E+01 0. -1.
         -5    1    3    3    0  502  0.25307583153E+02 -0.10947148411E+03 -0.43626744386E+03  0.45052328971E+03  0.41800000000E+01 0. -1.
        -11    1    4    4    0    0  0.11585487821E+02  0.87505851289E+01  0.78780910301E+01  0.16518492257E+02  0.00000000000E+00 0.  1.
         11    1    4    4    0    0  0.28895442741E+00  0.11292972315E+03 -0.18952783144E+03  0.22062185920E+03  0.00000000000E+00 0. -1.
</event>
<event>
 8    1  0.6703334E-009  0.9226631E+02  0.7561462E-02  0.1297454E+00
          2   -1    0    0  501    0  0.00000000000E+00  0.00000000000E+00  0.27436041071E+03  0.27436041071E+03  0.00000000000E+00 0. -1.
         -2   -1    0    0    0  501 -0.00000000000E+00 -0.00000000000E+00 -0.47160872295E+02  0.47160872295E+02  0.00000000000E+00 0.  1.
         25    2    1    2    0    0  0.22342702062E+02 -0.14564124368E+02  0.15845709096E+03  0.20363399284E+03  0.12508734272E+03 0.  0.
         23    2    1    2    0    0 -0.22342702062E+02  0.14564124368E+02  0.68742447463E+02  0.11788729017E+03  0.91981405988E+02 0.  0.
          5    1    3    3  502    0 -0.35782945682E+02  0.11089126619E-01  0.20461199540E+01  0.36084322517E+02  0.41800000000E+01 0. -1.
         -5    1    3    3    0  502  0.58125647743E+02 -0.14575213494E+02  0.15641097100E+03  0.16754967032E+03  0.41800000000E+01 0. -1.
        -11    1    4    4    0    0  0.31916592454E+02  0.12058090426E+02  0.55635086462E+01  0.34569047529E+02  0.00000000000E+00 0.  1.
         11    1    4    4    0    0 -0.54259294516E+02  0.25060339412E+01  0.63178938817E+02  0.83318242646E+02  0.00000000000E+00 0. -1.
</event>
<event>
 8    1  0.6703334E-009  0.6532027E+02  0.7561462E-02  0.1376771E+00
         -1   -1    0    0    0  501 -0.00000000000E+00  0.00000000000E+00  0.42706448384E+02  0.42706448384E+02  0.00000000000E+00 0.  1.
          1   -1    0    0  501    0  0.00000000000E+00 -0.00000000000E+00 -0.28297432257E+03  0.28297432257E+03  0.00000000000E+00 0. -1.
         25    2    1    2    0    0 -0.57496199915E+01  0.12730061788E+02 -0.13238625993E+03  0.18267072079E+03  0.12508939929E+03 0.  0.
         23    2    1    2    0    0  0.57496199915E+01 -0.12730061788E+02 -0.10788161425E+03  0.14301005015E+03  0.92834902640E+02 0.  0.
          5    1    3    3  502    0  0.21132233648E+02  0.16484420477E+02  0.16182104607E+02  0.31585444858E+02  0.41800000000E+01 0.  1.
         -5    1    3    3    0  502 -0.26881853639E+02 -0.37543586885E+01 -0.14856836453E+03  0.15108527594E+03  0.41800000000E+01 0.  1.
        -11    1    4    4    0    0  0.16117721794E+02  0.28932629960E+02 -0.76800157876E+01  0.33997951038E+02  0.00000000000E+00 0.  1.
         11    1    4    4    0    0 -0.10368101803E+02 -0.41662691749E+02 -0.10020159847E+03  0.10901209912E+03  0.00000000000E+00 0. -1.
</event>
<event>
 8    1  0.6703334E-009  0.1250555E+03  0.7561462E-02  0.1234983E+00
          2   -1    0    0  501    0  0.00000000000E+00  0.00000000000E+00  0.10049083237E+04  0.10049083237E+04  0.00000000000E+00 0. -1.
         -2   -1    0    0    0  501 -0.00000000000E+00 -0.00000000000E+00 -0.19673726634E+02  0.19673726634E+02  0.00000000000E+00 0.  1.
         25    2    1    2    0    0  0.51735198699E+02  0.67677059589E+02  0.56736729849E+03  0.58720434255E+03  0.12508626357E+03 0.  0.
         23    2    1    2    0    0 -0.51735198699E+02 -0.67677059589E+02  0.41786729855E+03  0.43737770776E+03  0.97105431708E+02 0.  0.
          5    1    3    3  502    0 -0.20905051186E+01  0.73341665800E+02  0.47014208760E+03  0.47585126362E+03  0.41800000000E+01 0.  1.
         -5    1    3    3    0  502  0.53825703818E+02 -0.56646062108E+01  0.97225210892E+02  0.11135307893E+03  0.41800000000E+01 0.  1.
        -11    1    4    4    0    0  0.21696751826E+02 -0.36709134772E+02  0.84913817975E+02  0.95019293297E+02  0.00000000000E+00 0.  1.
         11    1    4    4    0    0 -0.73431950526E+02 -0.30967924817E+02  0.33295348058E+03  0.34235841446E+03  0.00000000000E+00 0. -1.
</event>
<event>
 8    1  0.6703334E-009  0.6947763E+02  0.7561462E-02  0.1361878E+00
         -1   -1    0    0    0  501 -0.00000000000E+00  0.00000000000E+00  0.10163502426E+04  0.10163502426E+04  0.00000000000E+00 0.  1.
          1   -1    0    0  501    0  0.00000000000E+00 -0.00000000000E+00 -0.18001136127E+02  0.18001136127E+02  0.00000000000E+00 0. -1.
         25    2    1    2    0    0 -0.25784835986E+01 -0.29138867138E+02  0.83015716244E+03  0.84003807171E+03  0.12508926975E+03 0.  0.
         23    2    1    2    0    0  0.25784835986E+01  0.29138867138E+02  0.16819194399E+03  0.19431330698E+03  0.92808453765E+02 0.  0.
          5    1    3    3  502    0 -0.42178384430E+02 -0.24757865647E+02  0.73699693185E+03  0.73862975704E+03  0.41800000000E+01 0. -1.
         -5    1    3    3    0  502  0.39599900831E+02 -0.43810014912E+01  0.93160230590E+02  0.10140831467E+03  0.41800000000E+01 0. -1.
        -11    1    4    4    0    0 -0.13332201217E+02 -0.32505017417E+01 -0.70267939012E+01  0.15417171706E+02  0.00000000000E+00 0. -1.
         11    1    4    4    0    0  0.15910684816E+02  0.32389368880E+02  0.17521873789E+03  0.17889613527E+03  0.00000000000E+00 0.  1.
</event>
<event>
 8    1  0.6703334E-009  0.1151886E+03  0.7561462E-02  0.1251252E+00
          1   -1    0    0  501    0  0.00000000000E+00  0.00000000000E+00  0.96758804486E+02  0.96758804486E+02  0.00000000000E+00 0. -1.
         -1   -1    0    0    0  501 -0.00000000000E+00 -0.00000000000E+00 -0.16764228620E+03  0.16764228620E+03  0.00000000000E+00 0.  1.
         25    2    1    2    0    0  0.56601604633E+02 -0.75985654348E+01 -0.76624754881E+02  0.15742259789E+03  0.12509612872E+03 0.  0.
         23    2    1    2    0    0 -0.56601604633E+02  0.75985654348E+01  0.57412731710E+01  0.10697849280E+03  0.90277105954E+02 0.  0.
          5    1    3    3  502    0 -0.35613025065E+02  0.15064452089E+02 -0.39341526948E+02  0.55321364893E+02  0.41800000000E+01 0.  1.
         -5    1    3    3    0  502  0.92214629698E+02 -0.22663017524E+02 -0.37283227933E+02  0.10210123299E+03  0.41800000000E+01 0.  1.
        -11    1    4    4    0    0 -0.59585057942E+02  0.34843741509E+02 -0.17313517276E+02  0.71163356672E+02  0.00000000000E+00 0.  1.
         11    1    4    4    0    0  0.29834533086E+01 -0.27245176075E+02  0.23054790447E+02  0.35815136124E+02  0.00000000000E+00 0. -1.
</event>
<event>
 8    1  0.6703334E-009  0.2565427E+03  0.7561462E-02  0.1109238E+00
          2   -1    0    0  501    0  0.00000000000E+00  0.00000000000E+00  0.29769542296E+03  0.29769542296E+03  0.00000000000E+00 0. -1.
         -2   -1    0    0    0  501 -0.00000000000E+00 -0.00000000000E+00 -0.26735025387E+03  0.26735025387E+03  0.00000000000E+00 0.  1.
         25    2    1    2    0    0 -0.22484055462E+03  0.78463966090E+02  0.12033705257E+03  0.29468484209E+03  0.12509308916E+03 0.  0.
         23    2    1    2    0    0  0.22484055462E+03 -0.78463966090E+02 -0.89991883493E+02  0.27036083474E+03  0.91030615125E+02 0.  0.
          5    1    3    3  502    0 -0.22353968730E+03  0.49105971864E+02  0.75739921691E+02  0.24111282921E+03  0.41800000000E+01 0.  1.
         -5    1    3    3    0  502 -0.13008673201E+01  0.29357994225E+02  0.44597130884E+02  0.53572012878E+02  0.41800000000E+01 0.  1.
        -11    1    4    4    0    0  0.16211324609E+03 -0.97211382128E+02 -0.73781094334E+02  0.20291477831E+03  0.00000000000E+00 0.  1.
         11    1    4    4    0    0  0.62727308529E+02  0.18747416038E+02 -0.16210789159E+02  0.67446056435E+02  0.00000000000E+00 0. -1.
</event>
<event>
 8    1  0.6703334E-009  0.1063498E+03  0.7561462E-02  0.1267483E+00
          1   -1    0    0  501    0  0.00000000000E+00  0.00000000000E+00  0.12751484833E+02  0.12751484833E+02  0.00000000000E+00 0. -1.
         -1   -1    0    0    0  501 -0.00000000000E+00 -0.00000000000E+00 -0.10276570385E+04  0.10276570385E+04  0.00000000000E+00 0.  1.
         25    2    1    2    0    0 -0.33655494421E+02 -0.12793582307E+02 -0.54189471221E+03  0.55730935203E+03  0.12508983447E+03 0.  0.
         23    2    1    2    0    0  0.33655494421E+02  0.12793582307E+02 -0.47301084145E+03  0.48309917130E+03  0.91373875504E+02 0.  0.
          5    1    3    3  502    0 -0.66654088370E+02 -0.34656970433E+02 -0.46157686854E+03  0.46766927531E+03  0.41800000000E+01 0.  1.
         -5    1    3    3    0  502  0.32998593949E+02  0.21863388126E+02 -0.80317843665E+02  0.89640076717E+02  0.41800000000E+01 0.  1.
        -11    1    4    4    0    0 -0.30885137927E+02 -0.35138670246E+01 -0.17552484983E+03  0.17825602911E+03  0.00000000000E+00 0.  1.
         11    1    4    4    0    0  0.64540632348E+02  0.16307449331E+02 -0.29748599162E+03  0.30484314219E+03  0.00000000000E+00 0. -1.
</event>
<event>
 8    1  0.6703334E-009  0.1424002E+03  0.7561462E-02  0.1210135E+00
          1   -1    0    0  501    0  0.00000000000E+00  0.00000000000E+00  0.11726969588E+04  0.11726969588E+04  0.00000000000E+00 0. -1.
         -1   -1    0    0    0  501 -0.00000000000E+00 -0.00000000000E+00 -0.19282188020E+02  0.19282188020E+02  0.00000000000E+00 0.  1.
         25    2    1    2    0    0 -0.10100816685E+03 -0.19810084332E+02  0.55432799636E+03  0.57751472837E+03  0.12509454316E+03 0.  0.
         23    2    1    2    0    0  0.10100816685E+03  0.19810084332E+02  0.59908677442E+03  0.61446441845E+03  0.89813523699E+02 0.  0.
          5    1    3    3  502    0  0.13661528927E+02  0.22021864045E+02  0.22030464967E+03  0.22186304545E+03  0.41800000000E+01 0.  1.
         -5    1    3    3    0  502 -0.11466969578E+03 -0.41831948377E+02  0.33402334669E+03  0.35565168292E+03  0.41800000000E+01 0.  1.
        -11    1    4    4    0    0  0.91849080875E+01 -0.30403653638E+02  0.15363675969E+03  0.15688530403E+03  0.00000000000E+00 0.  1.
         11    1    4    4    0    0  0.91823258764E+02  0.50213737970E+02  0.44545001473E+03  0.45757911442E+03  0.00000000000E+00 0. -1.
</event>
<event>
 8    1  0.6703334E-009  0.1043867E+03  0.7561462E-02  0.1271333E+00
         -2   -1    0    0    0  501 -0.00000000000E+00  0.00000000000E+00  0.41394288377E+02  0.41394288377E+02  0.00000000000E+00 0.  1.
          2   -1    0    0  501    0  0.00000000000E+00 -0.00000000000E+00 -0.50007461285E+03  0.50007461285E+03  0.00000000000E+00 0. -1.
         25    2    1    2    0    0 -0.82798273048E+02 -0.20167082833E+02 -0.32437455178E+03  0.35795053644E+03  0.12508985350E+03 0.  0.
         23    2    1    2    0    0  0.82798273048E+02  0.20167082833E+02 -0.13430577270E+03  0.18351836479E+03  0.91535153819E+02 0.  0.
          5    1    3    3  502    0 -0.86825096435E+02 -0.17552641167E+02 -0.10068397474E+03  0.13416939946E+03  0.41800000000E+01 0. -1.
         -5    1    3    3    0  502  0.40268233876E+01 -0.26144416659E+01 -0.22369057704E+03  0.22378113698E+03  0.41800000000E+01 0. -1.
        -11    1    4    4    0    0  0.95385247828E+02  0.72009097146E+01 -0.13497624277E+03  0.16543513749E+03  0.00000000000E+00 0. -1.
         11    1    4    4    0    0 -0.12586974780E+02  0.12966173119E+02  0.67047006989E+00  0.18083227300E+02  0.00000000000E+00 0.  1.
</event>
<event>
 8    1  0.6703334E-009  0.1738176E+03  0.7561462E-02  0.1173924E+00
          2   -1    0    0  501    0  0.00000000000E+00  0.00000000000E+00  0.26714653838E+03  0.26714653838E+03  0.00000000000E+00 0.  1.
         -2   -1    0    0    0  501 -0.00000000000E+00 -0.00000000000E+00 -0.14323966008E+03  0.14323966008E+03  0.00000000000E+00 0. -1.
         25    2    1    2    0    0  0.95744177942E+02  0.13003275388E+03  0.52826372969E+02  0.21097781769E+03  0.12508216973E+03 0.  0.
         23    2    1    2    0    0 -0.95744177942E+02 -0.13003275388E+03  0.71080505336E+02  0.19940838077E+03  0.92929001892E+02 0.  0.
          5    1    3    3  502    0  0.20891505543E+02  0.10030263583E+03  0.75343189611E+02  0.12724441983E+03  0.41800000000E+01 0. -1.
         -5    1    3    3    0  502  0.74852672399E+02  0.29730118052E+02 -0.22516816641E+02  0.83733397854E+02  0.41800000000E+01 0. -1.
        -11    1    4    4    0    0 -0.59349752431E+02 -0.54388577791E+02 -0.11895938031E+02  0.81375818579E+02  0.00000000000E+00 0. -1.
         11    1    4    4    0    0 -0.36394425511E+02 -0.75644176087E+02  0.82976443367E+02  0.11803256219E+03  0.00000000000E+00 0.  1.
</event>
<event>
 8    1  0.6703334E-009  0.1264985E+03  0.7561462E-02  0.1232746E+00
          2   -1    0    0  501    0  0.00000000000E+00  0.00000000000E+00  0.24152878430E+03  0.24152878430E+03  0.00000000000E+00 0. -1.
         -2   -1    0    0    0  501 -0.00000000000E+00 -0.00000000000E+00 -0.89486271928E+02  0.89486271928E+02  0.00000000000E+00 0.  1.
         25    2    1    2    0    0 -0.67561665071E+02  0.72078460666E+02  0.89793622652E+02  0.18294691957E+03  0.12508716014E+03 0.  0.
         23    2    1    2    0    0  0.67561665071E+02 -0.72078460666E+02  0.62248889721E+02  0.14806813666E+03  0.91045954020E+02 0.  0.
          5    1    3    3  502    0 -0.48404493542E+02  0.50897922141E+01 -0.20047887388E+02  0.52804272257E+02  0.41800000000E+01 0.  1.
         -5    1    3    3    0  502 -0.19157171529E+02  0.66988668452E+02  0.10984151004E+03  0.13014264731E+03  0.41800000000E+01 0.  1.
        -11    1    4    4    0    0 -0.53751271030E+01 -0.60211875614E+02  0.27839511450E+02  0.66553740346E+02  0.00000000000E+00 0.  1.
         11    1    4    4    0    0  0.72936792174E+02 -0.11866585052E+02  0.34409378270E+02  0.81514396313E+02  0.00000000000E+00 0. -1.
</event>
<event>
 8    1  0.6703334E-009  0.1319540E+03  0.7561462E-02  0.1224585E+00
          1   -1    0    0  501    0  0.00000000000E+00  0.00000000000E+00  0.23457696687E+03  0.23457696687E+03  0.00000000000E+00 0. -1.
         -1   -1    0    0    0  501 -0.00000000000E+00 -0.00000000000E+00 -0.81424905477E+02  0.81424905477E+02  0.00000000000E+00 0.  1.
         25    2    1    2    0    0 -0.38607927367E+02  0.71187757118E+02  0.11442170355E+03  0.18787624862E+03  0.12508752829E+03 0.  0.
         23    2    1    2    0    0  0.38607927367E+02 -0.71187757118E+02  0.38730357846E+02  0.12812562373E+03  0.91421365213E+02 0.  0.
          5    1    3    3  502    0 -0.10795292111E+02  0.10428013557E+03  0.72646756953E+02  0.12761625564E+03  0.41800000000E+01 0.  1.
         -5    1    3    3    0  502 -0.27812635256E+02 -0.33092378454E+02  0.41774946594E+02  0.60259992985E+02  0.41800000000E+01 0.  1.
        -11    1    4    4    0    0 -0.25484100797E+02 -0.30042277872E+02  0.33621777121E+02  0.51791908151E+02  0.00000000000E+00 0. -1.
         11    1    4    4    0    0  0.64092028164E+02 -0.41145479246E+02  0.51085807251E+01  0.76333715576E+02  0.00000000000E+00 0.  1.
</event>
<event>
 8    1  0.6703334E-009  0.1394252E+03  0.7561462E-02  0.1214104E+00
          1   -1    0    0  501    0  0.00000000000E+00  0.00000000000E+00  0.56248319363E+02  0.56248319363E+02  0.00000000000E+00 0. -1.
         -1   -1    0    0    0  501 -0.00000000000E+00 -0.00000000000E+00 -0.42264359754E+03  0.42264359754E+03  0.00000000000E+00 0.  1.
         25    2    1    2    0    0 -0.49184732618E+02 -0.96353055272E+02 -0.16961098347E+03  0.23689283336E+03  0.12508908666E+03 0.  0.
         23    2    1    2    0    0  0.49184732618E+02  0.96353055272E+02 -0.19678429471E+03  0.24199908354E+03  0.90202264983E+02 0.  0.
          5    1    3    3  502    0  0.31943038757E+02 -0.74181266796E+02 -0.75993103984E+02  0.11097586369E+03  0.41800000000E+01 0.  1.
         -5    1    3    3    0  502 -0.81127771374E+02 -0.22171788476E+02 -0.93617879486E+02  0.12591696967E+03  0.41800000000E+01 0.  1.
        -11    1    4    4    0    0  0.20525411128E+02  0.10092906493E+02 -0.12247828956E+03  0.12459570890E+03  0.00000000000E+00 0.  1.
         11    1    4    4    0    0  0.28659321490E+02  0.86260148779E+02 -0.74306005152E+02  0.11740337464E+03  0.00000000000E+00 0. -1.
</event>
<event>
 8    1  0.6703334E-009  0.1034018E+03  0.7561462E-02  0.1273301E+00
          4   -1    0    0  501    0  0.00000000000E+00  0.00000000000E+00  0.34280425798E+03  0.34280425798E+03  0.00000000000E+00 0. -1.
         -4   -1    0    0    0  501 -0.00000000000E+00 -0.00000000000E+00 -0.44513259420E+02  0.44513259420E+02  0.00000000000E+00 0.  1.
         25    2    1    2    0    0 -0.58988789713E+02  0.17191283888E+02  0.15571156795E+03  0.20897032563E+03  0.12508911643E+03 0.  0.
         23    2    1    2    0    0  0.58988789713E+02 -0.17191283888E+02  0.14257943062E+03  0.17834719177E+03  0.87770206928E+02 0.  0.
          5    1    3    3  502    0 -0.11227588191E+02  0.56812374338E+02  0.23082661013E+02  0.62481887407E+02  0.41800000000E+01 0.  1.
         -5    1    3    3    0  502 -0.47761201522E+02 -0.39621090451E+02  0.13262890693E+03  0.14648843823E+03  0.41800000000E+01 0.  1.
        -11    1    4    4    0    0  0.63804417170E+02 -0.31709115114E+02  0.56536223666E+02  0.90955023050E+02  0.00000000000E+00 0.  1.
         11    1    4    4    0    0 -0.48156274567E+01  0.14517831227E+02  0.86043206952E+02  0.87392168722E+02  0.00000000000E+00 0. -1.
</event>
<event>
 8    1  0.6703334E-009  0.1383481E+03  0.7561462E-02  0.1215569E+00
         -1   -1    0    0    0  501 -0.00000000000E+00  0.00000000000E+00  0.37752046902E+02  0.37752046902E+02  0.00000000000E+00 0.  1.
          1   -1    0    0  501    0  0.00000000000E+00 -0.00000000000E+00 -0.58903016085E+03  0.58903016085E+03  0.00000000000E+00 0. -1.
         25    2    1    2    0    0  0.84658377589E+02  0.13031311855E+02 -0.41302104211E+03  0.43996743487E+03  0.12509239200E+03 0.  0.
         23    2    1    2    0    0 -0.84658377589E+02 -0.13031311855E+02 -0.13825707184E+03  0.18681477288E+03  0.91912379302E+02 0.  0.
          5    1    3    3  502    0  0.26787207942E+02 -0.55205168376E+02 -0.15027104692E+03  0.16237002515E+03  0.41800000000E+01 0. -1.
         -5    1    3    3    0  502  0.57871169647E+02  0.68236480231E+02 -0.26274999519E+03  0.27759740972E+03  0.41800000000E+01 0. -1.
        -11    1    4    4    0    0 -0.12429366466E+02 -0.44963899441E+02 -0.52704368860E+02  0.70384599883E+02  0.00000000000E+00 0. -1.
         11    1    4    4    0    0 -0.72229011123E+02  0.31932587586E+02 -0.85552702977E+02  0.11643017300E+03  0.00000000000E+00 0.  1.
</event>
<event>
 7    1  0.6703334E-009  0.1249776E+03  0.7561462E-02  0.1235104E+00
          2   -1    0    0  501    0  0.00000000000E+00  0.00000000000E+00  0.12815014864E+04  0.12815014864E+04  0.00000000000E+00 0.  1.
         -2   -1    0    0    0  501 -0.00000000000E+00 -0.00000000000E+00 -0.19381648319E+02  0.19381648319E+02  0.00000000000E+00 0. -1.
         25    2    1    2    0    0  0.20735974404E+02  0.34534402654E+02  0.87078006952E+03  0.88064511012E+03  0.12512104098E+03 0.  0.
          5    1    3    3  502    0  0.34619509899E+02  0.69115313683E+02  0.34727701248E+03  0.35580083312E+03  0.41800000000E+01 0.  1.
         -5    1    3    3    0  502 -0.13883535494E+02 -0.34580911029E+02  0.52350305704E+03  0.52484427699E+03  0.41800000000E+01 0.  1.
        -11    1    1    2    0    0  0.26204411713E+02  0.39488561115E+02  0.24591967457E+03  0.25044461262E+03  0.00000000000E+00 0.  1.
         11    1    1    2    0    0 -0.46940386117E+02 -0.74022963769E+02  0.14542009397E+03  0.16979341196E+03  0.00000000000E+00 0. -1.
</event>
<event>
 8    1  0.6703334E-009  0.1057940E+03  0.7561462E-02  0.1268563E+00
          2   -1    0    0  501    0  0.00000000000E+00  0.00000000000E+00  0.96738879962E+03  0.96738879962E+03  0.00000000000E+00 0. -1.
         -2   -1    0    0    0  501 -0.00000000000E+00 -0.00000000000E+00 -0.21312655028E+02  0.21312655028E+02  0.00000000000E+00 0.  1.
         25    2    1    2    0    0  0.55455816547E+02 -0.60527834770E+02  0.68118091393E+03  0.69741900212E+03  0.12508741202E+03 0.  0.
         23    2    1    2    0    0 -0.55455816547E+02  0.60527834770E+02  0.26489523065E+03  0.29128245252E+03  0.89089940803E+02 0.  0.
          5    1    3    3  502    0 -0.22265882272E+01 -0.67669880041E+02  0.54620402572E+03  0.55040029113E+03  0.41800000000E+01 0.  1.
         -5    1    3    3    0  502  0.57682404774E+02  0.71420452714E+01  0.13497688821E+03  0.14701871099E+03  0.41800000000E+01 0.  1.
        -11    1    4    4    0    0 -0.15108827318E+02  0.33964648260E+02  0.21093539290E+02  0.42741214234E+02  0.00000000000E+00 0.  1.
         11    1    4    4    0    0 -0.40346989228E+02  0.26563186510E+02  0.24380169136E+03  0.24854123829E+03  0.00000000000E+00 0. -1.
</event>
<event>
 8    1  0.6703334E-009  0.3065206E+03  0.7561462E-02  0.1082026E+00
          2   -1    0    0  501    0  0.00000000000E+00  0.00000000000E+00  0.54158253406E+03  0.54158253406E+03  0.00000000000E+00 0. -1.
         -2   -1    0    0    0  501 -0.00000000000E+00 -0.00000000000E+00 -0.19771333440E+03  0.19771333440E+03  0.00000000000E+00 0.  1.
         25    2    1    2    0    0 -0.19426351469E+03 -0.22882333463E+03  0.94688465211E+02  0.33869109148E+03  0.12508924172E+03 0.  0.
         23    2    1    2    0    0  0.19426351469E+03  0.22882333463E+03  0.24918073445E+03  0.40060477699E+03  0.91075338654E+02 0.  0.
          5    1    3    3  502    0 -0.12336918510E+03 -0.11831093330E+03 -0.91738560623E+01  0.17122810752E+03  0.41800000000E+01 0. -1.
         -5    1    3    3    0  502 -0.70894329592E+02 -0.11051240133E+03  0.10386232127E+03  0.16746298396E+03  0.41800000000E+01 0. -1.
        -11    1    4    4    0    0  0.14962283270E+03  0.11587731565E+03  0.12436331370E+03  0.22645259579E+03  0.00000000000E+00 0.  1.
         11    1    4    4    0    0  0.44640682000E+02  0.11294601898E+03  0.12481742075E+03  0.17415218119E+03  0.00000000000E+00 0. -1.
</event>
<event>
 8    1  0.6703334E-009  0.7308121E+02  0.7561462E-02  0.1349918E+00
         -3   -1    0    0    0  501 -0.00000000000E+00  0.00000000000E+00  0.85041610831E+02  0.85041610831E+02  0.00000000000E+00 0.  1.
          3   -1    0    0  501    0  0.00000000000E+00 -0.00000000000E+00 -0.17985062845E+03  0.17985062845E+03  0.00000000000E+00 0. -1.
         25    2    1    2    0    0 -0.89672374959E+01  0.11408611713E+02  0.78631649968E+01  0.12617170733E+03  0.12508757971E+03 0.  0.
         23    2    1    2    0    0  0.89672374959E+01 -0.11408611713E+02 -0.10267218262E+03  0.13872053195E+03  0.92147930697E+02 0.  0.
          5    1    3    3  502    0 -0.85116132540E+00  0.44449620390E+02 -0.44852647619E+02  0.63290802071E+02  0.41800000000E+01 0. -1.
         -5    1    3    3    0  502 -0.81160761705E+01 -0.33041008676E+02  0.52715812615E+02  0.62880905261E+02  0.41800000000E+01 0. -1.
        -11    1    4    4    0    0  0.27346552356E+02 -0.30339027773E+02 -0.95686530705E+01  0.41950562017E+02  0.00000000000E+00 0.  1.
         11    1    4    4    0    0 -0.18379314860E+02  0.18930416059E+02 -0.93103529547E+02  0.96769969934E+02  0.00000000000E+00 0. -1.
</event>
<event>
 8    1  0.6703334E-009  0.1492512E+03  0.7561462E-02  0.1201396E+00
         -1   -1    0    0    0  501 -0.00000000000E+00  0.00000000000E+00  0.96421456691E+03  0.96421456691E+03  0.00000000000E+00 0.  1.
          1   -1    0    0  501    0  0.00000000000E+00 -0.00000000000E+00 -0.33643896535E+02  0.33643896535E+02  0.00000000000E+00 0. -1.
         25    2    1    2    0    0  0.42212066784E+02  0.13740278216E+03  0.49022569368E+03  0.52595694405E+03  0.12509233839E+03 0.  0.
         23    2    1    2    0    0 -0.42212066784E+02 -0.13740278216E+03  0.44034497669E+03  0.47190151939E+03  0.90144120036E+02 0.  0.
          5    1    3    3  502    0  0.21543412598E+02  0.36478155637E+02  0.24841497044E+02  0.49288404726E+02  0.41800000000E+01 0. -1.
         -5    1    3    3    0  502  0.20668654186E+02  0.10092462652E+03  0.46538419664E+03  0.47666853933E+03  0.41800000000E+01 0. -1.
        -11    1    4    4    0    0 -0.33826537032E+02 -0.30347401624E+02  0.52362280168E+02  0.69332588133E+02  0.00000000000E+00 0. -1.
         11    1    4    4    0    0 -0.83855297520E+01 -0.10705538054E+03  0.38798269652E+03  0.40256893125E+03  0.00000000000E+00 0.  1.
</event>
<event>
 8    1  0.6703334E-009  0.1032131E+03  0.7561462E-02  0.1273681E+00
          2   -1    0    0  501    0  0.00000000000E+00  0.00000000000E+00  0.36490048138E+03  0.36490048138E+03  0.00000000000E+00 0. -1.
         -2   -1    0    0    0  501 -0.00000000000E+00 -0.00000000000E+00 -0.39807850247E+02  0.39807850247E+02  0.00000000000E+00 0.  1.
         25    2    1    2    0    0  0.27464359034E+02  0.18987976308E+02  0.24878246673E+03  0.28045555641E+03  0.12509104327E+03 0.  0.
         23    2    1    2    0    0 -0.27464359034E+02 -0.18987976308E+02  0.76310164396E+02  0.12425277521E+03  0.92199114403E+02 0.  0.
          5    1    3    3  502    0 -0.39012022456E+02  0.42881278470E+02  0.99054054226E+02  0.11484737697E+03  0.41800000000E+01 0. -1.
         -5    1    3    3    0  502  0.66476381489E+02 -0.23893302163E+02  0.14972841251E+03  0.16560817943E+03  0.41800000000E+01 0. -1.
        -11    1    4    4    0    0 -0.13670015320E+02  0.26602189215E+02  0.70105556452E+02  0.76218992616E+02  0.00000000000E+00 0. -1.
         11    1    4    4    0    0 -0.13794343713E+02 -0.45590165523E+02  0.62046079440E+01  0.48033782598E+02  0.00000000000E+00 0.  1.
</event>
<event>
 8    1  0.6703334E-009  0.1512619E+03  0.7561462E-02  0.1198931E+00
          1   -1    0    0  501    0  0.00000000000E+00  0.00000000000E+00  0.76712058247E+02  0.76712058247E+02  0.00000000000E+00 0. -1.
         -1   -1    0    0    0  501 -0.00000000000E+00 -0.00000000000E+00 -0.36177672007E+03  0.36177672007E+03  0.00000000000E+00 0.  1.
         25    2    1    2    0    0 -0.11182242971E+03 -0.52182768343E+02 -0.11769690059E+03  0.21148511754E+03  0.12508436128E+03 0.  0.
         23    2    1    2    0    0  0.11182242971E+03  0.52182768343E+02 -0.16736776124E+03  0.22700366077E+03  0.91057110683E+02 0.  0.
          5    1    3    3  502    0 -0.11064219771E+03  0.10822557781E+02 -0.87207113581E+02  0.14135549770E+03  0.41800000000E+01 0. -1.
         -5    1    3    3    0  502 -0.11802319969E+01 -0.63005326124E+02 -0.30489787007E+02  0.70129619843E+02  0.41800000000E+01 0. -1.
        -11    1    4    4    0    0  0.29482301913E+02 -0.20033581689E+01  0.34857825982E+01  0.29755171826E+02  0.00000000000E+00 0. -1.
         11    1    4    4    0    0  0.82340127794E+02  0.54186126512E+02 -0.17085354383E+03  0.19724848895E+03  0.00000000000E+00 0.  1.
</event>
<event>
 8    1  0.6703334E-009  0.1684158E+03  0.7561462E-02  0.1179510E+00
          2   -1    0    0  501    0  0.00000000000E+00  0.00000000000E+00  0.13385696196E+04  0.13385696196E+04  0.00000000000E+00 0. -1.
         -2   -1    0    0    0  501 -0.00000000000E+00 -0.00000000000E+00 -0.28839430889E+02  0.28839430889E+02  0.00000000000E+00 0.  1.
         25    2    1    2    0    0 -0.11607544668E+03 -0.87832786369E+02  0.95193517320E+03  0.97109018441E+03  0.12508982612E+03 0.  0.
         23    2    1    2    0    0  0.11607544668E+03  0.87832786369E+02  0.35779501548E+03  0.39631886604E+03  0.88675040455E+02 0.  0.
          5    1    3    3  502    0 -0.30630168510E+02  0.31392114573E+02  0.17843535197E+03  0.18379423090E+03  0.41800000000E+01 0.  1.
         -5    1    3    3    0  502 -0.85445278168E+02 -0.11922490094E+03  0.77349982123E+03  0.78729595351E+03  0.41800000000E+01 0.  1.
        -11    1    4    4    0    0  0.37943764912E+02  0.35748172239E+02  0.42261550643E+02  0.67109610168E+02  0.00000000000E+00 0.  1.
         11    1    4    4    0    0  0.78131681766E+02  0.52084614131E+02  0.31553346483E+03  0.32920925588E+03  0.00000000000E+00 0. -1.
</event>
<event>
 8    1  0.6703334E-009  0.1186366E+03  0.7561462E-02  0.1245363E+00
         -2   -1    0    0    0  501 -0.00000000000E+00  0.00000000000E+00  0.23071449121E+02  0.23071449121E+02  0.00000000000E+00 0. -1.
          2   -1    0    0  501    0  0.00000000000E+00 -0.00000000000E+00 -0.11866860760E+04  0.11866860760E+04  0.00000000000E+00 0.  1.
         25    2    1    2    0    0  0.71652355529E+02 -0.13550853791E+02 -0.98461683498E+03  0.99520579511E+03  0.12508627909E+03 0.  0.
         23    2    1    2    0    0 -0.71652355529E+02  0.13550853791E+02 -0.17899779190E+03  0.21455173000E+03  0.93137262421E+02 0.  0.
          5    1    3    3  502    0  0.49806333480E+02 -0.53530830034E+02 -0.29074111917E+03  0.29982343370E+03  0.41800000000E+01 0.  1.
         -5    1    3    3    0  502  0.21846022049E+02  0.39979976243E+02 -0.69387571580E+03  0.69538236141E+03  0.41800000000E+01 0.  1.
        -11    1    4    4    0    0 -0.45641978744E+02 -0.38750598732E+02 -0.89788951974E+02  0.10792059591E+03  0.00000000000E+00 0.  1.
         11    1    4    4    0    0 -0.26010376786E+02  0.52301452523E+02 -0.89208839922E+02  0.10663113409E+03  0.00000000000E+00 0. -1.
</event>
<event>
 8    1  0.6703334E-009  0.1373619E+03  0.7561462E-02  0.1216923E+00
         -2   -1    0    0    0  501 -0.00000000000E+00  0.00000000000E+00  0.46336233589E+02  0.46336233589E+02  0.00000000000E+00 0.  1.
          2   -1    0    0  501    0  0.00000000000E+00 -0.00000000000E+00 -0.68814150262E+03  0.68814150262E+03  0.00000000000E+00 0. -1.
         25    2    1    2    0    0  0.10071461153E+03 -0.25663348428E+02 -0.53569770829E+03  0.55984084193E+03  0.12509073983E+03 0.  0.
         23    2    1    2    0    0 -0.10071461153E+03  0.25663348428E+02 -0.10610756074E+03  0.17463689428E+03  0.91854177750E+02 0.  0.
          5    1    3    3  502    0 -0.49576402869E+01 -0.29678152632E+02 -0.29926534968E+03  0.30080324609E+03  0.41800000000E+01 0.  1.
         -5    1    3    3    0  502  0.10567225182E+03  0.40148042050E+01 -0.23643235862E+03  0.25903759584E+03  0.41800000000E+01 0.  1.
        -11    1    4    4    0    0 -0.14978963961E+02  0.47696107749E+02 -0.42740545199E+02  0.65772655866E+02  0.00000000000E+00 0.  1.
         11    1    4    4    0    0 -0.85735647570E+02 -0.22032759321E+02 -0.63367015542E+02  0.10886423842E+03  0.00000000000E+00 0. -1.
</event>
<event>
 8    1  0.6703334E-009  0.1237022E+03  0.7561462E-02  0.1237112E+00
          1   -1    0    0  501    0  0.00000000000E+00  0.00000000000E+00  0.49727936981E+03  0.49727936981E+03  0.00000000000E+00 0. -1.
         -1   -1    0    0    0  501 -0.00000000000E+00 -0.00000000000E+00 -0.49189764292E+02  0.49189764292E+02  0.00000000000E+00 0.  1.
         25    2    1    2    0    0  0.98210656835E+02 -0.12710736243E+02  0.33198551714E+03  0.36833197263E+03  0.12508861874E+03 0.  0.
         23    2    1    2    0    0 -0.98210656835E+02  0.12710736243E+02  0.11610408837E+03  0.17813716147E+03  0.91900995794E+02 0.  0.
          5    1    3    3  502    0  0.93186743137E+01 -0.20621190366E+02 -0.15250794700E+01  0.23062294996E+02  0.41800000000E+01 0. -1.
         -5    1    3    3    0  502  0.88891982521E+02  0.79104541227E+01  0.33351059661E+03  0.34526967764E+03  0.41800000000E+01 0. -1.
        -11    1    4    4    0    0 -0.75997427914E+02  0.50479416408E+02  0.80712712654E+02  0.12181265334E+03  0.00000000000E+00 0. -1.
         11    1    4    4    0    0 -0.22213228921E+02 -0.37768680165E+02  0.35391375719E+02  0.56324508127E+02  0.00000000000E+00 0.  1.
</event>
<event>
 8    1  0.6703334E-009  0.1217541E+03  0.7561462E-02  0.1240231E+00
         -2   -1    0    0    0  501 -0.00000000000E+00  0.00000000000E+00  0.54090968868E+02  0.54090968868E+02  0.00000000000E+00 0.  1.
          2   -1    0    0  501    0  0.00000000000E+00 -0.00000000000E+00 -0.28555707792E+03  0.28555707792E+03  0.00000000000E+00 0. -1.
         25    2    1    2    0    0  0.55950256980E+02  0.17981036603E+02 -0.14793311003E+03  0.20244862956E+03  0.12508994218E+03 0.  0.
         23    2    1    2    0    0 -0.55950256980E+02 -0.17981036603E+02 -0.83532999024E+02  0.13719941723E+03  0.91608783575E+02 0.  0.
          5    1    3    3  502    0 -0.78192852893E+01  0.58979479900E+02 -0.84963754184E+02  0.10380766926E+03  0.41800000000E+01 0.  1.
         -5    1    3    3    0  502  0.63769542269E+02 -0.40998443297E+02 -0.62969355844E+02  0.98640960303E+02  0.41800000000E+01 0.  1.
        -11    1    4    4    0    0 -0.71100696863E+02  0.14077394980E+02 -0.64134729833E+02  0.96781949322E+02  0.00000000000E+00 0. -1.
         11    1    4    4    0    0  0.15150439883E+02 -0.32058431584E+02 -0.19398269190E+02  0.40417467905E+02  0.00000000000E+00 0.  1.
</event>
<event>
 8    1  0.6703334E-009  0.3165228E+03  0.7561462E-02  0.1077261E+00
         -2   -1    0    0    0  501 -0.00000000000E+00  0.00000000000E+00  0.38786360565E+02  0.38786360565E+02  0.00000000000E+00 0.  1.
          2   -1    0    0  501    0  0.00000000000E+00 -0.00000000000E+00 -0.27646699727E+04  0.27646699727E+04  0.00000000000E+00 0. -1.
         25    2    1    2    0    0  0.61912534301E+02  0.30183561963E+03 -0.13041127483E+04  0.13458470060E+04  0.12512473741E+03 0.  0.
         23    2    1    2    0    0 -0.61912534301E+02 -0.30183561963E+03 -0.14217708637E+04  0.14576093272E+04  0.90855152310E+02 0.  0.
          5    1    3    3  502    0 -0.84429546614E+01  0.16551536226E+03 -0.86360245317E+03  0.87937096162E+03  0.41800000000E+01 0.  1.
         -5    1    3    3    0  502  0.70355488962E+02  0.13632025737E+03 -0.44051029517E+03  0.46647604435E+03  0.41800000000E+01 0.  1.
        -11    1    4    4    0    0 -0.52310681063E+00 -0.15031380531E+03 -0.52664382661E+03  0.54767529962E+03  0.00000000000E+00 0.  1.
         11    1    4    4    0    0 -0.61389427490E+02 -0.15152181432E+03 -0.89512703713E+03  0.90993402762E+03  0.00000000000E+00 0. -1.
</event>
<event>
 8    1  0.6703334E-009  0.1420773E+03  0.7561462E-02  0.1210561E+00
         -3   -1    0    0    0  501 -0.00000000000E+00  0.00000000000E+00  0.71907067659E+02  0.71907067659E+02  0.00000000000E+00 0.  1.
          3   -1    0    0  501    0  0.00000000000E+00 -0.00000000000E+00 -0.46093781976E+03  0.46093781976E+03  0.00000000000E+00 0. -1.
         25    2    1    2    0    0 -0.12032794158E+03 -0.56241425249E+02 -0.28578320512E+03  0.33905785811E+03  0.12508508856E+03 0.  0.
         23    2    1    2    0    0  0.12032794158E+03  0.56241425249E+02 -0.10324754699E+03  0.19378702931E+03  0.96184433935E+02 0.  0.
          5    1    3    3  502    0 -0.43276936487E+02 -0.41624403375E+02 -0.22415004824E+02  0.64229191411E+02  0.41800000000E+01 0.  1.
         -5    1    3    3    0  502 -0.77051005096E+02 -0.14617021874E+02 -0.26336820029E+03  0.27482866670E+03  0.41800000000E+01 0.  1.
        -11    1    4    4    0    0  0.35416231036E+02  0.48651286540E+02 -0.37015139835E+00  0.60178020198E+02  0.00000000000E+00 0.  1.
         11    1    4    4    0    0  0.84911710546E+02  0.75901387084E+01 -0.10287739559E+03  0.13360900912E+03  0.00000000000E+00 0. -1.
</event>
<event>
 8    1  0.6703334E-009  0.8888821E+02  0.7561462E-02  0.1305567E+00
          2   -1    0    0  501    0  0.00000000000E+00  0.00000000000E+00  0.75380378844E+03  0.75380378844E+03  0.00000000000E+00 0. -1.
         -2   -1    0    0    0  501 -0.00000000000E+00 -0.00000000000E+00 -0.39176362945E+02  0.39176362945E+02  0.00000000000E+00 0.  1.
         25    2    1    2    0    0  0.53292099299E+02  0.42800442135E+02  0.64173865737E+03  0.65737948736E+03  0.12508940937E+03 0.  0.
         23    2    1    2    0    0 -0.53292099299E+02 -0.42800442135E+02  0.72888768126E+02  0.13560066403E+03  0.91667016273E+02 0.  0.
          5    1    3    3  502    0  0.16343600952E+02  0.13034708384E+02  0.57495829588E+03  0.57535339689E+03  0.41800000000E+01 0.  1.
         -5    1    3    3    0  502  0.36948498347E+02  0.29765733751E+02  0.66780361496E+02  0.82026090468E+02  0.41800000000E+01 0.  1.
        -11    1    4    4    0    0  0.22493008838E+02 -0.15584807145E+01 -0.16414691744E+00  0.22547533189E+02  0.00000000000E+00 0.  1.
         11    1    4    4    0    0 -0.75785108137E+02 -0.41241961421E+02  0.73052915043E+02  0.11305313084E+03  0.00000000000E+00 0. -1.
</event>
<event>
 8    1  0.6703334E-009  0.9974026E+02  0.7561462E-02  0.1280843E+00
         -1   -1    0    0    0  501 -0.00000000000E+00  0.00000000000E+00  0.14508414299E+02  0.14508414299E+02  0.00000000000E+00 0.  1.
          1   -1    0    0  501    0  0.00000000000E+00 -0.00000000000E+00 -0.91075054798E+03  0.91075054798E+03  0.00000000000E+00 0. -1.
         25    2    1    2    0    0 -0.19943902058E+02  0.25994855614E+02 -0.58673000496E+03  0.60081066223E+03  0.12509141209E+03 0.  0.
         23    2    1    2    0    0  0.19943902058E+02 -0.25994855614E+02 -0.30951212871E+03  0.32444830004E+03  0.91626687339E+02 0.  0.
          5    1    3    3  502    0 -0.51257553337E+02  0.42346512985E+02 -0.17033585593E+03  0.18289980905E+03  0.41800000000E+01 0. -1.
         -5    1    3    3    0  502  0.31313651279E+02 -0.16351657371E+02 -0.41639414903E+03  0.41791085318E+03  0.41800000000E+01 0. -1.
        -11    1    4    4    0    0  0.47603640190E+02  0.13124163858E+02 -0.15389374216E+03  0.16162188624E+03  0.00000000000E+00 0.  1.
         11    1    4    4    0    0 -0.27659738132E+02 -0.39119019473E+02 -0.15561838655E+03  0.16282641380E+03  0.00000000000E+00 0. -1.
</event>
<event>
 8    1  0.6703334E-009  0.9511684E+02  0.7561462E-02  0.1290913E+00
         -1   -1    0    0    0  501 -0.00000000000E+00  0.00000000000E+00  0.16034174056E+02  0.16034174056E+02  0.00000000000E+00 0.  1.
          1   -1    0    0  501    0  0.00000000000E+00 -0.00000000000E+00 -0.86405636768E+03  0.86405636768E+03  0.00000000000E+00 0. -1.
         25    2    1    2    0    0 -0.28658973426E+02 -0.99640894962E+01 -0.60451949979E+03  0.61806999745E+03  0.12508427674E+03 0.  0.
         23    2    1    2    0    0  0.28658973426E+02  0.99640894962E+01 -0.24350269384E+03  0.26202054429E+03  0.91872650366E+02 0.  0.
          5    1    3    3  502    0 -0.66057699178E+02  0.25771863253E+02 -0.43576702233E+03  0.44151803893E+03  0.41800000000E+01 0.  1.
         -5    1    3    3    0  502  0.37398725752E+02 -0.35735952749E+02 -0.16875247747E+03  0.17655195852E+03  0.41800000000E+01 0.  1.
        -11    1    4    4    0    0 -0.11706189976E+02 -0.15618307918E+02 -0.69965198280E+01  0.20734457207E+02  0.00000000000E+00 0.  1.
         11    1    4    4    0    0  0.40365163402E+02  0.25582397414E+02 -0.23650617401E+03  0.24128608708E+03  0.00000000000E+00 0. -1.
</event>
<event>
 8    1  0.6703334E-009  0.1074061E+03  0.7561462E-02  0.1265450E+00
         -2   -1    0    0    0  501 -0.00000000000E+00  0.00000000000E+00  0.18483290589E+03  0.18483290589E+03  0.00000000000E+00 0.  1.
          2   -1    0    0  501    0  0.00000000000E+00 -0.00000000000E+00 -0.10247792847E+03  0.10247792847E+03  0.00000000000E+00 0. -1.
         25    2    1    2    0    0 -0.75361358632E+02  0.49673320870E+01  0.82746719606E+02  0.16792278695E+03  0.12508810498E+03 0.  0.
         23    2    1    2    0    0  0.75361358632E+02 -0.49673320870E+01 -0.39174217963E+00  0.11938804742E+03  0.92462660793E+02 0.  0.
          5    1    3    3  502    0  0.28480305144E+02  0.14080684597E+02 -0.39357303053E+01  0.32285535970E+02  0.41800000000E+01 0. -1.
         -5    1    3    3    0  502 -0.10384166378E+03 -0.91133525104E+01  0.86682449912E+02  0.13563725098E+03  0.41800000000E+01 0. -1.
        -11    1    4    4    0    0  0.51168032384E+02 -0.13276529736E+02  0.43584450342E+02  0.68513050519E+02  0.00000000000E+00 0.  1.
         11    1    4    4    0    0  0.24193326248E+02  0.83091976488E+01 -0.43976192521E+02  0.50874996896E+02  0.00000000000E+00 0. -1.
</event>
<event>
 8    1  0.6703334E-009  0.1581818E+03  0.7561462E-02  0.1190765E+00
          2   -1    0    0  501    0  0.00000000000E+00  0.00000000000E+00  0.39827213777E+03  0.39827213777E+03  0.00000000000E+00 0. -1.
         -2   -1    0    0    0  501 -0.00000000000E+00 -0.00000000000E+00 -0.20943819022E+03  0.20943819022E+03  0.00000000000E+00 0.  1.
         25    2    1    2    0    0 -0.12611350081E+03 -0.82415089747E+01 -0.15106681550E+03  0.23332812983E+03  0.12509314877E+03 0.  0.
         23    2    1    2    0    0  0.12611350081E+03  0.82415089747E+01  0.33990076304E+03  0.37438219816E+03  0.93042807491E+02 0.  0.
          5    1    3    3  502    0 -0.14973419580E+03 -0.15213367006E+02 -0.14137486558E+03  0.20653353467E+03  0.41800000000E+01 0.  1.
         -5    1    3    3    0  502  0.23620694992E+02  0.69718580309E+01 -0.96919499207E+01  0.26794595156E+02  0.41800000000E+01 0.  1.
        -11    1    4    4    0    0  0.81662242491E+02 -0.24899983889E+02  0.28014547362E+03  0.29286552791E+03  0.00000000000E+00 0.  1.
         11    1    4    4    0    0  0.44451258316E+02  0.33141492863E+02  0.59755289422E+02  0.81516670252E+02  0.00000000000E+00 0. -1.
</event>
<event>
 8    1  0.6703334E-009  0.7599613E+02  0.7561462E-02  0.1340814E+00
          1   -1    0    0  501    0  0.00000000000E+00  0.00000000000E+00  0.22279840488E+03  0.22279840488E+03  0.00000000000E+00 0. -1.
         -1   -1    0    0    0  501 -0.00000000000E+00 -0.00000000000E+00 -0.53165634003E+02  0.53165634003E+02  0.00000000000E+00 0.  1.
         25    2    1    2    0    0 -0.21661497487E+01 -0.54977531296E+01  0.84332574537E+02  0.15098422017E+03  0.12509729860E+03 0.  0.
         23    2    1    2    0    0  0.21661497487E+01  0.54977531296E+01  0.85300196343E+02  0.12497981872E+03  0.91153245122E+02 0.  0.
          5    1    3    3  502    0  0.27978898377E+02 -0.10000804354E+02 -0.23965468892E+02  0.38401184114E+02  0.41800000000E+01 0. -1.
         -5    1    3    3    0  502 -0.30145048126E+02  0.45030512246E+01  0.10829804343E+03  0.11258303606E+03  0.41800000000E+01 0. -1.
        -11    1    4    4    0    0  0.42402037456E+02  0.21957385683E+02  0.47873037709E+02  0.67615732681E+02  0.00000000000E+00 0. -1.
         11    1    4    4    0    0 -0.40235887707E+02 -0.16459632554E+02  0.37427158634E+02  0.57364086037E+02  0.00000000000E+00 0.  1.
</event>
<event>
 8    1  0.6703334E-009  0.1049375E+03  0.7561462E-02  0.1270243E+00
          2   -1    0    0  501    0  0.00000000000E+00  0.00000000000E+00  0.22314890652E+03  0.22314890652E+03  0.00000000000E+00 0. -1.
         -2   -1    0    0    0  501 -0.00000000000E+00 -0.00000000000E+00 -0.68404095218E+02  0.68404095218E+02  0.00000000000E+00 0.  1.
         25    2    1    2    0    0  0.38294728357E+02 -0.48411810461E+02  0.94046122757E+02  0.16823233650E+03  0.12508899323E+03 0.  0.
         23    2    1    2    0    0 -0.38294728357E+02  0.48411810461E+02  0.60698688546E+02  0.12332066524E+03  0.87826340417E+02 0.  0.
          5    1    3    3  502    0 -0.44564440343E+01 -0.80549461744E+02  0.33811519982E+02  0.87571496300E+02  0.41800000000E+01 0.  1.
         -5    1    3    3    0  502  0.42751172391E+02  0.32137651283E+02  0.60234602774E+02  0.80660840203E+02  0.41800000000E+01 0.  1.
        -11    1    4    4    0    0 -0.18515884161E+02 -0.44187503793E+01 -0.18195488983E+02  0.26333232626E+02  0.00000000000E+00 0.  1.
         11    1    4    4    0    0 -0.19778844195E+02  0.52830560840E+02  0.78894177529E+02  0.96987432611E+02  0.00000000000E+00 0. -1.
</event>
<event>
 8    1  0.6703334E-009  0.9008435E+02  0.7561462E-02  0.1302648E+00
         -1   -1    0    0    0  501 -0.00000000000E+00  0.00000000000E+00  0.28479410318E+02  0.28479410318E+02  0.00000000000E+00 0.  1.
          1   -1    0    0  501    0  0.00000000000E+00 -0.00000000000E+00 -0.50376153080E+03  0.50376153080E+03  0.00000000000E+00 0. -1.
         25    2    1    2    0    0  0.14147866075E+01 -0.48473088693E+02 -0.23129036496E+03  0.26738544896E+03  0.12509237964E+03 0.  0.
         23    2    1    2    0    0 -0.14147866075E+01  0.48473088693E+02 -0.24399175552E+03  0.26485549216E+03  0.90911017010E+02 0.  0.
          5    1    3    3  502    0 -0.40624418686E+02 -0.57654986175E+02 -0.20488852500E+03  0.21672844968E+03  0.41800000000E+01 0. -1.
         -5    1    3    3    0  502  0.42039205293E+02  0.91818974827E+01 -0.26401839965E+02  0.50656999286E+02  0.41800000000E+01 0. -1.
        -11    1    4    4    0    0  0.17517460823E+02  0.40302032589E+01 -0.19963568126E+01  0.18085613412E+02  0.00000000000E+00 0.  1.
         11    1    4    4    0    0 -0.18932247430E+02  0.44442885434E+02 -0.24199539871E+03  0.24676987874E+03  0.00000000000E+00 0. -1.
</event>
<event>
 8    1  0.6703334E-009  0.1063138E+03  0.7561462E-02  0.1267552E+00
         -2   -1    0    0    0  501 -0.00000000000E+00  0.00000000000E+00  0.67439068519E+03  0.67439068519E+03  0.00000000000E+00 0. -1.
          2   -1    0    0  501    0  0.00000000000E+00 -0.00000000000E+00 -0.17566309479E+02  0.17566309479E+02  0.00000000000E+00 0.  1.
         25    2    1    2    0    0  0.43635869660E+01 -0.39464335370E+01  0.35452115325E+03  0.37598801513E+03  0.12508846547E+03 0.  0.
         23    2    1    2    0    0 -0.43635869660E+01  0.39464335370E+01  0.30230322246E+03  0.31596897953E+03  0.91730815374E+02 0.  0.
          5    1    3    3  502    0  0.58989254881E+02 -0.27954498728E+02  0.18565016826E+03  0.19683659102E+03  0.41800000000E+01 0.  1.
         -5    1    3    3    0  502 -0.54625667915E+02  0.24008065191E+02  0.16887098499E+03  0.17915142411E+03  0.41800000000E+01 0.  1.
        -11    1    4    4    0    0 -0.74309580931E+01 -0.41344322065E+02  0.19474245016E+03  0.19922146973E+03  0.00000000000E+00 0. -1.
         11    1    4    4    0    0  0.30673711271E+01  0.45290755602E+02  0.10756077229E+03  0.11674750980E+03  0.00000000000E+00 0.  1.
</event>
<event>
 8    1  0.6703334E-009  0.1071806E+03  0.7561462E-02  0.1265882E+00
          2   -1    0    0  501    0  0.00000000000E+00  0.00000000000E+00  0.15369218493E+04  0.15369218493E+04  0.00000000000E+00 0. -1.
         -2   -1    0    0    0  501 -0.00000000000E+00 -0.00000000000E+00 -0.12246959870E+02  0.12246959870E+02  0.00000000000E+00 0.  1.
         25    2    1    2    0    0 -0.24211708617E+02  0.57248680470E+02  0.11184839919E+04  0.11271723620E+04  0.12508986857E+03 0.  0.
         23    2    1    2    0    0  0.24211708617E+02 -0.57248680470E+02  0.40619089758E+03  0.42199644724E+03  0.96053828439E+02 0.  0.
          5    1    3    3  502    0  0.17391433994E+02 -0.10250319459E+02  0.74761042295E+03  0.74789461018E+03  0.41800000000E+01 0.  1.
         -5    1    3    3    0  502 -0.41603142611E+02  0.67498999929E+02  0.37087356894E+03  0.37927775179E+03  0.41800000000E+01 0.  1.
        -11    1    4    4    0    0 -0.35818076714E+02 -0.35683666187E+02  0.17250646933E+03  0.17976301236E+03  0.00000000000E+00 0.  1.
         11    1    4    4    0    0  0.60029785331E+02 -0.21565014283E+02  0.23368442825E+03  0.24223343489E+03  0.00000000000E+00 0. -1.
</event>
<event>
 8    1  0.6703334E-009  0.1096844E+03  0.7561462E-02  0.1261155E+00
         -1   -1    0    0    0  501 -0.00000000000E+00  0.00000000000E+00  0.57036662138E+02  0.57036662138E+02  0.00000000000E+00 0.  1.
          1   -1    0    0  501    0  0.00000000000E+00 -0.00000000000E+00 -0.33964158308E+03  0.33964158308E+03  0.00000000000E+00 0. -1.
         25    2    1    2    0    0  0.70396613529E+02  0.38540011019E+02 -0.20141602425E+03  0.25031389052E+03  0.12509042057E+03 0.  0.
         23    2    1    2    0    0 -0.70396613529E+02 -0.38540011019E+02 -0.81188896701E+02  0.14636435470E+03  0.91596243014E+02 0.  0.
          5    1    3    3  502    0  0.69776232874E+02  0.11243147935E+02 -0.30347520615E+02  0.77029705030E+02  0.41800000000E+01 0. -1.
         -5    1    3    3    0  502  0.62038065512E+00  0.27296863084E+02 -0.17106850363E+03  0.17328418549E+03  0.41800000000E+01 0. -1.
        -11    1    4    4    0    0 -0.33777930038E+02  0.28738149218E+02 -0.21668550233E+02  0.49359455500E+02  0.00000000000E+00 0. -1.
         11    1    4    4    0    0 -0.36618683491E+02 -0.67278160237E+02 -0.59520346468E+02  0.97004899202E+02  0.00000000000E+00 0.  1.
</event>
<event>
 8    1  0.6703334E-009  0.1055099E+03  0.7561462E-02  0.1269118E+00
          1   -1    0    0  501    0  0.00000000000E+00  0.00000000000E+00  0.20751198535E+02  0.20751198535E+02  0.00000000000E+00 0. -1.
         -1   -1    0    0    0  501 -0.00000000000E+00 -0.00000000000E+00 -0.85873682812E+03  0.85873682812E+03  0.00000000000E+00 0.  1.
         25    2    1    2    0    0 -0.51496600107E+02 -0.78503662911E+01 -0.66916784873E+03  0.68275144630E+03  0.12510155707E+03 0.  0.
         23    2    1    2    0    0  0.51496600107E+02  0.78503662911E+01 -0.16881778086E+03  0.19673658035E+03  0.86558135621E+02 0.  0.
          5    1    3    3  502    0 -0.67765085639E+02 -0.44807734730E+02 -0.56713696232E+03  0.57294122417E+03  0.41800000000E+01 0. -1.
         -5    1    3    3    0  502  0.16268485532E+02  0.36957368439E+02 -0.10203088641E+03  0.10981022213E+03  0.41800000000E+01 0. -1.
        -11    1    4    4    0    0  0.61306044064E+02 -0.15939748474E+02 -0.15518504306E+03  0.16761534599E+03  0.00000000000E+00 0.  1.
         11    1    4    4    0    0 -0.98094439570E+01  0.23790114765E+02 -0.13632737796E+02  0.29121234368E+02  0.00000000000E+00 0. -1.
</event>
<event>
 8    1  0.6703334E-009  0.9501730E+02  0.7561462E-02  0.1291137E+00
          1   -1    0    0  501    0  0.00000000000E+00  0.00000000000E+00  0.62763036302E+02  0.62763036302E+02  0.00000000000E+00 0. -1.
         -1   -1    0    0    0  501 -0.00000000000E+00 -0.00000000000E+00 -0.21271859959E+03  0.21271859959E+03  0.00000000000E+00 0.  1.
         25    2    1    2    0    0 -0.38443141482E+02 -0.64167566780E+01 -0.10669192334E+03  0.16896709401E+03  0.12509061699E+03 0.  0.
         23    2    1    2    0    0  0.38443141482E+02  0.64167566780E+01 -0.43263639945E+02  0.10651454188E+03  0.89188313119E+02 0.  0.
          5    1    3    3  502    0 -0.29845055154E+02 -0.46767212386E+02 -0.12345430557E+01  0.55649761617E+02  0.41800000000E+01 0. -1.
         -5    1    3    3    0  502 -0.85980863279E+01  0.40350455708E+02 -0.10545738028E+03  0.11331733239E+03  0.41800000000E+01 0. -1.
        -11    1    4    4    0    0 -0.26545897912E+02 -0.48134686992E+01 -0.27871258176E+02  0.38789962737E+02  0.00000000000E+00 0.  1.
         11    1    4    4    0    0  0.64989039394E+02  0.11230225377E+02 -0.15392381770E+02  0.67724579142E+02  0.00000000000E+00 0. -1.
</event>
<event>
 8    1  0.6703334E-009  0.1130144E+03  0.7561462E-02  0.1255087E+00
          2   -1    0    0  501    0  0.00000000000E+00  0.00000000000E+00  0.26817103907E+03  0.26817103907E+03  0.00000000000E+00 0. -1.
         -2   -1    0    0    0  501 -0.00000000000E+00 -0.00000000000E+00 -0.73590792978E+02  0.73590792978E+02  0.00000000000E+00 0.  1.
         25    2    1    2    0    0  0.53589285389E+02 -0.56911735362E+02  0.15714068654E+03  0.21552526018E+03  0.12508870964E+03 0.  0.
         23    2    1    2    0    0 -0.53589285389E+02  0.56911735362E+02  0.37439559554E+02  0.12623657186E+03  0.91777962094E+02 0.  0.
          5    1    3    3  502    0  0.18747144384E+02 -0.67140028195E+02  0.16407777793E+03  0.17832057766E+03  0.41800000000E+01 0.  1.
         -5    1    3    3    0  502  0.34842141004E+02  0.10228292834E+02 -0.69370913935E+01  0.37204682515E+02  0.41800000000E+01 0.  1.
        -11    1    4    4    0    0 -0.31278337785E+02 -0.21607290807E+02  0.47685437227E+01  0.38313815260E+02  0.00000000000E+00 0.  1.
         11    1    4    4    0    0 -0.22310947604E+02  0.78519026168E+02  0.32671015831E+02  0.87922756604E+02  0.00000000000E+00 0. -1.
</event>
<event>
 8    1  0.6703334E-009  0.1038420E+03  0.7561462E-02  0.1272418E+00
         -3   -1    0    0    0  501 -0.00000000000E+00  0.00000000000E+00  0.35422025405E+02  0.35422025405E+02  0.00000000000E+00 0.  1.
          3   -1    0    0  501    0  0.00000000000E+00 -0.00000000000E+00 -0.34749944942E+03  0.34749944942E+03  0.00000000000E+00 0. -1.
         25    2    1    2    0    0  0.70221330360E+01 -0.74430207957E+01 -0.19602178852E+03  0.23276058623E+03  0.12509292553E+03 0.  0.
         23    2    1    2    0    0 -0.70221330360E+01  0.74430207957E+01 -0.11605563550E+03  0.15016088860E+03  0.94734750866E+02 0.  0.
          5    1    3    3  502    0  0.15394304926E+02 -0.60513938075E+02 -0.14757368767E+03  0.16029468805E+03  0.41800000000E+01 0. -1.
         -5    1    3    3    0  502 -0.83721718898E+01  0.53070917280E+02 -0.48448100848E+02  0.72465898179E+02  0.41800000000E+01 0. -1.
        -11    1    4    4    0    0  0.13406436338E+02 -0.38589222715E+02 -0.30877026172E+02  0.51207923120E+02  0.00000000000E+00 0.  1.
         11    1    4    4    0    0 -0.20428569374E+02  0.46032243511E+02 -0.85178609331E+02  0.98952965478E+02  0.00000000000E+00 0. -1.
</event>
<event>
 8    1  0.6703334E-009  0.9973694E+02  0.7561462E-02  0.1280850E+00
          1   -1    0    0  501    0  0.00000000000E+00  0.00000000000E+00  0.55416435136E+02  0.55416435136E+02  0.00000000000E+00 0. -1.
         -1   -1    0    0    0  501 -0.00000000000E+00 -0.00000000000E+00 -0.23807588733E+03  0.23807588733E+03  0.00000000000E+00 0.  1.
         25    2    1    2    0    0  0.20048688780E+02 -0.40542377073E+02 -0.10988736809E+03  0.17253059923E+03  0.12508373094E+03 0.  0.
         23    2    1    2    0    0 -0.20048688780E+02  0.40542377073E+02 -0.72772084101E+02  0.12096172323E+03  0.85383417608E+02 0.  0.
          5    1    3    3  502    0 -0.85596000702E+01  0.40445547556E+02 -0.60403962360E+02  0.73315892815E+02  0.41800000000E+01 0.  1.
         -5    1    3    3    0  502  0.28608288850E+02 -0.80987924629E+02 -0.49483405734E+02  0.99214706418E+02  0.41800000000E+01 0.  1.
        -11    1    4    4    0    0 -0.38884904770E+02  0.18894735177E+02 -0.53709197521E+00  0.43235810437E+02  0.00000000000E+00 0.  1.
         11    1    4    4    0    0  0.18836215990E+02  0.21647641896E+02 -0.72234992126E+02  0.77725912796E+02  0.00000000000E+00 0. -1.
</event>
<event>
 8    1  0.6703334E-009  0.1013406E+03  0.7561462E-02  0.1277502E+00
          2   -1    0    0  501    0  0.00000000000E+00  0.00000000000E+00  0.25982153392E+03  0.25982153392E+03  0.00000000000E+00 0. -1.
         -2   -1    0    0    0  501 -0.00000000000E+00 -0.00000000000E+00 -0.56341768616E+02  0.56341768616E+02  0.00000000000E+00 0.  1.
         25    2    1    2    0    0 -0.15622041341E+02 -0.40624849562E+02  0.80374599155E+02  0.15491054424E+03  0.12507107559E+03 0.  0.
         23    2    1    2    0    0  0.15622041341E+02  0.40624849562E+02  0.12310516614E+03  0.16125275829E+03  0.94621052354E+02 0.  0.
          5    1    3    3  502    0 -0.54961908970E+02  0.20323563488E+02  0.45528688222E+02  0.74324911851E+02  0.41800000000E+01 0.  1.
         -5    1    3    3    0  502  0.39339867629E+02 -0.60948413050E+02  0.34845910933E+02  0.80585632387E+02  0.41800000000E+01 0.  1.
        -11    1    4    4    0    0 -0.39637849758E+00  0.51760623695E+02  0.18693610011E+02  0.55034265112E+02  0.00000000000E+00 0.  1.
         11    1    4    4    0    0  0.16018419838E+02 -0.11135774133E+02  0.10441155613E+03  0.10621849318E+03  0.00000000000E+00 0. -1.
</event>
<event>
 8    1  0.6703334E-009  0.8648011E+02  0.7561462E-02  0.1311607E+00
          3   -1    0    0  501    0  0.00000000000E+00  0.00000000000E+00  0.76946293680E+02  0.76946293680E+02  0.00000000000E+00 0. -1.
         -3   -1    0    0    0  501 -0.00000000000E+00 -0.00000000000E+00 -0.14692199996E+03  0.14692199996E+03  0.00000000000E+00 0.  1.
         25    2    1    2    0    0 -0.18140436211E+02  0.19121360232E+02 -0.44313802975E+02  0.13530884473E+03  0.12510023375E+03 0.  0.
         23    2    1    2    0    0  0.18140436211E+02 -0.19121360232E+02 -0.25661903309E+02  0.88559448912E+02  0.80557686580E+02 0.  0.
          5    1    3    3  502    0 -0.36383336908E+02 -0.46694590984E+02 -0.18222287119E+02  0.62077823573E+02  0.41800000000E+01 0. -1.
         -5    1    3    3    0  502  0.18242900698E+02  0.65815951216E+02 -0.26091515856E+02  0.73231021159E+02  0.41800000000E+01 0. -1.
        -11    1    4    4    0    0  0.10833600104E+02 -0.30107728519E+02  0.22178857166E+02  0.38932555952E+02  0.00000000000E+00 0. -1.
         11    1    4    4    0    0  0.73068361065E+01  0.10986368287E+02 -0.47840760475E+02  0.49626892960E+02  0.00000000000E+00 0.  1.
</event>
<event>
 8    1  0.6703334E-009  0.1063442E+03  0.7561462E-02  0.1267494E+00
         -1   -1    0    0    0  501 -0.00000000000E+00  0.00000000000E+00  0.13269439509E+03  0.13269439509E+03  0.00000000000E+00 0.  1.
          1   -1    0    0  501    0  0.00000000000E+00 -0.00000000000E+00 -0.12287934316E+03  0.12287934316E+03  0.00000000000E+00 0. -1.
         25    2    1    2    0    0 -0.53253595119E+02  0.37494969138E+02  0.29114470040E+02  0.14400849816E+03  0.12509587152E+03 0.  0.
         23    2    1    2    0    0  0.53253595119E+02 -0.37494969138E+02 -0.19299418105E+02  0.11156524009E+03  0.88501509331E+02 0.  0.
          5    1    3    3  502    0 -0.67849601650E+02 -0.22854016739E+02 -0.70012963861E+01  0.72058067392E+02  0.41800000000E+01 0.  1.
         -5    1    3    3    0  502  0.14596006531E+02  0.60348985876E+02  0.36115766426E+02  0.71950430767E+02  0.41800000000E+01 0.  1.
        -11    1    4    4    0    0  0.44273582688E+02 -0.44481351582E+01 -0.49032994087E+02  0.66213069251E+02  0.00000000000E+00 0. -1.
         11    1    4    4    0    0  0.89800124309E+01 -0.33046833979E+02  0.29733575982E+02  0.45352170841E+02  0.00000000000E+00 0.  1.
</event>
<event>
 8    1  0.6703334E-009  0.9804793E+02  0.7561462E-02  0.1284455E+00
         -1   -1    0    0    0  501 -0.00000000000E+00  0.00000000000E+00  0.68601516535E+02  0.68601516535E+02  0.00000000000E+00 0.  1.
          1   -1    0    0  501    0  0.00000000000E+00 -0.00000000000E+00 -0.20327741760E+03  0.20327741760E+03  0.00000000000E+00 0. -1.
         25    2    1    2    0    0  0.25852633567E+02  0.28049749638E+02 -0.48635791254E+02  0.13952815411E+03  0.12509004150E+03 0.  0.
         23    2    1    2    0    0 -0.25852633567E+02 -0.28049749638E+02 -0.86040109815E+02  0.13235078003E+03  0.93052035763E+02 0.  0.
          5    1    3    3  502    0  0.59410875229E+02  0.86666857416E+01 -0.72188531227E+02  0.93986275476E+02  0.41800000000E+01 0. -1.
         -5    1    3    3    0  502 -0.33558241662E+02  0.19383063897E+02  0.23552739973E+02  0.45541878636E+02  0.41800000000E+01 0. -1.
        -11    1    4    4    0    0 -0.49418932600E+02  0.11641900642E+02 -0.27308250945E+02  0.57649850993E+02  0.00000000000E+00 0.  1.
         11    1    4    4    0    0  0.23566299033E+02 -0.39691650281E+02 -0.58731858870E+02  0.74700929033E+02  0.00000000000E+00 0. -1.
</event>
<event>
 8    1  0.6703334E-009  0.1611135E+03  0.7561462E-02  0.1187445E+00
          1   -1    0    0  501    0  0.00000000000E+00  0.00000000000E+00  0.47173048153E+03  0.47173048153E+03  0.00000000000E+00 0. -1.
         -1   -1    0    0    0  501 -0.00000000000E+00 -0.00000000000E+00 -0.71918523637E+02  0.71918523637E+02  0.00000000000E+00 0.  1.
         25    2    1    2    0    0  0.12658570407E+03 -0.63959613415E+02  0.14485928217E+03  0.23821728360E+03  0.12509392451E+03 0.  0.
         23    2    1    2    0    0 -0.12658570407E+03  0.63959613415E+02  0.25495267571E+03  0.30543172157E+03  0.90404076573E+02 0.  0.
          5    1    3    3  502    0  0.26569418694E+02  0.12965967812E+02 -0.15886687239E+02  0.33821732103E+02  0.41800000000E+01 0.  1.
         -5    1    3    3    0  502  0.10001628538E+03 -0.76925581226E+02  0.16074596941E+03  0.20439555149E+03  0.41800000000E+01 0.  1.
        -11    1    4    4    0    0 -0.97181435777E+02  0.16193735410E+01  0.12510571941E+03  0.15842441371E+03  0.00000000000E+00 0.  1.
         11    1    4    4    0    0 -0.29404268295E+02  0.62340239874E+02  0.12984695630E+03  0.14700730785E+03  0.00000000000E+00 0. -1.
</event>
<event>
 8    1  0.6703334E-009  0.1019468E+03  0.7561462E-02  0.1276254E+00
          2   -1    0    0  501    0  0.00000000000E+00  0.00000000000E+00  0.79580147811E+03  0.79580147811E+03  0.00000000000E+00 0. -1.
         -2   -1    0    0    0  501 -0.00000000000E+00 -0.00000000000E+00 -0.18205252345E+02  0.18205252345E+02  0.00000000000E+00 0.  1.
         25    2    1    2    0    0 -0.14021635114E+02  0.19718068179E+02  0.63471302849E+03  0.64737483274E+03  0.12509251399E+03 0.  0.
         23    2    1    2    0    0  0.14021635114E+02 -0.19718068179E+02  0.14288319727E+03  0.16663189772E+03  0.82250670581E+02 0.  0.
          5    1    3    3  502    0 -0.52829557452E+02  0.47929458810E+02  0.48143968469E+03  0.48671330120E+03  0.41800000000E+01 0.  1.
         -5    1    3    3    0  502  0.38807922338E+02 -0.28211390631E+02  0.15327334380E+03  0.16066153154E+03  0.41800000000E+01 0.  1.
        -11    1    4    4    0    0 -0.22169610384E+02  0.20485862207E+02  0.37174261722E+02  0.47886197485E+02  0.00000000000E+00 0.  1.
         11    1    4    4    0    0  0.36191245498E+02 -0.40203930386E+02  0.10570893555E+03  0.11874570024E+03  0.00000000000E+00 0. -1.
</event>
<event>
 8    1  0.6703334E-009  0.1153842E+03  0.7561462E-02  0.1250912E+00
         -2   -1    0    0    0  501 -0.00000000000E+00  0.00000000000E+00  0.26868815677E+02  0.26868815677E+02  0.00000000000E+00 0.  1.
          2   -1    0    0  501    0  0.00000000000E+00 -0.00000000000E+00 -0.57226025514E+03  0.57226025514E+03  0.00000000000E+00 0. -1.
         25    2    1    2    0    0 -0.30502295060E+02 -0.48531668863E+02 -0.36267752349E+03  0.38790169926E+03  0.12508808638E+03 0.  0.
         23    2    1    2    0    0  0.30502295060E+02  0.48531668863E+02 -0.18271391598E+03  0.21122737157E+03  0.89145468313E+02 0.  0.
          5    1    3    3  502    0 -0.23124333145E+02  0.34269099452E+02 -0.53639498762E+02  0.67851117810E+02  0.41800000000E+01 0. -1.
         -5    1    3    3    0  502 -0.73779619151E+01 -0.82800768314E+02 -0.30903802473E+03  0.32005058145E+03  0.41800000000E+01 0. -1.
        -11    1    4    4    0    0 -0.30250008545E+02  0.29664141534E+02 -0.73627863331E+02  0.84947551869E+02  0.00000000000E+00 0. -1.
         11    1    4    4    0    0  0.60752303605E+02  0.18867527328E+02 -0.10908605265E+03  0.12627981970E+03  0.00000000000E+00 0.  1.
</event>
<event>
 8    1  0.6703334E-009  0.7876516E+02  0.7561462E-02  0.1332593E+00
          2   -1    0    0  501    0  0.00000000000E+00  0.00000000000E+00  0.19649987685E+02  0.19649987685E+02  0.00000000000E+00 0. -1.
         -2   -1    0    0    0  501 -0.00000000000E+00 -0.00000000000E+00 -0.60979583068E+03  0.60979583068E+03  0.00000000000E+00 0.  1.
         25    2    1    2    0    0 -0.55771429435E+01 -0.42991186629E+01 -0.38729434427E+03  0.40705473203E+03  0.12508820416E+03 0.  0.
         23    2    1    2    0    0  0.55771429435E+01  0.42991186629E+01 -0.20285149872E+03  0.22239108633E+03  0.90881669226E+02 0.  0.
          5    1    3    3  502    0 -0.11126683049E+02  0.39904381253E+02 -0.33770297498E+03  0.34026009820E+03  0.41800000000E+01 0.  1.
         -5    1    3    3    0  502  0.55495401051E+01 -0.44203499916E+02 -0.49591369293E+02  0.66794633830E+02  0.41800000000E+01 0.  1.
        -11    1    4    4    0    0 -0.24989075318E+02  0.24108854968E+02 -0.30448196265E+02  0.46182068261E+02  0.00000000000E+00 0. -1.
         11    1    4    4    0    0  0.30566218261E+02 -0.19809736305E+02 -0.17240330246E+03  0.17620901807E+03  0.00000000000E+00 0.  1.
</event>
<event>
 8    1  0.6703334E-009  0.8495893E+02  0.7561462E-02  0.1315540E+00
          1   -1    0    0  501    0  0.00000000000E+00  0.00000000000E+00  0.21012177452E+03  0.21012177452E+03  0.00000000000E+00 0. -1.
         -1   -1    0    0    0  501 -0.00000000000E+00 -0.00000000000E+00 -0.66908672486E+02  0.66908672486E+02  0.00000000000E+00 0.  1.
         25    2    1    2    0    0 -0.23019485820E+02 -0.41999762070E+02  0.66065758065E+02  0.14935147470E+03  0.12508917564E+03 0.  0.
         23    2    1    2    0    0  0.23019485820E+02  0.41999762070E+02  0.77147343970E+02  0.12767897231E+03  0.89757064056E+02 0.  0.
          5    1    3    3  502    0  0.16617665473E+02 -0.11832820903E+02  0.91097960428E+02  0.93447703292E+02  0.41800000000E+01 0. -1.
         -5    1    3    3    0  502 -0.39637151293E+02 -0.30166941167E+02 -0.25032202363E+02  0.55903771403E+02  0.41800000000E+01 0. -1.
        -11    1    4    4    0    0  0.52791892688E+02  0.71527435401E+01  0.26943631648E+02  0.59700125294E+02  0.00000000000E+00 0.  1.
         11    1    4    4    0    0 -0.29772406868E+02  0.34847018530E+02  0.50203712322E+02  0.67978847020E+02  0.00000000000E+00 0. -1.
</event>
<event>
 8    1  0.6703334E-009  0.1335800E+03  0.7561462E-02  0.1222238E+00
         -1   -1    0    0    0  501 -0.00000000000E+00  0.00000000000E+00  0.31080427316E+03  0.31080427316E+03  0.00000000000E+00 0.  1.
          1   -1    0    0  501    0  0.00000000000E+00 -0.00000000000E+00 -0.66759373653E+02  0.66759373653E+02  0.00000000000E+00 0. -1.
         25    2    1    2    0    0 -0.82790343049E+02  0.14124926567E+02  0.19081790825E+03  0.24313125095E+03  0.12509027392E+03 0.  0.
         23    2    1    2    0    0  0.82790343049E+02 -0.14124926567E+02  0.53226991265E+02  0.13443239587E+03  0.90472106236E+02 0.  0.
          5    1    3    3  502    0 -0.58626338671E+02  0.68912588869E+02  0.11840111236E+03  0.14907142013E+03  0.41800000000E+01 0.  1.
         -5    1    3    3    0  502 -0.24164004377E+02 -0.54787662302E+02  0.72416795886E+02  0.94059830823E+02  0.41800000000E+01 0.  1.
        -11    1    4    4    0    0  0.10860621644E+02 -0.38975246519E+02 -0.18326717256E+01  0.40501625021E+02  0.00000000000E+00 0. -1.
         11    1    4    4    0    0  0.71929721405E+02  0.24850319952E+02  0.55059662990E+02  0.93930770846E+02  0.00000000000E+00 0.  1.
</event>
<event>
 8    1  0.6703334E-009  0.1122219E+03  0.7561462E-02  0.1256510E+00
         -1   -1    0    0    0  501 -0.00000000000E+00  0.00000000000E+00  0.58362801330E+02  0.58362801330E+02  0.00000000000E+00 0.  1.
          1   -1    0    0  501    0  0.00000000000E+00 -0.00000000000E+00 -0.29224048378E+03  0.29224048378E+03  0.00000000000E+00 0. -1.
         25    2    1    2    0    0 -0.61326685698E+02  0.31665935462E+01 -0.76858261637E+02  0.15914798829E+03  0.12509956075E+03 0.  0.
         23    2    1    2    0    0  0.61326685698E+02 -0.31665935462E+01 -0.15701942081E+03  0.19145529683E+03  0.90714069890E+02 0.  0.
          5    1    3    3  502    0  0.29417266207E+02 -0.14796197985E+02 -0.54621637605E+02  0.63916341577E+02  0.41800000000E+01 0. -1.
         -5    1    3    3    0  502 -0.90743951905E+02  0.17962791531E+02 -0.22236624032E+02  0.95231646711E+02  0.41800000000E+01 0. -1.
        -11    1    4    4    0    0 -0.16123346704E+02 -0.12824650603E+02 -0.59974718639E+01  0.21457018451E+02  0.00000000000E+00 0.  1.
         11    1    4    4    0    0  0.77450032402E+02  0.96580570573E+01 -0.15102194895E+03  0.16999827837E+03  0.00000000000E+00 0. -1.
</event>
<event>
 8    1  0.6703334E-009  0.1110411E+03  0.7561462E-02  0.1258654E+00
         -4   -1    0    0    0  501 -0.00000000000E+00  0.00000000000E+00  0.65070311455E+03  0.65070311455E+03  0.00000000000E+00 0.  1.
          4   -1    0    0  501    0  0.00000000000E+00 -0.00000000000E+00 -0.26117212089E+02  0.26117212089E+02  0.00000000000E+00 0. -1.
         25    2    1    2    0    0  0.24479542780E+02  0.67929472305E+02  0.31699762643E+03  0.34835149979E+03  0.12509041140E+03 0.  0.
         23    2    1    2    0    0 -0.24479542780E+02 -0.67929472305E+02  0.30758827604E+03  0.32846882685E+03  0.89819604956E+02 0.  0.
          5    1    3    3  502    0  0.82781629186E+01 -0.24068796036E+02  0.18384405597E+03  0.18564467199E+03  0.41800000000E+01 0. -1.
         -5    1    3    3    0  502  0.16201379862E+02  0.91998268341E+02  0.13315357046E+03  0.16270682780E+03  0.41800000000E+01 0. -1.
        -11    1    4    4    0    0 -0.38247685726E+02 -0.52486380074E+01  0.50927402614E+02  0.63906447260E+02  0.00000000000E+00 0. -1.
         11    1    4    4    0    0  0.13768142946E+02 -0.62680834297E+02  0.25666087342E+03  0.26456237959E+03  0.00000000000E+00 0.  1.
</event>
<event>
 8    1  0.6703334E-009  0.7695120E+02  0.7561462E-02  0.1337933E+00
         -1   -1    0    0    0  501 -0.00000000000E+00  0.00000000000E+00  0.22584159484E+02  0.22584159484E+02  0.00000000000E+00 0.  1.
          1   -1    0    0  501    0  0.00000000000E+00 -0.00000000000E+00 -0.53048813785E+03  0.53048813785E+03  0.00000000000E+00 0. -1.
         25    2    1    2    0    0 -0.13700384423E+01 -0.12928115502E+02 -0.30327963215E+03  0.32831868008E+03  0.12508240179E+03 0.  0.
         23    2    1    2    0    0  0.13700384423E+01  0.12928115502E+02 -0.20462434622E+03  0.22475361726E+03  0.92054615466E+02 0.  0.
          5    1    3    3  502    0  0.39144437816E+02 -0.21957724897E+02 -0.27318333805E+03  0.27687729644E+03  0.41800000000E+01 0. -1.
         -5    1    3    3    0  502 -0.40514476259E+02  0.90296093955E+01 -0.30096294098E+02  0.51441383640E+02  0.41800000000E+01 0. -1.
        -11    1    4    4    0    0 -0.18525288492E+02  0.33630173695E+02 -0.18735335795E+03  0.19124710620E+03  0.00000000000E+00 0. -1.
         11    1    4    4    0    0  0.19895326934E+02 -0.20702058194E+02 -0.17270988274E+02  0.33506511057E+02  0.00000000000E+00 0.  1.
</event>
<event>
 8    1  0.6703334E-009  0.1076098E+03  0.7561462E-02  0.1265061E+00
          2   -1    0    0  501    0  0.00000000000E+00  0.00000000000E+00  0.10982705970E+04  0.10982705970E+04  0.00000000000E+00 0. -1.
         -2   -1    0    0    0  501 -0.00000000000E+00 -0.00000000000E+00 -0.13848594325E+02  0.13848594325E+02  0.00000000000E+00 0.  1.
         25    2    1    2    0    0  0.42718853402E+02 -0.18750942269E+02  0.74901791353E+03  0.76082374360E+03  0.12509370794E+03 0.  0.
         23    2    1    2    0    0 -0.42718853402E+02  0.18750942269E+02  0.33540408911E+03  0.35129544769E+03  0.93467054638E+02 0.  0.
          5    1    3    3  502    0  0.26439757722E+02 -0.70626916657E+02  0.51674065500E+03  0.52223136547E+03  0.41800000000E+01 0.  1.
         -5    1    3    3    0  502  0.16279095680E+02  0.51875974389E+02  0.23227725853E+03  0.23859237813E+03  0.41800000000E+01 0.  1.
        -11    1    4    4    0    0 -0.52179676792E+02 -0.11527152230E+02  0.29562881984E+03  0.30041969481E+03  0.00000000000E+00 0. -1.
         11    1    4    4    0    0  0.94608233901E+01  0.30278094498E+02  0.39775269275E+02  0.50875752884E+02  0.00000000000E+00 0.  1.
</event>
<event>
 8    1  0.6703334E-009  0.1074047E+03  0.7561462E-02  0.1265453E+00
          1   -1    0    0  501    0  0.00000000000E+00  0.00000000000E+00  0.14413387073E+03  0.14413387073E+03  0.00000000000E+00 0. -1.
         -1   -1    0    0    0  501 -0.00000000000E+00 -0.00000000000E+00 -0.12975669595E+03  0.12975669595E+03  0.00000000000E+00 0.  1.
         25    2    1    2    0    0 -0.70165141211E+02  0.31034556896E+00 -0.35835314146E+02  0.14783350973E+03  0.12508930212E+03 0.  0.
         23    2    1    2    0    0  0.70165141211E+02 -0.31034556896E+00  0.50212488922E+02  0.12605705695E+03  0.91901274239E+02 0.  0.
          5    1    3    3  502    0 -0.32672194609E+02 -0.60422985863E+02 -0.32897900094E+02  0.76276823163E+02  0.41800000000E+01 0. -1.
         -5    1    3    3    0  502 -0.37492946603E+02  0.60733331432E+02 -0.29374140519E+01  0.71556686572E+02  0.41800000000E+01 0. -1.
        -11    1    4    4    0    0  0.40813643530E+02  0.12186336511E+02 -0.21394605201E+02  0.47665390247E+02  0.00000000000E+00 0.  1.
         11    1    4    4    0    0  0.29351497682E+02 -0.12496682080E+02  0.71607094123E+02  0.78391666699E+02  0.00000000000E+00 0. -1.
</event>
<event>
 8    1  0.6703334E-009  0.1337513E+03  0.7561462E-02  0.1221993E+00
         -2   -1    0    0    0  501 -0.00000000000E+00  0.00000000000E+00  0.22993377440E+03  0.22993377440E+03  0.00000000000E+00 0.  1.
          2   -1    0    0  501    0  0.00000000000E+00 -0.00000000000E+00 -0.85664486746E+02  0.85664486746E+02  0.00000000000E+00 0. -1.
         25    2    1    2    0    0  0.85085278753E+02  0.20995709413E+02  0.66675837927E+02  0.16665448159E+03  0.12509086456E+03 0.  0.
         23    2    1    2    0    0 -0.85085278753E+02 -0.20995709413E+02  0.77593449723E+02  0.14894377955E+03  0.92104188579E+02 0.  0.
          5    1    3    3  502    0  0.91588325020E+02  0.55841912696E+02  0.73781079842E+02  0.13026074096E+03  0.41800000000E+01 0. -1.
         -5    1    3    3    0  502 -0.65030462669E+01 -0.34846203283E+02 -0.71052419151E+01  0.36393740625E+02  0.41800000000E+01 0. -1.
        -11    1    4    4    0    0 -0.12321106013E+02  0.32098863975E+02  0.84921043073E+01  0.35415569421E+02  0.00000000000E+00 0.  1.
         11    1    4    4    0    0 -0.72764172740E+02 -0.53094573388E+02  0.69101345416E+02  0.11352821013E+03  0.00000000000E+00 0. -1.
</event>
<event>
 8    1  0.6703334E-009  0.1245198E+03  0.7561462E-02  0.1235822E+00
          2   -1    0    0  501    0  0.00000000000E+00  0.00000000000E+00  0.61035695599E+03  0.61035695599E+03  0.00000000000E+00 0. -1.
         -2   -1    0    0    0  501 -0.00000000000E+00 -0.00000000000E+00 -0.28345013262E+02  0.28345013262E+02  0.00000000000E+00 0.  1.
         25    2    1    2    0    0  0.59559920757E+02 -0.21236912948E+02  0.22507597479E+03  0.26515313152E+03  0.12509435677E+03 0.  0.
         23    2    1    2    0    0 -0.59559920757E+02  0.21236912948E+02  0.35693596794E+03  0.37354883773E+03  0.90205644673E+02 0.  0.
          5    1    3    3  502    0  0.90148343812E+02  0.16045119211E+02  0.15204997896E+03  0.17754108889E+03  0.41800000000E+01 0. -1.
         -5    1    3    3    0  502 -0.30588423055E+02 -0.37282032159E+02  0.73025995831E+02  0.87612042631E+02  0.41800000000E+01 0. -1.
        -11    1    4    4    0    0  0.14608600429E+02  0.30899290462E+02  0.87955905560E+02  0.94363227374E+02  0.00000000000E+00 0.  1.
         11    1    4    4    0    0 -0.74168521186E+02 -0.96623775137E+01  0.26898006238E+03  0.27918561036E+03  0.00000000000E+00 0. -1.
</event>
<event>
 8    1  0.6703334E-009  0.1793232E+03  0.7561462E-02  0.1168460E+00
         -1   -1    0    0    0  501 -0.00000000000E+00  0.00000000000E+00  0.31466351054E+02  0.31466351054E+02  0.00000000000E+00 0.  1.
          1   -1    0    0  501    0  0.00000000000E+00 -0.00000000000E+00 -0.11055115982E+04  0.11055115982E+04  0.00000000000E+00 0. -1.
         25    2    1    2    0    0  0.11378070448E+03 -0.96197097125E+02 -0.48502643188E+03  0.52259273615E+03  0.12511034347E+03 0.  0.
         23    2    1    2    0    0 -0.11378070448E+03  0.96197097125E+02 -0.58901881526E+03  0.61438521310E+03  0.91247439092E+02 0.  0.
          5    1    3    3  502    0  0.26793670144E+02  0.24896957054E+02 -0.45981526507E+02  0.58902736866E+02  0.41800000000E+01 0. -1.
         -5    1    3    3    0  502  0.86987034331E+02 -0.12109405418E+03 -0.43904490538E+03  0.46368999928E+03  0.41800000000E+01 0. -1.
        -11    1    4    4    0    0 -0.38647923493E+02 -0.12429133246E+02 -0.10221492892E+03  0.10998198506E+03  0.00000000000E+00 0. -1.
         11    1    4    4    0    0 -0.75132780983E+02  0.10862623037E+03 -0.48680388633E+03  0.50440322804E+03  0.00000000000E+00 0.  1.
</event>
<event>
 8    1  0.6703334E-009  0.1239973E+03  0.7561462E-02  0.1236645E+00
         -1   -1    0    0    0  501 -0.00000000000E+00  0.00000000000E+00  0.35722635421E+02  0.35722635421E+02  0.00000000000E+00 0.  1.
          1   -1    0    0  501    0  0.00000000000E+00 -0.00000000000E+00 -0.65151283977E+03  0.65151283977E+03  0.00000000000E+00 0. -1.
         25    2    1    2    0    0 -0.10308654696E+03  0.24799483287E+02 -0.32230600324E+03  0.36162001177E+03  0.12508406236E+03 0.  0.
         23    2    1    2    0    0  0.10308654696E+03 -0.24799483287E+02 -0.29348420110E+03  0.32561546341E+03  0.93008618853E+02 0.  0.
          5    1    3    3  502    0 -0.39162567369E+01 -0.66614935436E+01  0.10041918103E+02  0.13342604028E+02  0.41800000000E+01 0. -1.
         -5    1    3    3    0  502 -0.99170290220E+02  0.31460976831E+02 -0.33234792134E+03  0.34827740775E+03  0.41800000000E+01 0. -1.
        -11    1    4    4    0    0  0.55216387991E+02  0.29576722746E+02 -0.90269502763E+02  0.10987363269E+03  0.00000000000E+00 0.  1.
         11    1    4    4    0    0  0.47870158965E+02 -0.54376206034E+02 -0.20321469834E+03  0.21574183072E+03  0.00000000000E+00 0. -1.
</event>
<event>
 8    1  0.6703334E-009  0.8708994E+02  0.7561462E-02  0.1310056E+00
          2   -1    0    0  501    0  0.00000000000E+00  0.00000000000E+00  0.29425235315E+03  0.29425235315E+03  0.00000000000E+00 0. -1.
         -2   -1    0    0    0  501 -0.00000000000E+00 -0.00000000000E+00 -0.45972822996E+02  0.45972822996E+02  0.00000000000E+00 0.  1.
         25    2    1    2    0    0  0.34937575841E+02 -0.28089530002E+02  0.15590967440E+03  0.20485436115E+03  0.12509127392E+03 0.  0.
         23    2    1    2    0    0 -0.34937575841E+02  0.28089530002E+02  0.92369855755E+02  0.13537081499E+03  0.88223644214E+02 0.  0.
          5    1    3    3  502    0 -0.23084117110E+02 -0.11652621918E+02 -0.10182583379E+02  0.28103691298E+02  0.41800000000E+01 0.  1.
         -5    1    3    3    0  502  0.58021692952E+02 -0.16436908084E+02  0.16609225777E+03  0.17675066985E+03  0.41800000000E+01 0.  1.
        -11    1    4    4    0    0  0.19778344532E+02 -0.86945701487E+01 -0.34010495046E+00  0.21607733196E+02  0.00000000000E+00 0.  1.
         11    1    4    4    0    0 -0.54715920373E+02  0.36784100150E+02  0.92709960706E+02  0.11376308180E+03  0.00000000000E+00 0. -1.
</event>
<event>
 8    1  0.6703334E-009  0.1749101E+03  0.7561462E-02  0.1172822E+00
          2   -1    0    0  501    0  0.00000000000E+00  0.00000000000E+00  0.60052614040E+03  0.60052614040E+03  0.00000000000E+00 0. -1.
         -2   -1    0    0    0  501 -0.00000000000E+00 -0.00000000000E+00 -0.68312759448E+02  0.68312759448E+02  0.00000000000E+00 0.  1.
         25    2    1    2    0    0 -0.14915286465E+03  0.30186054567E+02  0.15033147683E+03  0.24780081802E+03  0.12509163666E+03 0.  0.
         23    2    1    2    0    0  0.14915286465E+03 -0.30186054567E+02  0.38188190412E+03  0.42103808183E+03  0.91002762216E+02 0.  0.
          5    1    3    3  502    0  0.74958145659E+01 -0.18785218620E+02  0.53137546524E+02  0.57010024778E+02  0.41800000000E+01 0.  1.
         -5    1    3    3    0  502 -0.15664867921E+03  0.48971273187E+02  0.97193930304E+02  0.19079079324E+03  0.41800000000E+01 0.  1.
        -11    1    4    4    0    0  0.56523671781E+02 -0.43610862029E+02  0.92189473857E+02  0.11660073691E+03  0.00000000000E+00 0.  1.
         11    1    4    4    0    0  0.92629192867E+02  0.13424807462E+02  0.28969243026E+03  0.30443734492E+03  0.00000000000E+00 0. -1.
</event>
<event>
 8    1  0.6703334E-009  0.1158731E+03  0.7561462E-02  0.1250065E+00
         -2   -1    0    0    0  501 -0.00000000000E+00  0.00000000000E+00  0.66408236051E+02  0.66408236051E+02  0.00000000000E+00 0.  1.
          2   -1    0    0  501    0  0.00000000000E+00 -0.00000000000E+00 -0.31171454517E+03  0.31171454517E+03  0.00000000000E+00 0. -1.
         25    2    1    2    0    0  0.49646320839E+02 -0.72655806848E+02 -0.17267394867E+03  0.23066630547E+03  0.12508808291E+03 0.  0.
         23    2    1    2    0    0 -0.49646320839E+02  0.72655806848E+02 -0.72632360449E+02  0.14745647575E+03  0.93404116695E+02 0.  0.
          5    1    3    3  502    0 -0.17459097467E+02 -0.59915888655E+02 -0.23990335529E+02  0.66990614241E+02  0.41800000000E+01 0.  1.
         -5    1    3    3    0  502  0.67105418306E+02 -0.12739918193E+02 -0.14868361314E+03  0.16367569123E+03  0.41800000000E+01 0.  1.
        -11    1    4    4    0    0 -0.37101601367E+02  0.12249420347E+02  0.13648951928E+02  0.41386845876E+02  0.00000000000E+00 0.  1.
         11    1    4    4    0    0 -0.12544719472E+02  0.60406386501E+02 -0.86281312377E+02  0.10606962988E+03  0.00000000000E+00 0. -1.
</event>
<event>
 8    1  0.6703334E-009  0.1209430E+03  0.7561462E-02  0.1241549E+00
         -2   -1    0    0    0  501 -0.00000000000E+00  0.00000000000E+00  0.79715201211E+01  0.79715201211E+01  0.00000000000E+00 0.  1.
          2   -1    0    0  501    0  0.00000000000E+00 -0.00000000000E+00 -0.23687866624E+04  0.23687866624E+04  0.00000000000E+00 0. -1.
         25    2    1    2    0    0 -0.20093137367E+02 -0.54884682093E+02 -0.18291091811E+04  0.18343129647E+04  0.12509034250E+03 0.  0.
         23    2    1    2    0    0  0.20093137367E+02  0.54884682093E+02 -0.53170596118E+03  0.54244521776E+03  0.90108393762E+02 0.  0.
          5    1    3    3  502    0 -0.72214962066E+02 -0.28049005437E+02 -0.11803329139E+04  0.11828799633E+04  0.41800000000E+01 0. -1.
         -5    1    3    3    0  502  0.52121824698E+02 -0.26835676657E+02 -0.64877626715E+03  0.65143300144E+03  0.41800000000E+01 0. -1.
        -11    1    4    4    0    0 -0.34358749363E+02  0.12634414934E+02 -0.13914837729E+03  0.14388336596E+03  0.00000000000E+00 0.  1.
         11    1    4    4    0    0  0.54451886730E+02  0.42250267159E+02 -0.39255758389E+03  0.39856185180E+03  0.00000000000E+00 0. -1.
</event>
<event>
 8    1  0.6703334E-009  0.5736360E+02  0.7561462E-02  0.1409241E+00
          2   -1    0    0  501    0  0.00000000000E+00  0.00000000000E+00  0.33649154106E+02  0.33649154106E+02  0.00000000000E+00 0. -1.
         -2   -1    0    0    0  501 -0.00000000000E+00 -0.00000000000E+00 -0.44188487944E+03  0.44188487944E+03  0.00000000000E+00 0.  1.
         25    2    1    2    0    0 -0.18144291905E+02 -0.50603169195E+02 -0.24049213027E+03  0.27635868712E+03  0.12509101954E+03 0.  0.
         23    2    1    2    0    0  0.18144291905E+02  0.50603169195E+02 -0.16774359507E+03  0.19917534642E+03  0.92967784065E+02 0.  0.
          5    1    3    3  502    0 -0.79851349667E+01 -0.24319845050E+01 -0.22411190750E+03  0.22430625585E+03  0.41800000000E+01 0.  1.
         -5    1    3    3    0  502 -0.10159156938E+02 -0.48171184690E+02 -0.16380222767E+02  0.52052431278E+02  0.41800000000E+01 0.  1.
        -11    1    4    4    0    0  0.19090366630E+02  0.31333563631E+02 -0.17481761221E+03  0.17862651496E+03  0.00000000000E+00 0.  1.
         11    1    4    4    0    0 -0.94607472511E+00  0.19269605563E+02  0.70740171402E+01  0.20548831462E+02  0.00000000000E+00 0. -1.
</event>
<event>
 8    1  0.6703334E-009  0.8042120E+02  0.7561462E-02  0.1327860E+00
          2   -1    0    0  501    0  0.00000000000E+00  0.00000000000E+00  0.97076920187E+03  0.97076920187E+03  0.00000000000E+00 0. -1.
         -2   -1    0    0    0  501 -0.00000000000E+00 -0.00000000000E+00 -0.16185356606E+02  0.16185356606E+02  0.00000000000E+00 0.  1.
         25    2    1    2    0    0 -0.87152127545E+01 -0.44023595708E+02  0.70206081515E+03  0.71452950015E+03  0.12509590921E+03 0.  0.
         23    2    1    2    0    0  0.87152127545E+01  0.44023595708E+02  0.25252303011E+03  0.27242505833E+03  0.91834088193E+02 0.  0.
          5    1    3    3  502    0 -0.25417114737E+02  0.17590664884E+02  0.53070566833E+03  0.53162151952E+03  0.41800000000E+01 0.  1.
         -5    1    3    3    0  502  0.16701901983E+02 -0.61614260592E+02  0.17135514681E+03  0.18290798063E+03  0.41800000000E+01 0.  1.
        -11    1    4    4    0    0 -0.19113746226E+02  0.95354686373E+01  0.63344677232E+01  0.22279720336E+02  0.00000000000E+00 0.  1.
         11    1    4    4    0    0  0.27828958980E+02  0.34488127071E+02  0.24618856239E+03  0.25014533799E+03  0.00000000000E+00 0. -1.
</event>
<event>
 8    1  0.6703334E-009  0.1303080E+03  0.7561462E-02  0.1226999E+00
          1   -1    0    0  501    0  0.00000000000E+00  0.00000000000E+00  0.38523442540E+02  0.38523442540E+02  0.00000000000E+00 0. -1.
         -1   -1    0    0    0  501 -0.00000000000E+00 -0.00000000000E+00 -0.52403047034E+03  0.52403047034E+03  0.00000000000E+00 0.  1.
         25    2    1    2    0    0  0.72025241739E+02 -0.41459756711E+02 -0.34490652531E+03  0.37618493166E+03  0.12509214495E+03 0.  0.
         23    2    1    2    0    0 -0.72025241739E+02  0.41459756711E+02 -0.14060050249E+03  0.18636898122E+03  0.89768307257E+02 0.  0.
          5    1    3    3  502    0  0.39818262668E+02 -0.85789223578E+02 -0.23349750852E+03  0.25196000438E+03  0.41800000000E+01 0. -1.
         -5    1    3    3    0  502  0.32206979072E+02  0.44329466867E+02 -0.11140901679E+03  0.12422492728E+03  0.41800000000E+01 0. -1.
        -11    1    4    4    0    0 -0.37780145248E+02 -0.18403883057E+02 -0.18031859630E+02  0.45729533655E+02  0.00000000000E+00 0. -1.
         11    1    4    4    0    0 -0.34245096491E+02  0.59863639769E+02 -0.12256864286E+03  0.14063944757E+03  0.00000000000E+00 0.  1.
</event>
<event>
 8    1  0.6703334E-009  0.9726836E+02  0.7561462E-02  0.1286147E+00
          1   -1    0    0  501    0  0.00000000000E+00  0.00000000000E+00  0.18542172749E+03  0.18542172749E+03  0.00000000000E+00 0. -1.
         -1   -1    0    0    0  501 -0.00000000000E+00 -0.00000000000E+00 -0.11710883073E+03  0.11710883073E+03  0.00000000000E+00 0.  1.
         25    2    1    2    0    0  0.34588645551E+02  0.31694548028E+02  0.12758306693E+03  0.18473018203E+03  0.12508749901E+03 0.  0.
         23    2    1    2    0    0 -0.34588645551E+02 -0.31694548028E+02 -0.59270170175E+02  0.11780037619E+03  0.90349636320E+02 0.  0.
          5    1    3    3  502    0 -0.26231889119E+02  0.17423784342E+02 -0.10219087366E+02  0.33370681955E+02  0.41800000000E+01 0.  1.
         -5    1    3    3    0  502  0.60820534671E+02  0.14270763686E+02  0.13780215430E+03  0.15135950008E+03  0.41800000000E+01 0.  1.
        -11    1    4    4    0    0 -0.54159060385E+02  0.90934641834E+01 -0.42908783393E+02  0.69692600790E+02  0.00000000000E+00 0.  1.
         11    1    4    4    0    0  0.19570414833E+02 -0.40788012211E+02 -0.16361386781E+02  0.48107775404E+02  0.00000000000E+00 0. -1.
</event>
<event>
 8    1  0.6703334E-009  0.1086039E+03  0.7561462E-02  0.1263177E+00
          1   -1    0    0  501    0  0.00000000000E+00  0.00000000000E+00  0.68943308903E+03  0.68943308903E+03  0.00000000000E+00 0. -1.
         -1   -1    0    0    0  501 -0.00000000000E+00 -0.00000000000E+00 -0.19303939063E+02  0.19303939063E+02  0.00000000000E+00 0.  1.
         25    2    1    2    0    0  0.38106184283E+02  0.89454122124E+01  0.37310636153E+03  0.39545725052E+03  0.12508388504E+03 0.  0.
         23    2    1    2    0    0 -0.38106184283E+02 -0.89454122124E+01  0.29702278844E+03  0.31327977757E+03  0.91594653245E+02 0.  0.
          5    1    3    3  502    0  0.18698702867E+01 -0.51792667496E+02  0.22960817297E+03  0.23542166917E+03  0.41800000000E+01 0.  1.
         -5    1    3    3    0  502  0.36236313997E+02  0.60738079708E+02  0.14349818856E+03  0.16003558135E+03  0.41800000000E+01 0.  1.
        -11    1    4    4    0    0 -0.61292431748E+02  0.12756129030E+02  0.23977213091E+03  0.24781072571E+03  0.00000000000E+00 0. -1.
         11    1    4    4    0    0  0.23186247464E+02 -0.21701541243E+02  0.57250657532E+02  0.65469051862E+02  0.00000000000E+00 0.  1.
</event>
<event>
 8    1  0.6703334E-009  0.8721514E+02  0.7561462E-02  0.1309739E+00
          2   -1    0    0  501    0  0.00000000000E+00  0.00000000000E+00  0.54288248822E+03  0.54288248822E+03  0.00000000000E+00 0.  1.
         -2   -1    0    0    0  501 -0.00000000000E+00 -0.00000000000E+00 -0.29808604351E+02  0.29808604351E+02  0.00000000000E+00 0. -1.
         25    2    1    2    0    0  0.20071588300E+02  0.60733778235E+02  0.24811077287E+03  0.28512213294E+03  0.12507683481E+03 0.  0.
         23    2    1    2    0    0 -0.20071588300E+02 -0.60733778235E+02  0.26496311100E+03  0.28756895963E+03  0.91646035780E+02 0.  0.
          5    1    3    3  502    0 -0.73379080874E+01  0.62988033228E+02  0.24930596039E+03  0.25727858735E+03  0.41800000000E+01 0. -1.
         -5    1    3    3    0  502  0.27409496387E+02 -0.22542549932E+01 -0.11951875230E+01  0.27843545589E+02  0.41800000000E+01 0. -1.
        -11    1    4    4    0    0  0.14621430029E+02 -0.18789133100E+01  0.85374487747E+00  0.14766360812E+02  0.00000000000E+00 0. -1.
         11    1    4    4    0    0 -0.34693018328E+02 -0.58854864925E+02  0.26410936612E+03  0.27280259881E+03  0.00000000000E+00 0.  1.
</event>
<event>
 8    1  0.6703334E-009  0.1484364E+03  0.7561462E-02  0.1202408E+00
          1   -1    0    0  501    0  0.00000000000E+00  0.00000000000E+00  0.82758235708E+03  0.82758235708E+03  0.00000000000E+00 0. -1.
         -1   -1    0    0    0  501 -0.00000000000E+00 -0.00000000000E+00 -0.45611464396E+02  0.45611464396E+02  0.00000000000E+00 0.  1.
         25    2    1    2    0    0 -0.20470900489E+02 -0.12377173592E+03  0.63580474911E+03  0.66002454608E+03  0.12508485947E+03 0.  0.
         23    2    1    2    0    0  0.20470900489E+02  0.12377173592E+03  0.14616614357E+03  0.21316927539E+03  0.91313186694E+02 0.  0.
          5    1    3    3  502    0 -0.27482589171E+02 -0.32888109711E+01  0.33082452449E+03  0.33200669780E+03  0.41800000000E+01 0. -1.
         -5    1    3    3    0  502  0.70116886819E+01 -0.12048292494E+03  0.30498022462E+03  0.32801784828E+03  0.41800000000E+01 0. -1.
        -11    1    4    4    0    0 -0.10695976249E+02  0.11533856307E+03  0.83889711301E+02  0.14302052895E+03  0.00000000000E+00 0. -1.
         11    1    4    4    0    0  0.31166876738E+02  0.84331728412E+01  0.62276432273E+02  0.70148746436E+02  0.00000000000E+00 0.  1.
</event>
<event>
 8    1  0.6703334E-009  0.7983381E+02  0.7561462E-02  0.1329524E+00
         -2   -1    0    0    0  501 -0.00000000000E+00  0.00000000000E+00  0.63842167603E+01  0.63842167603E+01  0.00000000000E+00 0.  1.
          2   -1    0    0  501    0  0.00000000000E+00 -0.00000000000E+00 -0.19993942001E+04  0.19993942001E+04  0.00000000000E+00 0. -1.
         25    2    1    2    0    0 -0.94977229688E+01 -0.34416848132E+02 -0.15470712880E+04  0.15525303146E+04  0.12508429715E+03 0.  0.
         23    2    1    2    0    0  0.94977229688E+01  0.34416848132E+02 -0.44593869536E+03  0.45324810229E+03  0.72785960410E+02 0.  0.
          5    1    3    3  502    0  0.29283756975E+02 -0.24351732742E+02 -0.14799676508E+03  0.15287596339E+03  0.41800000000E+01 0.  1.
         -5    1    3    3    0  502 -0.38781479944E+02 -0.10065115390E+02 -0.13990745229E+04  0.13996543512E+04  0.41800000000E+01 0.  1.
        -11    1    4    4    0    0  0.40524173832E+02  0.28346678426E+02 -0.27049270355E+03  0.27497644539E+03  0.00000000000E+00 0.  1.
         11    1    4    4    0    0 -0.31026450864E+02  0.60701697063E+01 -0.17544599181E+03  0.17827165690E+03  0.00000000000E+00 0. -1.
</event>
<event>
 7    1  0.6703334E-009  0.1451084E+03  0.7561462E-02  0.1206616E+00
         -1   -1    0    0    0  501 -0.00000000000E+00  0.00000000000E+00  0.19254307664E+03  0.19254307664E+03  0.00000000000E+00 0.  1.
          1   -1    0    0  501    0  0.00000000000E+00 -0.00000000000E+00 -0.15858866671E+03  0.15858866671E+03  0.00000000000E+00 0. -1.
         23    2    1    2    0    0 -0.11034669363E+03  0.13080831137E+02 -0.48686056571E+02  0.16457411155E+03  0.11120613810E+03 0.  0.
          5    1    1    2  502    0  0.95021943480E+02  0.44237221153E+02  0.68932703225E+02  0.12552008386E+03  0.41800000000E+01 0. -1.
         -5    1    1    2    0  502  0.15324750150E+02 -0.57318052291E+02  0.13707763276E+02  0.61037547948E+02  0.41800000000E+01 0. -1.
        -11    1    3    3    0    0 -0.67855042723E+02  0.36784880543E+02  0.20622347202E+02  0.79891898611E+02  0.00000000000E+00 0.  1.
         11    1    3    3    0    0 -0.42491650907E+02 -0.23704049405E+02 -0.69308403773E+02  0.84682212941E+02  0.00000000000E+00 0. -1.
</event>
<event>
 8    1  0.6703334E-009  0.8957666E+02  0.7561462E-02  0.1303880E+00
         -2   -1    0    0    0  501 -0.00000000000E+00  0.00000000000E+00  0.38705945485E+02  0.38705945485E+02  0.00000000000E+00 0.  1.
          2   -1    0    0  501    0  0.00000000000E+00 -0.00000000000E+00 -0.46403381056E+03  0.46403381056E+03  0.00000000000E+00 0. -1.
         25    2    1    2    0    0  0.49210711610E+02 -0.36364396710E+02 -0.14875104134E+03  0.20375892431E+03  0.12508702351E+03 0.  0.
         23    2    1    2    0    0 -0.49210711610E+02  0.36364396710E+02 -0.27657682374E+03  0.29898083174E+03  0.95659473304E+02 0.  0.
          5    1    3    3  502    0  0.13005515724E+02  0.23225009839E+01 -0.14995601082E+03  0.15059487053E+03  0.41800000000E+01 0.  1.
         -5    1    3    3    0  502  0.36205195886E+02 -0.38686897694E+02  0.12049694807E+01  0.53164053775E+02  0.41800000000E+01 0.  1.
        -11    1    4    4    0    0  0.27441161035E+02  0.32125107436E+00 -0.89695877086E+02  0.93800164645E+02  0.00000000000E+00 0.  1.
         11    1    4    4    0    0 -0.76651872645E+02  0.36043145636E+02 -0.18688094665E+03  0.20518066709E+03  0.00000000000E+00 0. -1.
</event>
<event>
 8    1  0.6703334E-009  0.8363435E+02  0.7561462E-02  0.1319043E+00
          1   -1    0    0  501    0  0.00000000000E+00  0.00000000000E+00  0.20790185934E+03  0.20790185934E+03  0.00000000000E+00 0. -1.
         -1   -1    0    0    0  501 -0.00000000000E+00 -0.00000000000E+00 -0.61652465180E+02  0.61652465180E+02  0.00000000000E+00 0.  1.
         25    2    1    2    0    0 -0.95999684728E+01  0.12684853111E+02  0.50570569551E+02  0.13585973789E+03  0.12508965177E+03 0.  0.
         23    2    1    2    0    0  0.95999684728E+01 -0.12684853111E+02  0.95678824605E+02  0.13369458663E+03  0.92014890769E+02 0.  0.
          5    1    3    3  502    0  0.23945631902E+02  0.30526026415E+02  0.79073949660E+02  0.88178191696E+02  0.41800000000E+01 0. -1.
         -5    1    3    3    0  502 -0.33545600375E+02 -0.17841173304E+02 -0.28503380109E+02  0.47681546190E+02  0.41800000000E+01 0. -1.
        -11    1    4    4    0    0 -0.39461385451E+02 -0.10855311273E+02  0.61500350637E+02  0.73873756186E+02  0.00000000000E+00 0. -1.
         11    1    4    4    0    0  0.49061353924E+02 -0.18295418376E+01  0.34178473968E+02  0.59820830443E+02  0.00000000000E+00 0.  1.
</event>
<event>
 8    1  0.6703334E-009  0.1058147E+03  0.7561462E-02  0.1268523E+00
         -2   -1    0    0    0  501 -0.00000000000E+00  0.00000000000E+00  0.34073987718E+03  0.34073987718E+03  0.00000000000E+00 0.  1.
          2   -1    0    0  501    0  0.00000000000E+00 -0.00000000000E+00 -0.53474222418E+02  0.53474222418E+02  0.00000000000E+00 0. -1.
         25    2    1    2    0    0  0.77440921487E+02  0.31449732757E+01  0.16230127618E+03  0.21908109025E+03  0.12509129737E+03 0.  0.
         23    2    1    2    0    0 -0.77440921487E+02 -0.31449732757E+01  0.12496437858E+03  0.17513300935E+03  0.95123540049E+02 0.  0.
          5    1    3    3  502    0  0.33165077671E+02 -0.40978623655E+02  0.92256349832E+01  0.53681977557E+02  0.41800000000E+01 0.  1.
         -5    1    3    3    0  502  0.44275843816E+02  0.44123596931E+02  0.15307564120E+03  0.16539911269E+03  0.41800000000E+01 0.  1.
        -11    1    4    4    0    0 -0.49250269539E+02 -0.29581627624E+02  0.16178111795E+02  0.59685785945E+02  0.00000000000E+00 0.  1.
         11    1    4    4    0    0 -0.28190651948E+02  0.26436654349E+02  0.10878626678E+03  0.11544722340E+03  0.00000000000E+00 0. -1.
</event>
<event>
 8    1  0.6703334E-009  0.1701413E+03  0.7561462E-02  0.1177701E+00
         -4   -1    0    0    0  501 -0.00000000000E+00  0.00000000000E+00  0.58075741371E+02  0.58075741371E+02  0.00000000000E+00 0.  1.
          4   -1    0    0  501    0  0.00000000000E+00 -0.00000000000E+00 -0.56987692818E+03  0.56987692818E+03  0.00000000000E+00 0. -1.
         25    2    1    2    0    0  0.13837602916E+03 -0.25516089616E+02 -0.19789948825E+03  0.27315772782E+03  0.12510771575E+03 0.  0.
         23    2    1    2    0    0 -0.13837602916E+03  0.25516089616E+02 -0.31390169856E+03  0.35479494174E+03  0.86868740334E+02 0.  0.
          5    1    3    3  502    0  0.57216952901E+02  0.50825532746E+02 -0.75494593830E+02  0.10758215733E+03  0.41800000000E+01 0. -1.
         -5    1    3    3    0  502  0.81159076259E+02 -0.76341622362E+02 -0.12240489442E+03  0.16557557049E+03  0.41800000000E+01 0. -1.
        -11    1    4    4    0    0 -0.12117003765E+03  0.42065373835E+02 -0.19419026599E+03  0.23272630514E+03  0.00000000000E+00 0.  1.
         11    1    4    4    0    0 -0.17205991513E+02 -0.16549284219E+02 -0.11971143257E+03  0.12206863660E+03  0.00000000000E+00 0. -1.
</event>
<event>
 8    1  0.6703334E-009  0.1099715E+03  0.7561462E-02  0.1260623E+00
         -2   -1    0    0    0  501 -0.00000000000E+00  0.00000000000E+00  0.22730121955E+02  0.22730121955E+02  0.00000000000E+00 0.  1.
          2   -1    0    0  501    0  0.00000000000E+00 -0.00000000000E+00 -0.71187379416E+03  0.71187379416E+03  0.00000000000E+00 0. -1.
         25    2    1    2    0    0 -0.37939702713E+02  0.53098175844E+02 -0.38858939550E+03  0.41340998124E+03  0.12508899622E+03 0.  0.
         23    2    1    2    0    0  0.37939702713E+02 -0.53098175844E+02 -0.30055427670E+03  0.32119393487E+03  0.92594995732E+02 0.  0.
          5    1    3    3  502    0 -0.62188887976E+02 -0.33043723790E+01 -0.29409165101E+03  0.30064222634E+03  0.41800000000E+01 0. -1.
         -5    1    3    3    0  502  0.24249185263E+02  0.56402548223E+02 -0.94497744495E+02  0.11276775491E+03  0.41800000000E+01 0. -1.
        -11    1    4    4    0    0  0.47025029359E+02 -0.52850234915E+01 -0.23403707482E+03  0.23877319207E+03  0.00000000000E+00 0. -1.
         11    1    4    4    0    0 -0.90853266453E+01 -0.47813152353E+02 -0.66517201875E+02  0.82420742798E+02  0.00000000000E+00 0.  1.
</event>
<event>
 8    1  0.6703334E-009  0.1439366E+03  0.7561462E-02  0.1208128E+00
         -2   -1    0    0    0  501 -0.00000000000E+00  0.00000000000E+00  0.71994384452E+03  0.71994384452E+03  0.00000000000E+00 0.  1.
          2   -1    0    0  501    0  0.00000000000E+00 -0.00000000000E+00 -0.39672923991E+02  0.39672923991E+02  0.00000000000E+00 0. -1.
         25    2    1    2    0    0 -0.11904941847E+03  0.50908479653E+02  0.37779022618E+03  0.41849449164E+03  0.12509095569E+03 0.  0.
         23    2    1    2    0    0  0.11904941847E+03 -0.50908479653E+02  0.30248069435E+03  0.34112227687E+03  0.90029994926E+02 0.  0.
          5    1    3    3  502    0 -0.80740857455E+02  0.87648299722E+01  0.34100116745E+03  0.35056408388E+03  0.41800000000E+01 0. -1.
         -5    1    3    3    0  502 -0.38308561017E+02  0.42143649681E+02  0.36789058737E+02  0.67930407759E+02  0.41800000000E+01 0. -1.
        -11    1    4    4    0    0  0.22553605564E+00 -0.28530958949E+02  0.23140133397E+02  0.36735980437E+02  0.00000000000E+00 0. -1.
         11    1    4    4    0    0  0.11882388242E+03 -0.22377520705E+02  0.27934056095E+03  0.30438629643E+03  0.00000000000E+00 0.  1.
</event>
<event>
 7    1  0.6703334E-009  0.2022522E+03  0.7561462E-02  0.1147853E+00
          2   -1    0    0  501    0  0.00000000000E+00  0.00000000000E+00  0.47485349689E+03  0.47485349689E+03  0.00000000000E+00 0. -1.
         -2   -1    0    0    0  501 -0.00000000000E+00 -0.00000000000E+00 -0.11642560124E+03  0.11642560124E+03  0.00000000000E+00 0.  1.
         25    2    1    2    0    0 -0.29330941678E+02 -0.18215780334E+03  0.25180523220E+03  0.33629810346E+03  0.12509504374E+03 0.  0.
          5    1    3    3  502    0  0.24121603691E+02 -0.11224775014E+02 -0.41064725891E+00  0.26934891311E+02  0.41800000000E+01 0. -1.
         -5    1    3    3    0  502 -0.53452545369E+02 -0.17093302833E+03  0.25221587946E+03  0.30936321215E+03  0.41800000000E+01 0. -1.
        -11    1    1    2    0    0 -0.13319971018E+02  0.13164593759E+03  0.33500082612E+01  0.13236048152E+03  0.00000000000E+00 0.  1.
         11    1    1    2    0    0  0.42650912696E+02  0.50511865750E+02  0.10327265520E+03  0.12262051316E+03  0.00000000000E+00 0. -1.
</event>
<event>
 8    1  0.6703334E-009  0.1574860E+03  0.7561462E-02  0.1191565E+00
          2   -1    0    0  501    0  0.00000000000E+00  0.00000000000E+00  0.23052496013E+04  0.23052496013E+04  0.00000000000E+00 0. -1.
         -2   -1    0    0    0  501 -0.00000000000E+00 -0.00000000000E+00 -0.15472602840E+02  0.15472602840E+02  0.00000000000E+00 0.  1.
         25    2    1    2    0    0  0.12490180719E+03  0.73834882439E+02  0.15197962041E+04  0.15318222286E+04  0.12508711714E+03 0.  0.
         23    2    1    2    0    0 -0.12490180719E+03 -0.73834882439E+02  0.76998079442E+03  0.78889997555E+03  0.91873262432E+02 0.  0.
          5    1    3    3  502    0  0.22822355757E+02  0.22749814997E+02  0.95699662422E+03  0.95754813204E+03  0.41800000000E+01 0.  1.
         -5    1    3    3    0  502  0.10207945143E+03  0.51085067441E+02  0.56279957984E+03  0.57427409657E+03  0.41800000000E+01 0.  1.
        -11    1    4    4    0    0 -0.49588950651E+02 -0.78438512576E+02  0.34446281042E+03  0.35674401473E+03  0.00000000000E+00 0.  1.
         11    1    4    4    0    0 -0.75312856536E+02  0.46036301370E+01  0.42551798400E+03  0.43215596082E+03  0.00000000000E+00 0. -1.
</event>
<event>
 8    1  0.6703334E-009  0.1036839E+03  0.7561462E-02  0.1272735E+00
         -2   -1    0    0    0  501 -0.00000000000E+00  0.00000000000E+00  0.38490124343E+02  0.38490124343E+02  0.00000000000E+00 0. -1.
          2   -1    0    0  501    0  0.00000000000E+00 -0.00000000000E+00 -0.43276992565E+03  0.43276992565E+03  0.00000000000E+00 0.  1.
         25    2    1    2    0    0 -0.14462158641E+02 -0.62418850740E+02 -0.24117592119E+03  0.27913907906E+03  0.12509010165E+03 0.  0.
         23    2    1    2    0    0  0.14462158641E+02  0.62418850740E+02 -0.15310388011E+03  0.19212097094E+03  0.96769842454E+02 0.  0.
          5    1    3    3  502    0 -0.46011976972E+02  0.80060561441E+01 -0.33719021987E+02  0.57755032713E+02  0.41800000000E+01 0.  1.
         -5    1    3    3    0  502  0.31549818332E+02 -0.70424906884E+02 -0.20745689921E+03  0.22138404634E+03  0.41800000000E+01 0.  1.
        -11    1    4    4    0    0 -0.14028024656E+02  0.50327274411E+02 -0.20781344899E+02  0.56227078185E+02  0.00000000000E+00 0. -1.
         11    1    4    4    0    0  0.28490183297E+02  0.12091576329E+02 -0.13232253521E+03  0.13589389276E+03  0.00000000000E+00 0.  1.
</event>
<event>
 8    1  0.6703334E-009  0.1349924E+03  0.7561462E-02  0.1220230E+00
          2   -1    0    0  501    0  0.00000000000E+00  0.00000000000E+00  0.94884597195E+02  0.94884597195E+02  0.00000000000E+00 0. -1.
         -2   -1    0    0    0  501 -0.00000000000E+00 -0.00000000000E+00 -0.26136212980E+03  0.26136212980E+03  0.00000000000E+00 0.  1.
         25    2    1    2    0    0 -0.10377581357E+03 -0.17116945745E+02 -0.13927890665E+03  0.21472855212E+03  0.12508927989E+03 0.  0.
         23    2    1    2    0    0  0.10377581357E+03  0.17116945745E+02 -0.27198625954E+02  0.14151817488E+03  0.90692994501E+02 0.  0.
          5    1    3    3  502    0 -0.94373343223E+02  0.16546769050E+02 -0.30873362990E+02  0.10075098223E+03  0.41800000000E+01 0. -1.
         -5    1    3    3    0  502 -0.94024703515E+01 -0.33663714795E+02 -0.10840554366E+03  0.11397756989E+03  0.41800000000E+01 0. -1.
        -11    1    4    4    0    0  0.59214292657E+02 -0.36191967249E+02 -0.13418751377E+02  0.70684183781E+02  0.00000000000E+00 0.  1.
         11    1    4    4    0    0  0.44561520918E+02  0.53308912994E+02 -0.13779874577E+02  0.70833991095E+02  0.00000000000E+00 0. -1.
</event>
<event>
 8    1  0.6703334E-009  0.1254983E+03  0.7561462E-02  0.1234293E+00
          1   -1    0    0  501    0  0.00000000000E+00  0.00000000000E+00  0.24784783818E+03  0.24784783818E+03  0.00000000000E+00 0. -1.
         -1   -1    0    0    0  501 -0.00000000000E+00 -0.00000000000E+00 -0.11694197909E+03  0.11694197909E+03  0.00000000000E+00 0.  1.
         25    2    1    2    0    0 -0.42384637693E+02  0.96209927825E+02 -0.13532671445E+02  0.16396107108E+03  0.12508913585E+03 0.  0.
         23    2    1    2    0    0  0.42384637693E+02 -0.96209927825E+02  0.14443853054E+03  0.20082874618E+03  0.91743601771E+02 0.  0.
          5    1    3    3  502    0 -0.11588155958E+02  0.10407045605E+03  0.30820814610E+02  0.10923525161E+03  0.41800000000E+01 0.  1.
         -5    1    3    3    0  502 -0.30796481735E+02 -0.78605282250E+01 -0.44353486055E+02  0.54725819468E+02  0.41800000000E+01 0.  1.
        -11    1    4    4    0    0 -0.91299691748E+01 -0.21854866884E+02  0.94663386272E+02  0.97581495398E+02  0.00000000000E+00 0. -1.
         11    1    4    4    0    0  0.51514606868E+02 -0.74355060941E+02  0.49775144264E+02  0.10324725079E+03  0.00000000000E+00 0.  1.
</event>
<event>
 8    1  0.6703334E-009  0.1964192E+03  0.7561462E-02  0.1152796E+00
         -1   -1    0    0    0  501 -0.00000000000E+00  0.00000000000E+00  0.26876276845E+03  0.26876276845E+03  0.00000000000E+00 0.  1.
          1   -1    0    0  501    0  0.00000000000E+00 -0.00000000000E+00 -0.15560029721E+03  0.15560029721E+03  0.00000000000E+00 0. -1.
         25    2    1    2    0    0 -0.16363263330E+03 -0.56054443070E+02  0.55403334231E+02  0.22053349719E+03  0.12509098557E+03 0.  0.
         23    2    1    2    0    0  0.16363263330E+03  0.56054443070E+02  0.57759137011E+02  0.20382956846E+03  0.91063910536E+02 0.  0.
          5    1    3    3  502    0 -0.79565263983E+02 -0.89843373274E+02  0.48712036219E+02  0.12958702800E+03  0.41800000000E+01 0.  1.
         -5    1    3    3    0  502 -0.84067369321E+02  0.33788930204E+02  0.66912980125E+01  0.90946469189E+02  0.41800000000E+01 0.  1.
        -11    1    4    4    0    0  0.29695822476E+02  0.35932942979E+02  0.49714674128E+02  0.68151060794E+02  0.00000000000E+00 0.  1.
         11    1    4    4    0    0  0.13393681083E+03  0.20121500091E+02  0.80444628834E+01  0.13567850767E+03  0.00000000000E+00 0. -1.
</event>
<event>
 8    1  0.6703334E-009  0.1319985E+03  0.7561462E-02  0.1224520E+00
          1   -1    0    0  501    0  0.00000000000E+00  0.00000000000E+00  0.19594008633E+03  0.19594008633E+03  0.00000000000E+00 0. -1.
         -1   -1    0    0    0  501 -0.00000000000E+00 -0.00000000000E+00 -0.12870506694E+03  0.12870506694E+03  0.00000000000E+00 0.  1.
         25    2    1    2    0    0  0.16630564794E+02  0.10692687513E+03  0.38361218879E+01  0.16544621092E+03  0.12509116902E+03 0.  0.
         23    2    1    2    0    0 -0.16630564794E+02 -0.10692687513E+03  0.63398897503E+02  0.15919894234E+03  0.98055855141E+02 0.  0.
          5    1    3    3  502    0 -0.26669975544E+02 -0.43462147309E+01 -0.30669828263E+02  0.41088781239E+02  0.41800000000E+01 0.  1.
         -5    1    3    3    0  502  0.43300540338E+02  0.11127308986E+03  0.34505950151E+02  0.12435742968E+03  0.41800000000E+01 0.  1.
        -11    1    4    4    0    0  0.12250427559E+02 -0.65765162170E+02  0.81785267230E+02  0.10565963972E+03  0.00000000000E+00 0. -1.
         11    1    4    4    0    0 -0.28880992353E+02 -0.41161712962E+02 -0.18386369726E+02  0.53539302619E+02  0.00000000000E+00 0.  1.
</event>
<event>
 8    1  0.6703334E-009  0.8938119E+02  0.7561462E-02  0.1304357E+00
          2   -1    0    0  501    0  0.00000000000E+00  0.00000000000E+00  0.50204947633E+02  0.50204947633E+02  0.00000000000E+00 0. -1.
         -2   -1    0    0    0  501 -0.00000000000E+00 -0.00000000000E+00 -0.25494885620E+03  0.25494885620E+03  0.00000000000E+00 0.  1.
         25    2    1    2    0    0  0.41585610110E+01 -0.13512237002E+02 -0.15655529484E+03  0.20087938724E+03  0.12507235385E+03 0.  0.
         23    2    1    2    0    0 -0.41585610110E+01  0.13512237002E+02 -0.48188613727E+02  0.10427441659E+03  0.91384557145E+02 0.  0.
          5    1    3    3  502    0 -0.51904792930E+02  0.78742053173E+01 -0.11856999205E+03  0.12973983988E+03  0.41800000000E+01 0.  1.
         -5    1    3    3    0  502  0.56063353941E+02 -0.21386442320E+02 -0.37985302797E+02  0.71139547362E+02  0.41800000000E+01 0.  1.
        -11    1    4    4    0    0  0.27135960479E+02  0.20345766422E+02 -0.60984513316E+02  0.69781239791E+02  0.00000000000E+00 0.  1.
         11    1    4    4    0    0 -0.31294521490E+02 -0.68335294193E+01  0.12795899589E+02  0.34493176802E+02  0.00000000000E+00 0. -1.
</event>
<event>
 8    1  0.6703334E-009  0.2087752E+03  0.7561462E-02  0.1142540E+00
          1   -1    0    0  501    0  0.00000000000E+00  0.00000000000E+00  0.18565462549E+04  0.18565462549E+04  0.00000000000E+00 0. -1.
         -1   -1    0    0    0  501 -0.00000000000E+00 -0.00000000000E+00 -0.24807194280E+02  0.24807194280E+02  0.00000000000E+00 0.  1.
         25    2    1    2    0    0  0.17946687107E+03 -0.44220566374E+02  0.94482671576E+03  0.97082914063E+03  0.12509149122E+03 0.  0.
         23    2    1    2    0    0 -0.17946687107E+03  0.44220566374E+02  0.88691234485E+03  0.91052430854E+03  0.90979078347E+02 0.  0.
          5    1    3    3  502    0  0.17334047433E+03  0.29791313776E+01  0.78943433561E+03  0.80825728447E+03  0.41800000000E+01 0. -1.
         -5    1    3    3    0  502  0.61263967438E+01 -0.47199697752E+02  0.15539238015E+03  0.16257185616E+03  0.41800000000E+01 0. -1.
        -11    1    4    4    0    0 -0.67947186056E+02 -0.15727922152E+02  0.19438181757E+03  0.20651508088E+03  0.00000000000E+00 0.  1.
         11    1    4    4    0    0 -0.11151968501E+03  0.59948488526E+02  0.69253052728E+03  0.70400922766E+03  0.00000000000E+00 0. -1.
</event>
<event>
 8    1  0.6703334E-009  0.1093488E+03  0.7561462E-02  0.1261781E+00
         -1   -1    0    0    0  501 -0.00000000000E+00  0.00000000000E+00  0.85870049908E+02  0.85870049908E+02  0.00000000000E+00 0.  1.
          1   -1    0    0  501    0  0.00000000000E+00 -0.00000000000E+00 -0.15358701571E+03  0.15358701571E+03  0.00000000000E+00 0. -1.
         25    2    1    2    0    0  0.18942382675E+02  0.37747205932E+02 -0.38238312471E+02  0.13745158636E+03  0.12508838730E+03 0.  0.
         23    2    1    2    0    0 -0.18942382675E+02 -0.37747205932E+02 -0.29478653331E+02  0.10200547925E+03  0.88048062890E+02 0.  0.
          5    1    3    3  502    0  0.11343193047E+02  0.79945742202E+02 -0.15560162406E+01  0.80869545017E+02  0.41800000000E+01 0.  1.
         -5    1    3    3    0  502  0.75991896280E+01 -0.42198536270E+02 -0.36682296230E+02  0.56582041347E+02  0.41800000000E+01 0.  1.
        -11    1    4    4    0    0 -0.34984396218E+02 -0.58723738020E+02 -0.32006525617E+02  0.75477169183E+02  0.00000000000E+00 0. -1.
         11    1    4    4    0    0  0.16042013543E+02  0.20976532088E+02  0.25278722855E+01  0.26528310071E+02  0.00000000000E+00 0.  1.
</event>
<event>
 8    1  0.6703334E-009  0.3504846E+03  0.7561462E-02  0.1062416E+00
          2   -1    0    0  501    0  0.00000000000E+00  0.00000000000E+00  0.14817234157E+04  0.14817234157E+04  0.00000000000E+00 0. -1.
         -2   -1    0    0    0  501 -0.00000000000E+00 -0.00000000000E+00 -0.11099240547E+03  0.11099240547E+03  0.00000000000E+00 0.  1.
         25    2    1    2    0    0 -0.19364368162E+03  0.27930510660E+03  0.31507297401E+03  0.48002887909E+03  0.12509007875E+03 0.  0.
         23    2    1    2    0    0  0.19364368162E+03 -0.27930510660E+03  0.10556580362E+04  0.11126869421E+04  0.90272496647E+02 0.  0.
          5    1    3    3  502    0 -0.11148410945E+03  0.24520995870E+03  0.20547222789E+03  0.33881106732E+03  0.41800000000E+01 0. -1.
         -5    1    3    3    0  502 -0.82159572175E+02  0.34095147900E+02  0.10960074612E+03  0.14121781177E+03  0.41800000000E+01 0. -1.
        -11    1    4    4    0    0  0.11298914654E+03 -0.12561827112E+03  0.64702390522E+03  0.66871999462E+03  0.00000000000E+00 0. -1.
         11    1    4    4    0    0  0.80654535076E+02 -0.15368683547E+03  0.40863413103E+03  0.44396694749E+03  0.00000000000E+00 0.  1.
</event>
<event>
 8    1  0.6703334E-009  0.1177560E+03  0.7561462E-02  0.1246846E+00
          1   -1    0    0  501    0  0.00000000000E+00  0.00000000000E+00  0.19264864636E+03  0.19264864636E+03  0.00000000000E+00 0. -1.
         -1   -1    0    0    0  501 -0.00000000000E+00 -0.00000000000E+00 -0.12517024828E+03  0.12517024828E+03  0.00000000000E+00 0.  1.
         25    2    1    2    0    0  0.43995156819E+02 -0.84590155096E+02  0.93575669282E+02  0.18301526989E+03  0.12508842860E+03 0.  0.
         23    2    1    2    0    0 -0.43995156819E+02  0.84590155096E+02 -0.26097271198E+02  0.13480362475E+03  0.91650867534E+02 0.  0.
          5    1    3    3  502    0  0.35453527913E+02 -0.43442718205E+01  0.95643845942E+02  0.10218142202E+03  0.41800000000E+01 0. -1.
         -5    1    3    3    0  502  0.85416289063E+01 -0.80245883276E+02 -0.20681766607E+01  0.80833847872E+02  0.41800000000E+01 0. -1.
        -11    1    4    4    0    0  0.17559736655E+02  0.36932653776E+02 -0.38271859026E+02  0.56009824670E+02  0.00000000000E+00 0.  1.
         11    1    4    4    0    0 -0.61554893474E+02  0.47657501321E+02  0.12174587828E+02  0.78793800083E+02  0.00000000000E+00 0. -1.
</event>
<event>
 8    1  0.6703334E-009  0.2196285E+03  0.7561462E-02  0.1134160E+00
         -2   -1    0    0    0  501 -0.00000000000E+00  0.00000000000E+00  0.72776088167E+02  0.72776088167E+02  0.00000000000E+00 0.  1.
          2   -1    0    0  501    0  0.00000000000E+00 -0.00000000000E+00 -0.67654959601E+03  0.67654959601E+03  0.00000000000E+00 0. -1.
         25    2    1    2    0    0  0.19160541884E+03  0.29005107465E+01 -0.36659056979E+03  0.43215441782E+03  0.12509094888E+03 0.  0.
         23    2    1    2    0    0 -0.19160541884E+03 -0.29005107465E+01 -0.23718293805E+03  0.31717126636E+03  0.87297288669E+02 0.  0.
          5    1    3    3  502    0  0.19832891755E+03  0.29887771099E+02 -0.31706846634E+03  0.37520330908E+03  0.41800000000E+01 0.  1.
         -5    1    3    3    0  502 -0.67234987164E+01 -0.26987260352E+02 -0.49522103457E+02  0.56951108743E+02  0.41800000000E+01 0.  1.
        -11    1    4    4    0    0 -0.16653548297E+03 -0.34614174647E+02 -0.18875869519E+03  0.25409063971E+03  0.00000000000E+00 0.  1.
         11    1    4    4    0    0 -0.25069935867E+02  0.31713663900E+02 -0.48424242861E+02  0.63080626654E+02  0.00000000000E+00 0. -1.
</event>
<event>
 8    1  0.6703334E-009  0.1765528E+03  0.7561462E-02  0.1171182E+00
         -2   -1    0    0    0  501 -0.00000000000E+00  0.00000000000E+00  0.96654763126E+02  0.96654763126E+02  0.00000000000E+00 0.  1.
          2   -1    0    0  501    0  0.00000000000E+00 -0.00000000000E+00 -0.38036581959E+03  0.38036581959E+03  0.00000000000E+00 0. -1.
         25    2    1    2    0    0 -0.14910537090E+03 -0.41472970078E+02 -0.20521377898E+03  0.28585459839E+03  0.12509091679E+03 0.  0.
         23    2    1    2    0    0  0.14910537090E+03  0.41472970078E+02 -0.78497277493E+02  0.19116598433E+03  0.80188478672E+02 0.  0.
          5    1    3    3  502    0 -0.13096146161E+03  0.21376449326E+02 -0.14831973909E+03  0.19905796747E+03  0.41800000000E+01 0. -1.
         -5    1    3    3    0  502 -0.18143909289E+02 -0.62849419404E+02 -0.56894039890E+02  0.86796630918E+02  0.41800000000E+01 0. -1.
        -11    1    4    4    0    0  0.63162714715E+02  0.19136706080E+02 -0.78252376845E+02  0.10236784911E+03  0.00000000000E+00 0. -1.
         11    1    4    4    0    0  0.85942656185E+02  0.22336263998E+02 -0.24490064816E+00  0.88798135216E+02  0.00000000000E+00 0.  1.
</event>
<event>
 8    1  0.6703334E-009  0.7529108E+02  0.7561462E-02  0.1342972E+00
          1   -1    0    0  501    0  0.00000000000E+00  0.00000000000E+00  0.82046500523E+02  0.82046500523E+02  0.00000000000E+00 0. -1.
         -1   -1    0    0    0  501 -0.00000000000E+00 -0.00000000000E+00 -0.18675600500E+03  0.18675600500E+03  0.00000000000E+00 0.  1.
         25    2    1    2    0    0  0.33158052399E+01  0.34801004292E+02 -0.11620685566E+03  0.17428120541E+03  0.12509116992E+03 0.  0.
         23    2    1    2    0    0 -0.33158052399E+01 -0.34801004292E+02  0.11497351189E+02  0.94521300107E+02  0.87063095657E+02 0.  0.
          5    1    3    3  502    0 -0.25024347577E+02 -0.14851069683E+02  0.13591877766E+02  0.32388019137E+02  0.41800000000E+01 0.  1.
         -5    1    3    3    0  502  0.28340152817E+02  0.49652073975E+02 -0.12979873343E+03  0.14189318627E+03  0.41800000000E+01 0.  1.
        -11    1    4    4    0    0  0.24379559705E+02 -0.23769511635E+02  0.40512437388E+02  0.52920791735E+02  0.00000000000E+00 0. -1.
         11    1    4    4    0    0 -0.27695364945E+02 -0.11031492657E+02 -0.29015086199E+02  0.41600508372E+02  0.00000000000E+00 0.  1.
</event>
<event>
 8    1  0.6703334E-009  0.1136826E+03  0.7561462E-02  0.1253898E+00
          1   -1    0    0  501    0  0.00000000000E+00  0.00000000000E+00  0.11295923620E+03  0.11295923620E+03  0.00000000000E+00 0. -1.
         -1   -1    0    0    0  501 -0.00000000000E+00 -0.00000000000E+00 -0.13303747231E+03  0.13303747231E+03  0.00000000000E+00 0.  1.
         25    2    1    2    0    0 -0.50959760550E+02 -0.43408076470E+02 -0.55523858020E+01  0.14194694698E+03  0.12504778475E+03 0.  0.
         23    2    1    2    0    0  0.50959760550E+02  0.43408076470E+02 -0.14525850307E+02  0.10404976153E+03  0.78321097092E+02 0.  0.
          5    1    3    3  502    0 -0.20780566803E+02 -0.85310767955E+02  0.83654843638E+01  0.88301827922E+02  0.41800000000E+01 0. -1.
         -5    1    3    3    0  502 -0.30179193746E+02  0.41902691485E+02 -0.13917870166E+02  0.53645119059E+02  0.41800000000E+01 0. -1.
        -11    1    4    4    0    0  0.14105588450E+02  0.48443935078E+02 -0.35174360482E+02  0.61506244453E+02  0.00000000000E+00 0.  1.
         11    1    4    4    0    0  0.36854172099E+02 -0.50358586078E+01  0.20648510176E+02  0.42543517080E+02  0.00000000000E+00 0. -1.
</event>
<event>
 8    1  0.6703334E-009  0.9589965E+02  0.7561462E-02  0.1289163E+00
          2   -1    0    0  501    0  0.00000000000E+00  0.00000000000E+00  0.22079085572E+03  0.22079085572E+03  0.00000000000E+00 0. -1.
         -2   -1    0    0    0  501 -0.00000000000E+00 -0.00000000000E+00 -0.16839248628E+03  0.16839248628E+03  0.00000000000E+00 0.  1.
         25    2    1    2    0    0 -0.25855765535E+02 -0.26913466091E+02  0.18342640620E+03  0.22512009544E+03  0.12506380616E+03 0.  0.
         23    2    1    2    0    0  0.25855765535E+02  0.26913466091E+02 -0.13102803676E+03  0.16406324656E+03  0.91408682225E+02 0.  0.
          5    1    3    3  502    0  0.37550691856E+02 -0.25012329680E+02  0.19558188258E+02  0.49352469268E+02  0.41800000000E+01 0.  1.
         -5    1    3    3    0  502 -0.63406457391E+02 -0.19011364112E+01  0.16386821794E+03  0.17576762617E+03  0.41800000000E+01 0.  1.
        -11    1    4    4    0    0  0.33591726865E+02 -0.17469698572E+02 -0.10592637334E+03  0.11248995977E+03  0.00000000000E+00 0.  1.
         11    1    4    4    0    0 -0.77359613304E+01  0.44383164663E+02 -0.25101663425E+02  0.51573286786E+02  0.00000000000E+00 0. -1.
</event>
<event>
 8    1  0.6703334E-009  0.1751455E+03  0.7561462E-02  0.1172586E+00
         -2   -1    0    0    0  501 -0.00000000000E+00  0.00000000000E+00  0.23110600243E+02  0.23110600243E+02  0.00000000000E+00 0.  1.
          2   -1    0    0  501    0  0.00000000000E+00 -0.00000000000E+00 -0.20938877469E+04  0.20938877469E+04  0.00000000000E+00 0. -1.
         25    2    1    2    0    0 -0.28741034330E+02 -0.13575997888E+03 -0.17096435512E+04  0.17198213673E+04  0.12509054358E+03 0.  0.
         23    2    1    2    0    0  0.28741034330E+02  0.13575997888E+03 -0.36113359539E+03  0.39717697985E+03  0.89862454246E+02 0.  0.
          5    1    3    3  502    0  0.49355506615E+01 -0.14859308338E+03 -0.14597905050E+04  0.14673479666E+04  0.41800000000E+01 0. -1.
         -5    1    3    3    0  502 -0.33676584992E+02  0.12833104499E+02 -0.24985304621E+03  0.25247340068E+03  0.41800000000E+01 0. -1.
        -11    1    4    4    0    0 -0.31738740897E+02  0.63936898533E+02 -0.15126760954E+03  0.16726375688E+03  0.00000000000E+00 0.  1.
         11    1    4    4    0    0  0.60479775227E+02  0.71823080346E+02 -0.20986598585E+03  0.22991322297E+03  0.00000000000E+00 0. -1.
</event>
<event>
 8    1  0.6703334E-009  0.1262386E+03  0.7561462E-02  0.1233146E+00
         -2   -1    0    0    0  501 -0.00000000000E+00  0.00000000000E+00  0.18576910429E+02  0.18576910429E+02  0.00000000000E+00 0.  1.
          2   -1    0    0  501    0  0.00000000000E+00 -0.00000000000E+00 -0.13269952093E+04  0.13269952093E+04  0.00000000000E+00 0. -1.
         25    2    1    2    0    0  0.86296329409E+02  0.28835252295E+02 -0.99242589600E+03  0.10044080108E+04  0.12509102628E+03 0.  0.
         23    2    1    2    0    0 -0.86296329409E+02 -0.28835252295E+02 -0.31599240288E+03  0.34116410894E+03  0.90902267892E+02 0.  0.
          5    1    3    3  502    0  0.44317997928E+02 -0.31337803109E+02 -0.72584006935E+03  0.72787871347E+03  0.41800000000E+01 0. -1.
         -5    1    3    3    0  502  0.41978331480E+02  0.60173055404E+02 -0.26658582665E+03  0.27652929733E+03  0.41800000000E+01 0. -1.
        -11    1    4    4    0    0 -0.66375680729E+02  0.22019846200E+02 -0.21845723574E+03  0.22937778547E+03  0.00000000000E+00 0. -1.
         11    1    4    4    0    0 -0.19920648679E+02 -0.50855098495E+02 -0.97535167135E+02  0.11178632347E+03  0.00000000000E+00 0.  1.
</event>
<event>
 8    1  0.6703334E-009  0.2339676E+03  0.7561462E-02  0.1123878E+00
          2   -1    0    0  501    0  0.00000000000E+00  0.00000000000E+00  0.19559401083E+03  0.19559401083E+03  0.00000000000E+00 0. -1.
         -2   -1    0    0    0  501 -0.00000000000E+00 -0.00000000000E+00 -0.32817812129E+03  0.32817812129E+03  0.00000000000E+00 0.  1.
         25    2    1    2    0    0  0.53202873984E+02  0.20691921523E+03  0.16823830787E+02  0.24814556280E+03  0.12508825533E+03 0.  0.
         23    2    1    2    0    0 -0.53202873984E+02 -0.20691921523E+03 -0.14940794125E+03  0.27562656932E+03  0.89449233487E+02 0.  0.
          5    1    3    3  502    0  0.87373976758E+02  0.19008602300E+03  0.13569160516E+02  0.20968667691E+03  0.41800000000E+01 0. -1.
         -5    1    3    3    0  502 -0.34171102774E+02  0.16833192232E+02  0.32546702715E+01  0.38458885892E+02  0.41800000000E+01 0. -1.
        -11    1    4    4    0    0 -0.58932807406E+02 -0.12444419291E+03 -0.50370259561E+02  0.14661717493E+03  0.00000000000E+00 0.  1.
         11    1    4    4    0    0  0.57299334228E+01 -0.82475022326E+02 -0.99037681687E+02  0.12900939438E+03  0.00000000000E+00 0. -1.
</event>
<event>
 8    1  0.6703334E-009  0.3980234E+03  0.7561462E-02  0.1044466E+00
          2   -1    0    0  501    0  0.00000000000E+00  0.00000000000E+00  0.20338117007E+04  0.20338117007E+04  0.00000000000E+00 0. -1.
         -2   -1    0    0    0  501 -0.00000000000E+00 -0.00000000000E+00 -0.84028352544E+02  0.84028352544E+02  0.00000000000E+00 0.  1.
         25    2    1    2    0    0  0.17395661221E+02  0.39157471288E+03  0.79835354860E+03  0.89813547921E+03  0.12508231549E+03 0.  0.
         23    2    1    2    0    0 -0.17395661221E+02 -0.39157471288E+03  0.11514297995E+04  0.12197045740E+04  0.90858680461E+02 0.  0.
          5    1    3    3  502    0 -0.55393422958E+01  0.62021558958E+01  0.97794933861E+02  0.98236818657E+02  0.41800000000E+01 0. -1.
         -5    1    3    3    0  502  0.22935003517E+02  0.38537255699E+03  0.70055861474E+03  0.79989866055E+03  0.41800000000E+01 0. -1.
        -11    1    4    4    0    0  0.33446076435E+02 -0.17848353294E+03  0.46669376399E+03  0.50077747644E+03  0.00000000000E+00 0.  1.
         11    1    4    4    0    0 -0.50841737656E+02 -0.21309117995E+03  0.68473603552E+03  0.71892709756E+03  0.00000000000E+00 0. -1.
</event>
<event>
 8    1  0.6703334E-009  0.1160662E+03  0.7561462E-02  0.1249731E+00
          2   -1    0    0  501    0  0.00000000000E+00  0.00000000000E+00  0.14113884679E+03  0.14113884679E+03  0.00000000000E+00 0.  1.
         -2   -1    0    0    0  501 -0.00000000000E+00 -0.00000000000E+00 -0.11048901214E+03  0.11048901214E+03  0.00000000000E+00 0. -1.
         25    2    1    2    0    0 -0.42485985168E+02  0.36205888879E+02  0.45714902112E+02  0.14440802848E+03  0.12509157082E+03 0.  0.
         23    2    1    2    0    0  0.42485985168E+02 -0.36205888879E+02 -0.15065067464E+02  0.10721983045E+03  0.90295129768E+02 0.  0.
          5    1    3    3  502    0 -0.66209995181E+02  0.69365963623E+02  0.31198686361E+02  0.10092685867E+03  0.41800000000E+01 0.  1.
         -5    1    3    3    0  502  0.23724010013E+02 -0.33160074745E+02  0.14516215751E+02  0.43481169808E+02  0.41800000000E+01 0.  1.
        -11    1    4    4    0    0  0.59429860528E+01 -0.54133306869E+02  0.15150801583E+02  0.56526814738E+02  0.00000000000E+00 0.  1.
         11    1    4    4    0    0  0.36542999116E+02  0.17927417991E+02 -0.30215869047E+02  0.50693015717E+02  0.00000000000E+00 0. -1.
</event>
<event>
 8    1  0.6703334E-009  0.1005446E+03  0.7561462E-02  0.1279155E+00
          1   -1    0    0  501    0  0.00000000000E+00  0.00000000000E+00  0.56122189597E+02  0.56122189597E+02  0.00000000000E+00 0. -1.
         -1   -1    0    0    0  501 -0.00000000000E+00 -0.00000000000E+00 -0.28130513822E+03  0.28130513822E+03  0.00000000000E+00 0.  1.
         25    2    1    2    0    0  0.58482979437E+02  0.16971980165E+02 -0.15238202385E+03  0.20634270916E+03  0.12509486574E+03 0.  0.
         23    2    1    2    0    0 -0.58482979437E+02 -0.16971980165E+02 -0.72800924764E+02  0.13108461865E+03  0.90415129299E+02 0.  0.
          5    1    3    3  502    0  0.71717792756E+02 -0.12156283062E+02 -0.15762835936E+03  0.17365307107E+03  0.41800000000E+01 0.  1.
         -5    1    3    3    0  502 -0.13234813320E+02  0.29128263228E+02  0.52463355098E+01  0.32689638092E+02  0.41800000000E+01 0.  1.
        -11    1    4    4    0    0 -0.44925561599E+02 -0.45769099543E+02 -0.75593205260E+02  0.99133492017E+02  0.00000000000E+00 0.  1.
         11    1    4    4    0    0 -0.13557417838E+02  0.28797119377E+02  0.27922804968E+01  0.31951126635E+02  0.00000000000E+00 0. -1.
</event>
<event>
 8    1  0.6703334E-009  0.1472664E+03  0.7561462E-02  0.1203873E+00
         -1   -1    0    0    0  501 -0.00000000000E+00  0.00000000000E+00  0.29181219777E+03  0.29181219777E+03  0.00000000000E+00 0.  1.
          1   -1    0    0  501    0  0.00000000000E+00 -0.00000000000E+00 -0.92571476892E+02  0.92571476892E+02  0.00000000000E+00 0. -1.
         25    2    1    2    0    0  0.71331724301E+02  0.87615221405E+02  0.49488610321E+02  0.17567330690E+03  0.12508935323E+03 0.  0.
         23    2    1    2    0    0 -0.71331724301E+02 -0.87615221405E+02  0.14975211056E+03  0.20871036776E+03  0.91485961119E+02 0.  0.
          5    1    3    3  502    0 -0.22977628782E+02  0.38927058425E+02  0.52510124187E+02  0.69412339279E+02  0.41800000000E+01 0. -1.
         -5    1    3    3    0  502  0.94309353084E+02  0.48688162980E+02 -0.30215138652E+01  0.10626096762E+03  0.41800000000E+01 0. -1.
        -11    1    4    4    0    0  0.20247256888E+02 -0.24068525112E+02  0.50312425503E+02  0.59334521761E+02  0.00000000000E+00 0.  1.
         11    1    4    4    0    0 -0.91578981189E+02 -0.63546696293E+02  0.99439685054E+02  0.14937584600E+03  0.00000000000E+00 0. -1.
</event>
<event>
 8    1  0.6703334E-009  0.1386854E+03  0.7561462E-02  0.1215109E+00
         -1   -1    0    0    0  501 -0.00000000000E+00  0.00000000000E+00  0.51994453104E+03  0.51994453104E+03  0.00000000000E+00 0.  1.
          1   -1    0    0  501    0  0.00000000000E+00 -0.00000000000E+00 -0.77799757968E+02  0.77799757968E+02  0.00000000000E+00 0. -1.
         25    2    1    2    0    0 -0.84941419254E+02 -0.19778487804E+02  0.44577764726E+03  0.47113856158E+03  0.12509036783E+03 0.  0.
         23    2    1    2    0    0  0.84941419254E+02  0.19778487804E+02 -0.36328741828E+01  0.12660572744E+03  0.91703757610E+02 0.  0.
          5    1    3    3  502    0  0.93370496298E+01 -0.51825896029E+02  0.15326893131E+03  0.16211706172E+03  0.41800000000E+01 0.  1.
         -5    1    3    3    0  502 -0.94278468884E+02  0.32047408225E+02  0.29250871595E+03  0.30902149986E+03  0.41800000000E+01 0.  1.
        -11    1    4    4    0    0  0.29735671660E+02  0.52767651278E+02 -0.12017769257E+02  0.61749995696E+02  0.00000000000E+00 0.  1.
         11    1    4    4    0    0  0.55205747594E+02 -0.32989163474E+02  0.83848950741E+01  0.64855731740E+02  0.00000000000E+00 0. -1.
</event>
<event>
 8    1  0.6703334E-009  0.1667204E+03  0.7561462E-02  0.1181312E+00
          2   -1    0    0  501    0  0.00000000000E+00  0.00000000000E+00  0.69808217324E+03  0.69808217324E+03  0.00000000000E+00 0. -1.
         -2   -1    0    0    0  501 -0.00000000000E+00 -0.00000000000E+00 -0.42786900425E+02  0.42786900425E+02  0.00000000000E+00 0.  1.
         25    2    1    2    0    0  0.12198501126E+03  0.52305220565E+02  0.30529762743E+03  0.35562706117E+03  0.12509111181E+03 0.  0.
         23    2    1    2    0    0 -0.12198501126E+03 -0.52305220565E+02  0.34999764538E+03  0.38524201249E+03  0.91087196367E+02 0.  0.
          5    1    3    3  502    0  0.46263986255E+02  0.87014125650E+02  0.17627291102E+03  0.20199362873E+03  0.41800000000E+01 0. -1.
         -5    1    3    3    0  502  0.75721025009E+02 -0.34708905085E+02  0.12902471641E+03  0.15363343244E+03  0.41800000000E+01 0. -1.
        -11    1    4    4    0    0 -0.54460618633E+02 -0.62735626293E+02  0.25524266240E+03  0.26842230626E+03  0.00000000000E+00 0. -1.
         11    1    4    4    0    0 -0.67524392631E+02  0.10430405728E+02  0.94754982988E+02  0.11681970624E+03  0.00000000000E+00 0.  1.
</event>
<event>
 8    1  0.6703334E-009  0.7110564E+02  0.7561462E-02  0.1356373E+00
          2   -1    0    0  501    0  0.00000000000E+00  0.00000000000E+00  0.47951718760E+02  0.47951718760E+02  0.00000000000E+00 0. -1.
         -2   -1    0    0    0  501 -0.00000000000E+00 -0.00000000000E+00 -0.35856455437E+03  0.35856455437E+03  0.00000000000E+00 0.  1.
         25    2    1    2    0    0  0.27302904365E+01  0.69293754029E+02 -0.20206586832E+03  0.24756170293E+03  0.12508837989E+03 0.  0.
         23    2    1    2    0    0 -0.27302904365E+01 -0.69293754029E+02 -0.10854696729E+03  0.15895457020E+03  0.93139854232E+02 0.  0.
          5    1    3    3  502    0  0.45479147471E+01  0.52348833735E+02 -0.87286452194E+01  0.53429819102E+02  0.41800000000E+01 0.  1.
         -5    1    3    3    0  502 -0.18176243106E+01  0.16944920294E+02 -0.19333722310E+03  0.19413188383E+03  0.41800000000E+01 0.  1.
        -11    1    4    4    0    0  0.79610123038E+01 -0.39596727933E+02 -0.11903045721E+03  0.12569617466E+03  0.00000000000E+00 0.  1.
         11    1    4    4    0    0 -0.10691302740E+02 -0.29697026096E+02  0.10483489920E+02  0.33258395543E+02  0.00000000000E+00 0. -1.
</event>
<event>
 8    1  0.6703334E-009  0.1428741E+03  0.7561462E-02  0.1209513E+00
          2   -1    0    0  501    0  0.00000000000E+00  0.00000000000E+00  0.17006335188E+03  0.17006335188E+03  0.00000000000E+00 0. -1.
         -2   -1    0    0    0  501 -0.00000000000E+00 -0.00000000000E+00 -0.15819721949E+03  0.15819721949E+03  0.00000000000E+00 0.  1.
         25    2    1    2    0    0 -0.88173910302E+02 -0.84375283472E+02  0.10114433174E+02  0.17505568782E+03  0.12509342572E+03 0.  0.
         23    2    1    2    0    0  0.88173910302E+02  0.84375283472E+02  0.17516992223E+01  0.15320488356E+03  0.92600437235E+02 0.  0.
          5    1    3    3  502    0 -0.12320448120E+02 -0.54352195599E+02 -0.48917305092E+02  0.74271998396E+02  0.41800000000E+01 0. -1.
         -5    1    3    3    0  502 -0.75853462182E+02 -0.30023087873E+02  0.59031738266E+02  0.10078368942E+03  0.41800000000E+01 0. -1.
        -11    1    4    4    0    0  0.69462644895E+02  0.84465157561E+01  0.20251910626E+02  0.72846019439E+02  0.00000000000E+00 0. -1.
         11    1    4    4    0    0  0.18711265407E+02  0.75928767716E+02 -0.18500211404E+02  0.80358864116E+02  0.00000000000E+00 0.  1.
</event>
<event>
 8    1  0.6703334E-009  0.1935467E+03  0.7561462E-02  0.1155301E+00
          1   -1    0    0  501    0  0.00000000000E+00  0.00000000000E+00  0.17965740618E+03  0.17965740618E+03  0.00000000000E+00 0. -1.
         -1   -1    0    0    0  501 -0.00000000000E+00 -0.00000000000E+00 -0.23734407057E+03  0.23734407057E+03  0.00000000000E+00 0.  1.
         25    2    1    2    0    0  0.11789978642E+03 -0.12963048056E+03 -0.31011894715E+02  0.21751811113E+03  0.12509184597E+03 0.  0.
         23    2    1    2    0    0 -0.11789978642E+03  0.12963048056E+03 -0.26674769670E+02  0.19948336563E+03  0.91529496320E+02 0.  0.
          5    1    3    3  502    0  0.12168019590E+03 -0.83399410694E+02  0.19444758072E+02  0.14885262105E+03  0.41800000000E+01 0.  1.
         -5    1    3    3    0  502 -0.37804094791E+01 -0.46231069865E+02 -0.50456652786E+02  0.68665490074E+02  0.41800000000E+01 0.  1.
        -11    1    4    4    0    0 -0.10183837257E+03  0.53304337087E+02 -0.37117743698E+02  0.12078962446E+03  0.00000000000E+00 0.  1.
         11    1    4    4    0    0 -0.16061413851E+02  0.76326143471E+02  0.10442974029E+02  0.78693741166E+02  0.00000000000E+00 0. -1.
</event>
<event>
 8    1  0.6703334E-009  0.2047447E+03  0.7561462E-02  0.1145797E+00
          2   -1    0    0  501    0  0.00000000000E+00  0.00000000000E+00  0.12672260322E+04  0.12672260322E+04  0.00000000000E+00 0. -1.
         -2   -1    0    0    0  501 -0.00000000000E+00 -0.00000000000E+00 -0.43174723904E+02  0.43174723904E+02  0.00000000000E+00 0.  1.
         25    2    1    2    0    0  0.17676011591E+03 -0.89163706140E+02  0.78748021181E+03  0.82156298004E+03  0.12508533532E+03 0.  0.
         23    2    1    2    0    0 -0.17676011591E+03  0.89163706140E+02  0.43657109652E+03  0.48883777609E+03  0.95779663573E+02 0.  0.
          5    1    3    3  502    0  0.30809093438E+02 -0.17815006014E+02  0.29667339844E+02  0.46520942931E+02  0.41800000000E+01 0.  1.
         -5    1    3    3    0  502  0.14595102247E+03 -0.71348700126E+02  0.75781287196E+03  0.77504203711E+03  0.41800000000E+01 0.  1.
        -11    1    4    4    0    0 -0.74153961210E+02  0.78499331158E+02  0.15451964988E+03  0.18851333416E+03  0.00000000000E+00 0.  1.
         11    1    4    4    0    0 -0.10260615470E+03  0.10664374981E+02  0.28205144664E+03  0.30032444194E+03  0.00000000000E+00 0. -1.
</event>
<event>
 8    1  0.6703334E-009  0.2310794E+03  0.7561462E-02  0.1125882E+00
         -1   -1    0    0    0  501 -0.00000000000E+00  0.00000000000E+00  0.26693384791E+02  0.26693384791E+02  0.00000000000E+00 0.  1.
          1   -1    0    0  501    0  0.00000000000E+00 -0.00000000000E+00 -0.21892630387E+04  0.21892630387E+04  0.00000000000E+00 0. -1.
         25    2    1    2    0    0  0.20135690439E+03  0.67006375738E+02 -0.12964427032E+04  0.13196393217E+04  0.12509915899E+03 0.  0.
         23    2    1    2    0    0 -0.20135690439E+03 -0.67006375738E+02 -0.86612695077E+03  0.89631710177E+03  0.90410147286E+02 0.  0.
          5    1    3    3  502    0  0.87333634605E+02 -0.25891446386E+02 -0.34316547571E+03  0.35507400194E+03  0.41800000000E+01 0.  1.
         -5    1    3    3    0  502  0.11402326979E+03  0.92897822124E+02 -0.95327722744E+03  0.96456531980E+03  0.41800000000E+01 0.  1.
        -11    1    4    4    0    0 -0.37406239202E+02  0.15265965821E+02 -0.87541307073E+02  0.96414505588E+02  0.00000000000E+00 0.  1.
         11    1    4    4    0    0 -0.16395066519E+03 -0.82272341559E+02 -0.77858564370E+03  0.79990259618E+03  0.00000000000E+00 0. -1.
</event>
<event>
 8    1  0.6703334E-009  0.1121380E+03  0.7561462E-02  0.1256661E+00
         -2   -1    0    0    0  501 -0.00000000000E+00  0.00000000000E+00  0.44565761303E+03  0.44565761303E+03  0.00000000000E+00 0.  1.
          2   -1    0    0  501    0  0.00000000000E+00 -0.00000000000E+00 -0.40492919975E+02  0.40492919975E+02  0.00000000000E+00 0. -1.
         25    2    1    2    0    0 -0.78261067680E+02  0.10358719872E+02  0.21669181439E+03  0.26236510242E+03  0.12509199317E+03 0.  0.
         23    2    1    2    0    0  0.78261067680E+02 -0.10358719872E+02  0.18847287866E+03  0.22378543058E+03  0.91245795267E+02 0.  0.
          5    1    3    3  502    0 -0.90318823447E+01 -0.39007673247E+02  0.14169901386E+02  0.42678237735E+02  0.41800000000E+01 0. -1.
         -5    1    3    3    0  502 -0.69229185335E+02  0.49366393119E+02  0.20252191300E+03  0.21968686469E+03  0.41800000000E+01 0. -1.
        -11    1    4    4    0    0  0.32557414865E+02  0.25045091399E+02  0.20033609485E+02  0.45701065358E+02  0.00000000000E+00 0. -1.
         11    1    4    4    0    0  0.45703652815E+02 -0.35403811270E+02  0.16843926918E+03  0.17808436522E+03  0.00000000000E+00 0.  1.
</event>
<event>
 8    1  0.6703334E-009  0.1619570E+03  0.7561462E-02  0.1186505E+00
         -2   -1    0    0    0  501 -0.00000000000E+00  0.00000000000E+00  0.50733824152E+02  0.50733824152E+02  0.00000000000E+00 0.  1.
          2   -1    0    0  501    0  0.00000000000E+00 -0.00000000000E+00 -0.87393483141E+03  0.87393483141E+03  0.00000000000E+00 0. -1.
         25    2    1    2    0    0 -0.10119143309E+03  0.10376361538E+03 -0.66434018353E+03  0.69137621346E+03  0.12508635049E+03 0.  0.
         23    2    1    2    0    0  0.10119143309E+03 -0.10376361538E+03 -0.15886082372E+03  0.23329244210E+03  0.90454453830E+02 0.  0.
          5    1    3    3  502    0 -0.11542240478E+03  0.10201901336E+03 -0.43390576847E+03  0.46045835743E+03  0.41800000000E+01 0. -1.
         -5    1    3    3    0  502  0.14230971689E+02  0.17446020193E+01 -0.23043441506E+03  0.23091785604E+03  0.41800000000E+01 0. -1.
        -11    1    4    4    0    0  0.43174147736E+02 -0.95272119336E+01 -0.60586193487E+01  0.44626020082E+02  0.00000000000E+00 0.  1.
         11    1    4    4    0    0  0.58017285359E+02 -0.94236403441E+02 -0.15280220437E+03  0.18866642201E+03  0.00000000000E+00 0. -1.
</event>
<event>
 7    1  0.6703334E-009  0.8642343E+02  0.7561462E-02  0.1311752E+00
          2   -1    0    0  501    0  0.00000000000E+00  0.00000000000E+00  0.23621349411E+03  0.23621349411E+03  0.00000000000E+00 0. -1.
         -2   -1    0    0    0  501 -0.00000000000E+00 -0.00000000000E+00 -0.63441054722E+02  0.63441054722E+02  0.00000000000E+00 0.  1.
         23    2    1    2    0    0 -0.14714279266E+02 -0.55604428261E+02  0.62511082614E+02  0.12343018488E+03  0.89548939881E+02 0.  0.
          5    1    1    2  502    0  0.26470043377E+02  0.54335558728E+02  0.13528646536E+03  0.14823264232E+03  0.41800000000E+01 0.  1.
         -5    1    1    2    0  502 -0.11755764111E+02  0.12688695328E+01 -0.25025108592E+02  0.27991721629E+02  0.41800000000E+01 0.  1.
        -11    1    3    3    0    0 -0.60026779098E+01 -0.76680769580E+02  0.64714289998E+02  0.10051821673E+03  0.00000000000E+00 0.  1.
         11    1    3    3    0    0 -0.87116013566E+01  0.21076341320E+02 -0.22032073841E+01  0.22911968148E+02  0.00000000000E+00 0. -1.
</event>
<event>
 8    1  0.6703334E-009  0.2627298E+03  0.7561462E-02  0.1105514E+00
         -1   -1    0    0    0  501 -0.00000000000E+00  0.00000000000E+00  0.86388344297E+03  0.86388344297E+03  0.00000000000E+00 0.  1.
          1   -1    0    0  501    0  0.00000000000E+00 -0.00000000000E+00 -0.11323546024E+03  0.11323546024E+03  0.00000000000E+00 0. -1.
         25    2    1    2    0    0  0.16490262080E+03 -0.19848012817E+03  0.59956132509E+03  0.66461190356E+03  0.12509182304E+03 0.  0.
         23    2    1    2    0    0 -0.16490262080E+03  0.19848012817E+03  0.15108665764E+03  0.31250699965E+03  0.90808650967E+02 0.  0.
          5    1    3    3  502    0 -0.45851826377E+01 -0.83464932911E+01  0.12987086170E+03  0.13028661086E+03  0.41800000000E+01 0. -1.
         -5    1    3    3    0  502  0.16948780343E+03 -0.19013363488E+03  0.46969046339E+03  0.53432529271E+03  0.41800000000E+01 0. -1.
        -11    1    4    4    0    0 -0.30613844326E+02  0.60330418152E+02 -0.24302019453E-01  0.67653288238E+02  0.00000000000E+00 0.  1.
         11    1    4    4    0    0 -0.13428877647E+03  0.13814971002E+03  0.15111095966E+03  0.24485371141E+03  0.00000000000E+00 0. -1.
</event>
<event>
 8    1  0.6703334E-009  0.1587532E+03  0.7561462E-02  0.1190112E+00
         -1   -1    0    0    0  501 -0.00000000000E+00  0.00000000000E+00  0.77632954465E+02  0.77632954465E+02  0.00000000000E+00 0.  1.
          1   -1    0    0  501    0  0.00000000000E+00 -0.00000000000E+00 -0.37662477628E+03  0.37662477628E+03  0.00000000000E+00 0. -1.
         25    2    1    2    0    0 -0.12515499913E+03 -0.47167605702E+01 -0.10343097848E+03  0.20501750810E+03  0.12509272433E+03 0.  0.
         23    2    1    2    0    0  0.12515499913E+03  0.47167605702E+01 -0.19556084334E+03  0.24924022265E+03  0.90502063514E+02 0.  0.
          5    1    3    3  502    0 -0.15020279438E+03 -0.32013185877E+01 -0.96652561426E+02  0.17869056469E+03  0.41800000000E+01 0. -1.
         -5    1    3    3    0  502  0.25047795251E+02 -0.15154419825E+01 -0.67784170516E+01  0.26326943405E+02  0.41800000000E+01 0. -1.
        -11    1    4    4    0    0  0.50561151026E+02  0.34758249497E+02 -0.37525804256E+02  0.71921845681E+02  0.00000000000E+00 0.  1.
         11    1    4    4    0    0  0.74593848104E+02 -0.30041488927E+02 -0.15803503908E+03  0.17731837697E+03  0.00000000000E+00 0. -1.
</event>
<event>
 8    1  0.6703334E-009  0.3619177E+03  0.7561462E-02  0.1057827E+00
         -1   -1    0    0    0  501 -0.00000000000E+00  0.00000000000E+00  0.57062117567E+03  0.57062117567E+03  0.00000000000E+00 0.  1.
          1   -1    0    0  501    0  0.00000000000E+00 -0.00000000000E+00 -0.23455949503E+03  0.23455949503E+03  0.00000000000E+00 0. -1.
         25    2    1    2    0    0  0.84226251463E+02  0.33679699139E+03  0.12946062607E+03  0.39106438119E+03  0.12508006110E+03 0.  0.
         23    2    1    2    0    0 -0.84226251463E+02 -0.33679699139E+03  0.20660105457E+03  0.41411628952E+03  0.91005662726E+02 0.  0.
          5    1    3    3  502    0  0.14985283657E+02  0.27071660490E+03  0.11341518839E+03  0.29392603875E+03  0.41800000000E+01 0. -1.
         -5    1    3    3    0  502  0.69240967805E+02  0.66080386490E+02  0.16045437676E+02  0.97138342437E+02  0.41800000000E+01 0. -1.
        -11    1    4    4    0    0 -0.85425228931E+02 -0.17179677379E+03  0.13292090786E+03  0.23340858804E+03  0.00000000000E+00 0.  1.
         11    1    4    4    0    0  0.11989774685E+01 -0.16500021760E+03  0.73680146712E+02  0.18070770148E+03  0.00000000000E+00 0. -1.
</event>
<event>
 8    1  0.6703334E-009  0.2109291E+03  0.7561462E-02  0.1140832E+00
          1   -1    0    0  501    0  0.00000000000E+00  0.00000000000E+00  0.68203685523E+03  0.68203685523E+03  0.00000000000E+00 0. -1.
         -1   -1    0    0    0  501 -0.00000000000E+00 -0.00000000000E+00 -0.10508226269E+03  0.10508226269E+03  0.00000000000E+00 0.  1.
         25    2    1    2    0    0 -0.19005446259E+03  0.11844055583E+02  0.70459206487E+02  0.23848251552E+03  0.12509368500E+03 0.  0.
         23    2    1    2    0    0  0.19005446259E+03 -0.11844055583E+02  0.50649538606E+03  0.54863660239E+03  0.90573533605E+02 0.  0.
          5    1    3    3  502    0 -0.78822328995E+02 -0.52030695951E+02  0.56418075643E+01  0.94707208078E+02  0.41800000000E+01 0.  1.
         -5    1    3    3    0  502 -0.11123213359E+03  0.63874751534E+02  0.64817398922E+02  0.14377530744E+03  0.41800000000E+01 0.  1.
        -11    1    4    4    0    0  0.78624623189E+02  0.23535867505E+02  0.30330136893E+03  0.31420930735E+03  0.00000000000E+00 0. -1.
         11    1    4    4    0    0  0.11142983940E+03 -0.35379923087E+02  0.20319401712E+03  0.23442729504E+03  0.00000000000E+00 0.  1.
</event>
<event>
 8    1  0.6703334E-009  0.7769535E+02  0.7561462E-02  0.1335722E+00
         -2   -1    0    0    0  501 -0.00000000000E+00  0.00000000000E+00  0.27685773324E+03  0.27685773324E+03  0.00000000000E+00 0.  1.
          2   -1    0    0  501    0  0.00000000000E+00 -0.00000000000E+00 -0.70307300354E+02  0.70307300354E+02  0.00000000000E+00 0. -1.
         25    2    1    2    0    0 -0.24994893862E+02  0.14694622617E+02  0.87899313959E+01  0.12870890415E+03  0.12509213589E+03 0.  0.
         23    2    1    2    0    0  0.24994893862E+02 -0.14694622617E+02  0.19776050149E+03  0.21845612945E+03  0.88165684303E+02 0.  0.
          5    1    3    3  502    0 -0.48875100833E+02  0.29716846929E+02 -0.41570120022E+02  0.70833704911E+02  0.41800000000E+01 0.  1.
         -5    1    3    3    0  502  0.23880206971E+02 -0.15022224312E+02  0.50360051418E+02  0.57875199240E+02  0.41800000000E+01 0.  1.
        -11    1    4    4    0    0 -0.21450901757E+02 -0.58886903584E+01  0.92201525132E+01  0.24079640211E+02  0.00000000000E+00 0. -1.
         11    1    4    4    0    0  0.46445795620E+02 -0.88059322584E+01  0.18854034898E+03  0.19437648924E+03  0.00000000000E+00 0.  1.
</event>
<event>
 8    1  0.6703334E-009  0.1233200E+03  0.7561462E-02  0.1237719E+00
          2   -1    0    0  501    0  0.00000000000E+00  0.00000000000E+00  0.10614169727E+04  0.10614169727E+04  0.00000000000E+00 0. -1.
         -2   -1    0    0    0  501 -0.00000000000E+00 -0.00000000000E+00 -0.20791353438E+02  0.20791353438E+02  0.00000000000E+00 0.  1.
         25    2    1    2    0    0  0.60375431489E+02  0.83230831816E+02  0.56340684483E+03  0.58621437858E+03  0.12508981076E+03 0.  0.
         23    2    1    2    0    0 -0.60375431489E+02 -0.83230831816E+02  0.47721877441E+03  0.49599394754E+03  0.87747782049E+02 0.  0.
          5    1    3    3  502    0  0.29215396026E+02  0.15021884901E+00  0.20133446970E+02  0.35726600979E+02  0.41800000000E+01 0. -1.
         -5    1    3    3    0  502  0.31160035463E+02  0.83080612967E+02  0.54327339786E+03  0.55048777760E+03  0.41800000000E+01 0. -1.
        -11    1    4    4    0    0 -0.61667602483E+02 -0.19678979864E+02  0.31866267262E+03  0.32517080799E+03  0.00000000000E+00 0.  1.
         11    1    4    4    0    0  0.12921709943E+01 -0.63551851951E+02  0.15855610179E+03  0.17082313955E+03  0.00000000000E+00 0. -1.
</event>
<event>
 8    1  0.6703334E-009  0.1645426E+03  0.7561462E-02  0.1183662E+00
          1   -1    0    0  501    0  0.00000000000E+00  0.00000000000E+00  0.11145003292E+04  0.11145003292E+04  0.00000000000E+00 0. -1.
         -1   -1    0    0    0  501 -0.00000000000E+00 -0.00000000000E+00 -0.28497879060E+02  0.28497879060E+02  0.00000000000E+00 0.  1.
         25    2    1    2    0    0  0.51507605686E+02  0.12864405457E+03  0.48743343595E+03  0.52195833784E+03  0.12508727248E+03 0.  0.
         23    2    1    2    0    0 -0.51507605686E+02 -0.12864405457E+03  0.59856901420E+03  0.62103987044E+03  0.90572234618E+02 0.  0.
          5    1    3    3  502    0 -0.24029868386E+02  0.62097609113E+02  0.90479884244E+02  0.11241721169E+03  0.41800000000E+01 0.  1.
         -5    1    3    3    0  502  0.75537474072E+02  0.66546445459E+02  0.39695355171E+03  0.40954112615E+03  0.41800000000E+01 0.  1.
        -11    1    4    4    0    0 -0.65985357473E+02 -0.53109582042E+02  0.38025415951E+03  0.38957402497E+03  0.00000000000E+00 0.  1.
         11    1    4    4    0    0  0.14477751787E+02 -0.75534472529E+02  0.21831485470E+03  0.23146584547E+03  0.00000000000E+00 0. -1.
</event>
<event>
 8    1  0.6703334E-009  0.1148936E+03  0.7561462E-02  0.1251767E+00
         -1   -1    0    0    0  501 -0.00000000000E+00  0.00000000000E+00  0.24244856225E+02  0.24244856225E+02  0.00000000000E+00 0.  1.
          1   -1    0    0  501    0  0.00000000000E+00 -0.00000000000E+00 -0.72481808114E+03  0.72481808114E+03  0.00000000000E+00 0. -1.
         25    2    1    2    0    0 -0.36362812936E+02 -0.66285928414E+02 -0.39079728379E+03  0.41723484884E+03  0.12508526533E+03 0.  0.
         23    2    1    2    0    0  0.36362812936E+02  0.66285928414E+02 -0.30977594113E+03  0.33182808852E+03  0.91829560380E+02 0.  0.
          5    1    3    3  502    0 -0.78156454156E+01 -0.80267887554E+02 -0.12059214060E+03  0.14513426494E+03  0.41800000000E+01 0.  1.
         -5    1    3    3    0  502 -0.28547167520E+02  0.13981959140E+02 -0.27020514319E+03  0.27210058391E+03  0.41800000000E+01 0.  1.
        -11    1    4    4    0    0  0.10359485153E+02 -0.22331085392E+02 -0.43382978485E+02  0.49880648850E+02  0.00000000000E+00 0. -1.
         11    1    4    4    0    0  0.26003327783E+02  0.88617013806E+02 -0.26639296264E+03  0.28194743967E+03  0.00000000000E+00 0.  1.
</event>
<event>
 8    1  0.6703334E-009  0.9623587E+02  0.7561462E-02  0.1288417E+00
         -1   -1    0    0    0  501 -0.00000000000E+00  0.00000000000E+00  0.21739194596E+03  0.21739194596E+03  0.00000000000E+00 0.  1.
          1   -1    0    0  501    0  0.00000000000E+00 -0.00000000000E+00 -0.95140690442E+02  0.95140690442E+02  0.00000000000E+00 0. -1.
         25    2    1    2    0    0  0.33481105086E+01 -0.64032271067E+02  0.14189092166E+03  0.19972907118E+03  0.12508927470E+03 0.  0.
         23    2    1    2    0    0 -0.33481105086E+01  0.64032271067E+02 -0.19639666141E+02  0.11280356521E+03  0.90706043112E+02 0.  0.
          5    1    3    3  502    0 -0.24844716902E+02 -0.42110567225E+02 -0.42257562073E+01  0.49253317101E+02  0.41800000000E+01 0.  1.
         -5    1    3    3    0  502  0.28192827410E+02 -0.21921703842E+02  0.14611667787E+03  0.15047575408E+03  0.41800000000E+01 0.  1.
        -11    1    4    4    0    0 -0.15166958484E+02 -0.18583225281E+02 -0.16825239620E+02  0.29299515009E+02  0.00000000000E+00 0.  1.
         11    1    4    4    0    0  0.11818847975E+02  0.82615496347E+02 -0.28144265218E+01  0.83504050206E+02  0.00000000000E+00 0. -1.
</event>
<event>
 8    1  0.6703334E-009  0.1224817E+03  0.7561462E-02  0.1239058E+00
          2   -1    0    0  501    0  0.00000000000E+00  0.00000000000E+00  0.37903830622E+03  0.37903830622E+03  0.00000000000E+00 0. -1.
         -2   -1    0    0    0  501 -0.00000000000E+00 -0.00000000000E+00 -0.61630590313E+02  0.61630590313E+02  0.00000000000E+00 0.  1.
         25    2    1    2    0    0  0.70906249528E+02  0.66491740073E+02  0.10521286274E+03  0.19017710663E+03  0.12509491469E+03 0.  0.
         23    2    1    2    0    0 -0.70906249528E+02 -0.66491740073E+02  0.21219485316E+03  0.25049178990E+03  0.90943022694E+02 0.  0.
          5    1    3    3  502    0  0.78810707268E+02  0.13169897470E+02  0.10986263807E+03  0.13591116739E+03  0.41800000000E+01 0. -1.
         -5    1    3    3    0  502 -0.79044577395E+01  0.53321842604E+02 -0.46497753272E+01  0.54265939238E+02  0.41800000000E+01 0. -1.
        -11    1    4    4    0    0 -0.40713237798E+01 -0.38020288426E+02  0.16311931723E+02  0.41571590369E+02  0.00000000000E+00 0.  1.
         11    1    4    4    0    0 -0.66834925749E+02 -0.28471451647E+02  0.19588292144E+03  0.20892019953E+03  0.00000000000E+00 0. -1.
</event>
<event>
 8    1  0.6703334E-009  0.8018778E+02  0.7561462E-02  0.1328519E+00
         -2   -1    0    0    0  501 -0.00000000000E+00  0.00000000000E+00  0.40020559949E+02  0.40020559949E+02  0.00000000000E+00 0.  1.
          2   -1    0    0  501    0  0.00000000000E+00 -0.00000000000E+00 -0.48743469541E+03  0.48743469541E+03  0.00000000000E+00 0. -1.
         25    2    1    2    0    0  0.16911824308E+02  0.26408958041E+02 -0.88989132929E+02  0.15668501241E+03  0.12509070497E+03 0.  0.
         23    2    1    2    0    0 -0.16911824308E+02 -0.26408958041E+02 -0.35842500253E+03  0.37077024295E+03  0.89546902507E+02 0.  0.
          5    1    3    3  502    0 -0.17239171779E+02  0.25668938396E+02  0.23492250315E+02  0.39056902935E+02  0.41800000000E+01 0. -1.
         -5    1    3    3    0  502  0.34150996087E+02  0.74001964528E+00 -0.11248138324E+03  0.11762810948E+03  0.41800000000E+01 0. -1.
        -11    1    4    4    0    0  0.69313488343E+01  0.31437344614E+02 -0.13072116751E+03  0.13462679476E+03  0.00000000000E+00 0. -1.
         11    1    4    4    0    0 -0.23843173142E+02 -0.57846302655E+02 -0.22770383502E+03  0.23614344818E+03  0.00000000000E+00 0.  1.
</event>
<event>
 8    1  0.6703334E-009  0.1106983E+03  0.7561462E-02  0.1259282E+00
         -1   -1    0    0    0  501 -0.00000000000E+00  0.00000000000E+00  0.90588429911E+02  0.90588429911E+02  0.00000000000E+00 0.  1.
          1   -1    0    0  501    0  0.00000000000E+00 -0.00000000000E+00 -0.17312166209E+03  0.17312166209E+03  0.00000000000E+00 0. -1.
         25    2    1    2    0    0  0.24135647282E+01 -0.57026885885E+02 -0.72071404966E+02  0.15524226434E+03  0.12509189509E+03 0.  0.
         23    2    1    2    0    0 -0.24135647282E+01  0.57026885885E+02 -0.10461827209E+02  0.10846782765E+03  0.91640213873E+02 0.  0.
          5    1    3    3  502    0 -0.32286759180E+02  0.27259020110E+02 -0.40528977813E+02  0.58698887879E+02  0.41800000000E+01 0.  1.
         -5    1    3    3    0  502  0.34700323908E+02 -0.84285905994E+02 -0.31542427153E+02  0.96543376465E+02  0.41800000000E+01 0.  1.
        -11    1    4    4    0    0  0.28555366803E+02  0.47261013941E+02  0.24800510533E+02  0.60531625905E+02  0.00000000000E+00 0.  1.
         11    1    4    4    0    0 -0.30968931531E+02  0.97658719430E+01 -0.35262337742E+02  0.47936201747E+02  0.00000000000E+00 0. -1.
</event>
<event>
 8    1  0.6703334E-009  0.1057543E+03  0.7561462E-02  0.1268641E+00
         -1   -1    0    0    0  501 -0.00000000000E+00  0.00000000000E+00  0.48475442989E+02  0.48475442989E+02  0.00000000000E+00 0.  1.
          1   -1    0    0  501    0  0.00000000000E+00 -0.00000000000E+00 -0.44856266435E+03  0.44856266435E+03  0.00000000000E+00 0. -1.
         25    2    1    2    0    0  0.17010486355E+02  0.93721495745E+02 -0.26483548760E+03  0.30799056807E+03  0.12508908472E+03 0.  0.
         23    2    1    2    0    0 -0.17010486355E+02 -0.93721495745E+02 -0.13525173375E+03  0.18904753926E+03  0.91503361725E+02 0.  0.
          5    1    3    3  502    0 -0.92889276473E+01  0.62169279250E+02 -0.25868706605E+03  0.26624758028E+03  0.41800000000E+01 0. -1.
         -5    1    3    3    0  502  0.26299414003E+02  0.31552216495E+02 -0.61484215502E+01  0.41742987797E+02  0.41800000000E+01 0. -1.
        -11    1    4    4    0    0 -0.31604867412E+02 -0.83836065546E+02 -0.51253217641E+02  0.10321940636E+03  0.00000000000E+00 0.  1.
         11    1    4    4    0    0  0.14594381057E+02 -0.98854301996E+01 -0.83998516114E+02  0.85828132905E+02  0.00000000000E+00 0. -1.
</event>
<event>
 8    1  0.6703334E-009  0.1470194E+03  0.7561462E-02  0.1204184E+00
         -1   -1    0    0    0  501 -0.00000000000E+00  0.00000000000E+00  0.15860026246E+03  0.15860026246E+03  0.00000000000E+00 0.  1.
          1   -1    0    0  501    0  0.00000000000E+00 -0.00000000000E+00 -0.18466002408E+03  0.18466002408E+03  0.00000000000E+00 0. -1.
         25    2    1    2    0    0 -0.10068077328E+03  0.88420401575E+01  0.71133303797E+02  0.17585012673E+03  0.12509404614E+03 0.  0.
         23    2    1    2    0    0  0.10068077328E+03 -0.88420401575E+01 -0.97193065415E+02  0.16741015982E+03  0.91459662492E+02 0.  0.
          5    1    3    3  502    0 -0.78290929323E+01  0.54382913037E+02  0.11140349528E+02  0.56217219018E+02  0.41800000000E+01 0.  1.
         -5    1    3    3    0  502 -0.92851680344E+02 -0.45540872880E+02  0.59992954269E+02  0.11963290771E+03  0.41800000000E+01 0.  1.
        -11    1    4    4    0    0  0.10388936053E+03  0.20519998819E+02 -0.67806818722E+02  0.12574511620E+03  0.00000000000E+00 0.  1.
         11    1    4    4    0    0 -0.32085872515E+01 -0.29362038976E+02 -0.29386246693E+02  0.41665043618E+02  0.00000000000E+00 0. -1.
</event>
<event>
 8    1  0.6703334E-009  0.8182343E+02  0.7561462E-02  0.1323955E+00
         -2   -1    0    0    0  501 -0.00000000000E+00  0.00000000000E+00  0.25003925621E+02  0.25003925621E+02  0.00000000000E+00 0.  1.
          2   -1    0    0  501    0  0.00000000000E+00 -0.00000000000E+00 -0.74560353067E+03  0.74560353067E+03  0.00000000000E+00 0. -1.
         25    2    1    2    0    0  0.45981675977E+02  0.41794767753E+02 -0.54774307879E+03  0.56527065989E+03  0.12508925387E+03 0.  0.
         23    2    1    2    0    0 -0.45981675977E+02 -0.41794767753E+02 -0.17285652626E+03  0.20533679640E+03  0.91775291604E+02 0.  0.
          5    1    3    3  502    0  0.26441499177E+02  0.16660106463E+02 -0.21764546259E+02  0.38312920796E+02  0.41800000000E+01 0.  1.
         -5    1    3    3    0  502  0.19540176800E+02  0.25134661289E+02 -0.52597853253E+03  0.52695773909E+03  0.41800000000E+01 0.  1.
        -11    1    4    4    0    0 -0.58931328230E+02 -0.28890811586E+01 -0.14276173248E+03  0.15447381816E+03  0.00000000000E+00 0. -1.
         11    1    4    4    0    0  0.12949652253E+02 -0.38905686594E+02 -0.30094793781E+02  0.50862978241E+02  0.00000000000E+00 0.  1.
</event>
<event>
 8    1  0.6703334E-009  0.8299566E+02  0.7561462E-02  0.1320759E+00
         -1   -1    0    0    0  501 -0.00000000000E+00  0.00000000000E+00  0.28178450989E+02  0.28178450989E+02  0.00000000000E+00 0.  1.
          1   -1    0    0  501    0  0.00000000000E+00 -0.00000000000E+00 -0.67547517629E+03  0.67547517629E+03  0.00000000000E+00 0. -1.
         25    2    1    2    0    0 -0.28942454556E+02 -0.45439460513E+02 -0.51105457354E+03  0.52889272725E+03  0.12509328341E+03 0.  0.
         23    2    1    2    0    0  0.28942454556E+02  0.45439460513E+02 -0.13624215176E+03  0.17476090003E+03  0.95273490621E+02 0.  0.
          5    1    3    3  502    0 -0.15893689735E+02 -0.71399780349E+02 -0.48218902375E+03  0.48772355390E+03  0.41800000000E+01 0.  1.
         -5    1    3    3    0  502 -0.13048764822E+02  0.25960319836E+02 -0.28865549791E+02  0.41169173347E+02  0.41800000000E+01 0.  1.
        -11    1    4    4    0    0  0.10022969482E+02 -0.37236681276E+01  0.12802932920E+02  0.16680548940E+02  0.00000000000E+00 0.  1.
         11    1    4    4    0    0  0.18919485074E+02  0.49163128640E+02 -0.14904508468E+03  0.15808035109E+03  0.00000000000E+00 0. -1.
</event>
<event>
 8    1  0.6703334E-009  0.1954573E+03  0.7561462E-02  0.1153629E+00
         -1   -1    0    0    0  501 -0.00000000000E+00  0.00000000000E+00  0.50854066737E+03  0.50854066737E+03  0.00000000000E+00 0.  1.
          1   -1    0    0  501    0  0.00000000000E+00 -0.00000000000E+00 -0.98219289015E+02  0.98219289015E+02  0.00000000000E+00 0. -1.
         25    2    1    2    0    0  0.10325617001E+03  0.13324510036E+03  0.34585412313E+03  0.40457060951E+03  0.12508481196E+03 0.  0.
         23    2    1    2    0    0 -0.10325617001E+03 -0.13324510036E+03  0.64467255225E+02  0.20218934687E+03  0.91150488623E+02 0.  0.
          5    1    3    3  502    0  0.67587994081E+02  0.15387624283E+03  0.28676806303E+03  0.33241454454E+03  0.41800000000E+01 0.  1.
         -5    1    3    3    0  502  0.35668175934E+02 -0.20631142469E+02  0.59086060098E+02  0.72156064970E+02  0.41800000000E+01 0.  1.
        -11    1    4    4    0    0 -0.43390857839E+02 -0.10242830844E+02  0.46156273973E+02  0.64172297409E+02  0.00000000000E+00 0.  1.
         11    1    4    4    0    0 -0.59865312176E+02 -0.12300226951E+03  0.18310981252E+02  0.13801704946E+03  0.00000000000E+00 0. -1.
</event>
<event>
 8    1  0.6703334E-009  0.9053863E+02  0.7561462E-02  0.1301553E+00
         -2   -1    0    0    0  501 -0.00000000000E+00  0.00000000000E+00  0.31253189976E+02  0.31253189976E+02  0.00000000000E+00 0. -1.
          2   -1    0    0  501    0  0.00000000000E+00 -0.00000000000E+00 -0.53800661146E+03  0.53800661146E+03  0.00000000000E+00 0.  1.
         25    2    1    2    0    0  0.51231670419E+02  0.38747239663E+02 -0.33916373765E+03  0.36715946496E+03  0.12509196271E+03 0.  0.
         23    2    1    2    0    0 -0.51231670419E+02 -0.38747239663E+02 -0.16758968383E+03  0.20210033648E+03  0.92909694016E+02 0.  0.
          5    1    3    3  502    0  0.13067999480E+02  0.27048291345E+02 -0.51744406652E+01  0.30767351386E+02  0.41800000000E+01 0.  1.
         -5    1    3    3    0  502  0.38163670938E+02  0.11698948318E+02 -0.33398929699E+03  0.33639211357E+03  0.41800000000E+01 0.  1.
        -11    1    4    4    0    0  0.15247538091E+02  0.17728717575E+02 -0.54287189986E+02  0.59109168843E+02  0.00000000000E+00 0.  1.
         11    1    4    4    0    0 -0.66479208509E+02 -0.56475957238E+02 -0.11330249385E+03  0.14299116764E+03  0.00000000000E+00 0. -1.
</event>
<event>
 8    1  0.6703334E-009  0.1234285E+03  0.7561462E-02  0.1237546E+00
          2   -1    0    0  501    0  0.00000000000E+00  0.00000000000E+00  0.64153683078E+03  0.64153683078E+03  0.00000000000E+00 0. -1.
         -2   -1    0    0    0  501 -0.00000000000E+00 -0.00000000000E+00 -0.39485070137E+02  0.39485070137E+02  0.00000000000E+00 0.  1.
         25    2    1    2    0    0  0.85377718631E+01  0.96615841954E+02  0.18482719906E+03  0.24334292303E+03  0.12508864940E+03 0.  0.
         23    2    1    2    0    0 -0.85377718631E+01 -0.96615841954E+02  0.41722456159E+03  0.43767897789E+03  0.89883471419E+02 0.  0.
          5    1    3    3  502    0  0.27433043067E+02  0.79818134842E+01 -0.82360819708E+01  0.30026432433E+02  0.41800000000E+01 0.  1.
         -5    1    3    3    0  502 -0.18895271204E+02  0.88634028470E+02  0.19306328103E+03  0.21331649059E+03  0.41800000000E+01 0.  1.
        -11    1    4    4    0    0  0.20225619674E+02  0.56713021637E+01  0.33724348204E+02  0.39731234831E+02  0.00000000000E+00 0. -1.
         11    1    4    4    0    0 -0.28763391537E+02 -0.10228714412E+03  0.38350021338E+03  0.39794774306E+03  0.00000000000E+00 0.  1.
</event>
<event>
 8    1  0.6703334E-009  0.1153987E+03  0.7561462E-02  0.1250887E+00
          2   -1    0    0  501    0  0.00000000000E+00  0.00000000000E+00  0.32260974202E+02  0.32260974202E+02  0.00000000000E+00 0.  1.
         -2   -1    0    0    0  501 -0.00000000000E+00 -0.00000000000E+00 -0.55254138560E+03  0.55254138560E+03  0.00000000000E+00 0. -1.
         25    2    1    2    0    0  0.83526635263E+02  0.21720565436E+01 -0.23558987923E+03  0.27951974346E+03  0.12508908489E+03 0.  0.
         23    2    1    2    0    0 -0.83526635263E+02 -0.21720565436E+01 -0.28469053217E+03  0.30528261635E+03  0.71884352316E+02 0.  0.
          5    1    3    3  502    0  0.81543205231E+02 -0.43165203533E+02 -0.20439518586E+03  0.22429309735E+03  0.41800000000E+01 0.  1.
         -5    1    3    3    0  502  0.19834300324E+01  0.45337260076E+02 -0.31194693364E+02  0.55226646105E+02  0.41800000000E+01 0.  1.
        -11    1    4    4    0    0 -0.54226290110E+02 -0.20875426663E+02 -0.87395694850E+02  0.10494894690E+03  0.00000000000E+00 0.  1.
         11    1    4    4    0    0 -0.29300345153E+02  0.18703370119E+02 -0.19729483732E+03  0.20033366945E+03  0.00000000000E+00 0. -1.
</event>
<event>
 8    1  0.6703334E-009  0.9459368E+02  0.7561462E-02  0.1292094E+00
         -1   -1    0    0    0  501 -0.00000000000E+00  0.00000000000E+00  0.13276126615E+03  0.13276126615E+03  0.00000000000E+00 0.  1.
          1   -1    0    0  501    0  0.00000000000E+00 -0.00000000000E+00 -0.10190524318E+03  0.10190524318E+03  0.00000000000E+00 0. -1.
         25    2    1    2    0    0 -0.82657720334E+01  0.43494110230E+01  0.60596605892E+02  0.13930307057E+03  0.12508459722E+03 0.  0.
         23    2    1    2    0    0  0.82657720334E+01 -0.43494110230E+01 -0.29740582923E+02  0.95363438753E+02  0.90124596058E+02 0.  0.
          5    1    3    3  502    0 -0.26388710219E+02 -0.52756691559E+02  0.83953882340E+01  0.59729284901E+02  0.41800000000E+01 0. -1.
         -5    1    3    3    0  502  0.18122938185E+02  0.57106102582E+02  0.52201217658E+02  0.79573785668E+02  0.41800000000E+01 0. -1.
        -11    1    4    4    0    0 -0.16990697244E+02 -0.29694502988E+02  0.15603684956E+02  0.37602157980E+02  0.00000000000E+00 0.  1.
         11    1    4    4    0    0  0.25256469277E+02  0.25345091965E+02 -0.45344267880E+02  0.57761280773E+02  0.00000000000E+00 0. -1.
</event>
<event>
 8    1  0.6703334E-009  0.6542271E+02  0.7561462E-02  0.1376388E+00
         -1   -1    0    0    0  501 -0.00000000000E+00  0.00000000000E+00  0.29026190510E+03  0.29026190510E+03  0.00000000000E+00 0.  1.
          1   -1    0    0  501    0  0.00000000000E+00 -0.00000000000E+00 -0.48130181417E+02  0.48130181417E+02  0.00000000000E+00 0. -1.
         25    2    1    2    0    0 -0.14029453567E+02  0.40962500288E+02  0.11680577256E+03  0.17654181418E+03  0.12509465078E+03 0.  0.
         23    2    1    2    0    0  0.14029453567E+02 -0.40962500288E+02  0.12532595113E+03  0.16185027233E+03  0.92812524110E+02 0.  0.
          5    1    3    3  502    0 -0.31020004666E+02  0.36138233938E+01  0.12958714842E+03  0.13336267036E+03  0.41800000000E+01 0. -1.
         -5    1    3    3    0  502  0.16990551099E+02  0.37348676895E+02 -0.12781375865E+02  0.43179143824E+02  0.41800000000E+01 0. -1.
        -11    1    4    4    0    0  0.25168865503E+02 -0.13729899064E+02  0.12904668491E+03  0.13219314962E+03  0.00000000000E+00 0.  1.
         11    1    4    4    0    0 -0.11139411935E+02 -0.27232601224E+02 -0.37207337892E+01  0.29657122713E+02  0.00000000000E+00 0. -1.
</event>
<event>
 8    1  0.6703334E-009  0.1020926E+03  0.7561462E-02  0.1275956E+00
          2   -1    0    0  501    0  0.00000000000E+00  0.00000000000E+00  0.34321636984E+02  0.34321636984E+02  0.00000000000E+00 0. -1.
         -2   -1    0    0    0  501 -0.00000000000E+00 -0.00000000000E+00 -0.64732440274E+03  0.64732440274E+03  0.00000000000E+00 0.  1.
         25    2    1    2    0    0  0.72780638154E+02  0.18515780393E+02 -0.17316050661E+03  0.22643282346E+03  0.12508959618E+03 0.  0.
         23    2    1    2    0    0 -0.72780638154E+02 -0.18515780393E+02 -0.43984225914E+03  0.45521321627E+03  0.90099966290E+02 0.  0.
          5    1    3    3  502    0 -0.77407260972E+00  0.12355169014E+02 -0.14764659736E+03  0.14822361317E+03  0.41800000000E+01 0.  1.
         -5    1    3    3    0  502  0.73554710764E+02  0.61606113791E+01 -0.25513909257E+02  0.78209210287E+02  0.41800000000E+01 0.  1.
        -11    1    4    4    0    0 -0.29464552750E+02 -0.53786955786E+02 -0.23979763903E+03  0.24751586649E+03  0.00000000000E+00 0.  1.
         11    1    4    4    0    0 -0.43316085404E+02  0.35271175393E+02 -0.20004462012E+03  0.20769734978E+03  0.00000000000E+00 0. -1.
</event>
<event>
 8    1  0.6703334E-009  0.1764827E+03  0.7561462E-02  0.1171251E+00
          2   -1    0    0  501    0  0.00000000000E+00  0.00000000000E+00  0.49064777848E+02  0.49064777848E+02  0.00000000000E+00 0. -1.
         -2   -1    0    0    0  501 -0.00000000000E+00 -0.00000000000E+00 -0.67710540783E+03  0.67710540783E+03  0.00000000000E+00 0.  1.
         25    2    1    2    0    0 -0.22940534987E+02 -0.14189756094E+03 -0.28268118558E+03  0.34090614741E+03  0.12508861945E+03 0.  0.
         23    2    1    2    0    0  0.22940534987E+02  0.14189756094E+03 -0.34535944440E+03  0.38526403827E+03  0.92163156405E+02 0.  0.
          5    1    3    3  502    0  0.24550823695E+02  0.92271932502E+01 -0.16932425809E+02  0.31497039276E+02  0.41800000000E+01 0.  1.
         -5    1    3    3    0  502 -0.47491358682E+02 -0.15112475419E+03 -0.26574875977E+03  0.30940910813E+03  0.41800000000E+01 0.  1.
        -11    1    4    4    0    0 -0.28238870428E+02  0.92865144838E+02 -0.23311040284E+03  0.25251104697E+03  0.00000000000E+00 0. -1.
         11    1    4    4    0    0  0.51179405415E+02  0.49032416099E+02 -0.11224904157E+03  0.13275299130E+03  0.00000000000E+00 0.  1.
</event>
<event>
 8    1  0.6703334E-009  0.8390792E+02  0.7561462E-02  0.1318313E+00
         -2   -1    0    0    0  501 -0.00000000000E+00  0.00000000000E+00  0.40341528259E+02  0.40341528259E+02  0.00000000000E+00 0. -1.
          2   -1    0    0  501    0  0.00000000000E+00 -0.00000000000E+00 -0.34623714646E+03  0.34623714646E+03  0.00000000000E+00 0.  1.
         25    2    1    2    0    0  0.97341558012E+01 -0.92937663333E+01 -0.24438474981E+03  0.27485846022E+03  0.12506853854E+03 0.  0.
         23    2    1    2    0    0 -0.97341558012E+01  0.92937663333E+01 -0.61510868390E+02  0.11172021450E+03  0.92285922630E+02 0.  0.
          5    1    3    3  502    0  0.48413534307E+02  0.12545118760E+02 -0.36031025896E+02  0.61781530702E+02  0.41800000000E+01 0.  1.
         -5    1    3    3    0  502 -0.38679378506E+02 -0.21838885093E+02 -0.20835372391E+03  0.21307692952E+03  0.41800000000E+01 0.  1.
        -11    1    4    4    0    0 -0.36842301371E+02  0.22174943702E+02  0.30667104007E+00  0.43002062109E+02  0.00000000000E+00 0. -1.
         11    1    4    4    0    0  0.27108145570E+02 -0.12881177368E+02 -0.61817539430E+02  0.68718152390E+02  0.00000000000E+00 0.  1.
</event>
<event>
 8    1  0.6703334E-009  0.9885734E+02  0.7561462E-02  0.1282717E+00
          2   -1    0    0  501    0  0.00000000000E+00  0.00000000000E+00  0.29611533203E+03  0.29611533203E+03  0.00000000000E+00 0. -1.
         -2   -1    0    0    0  501 -0.00000000000E+00 -0.00000000000E+00 -0.42702651165E+02  0.42702651165E+02  0.00000000000E+00 0.  1.
         25    2    1    2    0    0 -0.89513194091E+01 -0.10620055972E+02  0.10293880961E+03  0.16259367230E+03  0.12508953610E+03 0.  0.
         23    2    1    2    0    0  0.89513194091E+01  0.10620055972E+02  0.15047387126E+03  0.17622431089E+03  0.90662616944E+02 0.  0.
          5    1    3    3  502    0  0.49999525568E+02 -0.41334574311E+01  0.87853643601E+02  0.10125597820E+03  0.41800000000E+01 0.  1.
         -5    1    3    3    0  502 -0.58950844977E+02 -0.64865985414E+01  0.15085166009E+02  0.61337694101E+02  0.41800000000E+01 0.  1.
        -11    1    4    4    0    0  0.43722235782E+02  0.24914334474E+02  0.11011200134E+03  0.12106614226E+03  0.00000000000E+00 0. -1.
         11    1    4    4    0    0 -0.34770916373E+02 -0.14294278501E+02  0.40361869920E+02  0.55158168631E+02  0.00000000000E+00 0.  1.
</event>
<event>
 8    1  0.6703334E-009  0.1787814E+03  0.7561462E-02  0.1168988E+00
         -2   -1    0    0    0  501 -0.00000000000E+00  0.00000000000E+00  0.18248547386E+03  0.18248547386E+03  0.00000000000E+00 0.  1.
          2   -1    0    0  501    0  0.00000000000E+00 -0.00000000000E+00 -0.18643813079E+03  0.18643813079E+03  0.00000000000E+00 0. -1.
         25    2    1    2    0    0  0.28112026575E+02  0.14417936569E+03  0.19423175767E+02  0.19391534583E+03  0.12509167064E+03 0.  0.
         23    2    1    2    0    0 -0.28112026575E+02 -0.14417936569E+03 -0.23375832692E+02  0.17500825882E+03  0.92214345790E+02 0.  0.
          5    1    3    3  502    0  0.58928378629E+02  0.19108367538E+02  0.19352740148E+02  0.65036024394E+02  0.41800000000E+01 0.  1.
         -5    1    3    3    0  502 -0.30816352054E+02  0.12507099816E+03  0.70435619102E-01  0.12887932144E+03  0.41800000000E+01 0.  1.
        -11    1    4    4    0    0  0.15546173774E+02 -0.11014537941E+03  0.77398138145E+01  0.11150602155E+03  0.00000000000E+00 0.  1.
         11    1    4    4    0    0 -0.43658200349E+02 -0.34033986286E+02 -0.31115646507E+02  0.63502237266E+02  0.00000000000E+00 0. -1.
</event>
<event>
 8    1  0.6703334E-009  0.1153532E+03  0.7561462E-02  0.1250966E+00
         -4   -1    0    0    0  501 -0.00000000000E+00  0.00000000000E+00  0.11481443780E+03  0.11481443780E+03  0.00000000000E+00 0.  1.
          4   -1    0    0  501    0  0.00000000000E+00 -0.00000000000E+00 -0.18786458317E+03  0.18786458317E+03  0.00000000000E+00 0. -1.
         25    2    1    2    0    0 -0.88519069730E+02 -0.30850783034E+02 -0.89722395408E+01  0.15658256821E+03  0.12510077164E+03 0.  0.
         23    2    1    2    0    0  0.88519069730E+02  0.30850783034E+02 -0.64077905832E+02  0.14609645276E+03  0.91928227298E+02 0.  0.
          5    1    3    3  502    0 -0.15741635455E+02 -0.36310471776E+02 -0.56705697880E+02  0.69276677312E+02  0.41800000000E+01 0. -1.
         -5    1    3    3    0  502 -0.72777434275E+02  0.54596887419E+01  0.47733458339E+02  0.87305890900E+02  0.41800000000E+01 0. -1.
        -11    1    4    4    0    0  0.65103383150E+02 -0.14564352929E+02 -0.67476140405E+02  0.94887303670E+02  0.00000000000E+00 0. -1.
         11    1    4    4    0    0  0.23415686580E+02  0.45415135963E+02  0.33982345724E+01  0.51209149093E+02  0.00000000000E+00 0.  1.
</event>
<event>
 8    1  0.6703334E-009  0.1279462E+03  0.7561462E-02  0.1230535E+00
         -3   -1    0    0    0  501 -0.00000000000E+00  0.00000000000E+00  0.40131554686E+03  0.40131554686E+03  0.00000000000E+00 0.  1.
          3   -1    0    0  501    0  0.00000000000E+00 -0.00000000000E+00 -0.54343051556E+02  0.54343051556E+02  0.00000000000E+00 0. -1.
         25    2    1    2    0    0  0.57380874967E+02  0.79795847432E+02  0.15422950310E+03  0.22157167963E+03  0.12508927814E+03 0.  0.
         23    2    1    2    0    0 -0.57380874967E+02 -0.79795847432E+02  0.19274299220E+03  0.23408691878E+03  0.89369359549E+02 0.  0.
          5    1    3    3  502    0 -0.16134594384E+02  0.74321569734E+02  0.41295465898E+02  0.86641841897E+02  0.41800000000E+01 0.  1.
         -5    1    3    3    0  502  0.73515469351E+02  0.54742776987E+01  0.11293403721E+03  0.13492983773E+03  0.41800000000E+01 0.  1.
        -11    1    4    4    0    0 -0.41655178708E+02 -0.79961420818E+02  0.19795392818E+03  0.21751951732E+03  0.00000000000E+00 0.  1.
         11    1    4    4    0    0 -0.15725696259E+02  0.16557338549E+00 -0.52109359880E+01  0.16567401464E+02  0.00000000000E+00 0. -1.
</event>
<event>
 8    1  0.6703334E-009  0.1149223E+03  0.7561462E-02  0.1251717E+00
          2   -1    0    0  501    0  0.00000000000E+00  0.00000000000E+00  0.86254686757E+03  0.86254686757E+03  0.00000000000E+00 0. -1.
         -2   -1    0    0    0  501 -0.00000000000E+00 -0.00000000000E+00 -0.19706917446E+02  0.19706917446E+02  0.00000000000E+00 0.  1.
         25    2    1    2    0    0 -0.42595204648E+02 -0.12457604222E+02  0.65840317273E+03  0.67164793282E+03  0.12508662777E+03 0.  0.
         23    2    1    2    0    0  0.42595204648E+02  0.12457604222E+02  0.18443677739E+03  0.21060585219E+03  0.91478722986E+02 0.  0.
          5    1    3    3  502    0  0.33194675310E+02  0.30655250690E+02  0.21615441441E+03  0.22086610001E+03  0.41800000000E+01 0.  1.
         -5    1    3    3    0  502 -0.75789879958E+02 -0.43112854912E+02  0.44224875832E+03  0.45078183281E+03  0.41800000000E+01 0.  1.
        -11    1    4    4    0    0  0.30110232758E+01  0.45506569374E+02  0.11798755313E+03  0.12649496754E+03  0.00000000000E+00 0. -1.
         11    1    4    4    0    0  0.39584181372E+02 -0.33048965151E+02  0.66449224258E+02  0.84110884652E+02  0.00000000000E+00 0.  1.
</event>
<event>
 8    1  0.6703334E-009  0.1822077E+03  0.7561462E-02  0.1165683E+00
          2   -1    0    0  501    0  0.00000000000E+00  0.00000000000E+00  0.46641423835E+03  0.46641423835E+03  0.00000000000E+00 0. -1.
         -2   -1    0    0    0  501 -0.00000000000E+00 -0.00000000000E+00 -0.93725508263E+02  0.93725508263E+02  0.00000000000E+00 0.  1.
         25    2    1    2    0    0  0.15625991572E+03 -0.42328317041E+02  0.95255811086E+02  0.22567851000E+03  0.12509305595E+03 0.  0.
         23    2    1    2    0    0 -0.15625991572E+03  0.42328317041E+02  0.27743291900E+03  0.33446123661E+03  0.93201108182E+02 0.  0.
          5    1    3    3  502    0  0.16535970710E+03 -0.53331101375E+02  0.10922590940E+03  0.20527009230E+03  0.41800000000E+01 0.  1.
         -5    1    3    3    0  502 -0.90997913833E+01  0.11002784334E+02 -0.13970098315E+02  0.20408417706E+02  0.41800000000E+01 0.  1.
        -11    1    4    4    0    0 -0.13332576526E+03  0.60567077887E+02  0.17638534181E+03  0.22925077843E+03  0.00000000000E+00 0.  1.
         11    1    4    4    0    0 -0.22934150462E+02 -0.18238760846E+02  0.10104757719E+03  0.10521045818E+03  0.00000000000E+00 0. -1.
</event>
<event>
 8    1  0.6703334E-009  0.5329000E+02  0.7561462E-02  0.1428363E+00
         -2   -1    0    0    0  501 -0.00000000000E+00  0.00000000000E+00  0.24508164532E+02  0.24508164532E+02  0.00000000000E+00 0.  1.
          2   -1    0    0  501    0  0.00000000000E+00 -0.00000000000E+00 -0.54572981131E+03  0.54572981131E+03  0.00000000000E+00 0. -1.
         25    2    1    2    0    0  0.18180866793E+02 -0.37694517445E+01 -0.39390075590E+03  0.41370345643E+03  0.12509193291E+03 0.  0.
         23    2    1    2    0    0 -0.18180866793E+02  0.37694517445E+01 -0.12732089087E+03  0.15653451940E+03  0.89149839200E+02 0.  0.
          5    1    3    3  502    0 -0.92961984041E+01  0.77977746094E+01 -0.38055892425E+03  0.38077525106E+03  0.41800000000E+01 0.  1.
         -5    1    3    3    0  502  0.27477065197E+02 -0.11567226354E+02 -0.13341831657E+02  0.32928205377E+02  0.41800000000E+01 0.  1.
        -11    1    4    4    0    0 -0.32291517550E+02  0.23104486719E+02 -0.16231296960E+02  0.42895389184E+02  0.00000000000E+00 0. -1.
         11    1    4    4    0    0  0.14110650757E+02 -0.19335034974E+02 -0.11108959391E+03  0.11363913022E+03  0.00000000000E+00 0.  1.
</event>
<event>
 8    1  0.6703334E-009  0.1020578E+03  0.7561462E-02  0.1276027E+00
          1   -1    0    0  501    0  0.00000000000E+00  0.00000000000E+00  0.15576113180E+03  0.15576113180E+03  0.00000000000E+00 0. -1.
         -1   -1    0    0    0  501 -0.00000000000E+00 -0.00000000000E+00 -0.76148822329E+02  0.76148822329E+02  0.00000000000E+00 0.  1.
         25    2    1    2    0    0 -0.27751405425E+01 -0.12824168428E+02  0.48830139110E+02  0.13492393805E+03  0.12509166988E+03 0.  0.
         23    2    1    2    0    0  0.27751405425E+01  0.12824168428E+02  0.30782170364E+02  0.96986016079E+02  0.91030679453E+02 0.  0.
          5    1    3    3  502    0 -0.57630746836E+02 -0.79198969792E+01 -0.40442402452E+01  0.58462432623E+02  0.41800000000E+01 0.  1.
         -5    1    3    3    0  502  0.54855606294E+02 -0.49042714493E+01  0.52874379356E+02  0.76461505430E+02  0.41800000000E+01 0.  1.
        -11    1    4    4    0    0  0.80892019800E+01  0.51191528991E+02  0.25924398150E+02  0.57948962446E+02  0.00000000000E+00 0. -1.
         11    1    4    4    0    0 -0.53140614375E+01 -0.38367360562E+02  0.48577722143E+01  0.39037053633E+02  0.00000000000E+00 0.  1.
</event>
<event>
 8    1  0.6703334E-009  0.1258632E+03  0.7561462E-02  0.1233726E+00
         -1   -1    0    0    0  501 -0.00000000000E+00  0.00000000000E+00  0.72103683144E+03  0.72103683144E+03  0.00000000000E+00 0.  1.
          1   -1    0    0  501    0  0.00000000000E+00 -0.00000000000E+00 -0.37249640573E+02  0.37249640573E+02  0.00000000000E+00 0. -1.
         25    2    1    2    0    0 -0.87657318271E+02  0.35400717140E+02  0.18506187948E+03  0.24255066611E+03  0.12508361273E+03 0.  0.
         23    2    1    2    0    0  0.87657318271E+02 -0.35400717140E+02  0.49872531139E+03  0.51573580590E+03  0.91211123495E+02 0.  0.
          5    1    3    3  502    0 -0.94649926261E+02  0.11895897478E+02  0.55129135253E+02  0.11025794698E+03  0.41800000000E+01 0.  1.
         -5    1    3    3    0  502  0.69926079906E+01  0.23504819662E+02  0.12993274422E+03  0.13229271913E+03  0.41800000000E+01 0.  1.
        -11    1    4    4    0    0  0.37753906156E+02 -0.63660945000E+02  0.28053974499E+03  0.29013896992E+03  0.00000000000E+00 0. -1.
         11    1    4    4    0    0  0.49903412115E+02  0.28260227861E+02  0.21818556640E+03  0.22559683598E+03  0.00000000000E+00 0.  1.
</event>
<event>
 8    1  0.6703334E-009  0.1058190E+03  0.7561462E-02  0.1268514E+00
          3   -1    0    0  501    0  0.00000000000E+00  0.00000000000E+00  0.20550463701E+03  0.20550463701E+03  0.00000000000E+00 0. -1.
         -3   -1    0    0    0  501 -0.00000000000E+00 -0.00000000000E+00 -0.65502038896E+02  0.65502038896E+02  0.00000000000E+00 0.  1.
         25    2    1    2    0    0 -0.23689563182E+02  0.24155815717E+02  0.48881961830E+02  0.13849453736E+03  0.12508633758E+03 0.  0.
         23    2    1    2    0    0  0.23689563182E+02 -0.24155815717E+02  0.91120636281E+02  0.13251213854E+03  0.90065518755E+02 0.  0.
          5    1    3    3  502    0  0.26477304490E+02 -0.30865349019E+02  0.49136433673E+02  0.63918533598E+02  0.41800000000E+01 0. -1.
         -5    1    3    3    0  502 -0.50166867672E+02  0.55021164737E+02 -0.25447184350E+00  0.74576003761E+02  0.41800000000E+01 0. -1.
        -11    1    4    4    0    0  0.40190159849E+02 -0.50840865814E+02  0.59878016497E+02  0.88235023914E+02  0.00000000000E+00 0. -1.
         11    1    4    4    0    0 -0.16500596667E+02  0.26685050097E+02  0.31242619783E+02  0.44277114630E+02  0.00000000000E+00 0.  1.
</event>
<event>
 8    1  0.6703334E-009  0.1849660E+03  0.7561462E-02  0.1163082E+00
          2   -1    0    0  501    0  0.00000000000E+00  0.00000000000E+00  0.76206496062E+03  0.76206496062E+03  0.00000000000E+00 0. -1.
         -2   -1    0    0    0  501 -0.00000000000E+00 -0.00000000000E+00 -0.49972217474E+02  0.49972217474E+02  0.00000000000E+00 0.  1.
         25    2    1    2    0    0  0.15794542050E+03  0.14457901979E+02  0.44383366529E+03  0.48763854113E+03  0.12508891862E+03 0.  0.
         23    2    1    2    0    0 -0.15794542050E+03 -0.14457901979E+02  0.26825907786E+03  0.32439863697E+03  0.90087490954E+02 0.  0.
          5    1    3    3  502    0  0.92889673380E+02  0.68589789947E+02  0.28684043555E+03  0.30923770561E+03  0.41800000000E+01 0. -1.
         -5    1    3    3    0  502  0.65055747122E+02 -0.54131887968E+02  0.15699322974E+03  0.17840083552E+03  0.41800000000E+01 0. -1.
        -11    1    4    4    0    0 -0.10334599200E+03  0.19758531346E+02  0.10394920769E+03  0.14790615743E+03  0.00000000000E+00 0.  1.
         11    1    4    4    0    0 -0.54599428499E+02 -0.34216433325E+02  0.16430987016E+03  0.17649247954E+03  0.00000000000E+00 0. -1.
</event>
<event>
 8    1  0.6703334E-009  0.1238204E+03  0.7561462E-02  0.1236924E+00
          2   -1    0    0  501    0  0.00000000000E+00  0.00000000000E+00  0.73152362737E+02  0.73152362737E+02  0.00000000000E+00 0. -1.
         -2   -1    0    0    0  501 -0.00000000000E+00 -0.00000000000E+00 -0.37197458364E+03  0.37197458364E+03  0.00000000000E+00 0.  1.
         25    2    1    2    0    0 -0.88572642430E+02 -0.30845233196E+02 -0.50502679632E+02  0.16430250790E+03  0.12509297365E+03 0.  0.
         23    2    1    2    0    0  0.88572642430E+02  0.30845233196E+02 -0.24831954127E+03  0.28082443847E+03  0.91669129314E+02 0.  0.
          5    1    3    3  502    0 -0.95269426836E+02 -0.10090514230E+02 -0.81721593421E+02  0.12599195767E+03  0.41800000000E+01 0. -1.
         -5    1    3    3    0  502  0.66967844063E+01 -0.20754718965E+02  0.31218913789E+02  0.38310550230E+02  0.41800000000E+01 0. -1.
        -11    1    4    4    0    0  0.41635791199E+02 -0.30995260812E+02 -0.12158038255E+03  0.13219695428E+03  0.00000000000E+00 0. -1.
         11    1    4    4    0    0  0.46936851230E+02  0.61840494008E+02 -0.12673915872E+03  0.14862748419E+03  0.00000000000E+00 0.  1.
</event>
<event>
 8    1  0.6703334E-009  0.1245068E+03  0.7561462E-02  0.1235842E+00
         -3   -1    0    0    0  501 -0.00000000000E+00  0.00000000000E+00  0.53131680212E+03  0.53131680212E+03  0.00000000000E+00 0.  1.
          3   -1    0    0  501    0  0.00000000000E+00 -0.00000000000E+00 -0.49146534121E+02  0.49146534121E+02  0.00000000000E+00 0. -1.
         25    2    1    2    0    0 -0.64485532256E+02 -0.19382030860E+02  0.81587702075E+02  0.16382223222E+03  0.12508846329E+03 0.  0.
         23    2    1    2    0    0  0.64485532256E+02  0.19382030860E+02  0.40058256592E+03  0.41664110402E+03  0.92678856523E+02 0.  0.
          5    1    3    3  502    0 -0.31548321579E+02 -0.71142515445E+02  0.29843004970E+02  0.83454367435E+02  0.41800000000E+01 0. -1.
         -5    1    3    3    0  502 -0.32937210677E+02  0.51760484585E+02  0.51744697104E+02  0.80367864785E+02  0.41800000000E+01 0. -1.
        -11    1    4    4    0    0 -0.11908168587E+02  0.30167296342E+02  0.18139948992E+03  0.18427600275E+03  0.00000000000E+00 0.  1.
         11    1    4    4    0    0  0.76393700843E+02 -0.10785265481E+02  0.21918307600E+03  0.23236510126E+03  0.00000000000E+00 0. -1.
</event>
<event>
 8    1  0.6703334E-009  0.1747663E+03  0.7561462E-02  0.1172967E+00
         -1   -1    0    0    0  501 -0.00000000000E+00  0.00000000000E+00  0.32616733978E+02  0.32616733978E+02  0.00000000000E+00 0.  1.
          1   -1    0    0  501    0  0.00000000000E+00 -0.00000000000E+00 -0.10944950229E+04  0.10944950229E+04  0.00000000000E+00 0. -1.
         25    2    1    2    0    0 -0.98614692003E+02  0.10814808086E+03 -0.72012476189E+03  0.74542070758E+03  0.12510593002E+03 0.  0.
         23    2    1    2    0    0  0.98614692003E+02 -0.10814808086E+03 -0.34175352703E+03  0.38169104930E+03  0.86439105759E+02 0.  0.
          5    1    3    3  502    0  0.22226341889E+02 -0.73404066040E+01 -0.12559717527E+03  0.12782806687E+03  0.41800000000E+01 0. -1.
         -5    1    3    3    0  502 -0.12084103389E+03  0.11548848746E+03 -0.59452758662E+03  0.61759264071E+03  0.41800000000E+01 0. -1.
        -11    1    4    4    0    0  0.70839413009E+02 -0.32452058063E+02 -0.99546046528E+02  0.12641508568E+03  0.00000000000E+00 0.  1.
         11    1    4    4    0    0  0.27775278994E+02 -0.75696022795E+02 -0.24220748050E+03  0.25527596362E+03  0.00000000000E+00 0. -1.
</event>
<event>
 8    1  0.6703334E-009  0.1760520E+03  0.7561462E-02  0.1171680E+00
         -2   -1    0    0    0  501 -0.00000000000E+00  0.00000000000E+00  0.49989856647E+02  0.49989856647E+02  0.00000000000E+00 0.  1.
          2   -1    0    0  501    0  0.00000000000E+00 -0.00000000000E+00 -0.86539807684E+03  0.86539807684E+03  0.00000000000E+00 0. -1.
         25    2    1    2    0    0 -0.16520456414E+03  0.66318639655E+01 -0.56591677450E+03  0.60269923008E+03  0.12509211263E+03 0.  0.
         23    2    1    2    0    0  0.16520456414E+03 -0.66318639655E+01 -0.24949144569E+03  0.31268870341E+03  0.90508088771E+02 0.  0.
          5    1    3    3  502    0 -0.93519159624E+02 -0.21490445331E+02 -0.46955839715E+03  0.47928095433E+03  0.41800000000E+01 0.  1.
         -5    1    3    3    0  502 -0.71685404518E+02  0.28122309296E+02 -0.96358377358E+02  0.12341827575E+03  0.41800000000E+01 0.  1.
        -11    1    4    4    0    0  0.34048300768E+02 -0.30401679586E+02 -0.11317913444E+03  0.12203714754E+03  0.00000000000E+00 0. -1.
         11    1    4    4    0    0  0.13115626337E+03  0.23769815620E+02 -0.13631231125E+03  0.19065155587E+03  0.00000000000E+00 0.  1.
</event>
<event>
 8    1  0.6703334E-009  0.9823314E+02  0.7561462E-02  0.1284056E+00
          1   -1    0    0  501    0  0.00000000000E+00  0.00000000000E+00  0.24480820558E+03  0.24480820558E+03  0.00000000000E+00 0. -1.
         -1   -1    0    0    0  501 -0.00000000000E+00 -0.00000000000E+00 -0.75319130980E+02  0.75319130980E+02  0.00000000000E+00 0.  1.
         25    2    1    2    0    0  0.85203849980E+01  0.63739286350E+02  0.36801189739E+02  0.14538254255E+03  0.12508582065E+03 0.  0.
         23    2    1    2    0    0 -0.85203849980E+01 -0.63739286350E+02  0.13268788486E+03  0.17474479401E+03  0.93778327240E+02 0.  0.
          5    1    3    3  502    0  0.29121726813E+02  0.55875396078E+02  0.76854452968E+02  0.99469664724E+02  0.41800000000E+01 0.  1.
         -5    1    3    3    0  502 -0.20601341815E+02  0.78638902722E+01 -0.40053263229E+02  0.45912877824E+02  0.41800000000E+01 0.  1.
        -11    1    4    4    0    0 -0.48195560714E+02 -0.21039601079E+02  0.43741340436E+02  0.68401620955E+02  0.00000000000E+00 0. -1.
         11    1    4    4    0    0  0.39675175716E+02 -0.42699685271E+02  0.88946544423E+02  0.10634317305E+03  0.00000000000E+00 0.  1.
</event>
<event>
 8    1  0.6703334E-009  0.1306001E+03  0.7561462E-02  0.1226568E+00
          2   -1    0    0  501    0  0.00000000000E+00  0.00000000000E+00  0.27683590452E+03  0.27683590452E+03  0.00000000000E+00 0. -1.
         -2   -1    0    0    0  501 -0.00000000000E+00 -0.00000000000E+00 -0.16785801772E+03  0.16785801772E+03  0.00000000000E+00 0.  1.
         25    2    1    2    0    0  0.53980254248E+02  0.59952823643E+02 -0.11652781189E+03  0.18903848221E+03  0.12509439596E+03 0.  0.
         23    2    1    2    0    0 -0.53980254248E+02 -0.59952823643E+02  0.22550569870E+03  0.25565544003E+03  0.89435311598E+02 0.  0.
          5    1    3    3  502    0 -0.10273268870E+02  0.74138452693E+02 -0.92038699011E+02  0.11870402157E+03  0.41800000000E+01 0.  1.
         -5    1    3    3    0  502  0.64253523117E+02 -0.14185629050E+02 -0.24489112882E+02  0.70334460645E+02  0.41800000000E+01 0.  1.
        -11    1    4    4    0    0 -0.76452450600E+02 -0.28380830223E+02  0.15855621436E+03  0.17829896758E+03  0.00000000000E+00 0.  1.
         11    1    4    4    0    0  0.22472196352E+02 -0.31571993420E+02  0.66949484338E+02  0.77356472454E+02  0.00000000000E+00 0. -1.
</event>
<event>
 8    1  0.6703334E-009  0.2935602E+03  0.7561462E-02  0.1088505E+00
          2   -1    0    0  501    0  0.00000000000E+00  0.00000000000E+00  0.91760947681E+03  0.91760947681E+03  0.00000000000E+00 0.  1.
         -2   -1    0    0    0  501 -0.00000000000E+00 -0.00000000000E+00 -0.10082239416E+03  0.10082239416E+03  0.00000000000E+00 0. -1.
         25    2    1    2    0    0 -0.95300474850E+02 -0.26268723434E+03  0.53643215471E+03  0.61765203176E+03  0.12509121527E+03 0.  0.
         23    2    1    2    0    0  0.95300474850E+02  0.26268723434E+03  0.28035492794E+03  0.40077983921E+03  0.62760101229E+02 0.  0.
          5    1    3    3  502    0 -0.12067079010E+03 -0.17897794963E+03  0.34253937209E+03  0.40490151873E+03  0.41800000000E+01 0.  1.
         -5    1    3    3    0  502  0.25370315249E+02 -0.83709284713E+02  0.19389278262E+03  0.21275051303E+03  0.41800000000E+01 0.  1.
        -11    1    4    4    0    0  0.59899225672E+02  0.95284140254E+02  0.13889980093E+03  0.17877398949E+03  0.00000000000E+00 0. -1.
         11    1    4    4    0    0  0.35401249178E+02  0.16740309409E+03  0.14145512701E+03  0.22200584972E+03  0.00000000000E+00 0.  1.
</event>
<event>
 8    1  0.6703334E-009  0.1021154E+03  0.7561462E-02  0.1275909E+00
          2   -1    0    0  501    0  0.00000000000E+00  0.00000000000E+00  0.36655957175E+03  0.36655957175E+03  0.00000000000E+00 0. -1.
         -2   -1    0    0    0  501 -0.00000000000E+00 -0.00000000000E+00 -0.39965574442E+02  0.39965574442E+02  0.00000000000E+00 0.  1.
         25    2    1    2    0    0 -0.20803416444E+02 -0.50222657390E+02  0.18933668189E+03  0.23334772970E+03  0.12509071268E+03 0.  0.
         23    2    1    2    0    0  0.20803416444E+02  0.50222657390E+02  0.13725731542E+03  0.17317741649E+03  0.90530378849E+02 0.  0.
          5    1    3    3  502    0  0.25368982158E+02 -0.57923323117E+02  0.35814236798E+02  0.72793053062E+02  0.41800000000E+01 0. -1.
         -5    1    3    3    0  502 -0.46172398602E+02  0.77006657271E+01  0.15352244509E+03  0.16055467664E+03  0.41800000000E+01 0. -1.
        -11    1    4    4    0    0  0.49104250013E+02  0.21715798869E+02  0.37093158221E+02  0.65258759386E+02  0.00000000000E+00 0.  1.
         11    1    4    4    0    0 -0.28300833569E+02  0.28506858521E+02  0.10016415720E+03  0.10791865711E+03  0.00000000000E+00 0. -1.
</event>
<event>
 8    1  0.6703334E-009  0.1128639E+03  0.7561462E-02  0.1255356E+00
         -2   -1    0    0    0  501 -0.00000000000E+00  0.00000000000E+00  0.19738513544E+02  0.19738513544E+02  0.00000000000E+00 0. -1.
          2   -1    0    0  501    0  0.00000000000E+00 -0.00000000000E+00 -0.12110404853E+04  0.12110404853E+04  0.00000000000E+00 0.  1.
         25    2    1    2    0    0  0.60648853089E+02 -0.10685423248E+02 -0.10026469478E+04  0.10122947432E+04  0.12508910229E+03 0.  0.
         23    2    1    2    0    0 -0.60648853089E+02  0.10685423248E+02 -0.18865502390E+03  0.21848425560E+03  0.91390318140E+02 0.  0.
          5    1    3    3  502    0 -0.17611407800E+02 -0.39359024628E+02 -0.57188650950E+03  0.57352501833E+03  0.41800000000E+01 0.  1.
         -5    1    3    3    0  502  0.78260260889E+02  0.28673601380E+02 -0.43076043833E+03  0.43876972489E+03  0.41800000000E+01 0.  1.
        -11    1    4    4    0    0  0.47451825654E+01 -0.24320860716E+02 -0.13381390028E+02  0.28161722650E+02  0.00000000000E+00 0. -1.
         11    1    4    4    0    0 -0.65394035654E+02  0.35006283964E+02 -0.17527363388E+03  0.19032253295E+03  0.00000000000E+00 0.  1.
</event>
<event>
 8    1  0.6703334E-009  0.1099433E+03  0.7561462E-02  0.1260675E+00
          1   -1    0    0  501    0  0.00000000000E+00  0.00000000000E+00  0.28081895281E+02  0.28081895281E+02  0.00000000000E+00 0. -1.
         -1   -1    0    0    0  501 -0.00000000000E+00 -0.00000000000E+00 -0.53952701345E+03  0.53952701345E+03  0.00000000000E+00 0.  1.
         25    2    1    2    0    0 -0.44281837250E+02 -0.10364570955E+02 -0.31580312798E+03  0.34270023559E+03  0.12507409960E+03 0.  0.
         23    2    1    2    0    0  0.44281837250E+02  0.10364570955E+02 -0.19564199019E+03  0.22490867314E+03  0.10119198332E+03 0.  0.
          5    1    3    3  502    0 -0.20255388127E+02  0.49913447319E+02 -0.22255391911E+03  0.22901823570E+03  0.41800000000E+01 0.  1.
         -5    1    3    3    0  502 -0.24026449123E+02 -0.60278018273E+02 -0.93249208872E+02  0.11368199989E+03  0.41800000000E+01 0.  1.
        -11    1    4    4    0    0 -0.23109340051E+02  0.22619579101E+02 -0.24505393352E+02  0.40573405817E+02  0.00000000000E+00 0. -1.
         11    1    4    4    0    0  0.67391177301E+02 -0.12255008146E+02 -0.17113659683E+03  0.18433526732E+03  0.00000000000E+00 0.  1.
</event>
<event>
 8    1  0.6703334E-009  0.1155049E+03  0.7561462E-02  0.1250702E+00
         -1   -1    0    0    0  501 -0.00000000000E+00  0.00000000000E+00  0.36266311712E+02  0.36266311712E+02  0.00000000000E+00 0.  1.
          1   -1    0    0  501    0  0.00000000000E+00 -0.00000000000E+00 -0.44711734882E+03  0.44711734882E+03  0.00000000000E+00 0. -1.
         25    2    1    2    0    0  0.64968950488E+02 -0.12826053945E+02 -0.24537039492E+03  0.28326480913E+03  0.12508736627E+03 0.  0.
         23    2    1    2    0    0 -0.64968950488E+02  0.12826053945E+02 -0.16548064219E+03  0.20011885140E+03  0.90984831486E+02 0.  0.
          5    1    3    3  502    0  0.78063685070E+01 -0.60435588815E+02 -0.15196783888E+03  0.16378368734E+03  0.41800000000E+01 0. -1.
         -5    1    3    3    0  502  0.57162581981E+02  0.47609534870E+02 -0.93402556036E+02  0.11948112179E+03  0.41800000000E+01 0. -1.
        -11    1    4    4    0    0 -0.96172470553E+01  0.34620360681E+02 -0.16185685065E+02  0.39408593170E+02  0.00000000000E+00 0. -1.
         11    1    4    4    0    0 -0.55351703433E+02 -0.21794306736E+02 -0.14929495712E+03  0.16071025823E+03  0.00000000000E+00 0.  1.
</event>
<event>
 8    1  0.6703334E-009  0.9677512E+02  0.7561462E-02  0.1287227E+00
          2   -1    0    0  501    0  0.00000000000E+00  0.00000000000E+00  0.62149924259E+03  0.62149924259E+03  0.00000000000E+00 0.  1.
         -2   -1    0    0    0  501 -0.00000000000E+00 -0.00000000000E+00 -0.28578601628E+02  0.28578601628E+02  0.00000000000E+00 0. -1.
         25    2    1    2    0    0 -0.98660427426E+01  0.79711854032E+02  0.36953188527E+03  0.39830307294E+03  0.12506080605E+03 0.  0.
         23    2    1    2    0    0  0.98660427426E+01 -0.79711854032E+02  0.22338875570E+03  0.25177477128E+03  0.83884926000E+02 0.  0.
          5    1    3    3  502    0  0.21275537937E+00  0.54407935075E+02  0.40093770356E+02  0.67714485048E+02  0.41800000000E+01 0.  1.
         -5    1    3    3    0  502 -0.10078798122E+02  0.25303918958E+02  0.32943811491E+03  0.33058858789E+03  0.41800000000E+01 0.  1.
        -11    1    4    4    0    0  0.40842309494E+02 -0.65853266158E+02  0.18478901724E+03  0.20037896047E+03  0.00000000000E+00 0. -1.
         11    1    4    4    0    0 -0.30976266751E+02 -0.13858587874E+02  0.38599738461E+02  0.51395810811E+02  0.00000000000E+00 0.  1.
</event>
<event>
 8    1  0.6703334E-009  0.2117454E+03  0.7561462E-02  0.1140191E+00
         -2   -1    0    0    0  501 -0.00000000000E+00  0.00000000000E+00  0.28304464040E+02  0.28304464040E+02  0.00000000000E+00 0. -1.
          2   -1    0    0  501    0  0.00000000000E+00 -0.00000000000E+00 -0.18065155392E+04  0.18065155392E+04  0.00000000000E+00 0.  1.
         25    2    1    2    0    0 -0.50534358598E+01  0.19348528999E+03 -0.10964812738E+04  0.11204375367E+04  0.12508794983E+03 0.  0.
         23    2    1    2    0    0  0.50534358598E+01 -0.19348528999E+03 -0.68172980132E+03  0.71438246650E+03  0.90137072177E+02 0.  0.
          5    1    3    3  502    0 -0.62521943963E+02  0.78619774905E+02 -0.54353104124E+03  0.55275087307E+03  0.41800000000E+01 0.  1.
         -5    1    3    3    0  502  0.57468508103E+02  0.11486551508E+03 -0.55295023255E+03  0.56768666362E+03  0.41800000000E+01 0.  1.
        -11    1    4    4    0    0  0.12164534527E+02 -0.12808583105E+03 -0.57327516287E+03  0.58753584433E+03  0.00000000000E+00 0.  1.
         11    1    4    4    0    0 -0.71110986676E+01 -0.65399458936E+02 -0.10845463846E+03  0.12684662217E+03  0.00000000000E+00 0. -1.
</event>
<event>
 8    1  0.6703334E-009  0.1248346E+03  0.7561462E-02  0.1235328E+00
         -1   -1    0    0    0  501 -0.00000000000E+00  0.00000000000E+00  0.10041724821E+03  0.10041724821E+03  0.00000000000E+00 0.  1.
          1   -1    0    0  501    0  0.00000000000E+00 -0.00000000000E+00 -0.22431496441E+03  0.22431496441E+03  0.00000000000E+00 0. -1.
         25    2    1    2    0    0 -0.77816844926E+02  0.35859400813E+02  0.85550610000E+00  0.15162299680E+03  0.12508974094E+03 0.  0.
         23    2    1    2    0    0  0.77816844926E+02 -0.35859400813E+02 -0.12475322231E+03  0.17310921582E+03  0.84036159742E+02 0.  0.
          5    1    3    3  502    0 -0.66044900849E+02  0.71484943375E+02  0.32154475753E+02  0.10258366716E+03  0.41800000000E+01 0.  1.
         -5    1    3    3    0  502 -0.11771944076E+02 -0.35625542562E+02 -0.31298969653E+02  0.49039329640E+02  0.41800000000E+01 0.  1.
        -11    1    4    4    0    0  0.40702883185E+02 -0.58321843042E+02 -0.10135793451E+03  0.12382080990E+03  0.00000000000E+00 0.  1.
         11    1    4    4    0    0  0.37113961741E+02  0.22462442229E+02 -0.23395287794E+02  0.49288405918E+02  0.00000000000E+00 0. -1.
</event>
<event>
 8    1  0.6703334E-009  0.6917156E+02  0.7561462E-02  0.1362933E+00
         -1   -1    0    0    0  501 -0.00000000000E+00  0.00000000000E+00  0.57613641162E+02  0.57613641162E+02  0.00000000000E+00 0.  1.
          1   -1    0    0  501    0  0.00000000000E+00 -0.00000000000E+00 -0.31314067693E+03  0.31314067693E+03  0.00000000000E+00 0. -1.
         25    2    1    2    0    0 -0.47250533958E+02 -0.21333873421E+02 -0.22457174292E+03  0.26223737165E+03  0.12509286253E+03 0.  0.
         23    2    1    2    0    0  0.47250533958E+02  0.21333873421E+02 -0.30955292844E+02  0.10851694644E+03  0.90166237557E+02 0.  0.
          5    1    3    3  502    0 -0.12386347105E+01 -0.63947302460E+01 -0.21191771294E+03  0.21205899238E+03  0.41800000000E+01 0.  1.
         -5    1    3    3    0  502 -0.46011899247E+02 -0.14939143175E+02 -0.12654029977E+02  0.50178379267E+02  0.41800000000E+01 0.  1.
        -11    1    4    4    0    0 -0.12999979757E+02  0.17329520767E+02 -0.41881778214E+02  0.47152890792E+02  0.00000000000E+00 0. -1.
         11    1    4    4    0    0  0.60250513715E+02  0.40043526542E+01  0.10926485370E+02  0.61364055648E+02  0.00000000000E+00 0.  1.
</event>
<event>
 8    1  0.6703334E-009  0.1155532E+03  0.7561462E-02  0.1250618E+00
          2   -1    0    0  501    0  0.00000000000E+00  0.00000000000E+00  0.18794705255E+03  0.18794705255E+03  0.00000000000E+00 0.  1.
         -2   -1    0    0    0  501 -0.00000000000E+00 -0.00000000000E+00 -0.11403131016E+03  0.11403131016E+03  0.00000000000E+00 0. -1.
         25    2    1    2    0    0 -0.80661180150E+02  0.41523617692E+02  0.79252050705E+02  0.17366388783E+03  0.12509125304E+03 0.  0.
         23    2    1    2    0    0  0.80661180150E+02 -0.41523617692E+02 -0.53363083116E+01  0.12831447488E+03  0.90585271797E+02 0.  0.
          5    1    3    3  502    0 -0.34878855212E+02 -0.34815194380E+02  0.67646735375E+02  0.83798481534E+02  0.41800000000E+01 0. -1.
         -5    1    3    3    0  502 -0.45782324939E+02  0.76338812073E+02  0.11605315330E+02  0.89865406300E+02  0.41800000000E+01 0. -1.
        -11    1    4    4    0    0  0.53082017318E+02 -0.17304116332E+02  0.40951834449E+02  0.69240058849E+02  0.00000000000E+00 0.  1.
         11    1    4    4    0    0  0.27579162832E+02 -0.24219501361E+02 -0.46288142761E+02  0.59074416027E+02  0.00000000000E+00 0. -1.
</event>
<event>
 8    1  0.6703334E-009  0.1279132E+03  0.7561462E-02  0.1230585E+00
         -2   -1    0    0    0  501 -0.00000000000E+00  0.00000000000E+00  0.14578339446E+03  0.14578339446E+03  0.00000000000E+00 0.  1.
          2   -1    0    0  501    0  0.00000000000E+00 -0.00000000000E+00 -0.15018612653E+03  0.15018612653E+03  0.00000000000E+00 0. -1.
         25    2    1    2    0    0 -0.70709958092E+02 -0.66883237609E+02  0.28050705519E+02  0.16095668638E+03  0.12508775785E+03 0.  0.
         23    2    1    2    0    0  0.70709958092E+02  0.66883237609E+02 -0.32453437593E+02  0.13501283461E+03  0.87760892502E+02 0.  0.
          5    1    3    3  502    0 -0.92520885142E+02 -0.50044886728E+01  0.16419515781E+02  0.94192526205E+02  0.41800000000E+01 0.  1.
         -5    1    3    3    0  502  0.21810927050E+02 -0.61878748936E+02  0.11631189738E+02  0.66764160171E+02  0.41800000000E+01 0.  1.
        -11    1    4    4    0    0  0.35666577572E+02  0.34172569801E+02  0.28841152311E+02  0.57198613176E+02  0.00000000000E+00 0.  1.
         11    1    4    4    0    0  0.35043380519E+02  0.32710667807E+02 -0.61294589904E+02  0.77814221439E+02  0.00000000000E+00 0. -1.
</event>
<event>
 8    1  0.6703334E-009  0.2086515E+03  0.7561462E-02  0.1142638E+00
         -2   -1    0    0    0  501 -0.00000000000E+00  0.00000000000E+00  0.15104259704E+03  0.15104259704E+03  0.00000000000E+00 0.  1.
          2   -1    0    0  501    0  0.00000000000E+00 -0.00000000000E+00 -0.42769705354E+03  0.42769705354E+03  0.00000000000E+00 0. -1.
         25    2    1    2    0    0  0.45642674159E+02  0.20066882079E+03 -0.26087701931E+03  0.35503900184E+03  0.12507855245E+03 0.  0.
         23    2    1    2    0    0 -0.45642674159E+02 -0.20066882079E+03 -0.15777437193E+02  0.22370064874E+03  0.86266003623E+02 0.  0.
          5    1    3    3  502    0  0.16630782657E+02  0.26506035694E+02 -0.13376562763E+03  0.13744041761E+03  0.41800000000E+01 0.  1.
         -5    1    3    3    0  502  0.29011891502E+02  0.17416278510E+03 -0.12711139168E+03  0.21759858423E+03  0.41800000000E+01 0.  1.
        -11    1    4    4    0    0 -0.36489768408E+02 -0.78018285380E+02  0.31820659622E+02  0.91819989278E+02  0.00000000000E+00 0.  1.
         11    1    4    4    0    0 -0.91529057511E+01 -0.12265053541E+03 -0.47598096815E+02  0.13188065946E+03  0.00000000000E+00 0. -1.
</event>
<event>
 8    1  0.6703334E-009  0.8756394E+02  0.7561462E-02  0.1308861E+00
          1   -1    0    0  501    0  0.00000000000E+00  0.00000000000E+00  0.13349756488E+03  0.13349756488E+03  0.00000000000E+00 0. -1.
         -1   -1    0    0    0  501 -0.00000000000E+00 -0.00000000000E+00 -0.13436166182E+03  0.13436166182E+03  0.00000000000E+00 0.  1.
         25    2    1    2    0    0 -0.75597058941E+02  0.17939256427E+02 -0.38297641197E+01  0.14730469306E+03  0.12508906132E+03 0.  0.
         23    2    1    2    0    0  0.75597058941E+02 -0.17939256427E+02  0.29656671818E+01  0.12055453364E+03  0.92129626923E+02 0.  0.
          5    1    3    3  502    0 -0.50938369894E+02 -0.16681508816E+02 -0.57496890717E+02  0.78716930238E+02  0.41800000000E+01 0.  1.
         -5    1    3    3    0  502 -0.24658689046E+02  0.34620765242E+02  0.53667126598E+02  0.68587762820E+02  0.41800000000E+01 0.  1.
        -11    1    4    4    0    0  0.62253100445E+02 -0.97863289188E+01  0.43856003831E+02  0.76776101886E+02  0.00000000000E+00 0. -1.
         11    1    4    4    0    0  0.13343958496E+02 -0.81529275078E+01 -0.40890336649E+02  0.43778431751E+02  0.00000000000E+00 0.  1.
</event>
<event>
 8    1  0.6703334E-009  0.2364683E+03  0.7561462E-02  0.1122168E+00
         -2   -1    0    0    0  501 -0.00000000000E+00  0.00000000000E+00  0.18177762394E+03  0.18177762394E+03  0.00000000000E+00 0.  1.
          2   -1    0    0  501    0  0.00000000000E+00 -0.00000000000E+00 -0.37074552136E+03  0.37074552136E+03  0.00000000000E+00 0. -1.
         25    2    1    2    0    0 -0.76019450190E+02  0.21042611409E+03 -0.17653387296E+03  0.31124168138E+03  0.12509624147E+03 0.  0.
         23    2    1    2    0    0  0.76019450190E+02 -0.21042611409E+03 -0.12434024452E+02  0.24128146392E+03  0.89465264599E+02 0.  0.
          5    1    3    3  502    0 -0.10004896366E+02  0.17102989118E+03 -0.83955689649E+02  0.19083330908E+03  0.41800000000E+01 0.  1.
         -5    1    3    3    0  502 -0.66014553824E+02  0.39396222905E+02 -0.92578183313E+02  0.12040837231E+03  0.41800000000E+01 0.  1.
        -11    1    4    4    0    0  0.48941934372E+02 -0.10700814642E+03  0.37210587536E+02  0.12341265804E+03  0.00000000000E+00 0.  1.
         11    1    4    4    0    0  0.27077515817E+02 -0.10341796767E+03 -0.49644611988E+02  0.11786880588E+03  0.00000000000E+00 0. -1.
</event>
<event>
 8    1  0.6703334E-009  0.2554303E+03  0.7561462E-02  0.1109920E+00
          1   -1    0    0  501    0  0.00000000000E+00  0.00000000000E+00  0.55211976679E+03  0.55211976679E+03  0.00000000000E+00 0. -1.
         -1   -1    0    0    0  501 -0.00000000000E+00 -0.00000000000E+00 -0.17051737954E+03  0.17051737954E+03  0.00000000000E+00 0.  1.
         25    2    1    2    0    0 -0.23554754600E+03 -0.73062088898E+02  0.23103730117E+02  0.27749169767E+03  0.12508854732E+03 0.  0.
         23    2    1    2    0    0  0.23554754600E+03  0.73062088898E+02  0.35849865713E+03  0.44514544866E+03  0.93874746526E+02 0.  0.
          5    1    3    3  502    0 -0.17475696746E+03 -0.47223145584E+02  0.72352058684E+02  0.19499311770E+03  0.41800000000E+01 0. -1.
         -5    1    3    3    0  502 -0.60790578545E+02 -0.25838943315E+02 -0.49248328566E+02  0.82498579976E+02  0.41800000000E+01 0. -1.
        -11    1    4    4    0    0  0.94838207728E+02  0.78017215497E+02  0.17726437930E+03  0.21564700723E+03  0.00000000000E+00 0. -1.
         11    1    4    4    0    0  0.14070933827E+03 -0.49551265990E+01  0.18123427784E+03  0.22949844143E+03  0.00000000000E+00 0.  1.
</event>
<event>
 8    1  0.6703334E-009  0.1959883E+03  0.7561462E-02  0.1153169E+00
         -2   -1    0    0    0  501 -0.00000000000E+00  0.00000000000E+00  0.23799989413E+02  0.23799989413E+02  0.00000000000E+00 0.  1.
          2   -1    0    0  501    0  0.00000000000E+00 -0.00000000000E+00 -0.18058523382E+04  0.18058523382E+04  0.00000000000E+00 0. -1.
         25    2    1    2    0    0  0.17237228650E+03  0.30687862241E+02 -0.96945533973E+03  0.99304836710E+03  0.12508978221E+03 0.  0.
         23    2    1    2    0    0 -0.17237228650E+03 -0.30687862241E+02 -0.81259700909E+03  0.83660396056E+03  0.94542781807E+02 0.  0.
          5    1    3    3  502    0  0.34236044390E+02 -0.34197929777E+02 -0.11157231702E+03  0.12168590494E+03  0.41800000000E+01 0.  1.
         -5    1    3    3    0  502  0.13813624211E+03  0.64885792019E+02 -0.85788302272E+03  0.87136246216E+03  0.41800000000E+01 0.  1.
        -11    1    4    4    0    0 -0.22189650172E+02  0.22316570863E+02 -0.64827517970E+02  0.72062590822E+02  0.00000000000E+00 0.  1.
         11    1    4    4    0    0 -0.15018263632E+03 -0.53004433104E+02 -0.74776949112E+03  0.76454136974E+03  0.00000000000E+00 0. -1.
</event>
<event>
 8    1  0.6703334E-009  0.1673029E+03  0.7561462E-02  0.1180690E+00
          1   -1    0    0  501    0  0.00000000000E+00  0.00000000000E+00  0.15446857066E+04  0.15446857066E+04  0.00000000000E+00 0. -1.
         -1   -1    0    0    0  501 -0.00000000000E+00 -0.00000000000E+00 -0.19644170351E+02  0.19644170351E+02  0.00000000000E+00 0.  1.
         25    2    1    2    0    0  0.11659706794E+03 -0.49614628149E+02  0.60569406439E+03  0.63132059165E+03  0.12507558607E+03 0.  0.
         23    2    1    2    0    0 -0.11659706794E+03  0.49614628149E+02  0.91934747187E+03  0.93300928531E+03  0.96177257498E+02 0.  0.
          5    1    3    3  502    0  0.60540656198E+02  0.37880701939E+02  0.30037130145E+03  0.30877258584E+03  0.41800000000E+01 0. -1.
         -5    1    3    3    0  502  0.56056411738E+02 -0.87495330088E+02  0.30532276294E+03  0.32254800581E+03  0.41800000000E+01 0. -1.
        -11    1    4    4    0    0 -0.13293776121E+03  0.51621478711E+02  0.82127028133E+03  0.83355989612E+03  0.00000000000E+00 0.  1.
         11    1    4    4    0    0  0.16340693278E+02 -0.20068505626E+01  0.98077190533E+02  0.99449389183E+02  0.00000000000E+00 0. -1.
</event>
<event>
 8    1  0.6703334E-009  0.1117617E+03  0.7561462E-02  0.1257342E+00
          2   -1    0    0  501    0  0.00000000000E+00  0.00000000000E+00  0.16999775064E+03  0.16999775064E+03  0.00000000000E+00 0. -1.
         -2   -1    0    0    0  501 -0.00000000000E+00 -0.00000000000E+00 -0.92516437095E+02  0.92516437095E+02  0.00000000000E+00 0.  1.
         25    2    1    2    0    0  0.18560768535E+02  0.55936101785E+02  0.17782667142E+02  0.13941784476E+03  0.12509101716E+03 0.  0.
         23    2    1    2    0    0 -0.18560768535E+02 -0.55936101785E+02  0.59698646401E+02  0.12309634297E+03  0.90085690651E+02 0.  0.
          5    1    3    3  502    0  0.63935873391E+02  0.14572980945E+02  0.36406851016E+02  0.75120562303E+02  0.41800000000E+01 0. -1.
         -5    1    3    3    0  502 -0.45375104856E+02  0.41363120840E+02 -0.18624183874E+02  0.64297282456E+02  0.41800000000E+01 0. -1.
        -11    1    4    4    0    0  0.28880263383E+02 -0.32105604557E+02  0.54815378317E+02  0.69782269647E+02  0.00000000000E+00 0. -1.
         11    1    4    4    0    0 -0.47441031918E+02 -0.23830497227E+02  0.48832680837E+01  0.53314073327E+02  0.00000000000E+00 0.  1.
</event>
<event>
 8    1  0.6703334E-009  0.1139950E+03  0.7561462E-02  0.1253346E+00
         -2   -1    0    0    0  501 -0.00000000000E+00  0.00000000000E+00  0.33128901905E+02  0.33128901905E+02  0.00000000000E+00 0.  1.
          2   -1    0    0  501    0  0.00000000000E+00 -0.00000000000E+00 -0.59786329675E+03  0.59786329675E+03  0.00000000000E+00 0. -1.
         25    2    1    2    0    0  0.79315690735E+02  0.41538296133E+02 -0.31068086692E+03  0.34667981655E+03  0.12509150768E+03 0.  0.
         23    2    1    2    0    0 -0.79315690735E+02 -0.41538296133E+02 -0.25405352793E+03  0.28431238211E+03  0.90961127533E+02 0.  0.
          5    1    3    3  502    0 -0.33097768387E+01  0.18158974873E+02 -0.22328882167E+03  0.22408943142E+03  0.41800000000E+01 0.  1.
         -5    1    3    3    0  502  0.82625467574E+02  0.23379321261E+02 -0.87392045246E+02  0.12259038513E+03  0.41800000000E+01 0.  1.
        -11    1    4    4    0    0 -0.64453103568E+02 -0.67404805386E+02 -0.22051783483E+03  0.23942791364E+03  0.00000000000E+00 0.  1.
         11    1    4    4    0    0 -0.14862587167E+02  0.25866509253E+02 -0.33535693096E+02  0.44884468468E+02  0.00000000000E+00 0. -1.
</event>
<event>
 8    1  0.6703334E-009  0.9972129E+02  0.7561462E-02  0.1280883E+00
          2   -1    0    0  501    0  0.00000000000E+00  0.00000000000E+00  0.11445962070E+04  0.11445962070E+04  0.00000000000E+00 0. -1.
         -2   -1    0    0    0  501 -0.00000000000E+00 -0.00000000000E+00 -0.13634015616E+02  0.13634015616E+02  0.00000000000E+00 0.  1.
         25    2    1    2    0    0  0.68193650617E+01  0.12087462916E+02  0.91018622910E+03  0.91884658502E+03  0.12508982635E+03 0.  0.
         23    2    1    2    0    0 -0.68193650617E+01 -0.12087462916E+02  0.22077596225E+03  0.23938363756E+03  0.91487102510E+02 0.  0.
          5    1    3    3  502    0  0.55400177141E+02  0.32433651920E+02  0.32673903724E+03  0.33301200018E+03  0.41800000000E+01 0. -1.
         -5    1    3    3    0  502 -0.48580812079E+02 -0.20346189004E+02  0.58344719186E+03  0.58583458484E+03  0.41800000000E+01 0. -1.
        -11    1    4    4    0    0  0.15743207764E+02  0.30362947080E+02  0.14982934168E+03  0.15368340436E+03  0.00000000000E+00 0. -1.
         11    1    4    4    0    0 -0.22562572826E+02 -0.42450409996E+02  0.70946620568E+02  0.85700233205E+02  0.00000000000E+00 0.  1.
</event>
<event>
 8    1  0.6703334E-009  0.9534897E+02  0.7561462E-02  0.1290392E+00
         -2   -1    0    0    0  501 -0.00000000000E+00  0.00000000000E+00  0.41815387045E+02  0.41815387045E+02  0.00000000000E+00 0.  1.
          2   -1    0    0  501    0  0.00000000000E+00 -0.00000000000E+00 -0.38087145803E+03  0.38087145803E+03  0.00000000000E+00 0. -1.
         25    2    1    2    0    0  0.23203154822E+02  0.37232274152E+02 -0.26481540686E+03  0.29614095569E+03  0.12509051641E+03 0.  0.
         23    2    1    2    0    0 -0.23203154822E+02 -0.37232274152E+02 -0.74240664125E+02  0.12654588938E+03  0.92615102862E+02 0.  0.
          5    1    3    3  502    0 -0.67942873426E+00 -0.23921098506E+02 -0.20742051724E+03  0.20883827223E+03  0.41800000000E+01 0.  1.
         -5    1    3    3    0  502  0.23882583556E+02  0.61153372658E+02 -0.57394889624E+02  0.87302683463E+02  0.41800000000E+01 0.  1.
        -11    1    4    4    0    0  0.30979020528E+02  0.56899466869E+01 -0.12577547986E+02  0.33915629429E+02  0.00000000000E+00 0.  1.
         11    1    4    4    0    0 -0.54182175350E+02 -0.42922220839E+02 -0.61663116139E+02  0.92630259955E+02  0.00000000000E+00 0. -1.
</event>
<event>
 8    1  0.6703334E-009  0.1072628E+03  0.7561462E-02  0.1265724E+00
         -1   -1    0    0    0  501 -0.00000000000E+00  0.00000000000E+00  0.31956096197E+02  0.31956096197E+02  0.00000000000E+00 0.  1.
          1   -1    0    0  501    0  0.00000000000E+00 -0.00000000000E+00 -0.74997926204E+03  0.74997926204E+03  0.00000000000E+00 0. -1.
         25    2    1    2    0    0 -0.25306973834E+02  0.89135962681E+02 -0.55353356060E+03  0.57500646216E+03  0.12508943216E+03 0.  0.
         23    2    1    2    0    0  0.25306973834E+02 -0.89135962681E+02 -0.16448960524E+03  0.20692889608E+03  0.84717619385E+02 0.  0.
          5    1    3    3  502    0 -0.32903003397E+02  0.17200660366E+02 -0.43127421248E+03  0.43288958072E+03  0.41800000000E+01 0.  1.
         -5    1    3    3    0  502  0.75960295623E+01  0.71935302315E+02 -0.12225934812E+03  0.14211688143E+03  0.41800000000E+01 0.  1.
        -11    1    4    4    0    0 -0.11630776638E+02 -0.48140438224E+02 -0.22123116929E+02  0.54242133626E+02  0.00000000000E+00 0.  1.
         11    1    4    4    0    0  0.36937750472E+02 -0.40995524456E+02 -0.14236648831E+03  0.15268676246E+03  0.00000000000E+00 0. -1.
</event>
<event>
 8    1  0.6703334E-009  0.6876984E+02  0.7561462E-02  0.1364327E+00
          2   -1    0    0  501    0  0.00000000000E+00  0.00000000000E+00  0.22357994956E+03  0.22357994956E+03  0.00000000000E+00 0. -1.
         -2   -1    0    0    0  501 -0.00000000000E+00 -0.00000000000E+00 -0.53848447519E+02  0.53848447519E+02  0.00000000000E+00 0.  1.
         25    2    1    2    0    0 -0.26411191418E+02  0.10488226515E+02  0.16574451337E+03  0.20958530076E+03  0.12508877108E+03 0.  0.
         23    2    1    2    0    0  0.26411191418E+02 -0.10488226515E+02  0.39869886620E+01  0.67843096319E+02  0.61475488709E+02 0.  0.
          5    1    3    3  502    0  0.22380938086E+02  0.36673314514E+02  0.10101457728E+02  0.44332270811E+02  0.41800000000E+01 0. -1.
         -5    1    3    3    0  502 -0.48792129504E+02 -0.26185087999E+02  0.15564305565E+03  0.16525302994E+03  0.41800000000E+01 0. -1.
        -11    1    4    4    0    0  0.18814847728E+02 -0.19471890011E+02  0.29320879448E+02  0.39910737493E+02  0.00000000000E+00 0. -1.
         11    1    4    4    0    0  0.75963436901E+01  0.89836634955E+01 -0.25333890786E+02  0.27932358826E+02  0.00000000000E+00 0.  1.
</event>
<event>
 8    1  0.6703334E-009  0.9372308E+02  0.7561462E-02  0.1294078E+00
         -1   -1    0    0    0  501 -0.00000000000E+00  0.00000000000E+00  0.36841776237E+02  0.36841776237E+02  0.00000000000E+00 0.  1.
          1   -1    0    0  501    0  0.00000000000E+00 -0.00000000000E+00 -0.34828606450E+03  0.34828606450E+03  0.00000000000E+00 0. -1.
         25    2    1    2    0    0 -0.76378930987E+00  0.31485619324E+02 -0.16892315796E+03  0.21254347511E+03  0.12509103851E+03 0.  0.
         23    2    1    2    0    0  0.76378930987E+00 -0.31485619324E+02 -0.14252113030E+03  0.17258436563E+03  0.92093230367E+02 0.  0.
          5    1    3    3  502    0  0.47290859005E+02  0.31748037235E+02 -0.15038889071E+03  0.16086843713E+03  0.41800000000E+01 0. -1.
         -5    1    3    3    0  502 -0.48054648315E+02 -0.26241791062E+00 -0.18534267251E+02  0.51675037981E+02  0.41800000000E+01 0. -1.
        -11    1    4    4    0    0  0.96832831451E+01  0.24009949912E+02 -0.84917369266E+01  0.27246160524E+02  0.00000000000E+00 0.  1.
         11    1    4    4    0    0 -0.89194938352E+01 -0.55495569237E+02 -0.13402939338E+03  0.14533820511E+03  0.00000000000E+00 0. -1.
</event>
<event>
 8    1  0.6703334E-009  0.8425986E+02  0.7561462E-02  0.1317380E+00
          1   -1    0    0  501    0  0.00000000000E+00  0.00000000000E+00  0.16641361633E+02  0.16641361633E+02  0.00000000000E+00 0. -1.
         -1   -1    0    0    0  501 -0.00000000000E+00 -0.00000000000E+00 -0.14231014610E+04  0.14231014610E+04  0.00000000000E+00 0.  1.
         25    2    1    2    0    0  0.26975631993E+02 -0.48678193999E+02 -0.11855520957E+04  0.11934318283E+04  0.12509398862E+03 0.  0.
         23    2    1    2    0    0 -0.26975631993E+02  0.48678193999E+02 -0.22090800371E+03  0.24631099433E+03  0.93656332055E+02 0.  0.
          5    1    3    3  502    0 -0.82735954306E+01 -0.24710588214E+02 -0.10679025554E+04  0.10682286300E+04  0.41800000000E+01 0.  1.
         -5    1    3    3    0  502  0.35249227423E+02 -0.23967605785E+02 -0.11764954021E+03  0.12520319833E+03  0.41800000000E+01 0.  1.
        -11    1    4    4    0    0  0.29504010223E+02  0.11427235480E+02 -0.29353171421E+02  0.43158741900E+02  0.00000000000E+00 0. -1.
         11    1    4    4    0    0 -0.56479642216E+02  0.37250958519E+02 -0.19155483229E+03  0.20315225243E+03  0.00000000000E+00 0.  1.
</event>
<event>
 7    1  0.6703334E-009  0.1421328E+03  0.7561462E-02  0.1210488E+00
          2   -1    0    0  501    0  0.00000000000E+00  0.00000000000E+00  0.32245896016E+02  0.32245896016E+02  0.00000000000E+00 0.  1.
         -2   -1    0    0    0  501 -0.00000000000E+00 -0.00000000000E+00 -0.76553976293E+03  0.76553976293E+03  0.00000000000E+00 0. -1.
         25    2    1    2    0    0 -0.36688686332E+02  0.39428649497E+02 -0.38981277825E+03  0.41292126279E+03  0.12509711856E+03 0.  0.
          5    1    3    3  502    0 -0.61055223289E+02 -0.65842440345E+01 -0.31924739187E+03  0.32512684013E+03  0.41800000000E+01 0. -1.
         -5    1    3    3    0  502  0.24366536957E+02  0.46012893532E+02 -0.70565386380E+02  0.87794422655E+02  0.41800000000E+01 0. -1.
        -11    1    1    2    0    0 -0.64095894896E+02 -0.63666012822E+01 -0.95949809599E+02  0.11556462831E+03  0.00000000000E+00 0.  1.
         11    1    1    2    0    0  0.10078458123E+03 -0.33062048215E+02 -0.24753127907E+03  0.26929976785E+03  0.00000000000E+00 0. -1.
</event>
<event>
 8    1  0.6703334E-009  0.9705894E+02  0.7561462E-02  0.1286605E+00
          2   -1    0    0  501    0  0.00000000000E+00  0.00000000000E+00  0.46676107464E+03  0.46676107464E+03  0.00000000000E+00 0. -1.
         -2   -1    0    0    0  501 -0.00000000000E+00 -0.00000000000E+00 -0.65483743085E+02  0.65483743085E+02  0.00000000000E+00 0.  1.
         25    2    1    2    0    0 -0.54174426728E+02  0.33625175326E+02  0.39876686700E+03  0.42276241629E+03  0.12509006947E+03 0.  0.
         23    2    1    2    0    0  0.54174426728E+02 -0.33625175326E+02  0.25104645485E+01  0.10948240143E+03  0.88963885168E+02 0.  0.
          5    1    3    3  502    0 -0.38734698856E+02  0.51261708297E+02  0.78126004264E+02  0.10123875036E+03  0.41800000000E+01 0.  1.
         -5    1    3    3    0  502 -0.15439727872E+02 -0.17636532972E+02  0.32064086274E+03  0.32152366593E+03  0.41800000000E+01 0.  1.
        -11    1    4    4    0    0  0.33536302737E+02 -0.62204951332E+02  0.14700136052E+02  0.72181947684E+02  0.00000000000E+00 0. -1.
         11    1    4    4    0    0  0.20638123991E+02  0.28579776007E+02 -0.12189671503E+02  0.37300453748E+02  0.00000000000E+00 0.  1.
</event>
<event>
 8    1  0.6703334E-009  0.1434179E+03  0.7561462E-02  0.1208802E+00
         -2   -1    0    0    0  501 -0.00000000000E+00  0.00000000000E+00  0.66497817782E+02  0.66497817782E+02  0.00000000000E+00 0.  1.
          2   -1    0    0  501    0  0.00000000000E+00 -0.00000000000E+00 -0.61775114840E+03  0.61775114840E+03  0.00000000000E+00 0. -1.
         25    2    1    2    0    0 -0.70311696022E+02  0.81182733542E+02 -0.51341746770E+03  0.53923784805E+03  0.12508233211E+03 0.  0.
         23    2    1    2    0    0  0.70311696022E+02 -0.81182733542E+02 -0.37835862913E+02  0.14501111813E+03  0.89790317051E+02 0.  0.
          5    1    3    3  502    0 -0.10153645810E+03  0.32170271492E+02 -0.32964195249E+03  0.34644749664E+03  0.41800000000E+01 0. -1.
         -5    1    3    3    0  502  0.31224762077E+02  0.49012462050E+02 -0.18377551521E+03  0.19279035140E+03  0.41800000000E+01 0. -1.
        -11    1    4    4    0    0  0.49885806117E+02 -0.14077565606E+02  0.18507930887E+02  0.55039213394E+02  0.00000000000E+00 0.  1.
         11    1    4    4    0    0  0.20425889905E+02 -0.67105167935E+02 -0.56343793800E+02  0.89971904736E+02  0.00000000000E+00 0. -1.
</event>
<event>
 8    1  0.6703334E-009  0.1391758E+03  0.7561462E-02  0.1214442E+00
         -2   -1    0    0    0  501 -0.00000000000E+00  0.00000000000E+00  0.26399773749E+02  0.26399773749E+02  0.00000000000E+00 0.  1.
          2   -1    0    0  501    0  0.00000000000E+00 -0.00000000000E+00 -0.10483986146E+04  0.10483986146E+04  0.00000000000E+00 0. -1.
         25    2    1    2    0    0 -0.10048583153E+03 -0.59888732018E+02 -0.39855582537E+03  0.43379487002E+03  0.12508869158E+03 0.  0.
         23    2    1    2    0    0  0.10048583153E+03  0.59888732018E+02 -0.62344301544E+03  0.64100351828E+03  0.92305224078E+02 0.  0.
          5    1    3    3  502    0  0.16579856943E+02 -0.20920521462E+02 -0.18629711060E+03  0.18824623686E+03  0.41800000000E+01 0. -1.
         -5    1    3    3    0  502 -0.11706568847E+03 -0.38968210556E+02 -0.21225871477E+03  0.24554863316E+03  0.41800000000E+01 0. -1.
        -11    1    4    4    0    0  0.89537837703E+02  0.69473626458E+02 -0.61223687722E+03  0.62263761771E+03  0.00000000000E+00 0. -1.
         11    1    4    4    0    0  0.10947993826E+02 -0.95848944403E+01 -0.11206138216E+02  0.18365900576E+02  0.00000000000E+00 0.  1.
</event>
<event>
 8    1  0.6703334E-009  0.9833526E+02  0.7561462E-02  0.1283836E+00
         -2   -1    0    0    0  501 -0.00000000000E+00  0.00000000000E+00  0.32396206151E+02  0.32396206151E+02  0.00000000000E+00 0.  1.
          2   -1    0    0  501    0  0.00000000000E+00 -0.00000000000E+00 -0.58370254663E+03  0.58370254663E+03  0.00000000000E+00 0. -1.
         25    2    1    2    0    0  0.66381936750E+02  0.38711496287E+02 -0.37881805850E+03  0.40626973324E+03  0.12508730243E+03 0.  0.
         23    2    1    2    0    0 -0.66381936750E+02 -0.38711496287E+02 -0.17248828198E+03  0.20982901955E+03  0.91492450783E+02 0.  0.
          5    1    3    3  502    0  0.32605262328E+02 -0.46751071047E+01 -0.11961137549E+02  0.35291655804E+02  0.41800000000E+01 0. -1.
         -5    1    3    3    0  502  0.33776674422E+02  0.43386603391E+02 -0.36685692095E+03  0.37097807743E+03  0.41800000000E+01 0. -1.
        -11    1    4    4    0    0 -0.46269254429E+02  0.16844625889E+02 -0.35683341365E+02  0.60810247308E+02  0.00000000000E+00 0.  1.
         11    1    4    4    0    0 -0.20112682321E+02 -0.55556122176E+02 -0.13680494062E+03  0.14901877224E+03  0.00000000000E+00 0. -1.
</event>
<event>
 8    1  0.6703334E-009  0.1272152E+03  0.7561462E-02  0.1231647E+00
         -2   -1    0    0    0  501 -0.00000000000E+00  0.00000000000E+00  0.66141522030E+02  0.66141522030E+02  0.00000000000E+00 0.  1.
          2   -1    0    0  501    0  0.00000000000E+00 -0.00000000000E+00 -0.37145176118E+03  0.37145176118E+03  0.00000000000E+00 0. -1.
         25    2    1    2    0    0 -0.47474633337E+02  0.10100764332E+03 -0.18563865787E+03  0.25013220682E+03  0.12509206519E+03 0.  0.
         23    2    1    2    0    0  0.47474633337E+02 -0.10100764332E+03 -0.11967158128E+03  0.18746107639E+03  0.91454813839E+02 0.  0.
          5    1    3    3  502    0 -0.22385418730E+02  0.10149079744E+02  0.14519050478E+02  0.28851100813E+02  0.41800000000E+01 0.  1.
         -5    1    3    3    0  502 -0.25089214607E+02  0.90858563578E+02 -0.20015770835E+03  0.22128110601E+03  0.41800000000E+01 0.  1.
        -11    1    4    4    0    0 -0.15700983197E+02 -0.54452597164E+02 -0.83827748379E+02  0.10118644973E+03  0.00000000000E+00 0. -1.
         11    1    4    4    0    0  0.63175616534E+02 -0.46555046159E+02 -0.35843832898E+02  0.86274626653E+02  0.00000000000E+00 0.  1.
</event>
<event>
 8    1  0.6703334E-009  0.1220347E+03  0.7561462E-02  0.1239778E+00
         -1   -1    0    0    0  501 -0.00000000000E+00  0.00000000000E+00  0.46223433646E+02  0.46223433646E+02  0.00000000000E+00 0.  1.
          1   -1    0    0  501    0  0.00000000000E+00 -0.00000000000E+00 -0.36425001655E+03  0.36425001655E+03  0.00000000000E+00 0. -1.
         25    2    1    2    0    0 -0.98107423163E+01 -0.74264305303E+02 -0.17386297034E+03  0.22690858036E+03  0.12509090166E+03 0.  0.
         23    2    1    2    0    0  0.98107423163E+01  0.74264305303E+02 -0.14416361256E+03  0.18356486984E+03  0.85448677839E+02 0.  0.
          5    1    3    3  502    0  0.48990522989E+02 -0.51064635039E+02 -0.46842730212E+02  0.84966946915E+02  0.41800000000E+01 0.  1.
         -5    1    3    3    0  502 -0.58801265306E+02 -0.23199670264E+02 -0.12702024013E+03  0.14194163345E+03  0.41800000000E+01 0.  1.
        -11    1    4    4    0    0 -0.35171709200E+02  0.25204503143E+02 -0.34752666773E+02  0.55498323890E+02  0.00000000000E+00 0.  1.
         11    1    4    4    0    0  0.44982451517E+02  0.49059802160E+02 -0.10941094579E+03  0.12806654595E+03  0.00000000000E+00 0. -1.
</event>
<event>
 8    1  0.6703334E-009  0.2286721E+03  0.7561462E-02  0.1127578E+00
         -1   -1    0    0    0  501 -0.00000000000E+00  0.00000000000E+00  0.52585943043E+03  0.52585943043E+03  0.00000000000E+00 0.  1.
          1   -1    0    0  501    0  0.00000000000E+00 -0.00000000000E+00 -0.16034297859E+03  0.16034297859E+03  0.00000000000E+00 0. -1.
         25    2    1    2    0    0  0.14725103225E+03  0.16881765306E+03  0.17052555487E+02  0.25715656272E+03  0.12512570326E+03 0.  0.
         23    2    1    2    0    0 -0.14725103225E+03 -0.16881765306E+03  0.34846389636E+03  0.42904584631E+03  0.11167356305E+03 0.  0.
          5    1    3    3  502    0  0.56528726412E+02  0.36686078767E+02  0.60909787954E+02  0.90933162013E+02  0.41800000000E+01 0. -1.
         -5    1    3    3    0  502  0.90722305838E+02  0.13213157429E+03 -0.43857232468E+02  0.16622340070E+03  0.41800000000E+01 0. -1.
        -11    1    4    4    0    0 -0.10641234384E+03 -0.84777767788E+02  0.11703310119E+03  0.17946476982E+03  0.00000000000E+00 0. -1.
         11    1    4    4    0    0 -0.40838688411E+02 -0.84039885272E+02  0.23143079517E+03  0.24958107649E+03  0.00000000000E+00 0.  1.
</event>
<event>
 8    1  0.6703334E-009  0.1147572E+03  0.7561462E-02  0.1252005E+00
          2   -1    0    0  501    0  0.00000000000E+00  0.00000000000E+00  0.13572883480E+03  0.13572883480E+03  0.00000000000E+00 0. -1.
         -2   -1    0    0    0  501 -0.00000000000E+00 -0.00000000000E+00 -0.12043991408E+03  0.12043991408E+03  0.00000000000E+00 0.  1.
         25    2    1    2    0    0 -0.34388876687E+02  0.43398055781E+02  0.47936151303E+02  0.14495210042E+03  0.12508897125E+03 0.  0.
         23    2    1    2    0    0  0.34388876687E+02 -0.43398055781E+02 -0.32647230582E+02  0.11121664846E+03  0.90759655936E+02 0.  0.
          5    1    3    3  502    0 -0.75811769718E+02  0.24229498008E+02  0.57315250788E+02  0.98168240151E+02  0.41800000000E+01 0.  1.
         -5    1    3    3    0  502  0.41422893031E+02  0.19168557774E+02 -0.93790994853E+01  0.46783860266E+02  0.41800000000E+01 0.  1.
        -11    1    4    4    0    0  0.57550070673E+02 -0.32629173778E+01 -0.64942685214E+01  0.58007178762E+02  0.00000000000E+00 0.  1.
         11    1    4    4    0    0 -0.23161193986E+02 -0.40135138404E+02 -0.26152962061E+02  0.53209469703E+02  0.00000000000E+00 0. -1.
</event>
<event>
 8    1  0.6703334E-009  0.1228401E+03  0.7561462E-02  0.1238484E+00
          4   -1    0    0  501    0  0.00000000000E+00  0.00000000000E+00  0.28045226966E+02  0.28045226966E+02  0.00000000000E+00 0. -1.
         -4   -1    0    0    0  501 -0.00000000000E+00 -0.00000000000E+00 -0.71411132886E+03  0.71411132886E+03  0.00000000000E+00 0.  1.
         25    2    1    2    0    0  0.59902947022E+02 -0.67869569983E+02 -0.34366123649E+03  0.37675724363E+03  0.12509329946E+03 0.  0.
         23    2    1    2    0    0 -0.59902947022E+02  0.67869569983E+02 -0.34240486540E+03  0.36539931219E+03  0.89893959242E+02 0.  0.
          5    1    3    3  502    0 -0.21321070043E+02 -0.34854785807E+02 -0.22741065833E+03  0.23108986140E+03  0.41800000000E+01 0.  1.
         -5    1    3    3    0  502  0.81224017065E+02 -0.33014784175E+02 -0.11625057816E+03  0.14566738223E+03  0.41800000000E+01 0.  1.
        -11    1    4    4    0    0 -0.42166663129E+02  0.83272696977E+02 -0.31845336968E+03  0.33185074688E+03  0.00000000000E+00 0.  1.
         11    1    4    4    0    0 -0.17736283893E+02 -0.15403126994E+02 -0.23951495723E+02  0.33548565318E+02  0.00000000000E+00 0. -1.
</event>
<event>
 8    1  0.6703334E-009  0.1842573E+03  0.7561462E-02  0.1163745E+00
          2   -1    0    0  501    0  0.00000000000E+00  0.00000000000E+00  0.12947750519E+04  0.12947750519E+04  0.00000000000E+00 0.  1.
         -2   -1    0    0    0  501 -0.00000000000E+00 -0.00000000000E+00 -0.31102802563E+02  0.31102802563E+02  0.00000000000E+00 0. -1.
         25    2    1    2    0    0 -0.15684074288E+03  0.15806738888E+02  0.83086367735E+03  0.85488656895E+03  0.12509086220E+03 0.  0.
         23    2    1    2    0    0  0.15684074288E+03 -0.15806738888E+02  0.43280857197E+03  0.47099128549E+03  0.98288653566E+02 0.  0.
          5    1    3    3  502    0 -0.17070572161E+03  0.37309361068E+02  0.74275357292E+03  0.76304179067E+03  0.41800000000E+01 0.  1.
         -5    1    3    3    0  502  0.13864978725E+02 -0.21502622180E+02  0.88110104425E+02  0.91844778281E+02  0.41800000000E+01 0.  1.
        -11    1    4    4    0    0  0.14348947590E+03 -0.31800371710E+02  0.42330280186E+03  0.44809123558E+03  0.00000000000E+00 0.  1.
         11    1    4    4    0    0  0.13351266984E+02  0.15993632822E+02  0.95057701029E+01  0.22900049916E+02  0.00000000000E+00 0. -1.
</event>
<event>
 8    1  0.6703334E-009  0.1997864E+03  0.7561462E-02  0.1149919E+00
         -3   -1    0    0    0  501 -0.00000000000E+00  0.00000000000E+00  0.13326803865E+03  0.13326803865E+03  0.00000000000E+00 0.  1.
          3   -1    0    0  501    0  0.00000000000E+00 -0.00000000000E+00 -0.32684123872E+03  0.32684123872E+03  0.00000000000E+00 0. -1.
         25    2    1    2    0    0 -0.96080025756E+02 -0.14758452495E+03 -0.77352284952E+02  0.22943925471E+03  0.12508569966E+03 0.  0.
         23    2    1    2    0    0  0.96080025756E+02  0.14758452495E+03 -0.11622091512E+03  0.23067002266E+03  0.93213705473E+02 0.  0.
          5    1    3    3  502    0 -0.12371552164E+03 -0.93922388275E+02 -0.52256368312E+02  0.16393640762E+03  0.41800000000E+01 0. -1.
         -5    1    3    3    0  502  0.27635495882E+02 -0.53662136671E+02 -0.25095916640E+02  0.65502847089E+02  0.41800000000E+01 0. -1.
        -11    1    4    4    0    0  0.38623988645E+02  0.19424538534E+02  0.70397421778E+01  0.43802775780E+02  0.00000000000E+00 0.  1.
         11    1    4    4    0    0  0.57456037112E+02  0.12815998641E+03 -0.12326065730E+03  0.18686724688E+03  0.00000000000E+00 0. -1.
</event>
<event>
 7    1  0.6703334E-009  0.9652440E+02  0.7561462E-02  0.1287779E+00
          3   -1    0    0  501    0  0.00000000000E+00  0.00000000000E+00  0.28911036766E+02  0.28911036766E+02  0.00000000000E+00 0. -1.
         -3   -1    0    0    0  501 -0.00000000000E+00 -0.00000000000E+00 -0.51330657036E+03  0.51330657036E+03  0.00000000000E+00 0.  1.
         23    2    1    2    0    0 -0.27349069269E+02  0.26100337834E+02 -0.12642285531E+03  0.16122442818E+03  0.92635731068E+02 0.  0.
          5    1    1    2  502    0 -0.47392085627E+02  0.77506398279E+01 -0.12646144432E+03  0.13533680762E+03  0.41800000000E+01 0. -1.
         -5    1    1    2    0  502  0.74741154896E+02 -0.33850977662E+02 -0.23151123396E+03  0.24565637133E+03  0.41800000000E+01 0. -1.
        -11    1    3    3    0    0 -0.23159607930E+02  0.41067183804E+02 -0.13533222110E+03  0.14330977319E+03  0.00000000000E+00 0.  1.
         11    1    3    3    0    0 -0.41894613387E+01 -0.14966845970E+02  0.89093657836E+01  0.17914654986E+02  0.00000000000E+00 0. -1.
</event>
<event>
 8    1  0.6703334E-009  0.7238488E+02  0.7561462E-02  0.1352166E+00
         -1   -1    0    0    0  501 -0.00000000000E+00  0.00000000000E+00  0.41067940272E+02  0.41067940272E+02  0.00000000000E+00 0.  1.
          1   -1    0    0  501    0  0.00000000000E+00 -0.00000000000E+00 -0.28372346132E+03  0.28372346132E+03  0.00000000000E+00 0. -1.
         25    2    1    2    0    0 -0.29865396318E+01  0.24277662838E+02 -0.12697587015E+03  0.17991124366E+03  0.12508740809E+03 0.  0.
         23    2    1    2    0    0  0.29865396318E+01 -0.24277662838E+02 -0.11567965090E+03  0.14488015793E+03  0.83726663600E+02 0.  0.
          5    1    3    3  502    0 -0.39496492810E+02  0.92480606777E+01 -0.13357698420E+03  0.13966310421E+03  0.41800000000E+01 0.  1.
         -5    1    3    3    0  502  0.36509953178E+02  0.15029602161E+02  0.66011140535E+01  0.40248139447E+02  0.41800000000E+01 0.  1.
        -11    1    4    4    0    0  0.31080184220E+02 -0.16234441240E+02 -0.10954585234E+03  0.11502099243E+03  0.00000000000E+00 0. -1.
         11    1    4    4    0    0 -0.28093644588E+02 -0.80432215982E+01 -0.61337985606E+01  0.29859165505E+02  0.00000000000E+00 0.  1.
</event>
<event>
 8    1  0.6703334E-009  0.1079213E+03  0.7561462E-02  0.1264468E+00
          2   -1    0    0  501    0  0.00000000000E+00  0.00000000000E+00  0.46290110622E+03  0.46290110622E+03  0.00000000000E+00 0. -1.
         -2   -1    0    0    0  501 -0.00000000000E+00 -0.00000000000E+00 -0.50769157740E+02  0.50769157740E+02  0.00000000000E+00 0.  1.
         25    2    1    2    0    0 -0.61677474001E+02 -0.84683321679E+02  0.18214185066E+03  0.24453733213E+03  0.12508987678E+03 0.  0.
         23    2    1    2    0    0  0.61677474001E+02  0.84683321679E+02  0.22999009782E+03  0.26913293183E+03  0.92529531139E+02 0.  0.
          5    1    3    3  502    0 -0.18070789757E+02 -0.28818158344E+02 -0.13176747561E+02  0.36717009261E+02  0.41800000000E+01 0. -1.
         -5    1    3    3    0  502 -0.43606684244E+02 -0.55865163335E+02  0.19531859823E+03  0.20782032287E+03  0.41800000000E+01 0. -1.
        -11    1    4    4    0    0  0.83858465680E+01  0.40483647161E+02  0.16187047159E+02  0.44398970774E+02  0.00000000000E+00 0.  1.
         11    1    4    4    0    0  0.53291627433E+02  0.44199674519E+02  0.21380305066E+03  0.22473396106E+03  0.00000000000E+00 0. -1.
</event>
<event>
 8    1  0.6703334E-009  0.7711715E+02  0.7561462E-02  0.1337437E+00
          2   -1    0    0  501    0  0.00000000000E+00  0.00000000000E+00  0.45638587866E+03  0.45638587866E+03  0.00000000000E+00 0.  1.
         -2   -1    0    0    0  501 -0.00000000000E+00 -0.00000000000E+00 -0.25717894467E+02  0.25717894467E+02  0.00000000000E+00 0. -1.
         25    2    1    2    0    0 -0.34834275838E+02 -0.14241909785E+02  0.32539225486E+03  0.35063273719E+03  0.12508772161E+03 0.  0.
         23    2    1    2    0    0  0.34834275838E+02  0.14241909785E+02  0.10527572934E+03  0.13147103594E+03  0.69176551931E+02 0.  0.
          5    1    3    3  502    0 -0.45381741531E+02  0.26096189043E+02  0.51502465615E+02  0.73556032461E+02  0.41800000000E+01 0.  1.
         -5    1    3    3    0  502  0.10547465693E+02 -0.40338098829E+02  0.27388978924E+03  0.27707670472E+03  0.41800000000E+01 0.  1.
        -11    1    4    4    0    0 -0.72764719973E+01  0.16094573601E+02  0.80843592606E+02  0.82750642352E+02  0.00000000000E+00 0.  1.
         11    1    4    4    0    0  0.42110747835E+02 -0.18526638153E+01  0.24432136729E+02  0.48720393591E+02  0.00000000000E+00 0. -1.
</event>
<event>
 8    1  0.6703334E-009  0.1503362E+03  0.7561462E-02  0.1200061E+00
         -2   -1    0    0    0  501 -0.00000000000E+00  0.00000000000E+00  0.67109549488E+02  0.67109549488E+02  0.00000000000E+00 0.  1.
          2   -1    0    0  501    0  0.00000000000E+00 -0.00000000000E+00 -0.40191674399E+03  0.40191674399E+03  0.00000000000E+00 0. -1.
         25    2    1    2    0    0 -0.10227236296E+03  0.67807735814E+02 -0.13164358514E+03  0.21916901077E+03  0.12508995368E+03 0.  0.
         23    2    1    2    0    0  0.10227236296E+03 -0.67807735814E+02 -0.20316360937E+03  0.24985728271E+03  0.78074863379E+02 0.  0.
          5    1    3    3  502    0  0.95262670858E+01 -0.21345695255E+02  0.14304056368E+01  0.23788798431E+02  0.41800000000E+01 0.  1.
         -5    1    3    3    0  502 -0.11179863005E+03  0.89153431069E+02 -0.13307399077E+03  0.19538021234E+03  0.41800000000E+01 0.  1.
        -11    1    4    4    0    0  0.48195421795E+02 -0.63366931011E+02 -0.69799097051E+02  0.10587766798E+03  0.00000000000E+00 0.  1.
         11    1    4    4    0    0  0.54076941166E+02 -0.44408048029E+01 -0.13336451232E+03  0.14397961473E+03  0.00000000000E+00 0. -1.
</event>
<event>
 8    1  0.6703334E-009  0.1966010E+03  0.7561462E-02  0.1152639E+00
          2   -1    0    0  501    0  0.00000000000E+00  0.00000000000E+00  0.15126552068E+04  0.15126552068E+04  0.00000000000E+00 0.  1.
         -2   -1    0    0    0  501 -0.00000000000E+00 -0.00000000000E+00 -0.26261192207E+02  0.26261192207E+02  0.00000000000E+00 0. -1.
         25    2    1    2    0    0 -0.16496852216E+03 -0.22925479209E+02  0.77989334668E+03  0.80723072062E+03  0.12509042018E+03 0.  0.
         23    2    1    2    0    0  0.16496852216E+03  0.22925479209E+02  0.70650066789E+03  0.73168567836E+03  0.92089887019E+02 0.  0.
          5    1    3    3  502    0 -0.16247204283E+03 -0.56700072326E+02  0.68799649122E+03  0.70920286748E+03  0.41800000000E+01 0. -1.
         -5    1    3    3    0  502 -0.24964793284E+01  0.33774593117E+02  0.91896855461E+02  0.98027853149E+02  0.41800000000E+01 0. -1.
        -11    1    4    4    0    0 -0.10280933401E+02  0.96811182260E+00  0.16717756214E+02  0.19649890710E+02  0.00000000000E+00 0.  1.
         11    1    4    4    0    0  0.17524945556E+03  0.21957367387E+02  0.68978291167E+03  0.71203578765E+03  0.00000000000E+00 0. -1.
</event>
<event>
 8    1  0.6703334E-009  0.1089689E+03  0.7561462E-02  0.1262491E+00
         -4   -1    0    0    0  501 -0.00000000000E+00  0.00000000000E+00  0.69022456261E+02  0.69022456261E+02  0.00000000000E+00 0.  1.
          4   -1    0    0  501    0  0.00000000000E+00 -0.00000000000E+00 -0.20110347037E+03  0.20110347037E+03  0.00000000000E+00 0. -1.
         25    2    1    2    0    0  0.33069390581E+02 -0.30576661557E+02 -0.82308579403E+02  0.15636832932E+03  0.12509130803E+03 0.  0.
         23    2    1    2    0    0 -0.33069390581E+02  0.30576661557E+02 -0.49772434706E+02  0.11375759731E+03  0.91842141005E+02 0.  0.
          5    1    3    3  502    0  0.77883088951E+02 -0.17906511185E+02 -0.28180392804E+02  0.84841178835E+02  0.41800000000E+01 0. -1.
         -5    1    3    3    0  502 -0.44813698370E+02 -0.12670150372E+02 -0.54128186599E+02  0.71527150485E+02  0.41800000000E+01 0. -1.
        -11    1    4    4    0    0  0.15012632982E+01  0.50987465820E+02 -0.52902847915E+02  0.73489365079E+02  0.00000000000E+00 0. -1.
         11    1    4    4    0    0 -0.34570653879E+02 -0.20410804263E+02  0.31304132090E+01  0.40268232233E+02  0.00000000000E+00 0.  1.
</event>
<event>
 8    1  0.6703334E-009  0.5478097E+02  0.7561462E-02  0.1421138E+00
          1   -1    0    0  501    0  0.00000000000E+00  0.00000000000E+00  0.64863352903E+03  0.64863352903E+03  0.00000000000E+00 0. -1.
         -1   -1    0    0    0  501 -0.00000000000E+00 -0.00000000000E+00 -0.19969180578E+02  0.19969180578E+02  0.00000000000E+00 0.  1.
         25    2    1    2    0    0 -0.15080394437E+02  0.32688669244E+02  0.38664872469E+03  0.40797265705E+03  0.12509390554E+03 0.  0.
         23    2    1    2    0    0  0.15080394437E+02 -0.32688669244E+02  0.24201562377E+03  0.26063005257E+03  0.89780258176E+02 0.  0.
          5    1    3    3  502    0  0.15906943419E+01  0.31050581877E+02  0.13053081355E+02  0.33978291249E+02  0.41800000000E+01 0.  1.
         -5    1    3    3    0  502 -0.16671088779E+02  0.16380873678E+01  0.37359564333E+03  0.37399436580E+03  0.41800000000E+01 0.  1.
        -11    1    4    4    0    0 -0.17949156646E+02 -0.78086703537E+01  0.52300711318E+01  0.20260829228E+02  0.00000000000E+00 0.  1.
         11    1    4    4    0    0  0.33029551083E+02 -0.24879998891E+02  0.23678555264E+03  0.24036922334E+03  0.00000000000E+00 0. -1.
</event>
<event>
 8    1  0.6703334E-009  0.3794884E+03  0.7561462E-02  0.1051123E+00
          2   -1    0    0  501    0  0.00000000000E+00  0.00000000000E+00  0.16246732726E+04  0.16246732726E+04  0.00000000000E+00 0. -1.
         -2   -1    0    0    0  501 -0.00000000000E+00 -0.00000000000E+00 -0.22021220624E+03  0.22021220624E+03  0.00000000000E+00 0.  1.
         25    2    1    2    0    0 -0.28519966678E+03 -0.22767505171E+03  0.14170302398E+04  0.14686040375E+04  0.12509332270E+03 0.  0.
         23    2    1    2    0    0  0.28519966678E+03  0.22767505171E+03 -0.12569173414E+02  0.37628144136E+03  0.90856809787E+02 0.  0.
          5    1    3    3  502    0 -0.12614462101E+03 -0.17539036053E+03  0.87517946155E+03  0.90146037422E+03  0.41800000000E+01 0. -1.
         -5    1    3    3    0  502 -0.15905504578E+03 -0.52284691184E+02  0.54185077824E+03  0.56714366328E+03  0.41800000000E+01 0. -1.
        -11    1    4    4    0    0  0.11257136721E+03  0.14621892834E+03 -0.17298699328E+02  0.18534166483E+03  0.00000000000E+00 0. -1.
         11    1    4    4    0    0  0.17262829957E+03  0.81456123371E+02  0.47295259139E+01  0.19093977653E+03  0.00000000000E+00 0.  1.
</event>
<event>
 8    1  0.6703334E-009  0.9368915E+02  0.7561462E-02  0.1294156E+00
          1   -1    0    0  501    0  0.00000000000E+00  0.00000000000E+00  0.10184883951E+03  0.10184883951E+03  0.00000000000E+00 0. -1.
         -1   -1    0    0    0  501 -0.00000000000E+00 -0.00000000000E+00 -0.13473142919E+03  0.13473142919E+03  0.00000000000E+00 0.  1.
         25    2    1    2    0    0  0.26634634072E+02  0.32124843422E+02 -0.33558524340E+02  0.13607419099E+03  0.12509437077E+03 0.  0.
         23    2    1    2    0    0 -0.26634634072E+02 -0.32124843422E+02  0.67593466384E+00  0.10050607771E+03  0.91430878114E+02 0.  0.
          5    1    3    3  502    0 -0.36949427874E+02  0.45922816688E+02  0.66678752298E+01  0.59465101302E+02  0.41800000000E+01 0. -1.
         -5    1    3    3    0  502  0.63584061945E+02 -0.13797973267E+02 -0.40226399570E+02  0.76609089683E+02  0.41800000000E+01 0. -1.
        -11    1    4    4    0    0 -0.40117616356E+02 -0.19445867432E+02 -0.37385792030E+02  0.58183007382E+02  0.00000000000E+00 0.  1.
         11    1    4    4    0    0  0.13482982285E+02 -0.12678975989E+02  0.38061726694E+02  0.42323070332E+02  0.00000000000E+00 0. -1.
</event>
<event>
 8    1  0.6703334E-009  0.1226744E+03  0.7561462E-02  0.1238749E+00
         -3   -1    0    0    0  501 -0.00000000000E+00  0.00000000000E+00  0.25092989466E+03  0.25092989466E+03  0.00000000000E+00 0.  1.
          3   -1    0    0  501    0  0.00000000000E+00 -0.00000000000E+00 -0.64059327495E+02  0.64059327495E+02  0.00000000000E+00 0. -1.
         25    2    1    2    0    0  0.42549494815E+02 -0.40227590403E+02  0.14350139462E+03  0.19916748430E+03  0.12508524296E+03 0.  0.
         23    2    1    2    0    0 -0.42549494815E+02  0.40227590403E+02  0.43369172540E+02  0.11582173785E+03  0.90028169444E+02 0.  0.
          5    1    3    3  502    0 -0.43700789106E+02 -0.27912405248E+01  0.44828575593E+02  0.62806238399E+02  0.41800000000E+01 0. -1.
         -5    1    3    3    0  502  0.86250283921E+02 -0.37436349879E+02  0.98672819029E+02  0.13636124590E+03  0.41800000000E+01 0. -1.
        -11    1    4    4    0    0  0.28312048204E+02  0.14879103998E+02  0.10132653134E+02  0.33550416820E+02  0.00000000000E+00 0.  1.
         11    1    4    4    0    0 -0.70861543018E+02  0.25348486405E+02  0.33236519405E+02  0.82271321031E+02  0.00000000000E+00 0. -1.
</event>
<event>
 8    1  0.6703334E-009  0.1285960E+03  0.7561462E-02  0.1229554E+00
          1   -1    0    0  501    0  0.00000000000E+00  0.00000000000E+00  0.21362424009E+03  0.21362424009E+03  0.00000000000E+00 0. -1.
         -1   -1    0    0    0  501 -0.00000000000E+00 -0.00000000000E+00 -0.25305605036E+03  0.25305605036E+03  0.00000000000E+00 0.  1.
         25    2    1    2    0    0 -0.34044652822E+02  0.71406202945E+02  0.16869210490E+03  0.22440482419E+03  0.12507043878E+03 0.  0.
         23    2    1    2    0    0  0.34044652822E+02 -0.71406202945E+02 -0.20812391517E+03  0.24227546627E+03  0.95519386951E+02 0.  0.
          5    1    3    3  502    0  0.24763040304E+02  0.76537344755E+02  0.59280454827E+02  0.10001408917E+03  0.41800000000E+01 0. -1.
         -5    1    3    3    0  502 -0.58807693126E+02 -0.51311418102E+01  0.10941165007E+03  0.12439073502E+03  0.41800000000E+01 0. -1.
        -11    1    4    4    0    0 -0.29484329691E+02 -0.26713736760E+02 -0.11097793975E+03  0.11789424303E+03  0.00000000000E+00 0.  1.
         11    1    4    4    0    0  0.63528982513E+02 -0.44692466185E+02 -0.97145975425E+02  0.12438122324E+03  0.00000000000E+00 0. -1.
</event>
<event>
 8    1  0.6703334E-009  0.2648860E+03  0.7561462E-02  0.1104243E+00
         -1   -1    0    0    0  501 -0.00000000000E+00  0.00000000000E+00  0.10330349609E+03  0.10330349609E+03  0.00000000000E+00 0.  1.
          1   -1    0    0  501    0  0.00000000000E+00 -0.00000000000E+00 -0.77836807771E+03  0.77836807771E+03  0.00000000000E+00 0. -1.
         25    2    1    2    0    0  0.42885550216E+02 -0.25267151990E+03 -0.27045215048E+03  0.39303178905E+03  0.12509018393E+03 0.  0.
         23    2    1    2    0    0 -0.42885550216E+02  0.25267151990E+03 -0.40461243114E+03  0.48863978475E+03  0.96827436320E+02 0.  0.
          5    1    3    3  502    0  0.70386897920E+02 -0.19002420187E+03 -0.24930068983E+03  0.32129708845E+03  0.41800000000E+01 0. -1.
         -5    1    3    3    0  502 -0.27501347704E+02 -0.62647318034E+02 -0.21151460645E+02  0.71734700598E+02  0.41800000000E+01 0. -1.
        -11    1    4    4    0    0 -0.32883191360E+02  0.94557408917E+02 -0.82697264868E+02  0.12985085857E+03  0.00000000000E+00 0.  1.
         11    1    4    4    0    0 -0.10002358856E+02  0.15811411099E+03 -0.32191516627E+03  0.35878892618E+03  0.00000000000E+00 0. -1.
</event>
<event>
 8    1  0.6703334E-009  0.1509160E+03  0.7561462E-02  0.1199352E+00
          2   -1    0    0  501    0  0.00000000000E+00  0.00000000000E+00  0.83860217360E+03  0.83860217360E+03  0.00000000000E+00 0. -1.
         -2   -1    0    0    0  501 -0.00000000000E+00 -0.00000000000E+00 -0.31857319128E+02  0.31857319128E+02  0.00000000000E+00 0.  1.
         25    2    1    2    0    0  0.99708670578E+02  0.63654336581E+02  0.52353208167E+03  0.55111416908E+03  0.12508914128E+03 0.  0.
         23    2    1    2    0    0 -0.99708670578E+02 -0.63654336581E+02  0.28321277281E+03  0.31934532365E+03  0.88194486823E+02 0.  0.
          5    1    3    3  502    0  0.11984230310E+03  0.59123748124E+02  0.50703212572E+03  0.52436327495E+03  0.41800000000E+01 0.  1.
         -5    1    3    3    0  502 -0.20133632522E+02  0.45305884565E+01  0.16499955951E+02  0.26750894129E+02  0.41800000000E+01 0.  1.
        -11    1    4    4    0    0 -0.42081710106E+01  0.19805282132E+02  0.30788714925E+02  0.36849733653E+02  0.00000000000E+00 0.  1.
         11    1    4    4    0    0 -0.95500499567E+02 -0.83459618713E+02  0.25242405788E+03  0.28249559000E+03  0.00000000000E+00 0. -1.
</event>
<event>
 8    1  0.6703334E-009  0.1113347E+03  0.7561462E-02  0.1258118E+00
         -1   -1    0    0    0  501 -0.00000000000E+00  0.00000000000E+00  0.84964642925E+02  0.84964642925E+02  0.00000000000E+00 0.  1.
          1   -1    0    0  501    0  0.00000000000E+00 -0.00000000000E+00 -0.16491703281E+03  0.16491703281E+03  0.00000000000E+00 0. -1.
         25    2    1    2    0    0  0.45763152867E+02  0.12062802148E+02 -0.52126476630E+02  0.14354244808E+03  0.12508991758E+03 0.  0.
         23    2    1    2    0    0 -0.45763152867E+02 -0.12062802148E+02 -0.27825913256E+02  0.10633922765E+03  0.91071249762E+02 0.  0.
          5    1    3    3  502    0  0.11937678943E+00  0.56323762520E+02  0.66337785202E+01  0.56867036961E+02  0.41800000000E+01 0. -1.
         -5    1    3    3    0  502  0.45643776078E+02 -0.44260960372E+02 -0.58760255150E+02  0.86675411121E+02  0.41800000000E+01 0. -1.
        -11    1    4    4    0    0 -0.44797419116E+02  0.34100867463E+02 -0.18240385188E+02  0.59180989963E+02  0.00000000000E+00 0.  1.
         11    1    4    4    0    0 -0.96573375105E+00 -0.46163669611E+02 -0.95855280675E+01  0.47158237690E+02  0.00000000000E+00 0. -1.
</event>
<event>
 8    1  0.6703334E-009  0.1459615E+03  0.7561462E-02  0.1205525E+00
          1   -1    0    0  501    0  0.00000000000E+00  0.00000000000E+00  0.58839912745E+02  0.58839912745E+02  0.00000000000E+00 0. -1.
         -1   -1    0    0    0  501 -0.00000000000E+00 -0.00000000000E+00 -0.48376576206E+03  0.48376576206E+03  0.00000000000E+00 0.  1.
         25    2    1    2    0    0  0.90156864445E+02  0.80020517432E+02 -0.30570371898E+03  0.35161598915E+03  0.12508995409E+03 0.  0.
         23    2    1    2    0    0 -0.90156864445E+02 -0.80020517432E+02 -0.11922213034E+03  0.19098968565E+03  0.87929518637E+02 0.  0.
          5    1    3    3  502    0  0.10526213311E+03  0.97739756943E+02 -0.28868433180E+03  0.32247370835E+03  0.41800000000E+01 0.  1.
         -5    1    3    3    0  502 -0.15105268661E+02 -0.17719239511E+02 -0.17019387184E+02  0.29142280801E+02  0.41800000000E+01 0.  1.
        -11    1    4    4    0    0 -0.18050740292E+01 -0.14389412728E+02 -0.68114359946E+02  0.69641076397E+02  0.00000000000E+00 0.  1.
         11    1    4    4    0    0 -0.88351790416E+02 -0.65631104704E+02 -0.51107770391E+02  0.12134860926E+03  0.00000000000E+00 0. -1.
</event>
<event>
 8    1  0.6703334E-009  0.1135493E+03  0.7561462E-02  0.1254135E+00
          2   -1    0    0  501    0  0.00000000000E+00  0.00000000000E+00  0.39193336734E+03  0.39193336734E+03  0.00000000000E+00 0. -1.
         -2   -1    0    0    0  501 -0.00000000000E+00 -0.00000000000E+00 -0.35303937688E+02  0.35303937688E+02  0.00000000000E+00 0.  1.
         25    2    1    2    0    0 -0.12628270602E+02 -0.35112527826E+02  0.18959570261E+03  0.23018674774E+03  0.12508815115E+03 0.  0.
         23    2    1    2    0    0  0.12628270602E+02  0.35112527826E+02  0.16703372704E+03  0.19705055729E+03  0.97653946823E+02 0.  0.
          5    1    3    3  502    0  0.43033407948E+02 -0.54963535821E+02  0.85958063307E+02  0.11081121566E+03  0.41800000000E+01 0.  1.
         -5    1    3    3    0  502 -0.55661678550E+02  0.19851007994E+02  0.10363763931E+03  0.11937553208E+03  0.41800000000E+01 0.  1.
        -11    1    4    4    0    0  0.33734412242E+02 -0.19785805519E+02  0.34894878343E+02  0.52413177770E+02  0.00000000000E+00 0.  1.
         11    1    4    4    0    0 -0.21106141640E+02  0.54898333346E+02  0.13213884870E+03  0.14463737952E+03  0.00000000000E+00 0. -1.
</event>
<event>
 8    1  0.6703334E-009  0.1767213E+03  0.7561462E-02  0.1171014E+00
          2   -1    0    0  501    0  0.00000000000E+00  0.00000000000E+00  0.97321960781E+02  0.97321960781E+02  0.00000000000E+00 0. -1.
         -2   -1    0    0    0  501 -0.00000000000E+00 -0.00000000000E+00 -0.80202490308E+03  0.80202490308E+03  0.00000000000E+00 0.  1.
         25    2    1    2    0    0 -0.14195032342E+03  0.16580040433E+01 -0.16514066694E+02  0.18992594545E+03  0.12508599865E+03 0.  0.
         23    2    1    2    0    0  0.14195032342E+03 -0.16580040433E+01 -0.68818887560E+03  0.70942091840E+03  0.97578008142E+02 0.  0.
          5    1    3    3  502    0 -0.98511691440E+02  0.59133002635E+02 -0.23746954084E+02  0.11739955528E+03  0.41800000000E+01 0.  1.
         -5    1    3    3    0  502 -0.43438631985E+02 -0.57474998591E+02  0.72328873900E+01  0.72526390175E+02  0.41800000000E+01 0.  1.
        -11    1    4    4    0    0  0.60896245526E+02  0.42254463821E+02 -0.40121932858E+03  0.40800826225E+03  0.00000000000E+00 0.  1.
         11    1    4    4    0    0  0.81054077898E+02 -0.43912467864E+02 -0.28696954702E+03  0.30141265616E+03  0.00000000000E+00 0. -1.
</event>
<event>
 8    1  0.6703334E-009  0.1564777E+03  0.7561462E-02  0.1192732E+00
          2   -1    0    0  501    0  0.00000000000E+00  0.00000000000E+00  0.22198904904E+02  0.22198904904E+02  0.00000000000E+00 0. -1.
         -2   -1    0    0    0  501 -0.00000000000E+00 -0.00000000000E+00 -0.17577994213E+04  0.17577994213E+04  0.00000000000E+00 0.  1.
         25    2    1    2    0    0 -0.57771667209E+02  0.11943462936E+03 -0.13503780397E+04  0.13626336680E+04  0.12508983576E+03 0.  0.
         23    2    1    2    0    0  0.57771667209E+02 -0.11943462936E+03 -0.38522247669E+03  0.41736465814E+03  0.90524610417E+02 0.  0.
          5    1    3    3  502    0  0.19790693531E+02  0.61941109693E+02 -0.88124257427E+03  0.88364830093E+03  0.41800000000E+01 0.  1.
         -5    1    3    3    0  502 -0.77562360740E+02  0.57493519668E+02 -0.46913546538E+03  0.47898536709E+03  0.41800000000E+01 0.  1.
        -11    1    4    4    0    0 -0.16945907679E+02 -0.14279977950E+02 -0.19356331710E+02  0.29423615253E+02  0.00000000000E+00 0. -1.
         11    1    4    4    0    0  0.74717574888E+02 -0.10515465141E+03 -0.36586614498E+03  0.38794104289E+03  0.00000000000E+00 0.  1.
</event>
<event>
 8    1  0.6703334E-009  0.1773729E+03  0.7561462E-02  0.1170370E+00
          2   -1    0    0  501    0  0.00000000000E+00  0.00000000000E+00  0.45910644699E+03  0.45910644699E+03  0.00000000000E+00 0.  1.
         -2   -1    0    0    0  501 -0.00000000000E+00 -0.00000000000E+00 -0.80306192353E+02  0.80306192353E+02  0.00000000000E+00 0. -1.
         25    2    1    2    0    0  0.15426625158E+03 -0.16885787673E+02  0.15546270974E+03  0.25278299723E+03  0.12508950142E+03 0.  0.
         23    2    1    2    0    0 -0.15426625158E+03  0.16885787673E+02  0.22333754490E+03  0.28662964212E+03  0.90518984630E+02 0.  0.
          5    1    3    3  502    0  0.11583495555E+03  0.41803306236E+02  0.12702867606E+03  0.17697177820E+03  0.41800000000E+01 0.  1.
         -5    1    3    3    0  502  0.38431296029E+02 -0.58689093909E+02  0.28434033687E+02  0.75811219025E+02  0.41800000000E+01 0.  1.
        -11    1    4    4    0    0 -0.54678527854E+02  0.27308995880E+02  0.15158762279E+03  0.16344518974E+03  0.00000000000E+00 0.  1.
         11    1    4    4    0    0 -0.99587723727E+02 -0.10423208208E+02  0.71749922102E+02  0.12318445238E+03  0.00000000000E+00 0. -1.
</event>
<event>
 8    1  0.6703334E-009  0.1191179E+03  0.7561462E-02  0.1244559E+00
          1   -1    0    0  501    0  0.00000000000E+00  0.00000000000E+00  0.24125850613E+03  0.24125850613E+03  0.00000000000E+00 0. -1.
         -1   -1    0    0    0  501 -0.00000000000E+00 -0.00000000000E+00 -0.11212632527E+03  0.11212632527E+03  0.00000000000E+00 0.  1.
         25    2    1    2    0    0  0.68002405388E+02 -0.83089536950E+02  0.39673483200E+01  0.16489902796E+03  0.12509097201E+03 0.  0.
         23    2    1    2    0    0 -0.68002405388E+02  0.83089536950E+02  0.12516483254E+03  0.18848580344E+03  0.91282334021E+02 0.  0.
          5    1    3    3  502    0  0.53088100901E+02 -0.62597280058E+02  0.60999945598E+02  0.10234857933E+03  0.41800000000E+01 0.  1.
         -5    1    3    3    0  502  0.14914304487E+02 -0.20492256892E+02 -0.57032597278E+02  0.62550448625E+02  0.41800000000E+01 0.  1.
        -11    1    4    4    0    0 -0.22144529275E+02  0.81525765632E+02  0.44006138400E+02  0.95254243241E+02  0.00000000000E+00 0.  1.
         11    1    4    4    0    0 -0.45857876113E+02  0.15637713181E+01  0.81158694141E+02  0.93231560198E+02  0.00000000000E+00 0. -1.
</event>
<event>
 8    1  0.6703334E-009  0.1176908E+03  0.7561462E-02  0.1246956E+00
          2   -1    0    0  501    0  0.00000000000E+00  0.00000000000E+00  0.43576073309E+03  0.43576073309E+03  0.00000000000E+00 0. -1.
         -2   -1    0    0    0  501 -0.00000000000E+00 -0.00000000000E+00 -0.39144943989E+02  0.39144943989E+02  0.00000000000E+00 0.  1.
         25    2    1    2    0    0 -0.22096570534E+02  0.62775087049E+02  0.18392814387E+03  0.23217799553E+03  0.12509232398E+03 0.  0.
         23    2    1    2    0    0  0.22096570534E+02 -0.62775087049E+02  0.21268764523E+03  0.24272768155E+03  0.96185877195E+02 0.  0.
          5    1    3    3  502    0 -0.58870034993E+02  0.16084703422E+02  0.15358070233E+03  0.16531455844E+03  0.41800000000E+01 0.  1.
         -5    1    3    3    0  502  0.36773464459E+02  0.46690383627E+02  0.30347441538E+02  0.66863437090E+02  0.41800000000E+01 0.  1.
        -11    1    4    4    0    0 -0.31765502015E+02 -0.50060831650E+02  0.13396832523E+03  0.14650135203E+03  0.00000000000E+00 0. -1.
         11    1    4    4    0    0  0.53862072549E+02 -0.12714255399E+02  0.78719320008E+02  0.96226329516E+02  0.00000000000E+00 0.  1.
</event>
<event>
 8    1  0.6703334E-009  0.2005221E+03  0.7561462E-02  0.1149299E+00
         -2   -1    0    0    0  501 -0.00000000000E+00  0.00000000000E+00  0.15835321691E+03  0.15835321691E+03  0.00000000000E+00 0.  1.
          2   -1    0    0  501    0  0.00000000000E+00 -0.00000000000E+00 -0.57815099853E+03  0.57815099853E+03  0.00000000000E+00 0. -1.
         25    2    1    2    0    0 -0.82004483844E+02  0.17474022061E+03  0.36472060784E+02  0.23288668697E+03  0.12508843944E+03 0.  0.
         23    2    1    2    0    0  0.82004483844E+02 -0.17474022061E+03 -0.45626984240E+03  0.50361752847E+03  0.90496219955E+02 0.  0.
          5    1    3    3  502    0 -0.48536036224E+02  0.53104027956E+02 -0.42816348781E+02  0.83824201281E+02  0.41800000000E+01 0. -1.
         -5    1    3    3    0  502 -0.33468447620E+02  0.12163619265E+03  0.79288409566E+02  0.14906248569E+03  0.41800000000E+01 0. -1.
        -11    1    4    4    0    0 -0.78673397084E+01 -0.40168249769E+02 -0.16918485164E+03  0.17406578454E+03  0.00000000000E+00 0.  1.
         11    1    4    4    0    0  0.89871823553E+02 -0.13457197084E+03 -0.28708499076E+03  0.32955174392E+03  0.00000000000E+00 0. -1.
</event>
<event>
 8    1  0.6703334E-009  0.3162256E+03  0.7561462E-02  0.1077400E+00
         -2   -1    0    0    0  501 -0.00000000000E+00  0.00000000000E+00  0.27386453350E+03  0.27386453350E+03  0.00000000000E+00 0.  1.
          2   -1    0    0  501    0  0.00000000000E+00 -0.00000000000E+00 -0.38330300455E+03  0.38330300455E+03  0.00000000000E+00 0. -1.
         25    2    1    2    0    0  0.23305823534E+03 -0.19132823249E+03 -0.10360563613E+02  0.32661533171E+03  0.12509036744E+03 0.  0.
         23    2    1    2    0    0 -0.23305823534E+03  0.19132823249E+03 -0.99077907430E+02  0.33055220634E+03  0.92334694292E+02 0.  0.
          5    1    3    3  502    0  0.17822495157E+03 -0.85189528737E+02 -0.44021979418E+02  0.20242726161E+03  0.41800000000E+01 0. -1.
         -5    1    3    3    0  502  0.54833283761E+02 -0.10613870375E+03  0.33661415805E+02  0.12418807011E+03  0.41800000000E+01 0. -1.
        -11    1    4    4    0    0 -0.20324032335E+03  0.19910309787E+03 -0.90616089223E+02  0.29859663133E+03  0.00000000000E+00 0.  1.
         11    1    4    4    0    0 -0.29817911986E+02 -0.77748653772E+01 -0.84618182069E+01  0.31955575010E+02  0.00000000000E+00 0. -1.
</event>
<event>
 8    1  0.6703334E-009  0.1743782E+03  0.7561462E-02  0.1173357E+00
          1   -1    0    0  501    0  0.00000000000E+00  0.00000000000E+00  0.10162288296E+04  0.10162288296E+04  0.00000000000E+00 0. -1.
         -1   -1    0    0    0  501 -0.00000000000E+00 -0.00000000000E+00 -0.51511940181E+02  0.51511940181E+02  0.00000000000E+00 0.  1.
         25    2    1    2    0    0 -0.88053858863E+02  0.10259991747E+03  0.83954641647E+03  0.85951500190E+03  0.12509047904E+03 0.  0.
         23    2    1    2    0    0  0.88053858863E+02 -0.10259991747E+03  0.12517047291E+03  0.20822576785E+03  0.97005659538E+02 0.  0.
          5    1    3    3  502    0 -0.10625032466E+03  0.31824902815E+02  0.50930537360E+03  0.52125942861E+03  0.41800000000E+01 0.  1.
         -5    1    3    3    0  502  0.18196465794E+02  0.70775014651E+02  0.33024104287E+03  0.33825557329E+03  0.41800000000E+01 0.  1.
        -11    1    4    4    0    0 -0.10309208593E+02 -0.53772776632E+02  0.27546990969E+02  0.61291337071E+02  0.00000000000E+00 0.  1.
         11    1    4    4    0    0  0.98363067455E+02 -0.48827140834E+02  0.97623481938E+02  0.14693443077E+03  0.00000000000E+00 0. -1.
</event>
<event>
 8    1  0.6703334E-009  0.1035451E+03  0.7561462E-02  0.1273013E+00
         -3   -1    0    0    0  501 -0.00000000000E+00  0.00000000000E+00  0.30713097477E+03  0.30713097477E+03  0.00000000000E+00 0.  1.
          3   -1    0    0  501    0  0.00000000000E+00 -0.00000000000E+00 -0.64705246815E+02  0.64705246815E+02  0.00000000000E+00 0. -1.
         25    2    1    2    0    0  0.87263069995E+02 -0.11094793918E+02  0.99840231856E+02  0.18262407668E+03  0.12508214761E+03 0.  0.
         23    2    1    2    0    0 -0.87263069995E+02  0.11094793918E+02  0.14258549610E+03  0.18921214490E+03  0.87935625568E+02 0.  0.
          5    1    3    3  502    0  0.46747415717E+02  0.12418427920E+02  0.12150373811E+03  0.13084406369E+03  0.41800000000E+01 0. -1.
         -5    1    3    3    0  502  0.40515654278E+02 -0.23513221838E+02 -0.21663506250E+02  0.51780012995E+02  0.41800000000E+01 0. -1.
        -11    1    4    4    0    0 -0.47871984088E+02  0.40217178403E+02  0.11990924271E+03  0.13523082040E+03  0.00000000000E+00 0.  1.
         11    1    4    4    0    0 -0.39391085907E+02 -0.29122384485E+02  0.22676253385E+02  0.53981324499E+02  0.00000000000E+00 0. -1.
</event>
<event>
 8    1  0.6703334E-009  0.9170286E+02  0.7561462E-02  0.1298780E+00
          1   -1    0    0  501    0  0.00000000000E+00  0.00000000000E+00  0.67062806888E+03  0.67062806888E+03  0.00000000000E+00 0. -1.
         -1   -1    0    0    0  501 -0.00000000000E+00 -0.00000000000E+00 -0.24373448591E+02  0.24373448591E+02  0.00000000000E+00 0.  1.
         25    2    1    2    0    0 -0.57346047217E+02 -0.34762118689E+02  0.32198021103E+03  0.35187319056E+03  0.12508601806E+03 0.  0.
         23    2    1    2    0    0  0.57346047217E+02  0.34762118689E+02  0.32427440926E+03  0.34312832690E+03  0.89923201676E+02 0.  0.
          5    1    3    3  502    0 -0.47504872410E+02 -0.48460060948E+02  0.32683427944E+03  0.33383110854E+03  0.41800000000E+01 0.  1.
         -5    1    3    3    0  502 -0.98411748071E+01  0.13697942259E+02 -0.48540684092E+01  0.18042082026E+02  0.41800000000E+01 0.  1.
        -11    1    4    4    0    0  0.53208557920E+02 -0.91012815874E+01  0.25771683886E+03  0.26330961432E+03  0.00000000000E+00 0. -1.
         11    1    4    4    0    0  0.41374892971E+01  0.43863400276E+02  0.66557570395E+02  0.79818712583E+02  0.00000000000E+00 0.  1.
</event>
<event>
 8    1  0.6703334E-009  0.1158184E+03  0.7561462E-02  0.1250159E+00
         -2   -1    0    0    0  501 -0.00000000000E+00  0.00000000000E+00  0.33399995973E+02  0.33399995973E+02  0.00000000000E+00 0.  1.
          2   -1    0    0  501    0  0.00000000000E+00 -0.00000000000E+00 -0.44832284306E+03  0.44832284306E+03  0.00000000000E+00 0. -1.
         25    2    1    2    0    0 -0.35944493781E+02  0.39851539408E+02 -0.19135226915E+03  0.23482619168E+03  0.12508995789E+03 0.  0.
         23    2    1    2    0    0  0.35944493781E+02 -0.39851539408E+02 -0.22357057795E+03  0.24689664736E+03  0.89966656756E+02 0.  0.
          5    1    3    3  502    0 -0.20582364526E+02 -0.40790812719E+02 -0.33347638167E+02  0.56719145824E+02  0.41800000000E+01 0.  1.
         -5    1    3    3    0  502 -0.15362129255E+02  0.80642352126E+02 -0.15800463098E+03  0.17810704585E+03  0.41800000000E+01 0.  1.
        -11    1    4    4    0    0  0.28043926834E+02  0.25395669446E+02 -0.64406683596E+02  0.74696872429E+02  0.00000000000E+00 0.  1.
         11    1    4    4    0    0  0.79005669471E+01 -0.65247208854E+02 -0.15916389435E+03  0.17219977493E+03  0.00000000000E+00 0. -1.
</event>
<event>
 8    1  0.6703334E-009  0.8043671E+02  0.7561462E-02  0.1327817E+00
         -2   -1    0    0    0  501 -0.00000000000E+00  0.00000000000E+00  0.27802084871E+03  0.27802084871E+03  0.00000000000E+00 0.  1.
          2   -1    0    0  501    0  0.00000000000E+00 -0.00000000000E+00 -0.50160980693E+02  0.50160980693E+02  0.00000000000E+00 0. -1.
         25    2    1    2    0    0 -0.38459671813E+02  0.28218211766E+02  0.13768449662E+03  0.19204450580E+03  0.12509459527E+03 0.  0.
         23    2    1    2    0    0  0.38459671813E+02 -0.28218211766E+02  0.90175371399E+02  0.13613732361E+03  0.90146322390E+02 0.  0.
          5    1    3    3  502    0 -0.41159721146E+02  0.45722170306E+02  0.15506832137E+03  0.16687808782E+03  0.41800000000E+01 0.  1.
         -5    1    3    3    0  502  0.27000493331E+01 -0.17503958540E+02 -0.17383824749E+02  0.25166417979E+02  0.41800000000E+01 0.  1.
        -11    1    4    4    0    0  0.17731133189E+02 -0.48728329063E+02  0.12744117840E+02  0.53397150457E+02  0.00000000000E+00 0. -1.
         11    1    4    4    0    0  0.20728538624E+02  0.20510117297E+02  0.77431253559E+02  0.82740173149E+02  0.00000000000E+00 0.  1.
</event>
<event>
 8    1  0.6703334E-009  0.1367300E+03  0.7561462E-02  0.1217798E+00
         -1   -1    0    0    0  501 -0.00000000000E+00  0.00000000000E+00  0.40085492854E+02  0.40085492854E+02  0.00000000000E+00 0.  1.
          1   -1    0    0  501    0  0.00000000000E+00 -0.00000000000E+00 -0.13824615994E+04  0.13824615994E+04  0.00000000000E+00 0. -1.
         25    2    1    2    0    0  0.16658756477E+01  0.10602936744E+03 -0.12339960793E+04  0.12448449951E+04  0.12509091190E+03 0.  0.
         23    2    1    2    0    0 -0.16658756477E+01 -0.10602936744E+03 -0.10838002727E+03  0.17770209716E+03  0.92665004843E+02 0.  0.
          5    1    3    3  502    0  0.28005934727E+02 -0.11080345529E+02 -0.51408151632E+03  0.51497998433E+03  0.41800000000E+01 0. -1.
         -5    1    3    3    0  502 -0.26340059079E+02  0.11710971297E+03 -0.71991456299E+03  0.72986501080E+03  0.41800000000E+01 0. -1.
        -11    1    4    4    0    0  0.21289227267E+02 -0.87894060317E+01  0.79404661483E+01  0.24362591378E+02  0.00000000000E+00 0.  1.
         11    1    4    4    0    0 -0.22955102914E+02 -0.97239961407E+02 -0.11632049341E+03  0.15333950578E+03  0.00000000000E+00 0. -1.
</event>
<event>
 8    1  0.6703334E-009  0.8223305E+02  0.7561462E-02  0.1322831E+00
          1   -1    0    0  501    0  0.00000000000E+00  0.00000000000E+00  0.28426093782E+03  0.28426093782E+03  0.00000000000E+00 0. -1.
         -1   -1    0    0    0  501 -0.00000000000E+00 -0.00000000000E+00 -0.61491116262E+02  0.61491116262E+02  0.00000000000E+00 0.  1.
         25    2    1    2    0    0  0.23636294676E+02  0.24225931996E+02  0.21340174213E+03  0.24966893370E+03  0.12509477487E+03 0.  0.
         23    2    1    2    0    0 -0.23636294676E+02 -0.24225931996E+02  0.93680794213E+01  0.96083120383E+02  0.89435087652E+02 0.  0.
          5    1    3    3  502    0 -0.25606989988E+02  0.36045171973E+02  0.18739590760E+03  0.19258678808E+03  0.41800000000E+01 0. -1.
         -5    1    3    3    0  502  0.49243284664E+02 -0.11819239976E+02  0.26005834536E+02  0.57082145616E+02  0.41800000000E+01 0. -1.
        -11    1    4    4    0    0  0.11834433624E+02  0.13164109184E+02 -0.27507657084E+02  0.32711141650E+02  0.00000000000E+00 0.  1.
         11    1    4    4    0    0 -0.35470728300E+02 -0.37390041181E+02  0.36875736505E+02  0.63371978732E+02  0.00000000000E+00 0. -1.
</event>
<event>
 8    1  0.6703334E-009  0.1756843E+03  0.7561462E-02  0.1172046E+00
          2   -1    0    0  501    0  0.00000000000E+00  0.00000000000E+00  0.82955333443E+03  0.82955333443E+03  0.00000000000E+00 0. -1.
         -2   -1    0    0    0  501 -0.00000000000E+00 -0.00000000000E+00 -0.71451419839E+02  0.71451419839E+02  0.00000000000E+00 0.  1.
         25    2    1    2    0    0 -0.64571643348E+02  0.15591990200E+03  0.64655367950E+03  0.67982355793E+03  0.12509155238E+03 0.  0.
         23    2    1    2    0    0  0.64571643348E+02 -0.15591990200E+03  0.11154823509E+03  0.22118119633E+03  0.89429301099E+02 0.  0.
          5    1    3    3  502    0 -0.63665027041E+02  0.99169373181E+02  0.58173364541E+03  0.59356491376E+03  0.41800000000E+01 0.  1.
         -5    1    3    3    0  502 -0.90661630701E+00  0.56750528824E+02  0.64820034098E+02  0.86258644178E+02  0.41800000000E+01 0.  1.
        -11    1    4    4    0    0  0.69007243565E+02 -0.10640230874E+03  0.37972550169E+02  0.13238340355E+03  0.00000000000E+00 0.  1.
         11    1    4    4    0    0 -0.44356002171E+01 -0.49517593267E+02  0.73575684917E+02  0.88797792784E+02  0.00000000000E+00 0. -1.
</event>
<event>
 8    1  0.6703334E-009  0.7306517E+02  0.7561462E-02  0.1349969E+00
          3   -1    0    0  501    0  0.00000000000E+00  0.00000000000E+00  0.16257191487E+03  0.16257191487E+03  0.00000000000E+00 0. -1.
         -3   -1    0    0    0  501 -0.00000000000E+00 -0.00000000000E+00 -0.10497055944E+03  0.10497055944E+03  0.00000000000E+00 0.  1.
         25    2    1    2    0    0 -0.68952868923E+02 -0.20714425307E+02  0.43466625487E+02  0.15073484375E+03  0.12509220615E+03 0.  0.
         23    2    1    2    0    0  0.68952868923E+02  0.20714425307E+02  0.14134729950E+02  0.11680763056E+03  0.90888098335E+02 0.  0.
          5    1    3    3  502    0 -0.57777783823E+02 -0.11956547662E+02 -0.36437021028E+02  0.69472010457E+02  0.41800000000E+01 0.  1.
         -5    1    3    3    0  502 -0.11175085100E+02 -0.87578776445E+01  0.79903646515E+02  0.81262833290E+02  0.41800000000E+01 0.  1.
        -11    1    4    4    0    0  0.16319532468E+02  0.26520667102E+01  0.48611636406E+02  0.51346390252E+02  0.00000000000E+00 0. -1.
         11    1    4    4    0    0  0.52633336455E+02  0.18062358597E+02 -0.34476906457E+02  0.65461240313E+02  0.00000000000E+00 0.  1.
</event>
<event>
 8    1  0.6703334E-009  0.5408072E+02  0.7561462E-02  0.1424497E+00
         -1   -1    0    0    0  501 -0.00000000000E+00  0.00000000000E+00  0.56246038969E+02  0.56246038969E+02  0.00000000000E+00 0.  1.
          1   -1    0    0  501    0  0.00000000000E+00 -0.00000000000E+00 -0.22267057274E+03  0.22267057274E+03  0.00000000000E+00 0. -1.
         25    2    1    2    0    0 -0.13730187344E+02 -0.23130412412E+02 -0.89068269686E+02  0.15590742960E+03  0.12510170230E+03 0.  0.
         23    2    1    2    0    0  0.13730187344E+02  0.23130412412E+02 -0.77356264084E+02  0.12300918210E+03  0.91780898156E+02 0.  0.
          5    1    3    3  502    0 -0.20912334900E+02  0.12814249126E+02  0.25451448347E+02  0.35591843934E+02  0.41800000000E+01 0.  1.
         -5    1    3    3    0  502  0.71821475556E+01 -0.35944661538E+02 -0.11451971803E+03  0.12031558567E+03  0.41800000000E+01 0.  1.
        -11    1    4    4    0    0  0.26134057439E+02  0.91270493753E+01  0.13109681319E+02  0.30629327985E+02  0.00000000000E+00 0.  1.
         11    1    4    4    0    0 -0.12403870094E+02  0.14003363036E+02 -0.90465945403E+02  0.92379854120E+02  0.00000000000E+00 0. -1.
</event>
<event>
 8    1  0.6703334E-009  0.1171619E+03  0.7561462E-02  0.1247854E+00
          2   -1    0    0  501    0  0.00000000000E+00  0.00000000000E+00  0.17342410331E+03  0.17342410331E+03  0.00000000000E+00 0.  1.
         -2   -1    0    0    0  501 -0.00000000000E+00 -0.00000000000E+00 -0.14606985751E+03  0.14606985751E+03  0.00000000000E+00 0. -1.
         25    2    1    2    0    0  0.18439273004E+02 -0.10730695712E+03  0.56373651188E+02  0.17515878255E+03  0.12509124958E+03 0.  0.
         23    2    1    2    0    0 -0.18439273004E+02  0.10730695712E+03 -0.29019405384E+02  0.14433517828E+03  0.90198270301E+02 0.  0.
          5    1    3    3  502    0  0.61999445529E+01 -0.34472770739E+02  0.87925431498E+02  0.94737348173E+02  0.41800000000E+01 0.  1.
         -5    1    3    3    0  502  0.12239328451E+02 -0.72834186377E+02 -0.31551780310E+02  0.80421434374E+02  0.41800000000E+01 0.  1.
        -11    1    4    4    0    0 -0.40193900610E+02  0.52577968998E+02  0.18435491761E+02  0.68701235991E+02  0.00000000000E+00 0. -1.
         11    1    4    4    0    0  0.21754627607E+02  0.54728988118E+02 -0.47454897145E+02  0.75633942287E+02  0.00000000000E+00 0.  1.
</event>
<event>
 8    1  0.6703334E-009  0.1293973E+03  0.7561462E-02  0.1228353E+00
          2   -1    0    0  501    0  0.00000000000E+00  0.00000000000E+00  0.49542865521E+03  0.49542865521E+03  0.00000000000E+00 0. -1.
         -2   -1    0    0    0  501 -0.00000000000E+00 -0.00000000000E+00 -0.50114023593E+02  0.50114023593E+02  0.00000000000E+00 0.  1.
         25    2    1    2    0    0  0.65870392888E+02 -0.81383836638E+02  0.31971953465E+03  0.35893050218E+03  0.12509311345E+03 0.  0.
         23    2    1    2    0    0 -0.65870392888E+02  0.81383836638E+02  0.12559509697E+03  0.18661217663E+03  0.89931855073E+02 0.  0.
          5    1    3    3  502    0  0.10568943034E+02 -0.65550472863E+02  0.28264030676E+03  0.29036456818E+03  0.41800000000E+01 0. -1.
         -5    1    3    3    0  502  0.55301449855E+02 -0.15833363775E+02  0.37079227893E+02  0.68565934002E+02  0.41800000000E+01 0. -1.
        -11    1    4    4    0    0 -0.84388935088E+02  0.49825084195E+02  0.71528394442E+02  0.12132741896E+03  0.00000000000E+00 0.  1.
         11    1    4    4    0    0  0.18518542200E+02  0.31558752443E+02  0.54066702532E+02  0.65284757668E+02  0.00000000000E+00 0. -1.
</event>
<event>
 8    1  0.6703334E-009  0.9987291E+02  0.7561462E-02  0.1280563E+00
         -2   -1    0    0    0  501 -0.00000000000E+00  0.00000000000E+00  0.25758826111E+02  0.25758826111E+02  0.00000000000E+00 0.  1.
          2   -1    0    0  501    0  0.00000000000E+00 -0.00000000000E+00 -0.55041244033E+03  0.55041244033E+03  0.00000000000E+00 0. -1.
         25    2    1    2    0    0  0.13186398307E+02  0.46633444269E+02 -0.28599209060E+03  0.31589125167E+03  0.12508895942E+03 0.  0.
         23    2    1    2    0    0 -0.13186398307E+02 -0.46633444269E+02 -0.23866152362E+03  0.26028001478E+03  0.91857520162E+02 0.  0.
          5    1    3    3  502    0 -0.68455768465E+01 -0.34705652187E+02 -0.30201666003E+02  0.46700719967E+02  0.41800000000E+01 0.  1.
         -5    1    3    3    0  502  0.20031975153E+02  0.81339096456E+02 -0.25579042460E+03  0.26919053170E+03  0.41800000000E+01 0.  1.
        -11    1    4    4    0    0 -0.35651362941E+02 -0.95733985133E+01 -0.31178799938E+02  0.48319635804E+02  0.00000000000E+00 0.  1.
         11    1    4    4    0    0  0.22464964634E+02 -0.37060045755E+02 -0.20748272368E+03  0.21196037897E+03  0.00000000000E+00 0. -1.
</event>
<event>
 8    1  0.6703334E-009  0.7179169E+02  0.7561462E-02  0.1354104E+00
         -2   -1    0    0    0  501 -0.00000000000E+00  0.00000000000E+00  0.21411622125E+02  0.21411622125E+02  0.00000000000E+00 0.  1.
          2   -1    0    0  501    0  0.00000000000E+00 -0.00000000000E+00 -0.65237717774E+03  0.65237717774E+03  0.00000000000E+00 0. -1.
         25    2    1    2    0    0 -0.27760048030E+02  0.38277776957E+02 -0.37738304773E+03  0.40037616438E+03  0.12508916746E+03 0.  0.
         23    2    1    2    0    0  0.27760048030E+02 -0.38277776957E+02 -0.25358250788E+03  0.27341263548E+03  0.90634278620E+02 0.  0.
          5    1    3    3  502    0 -0.21932180688E+01 -0.98204499237E+01 -0.32336417196E+03  0.32354769594E+03  0.41800000000E+01 0.  1.
         -5    1    3    3    0  502 -0.25566829962E+02  0.48098226881E+02 -0.54018875772E+02  0.76828468441E+02  0.41800000000E+01 0.  1.
        -11    1    4    4    0    0  0.39671583486E+02 -0.18327737725E+01 -0.21635938393E+03  0.21997403622E+03  0.00000000000E+00 0. -1.
         11    1    4    4    0    0 -0.11911535455E+02 -0.36445003184E+02 -0.37223123945E+02  0.53438599254E+02  0.00000000000E+00 0.  1.
</event>
<event>
 8    1  0.6703334E-009  0.1038416E+03  0.7561462E-02  0.1272419E+00
         -1   -1    0    0    0  501 -0.00000000000E+00  0.00000000000E+00  0.85936355616E+02  0.85936355616E+02  0.00000000000E+00 0. -1.
          1   -1    0    0  501    0  0.00000000000E+00 -0.00000000000E+00 -0.16230743676E+03  0.16230743676E+03  0.00000000000E+00 0.  1.
         25    2    1    2    0    0  0.24257388249E+02  0.32984527083E+02 -0.19056559756E+02  0.13299389183E+03  0.12509125822E+03 0.  0.
         23    2    1    2    0    0 -0.24257388249E+02 -0.32984527083E+02 -0.57314521386E+02  0.11524990054E+03  0.91220531140E+02 0.  0.
          5    1    3    3  502    0  0.59182540149E+02 -0.49610556558E+01 -0.45457374361E+02  0.74906811543E+02  0.41800000000E+01 0. -1.
         -5    1    3    3    0  502 -0.34925151900E+02  0.37945582739E+02  0.26400814606E+02  0.58087080289E+02  0.41800000000E+01 0. -1.
        -11    1    4    4    0    0  0.33051295295E+02 -0.15373846793E+02 -0.37021519096E+02  0.51955136051E+02  0.00000000000E+00 0. -1.
         11    1    4    4    0    0 -0.57308683545E+02 -0.17610680290E+02 -0.20293002290E+02  0.63294764490E+02  0.00000000000E+00 0.  1.
</event>
<event>
 8    1  0.6703334E-009  0.9103313E+02  0.7561462E-02  0.1300369E+00
          2   -1    0    0  501    0  0.00000000000E+00  0.00000000000E+00  0.78002233994E+03  0.78002233994E+03  0.00000000000E+00 0. -1.
         -2   -1    0    0    0  501 -0.00000000000E+00 -0.00000000000E+00 -0.20539452701E+02  0.20539452701E+02  0.00000000000E+00 0.  1.
         25    2    1    2    0    0 -0.54055279852E+02 -0.34358768236E+01  0.52249581816E+03  0.53998412862E+03  0.12508877103E+03 0.  0.
         23    2    1    2    0    0  0.54055279852E+02  0.34358768236E+01  0.23698706908E+03  0.26057766402E+03  0.93830003445E+02 0.  0.
          5    1    3    3  502    0 -0.50987479012E+02 -0.38650691539E+02  0.48125267506E+03  0.48550510669E+03  0.41800000000E+01 0.  1.
         -5    1    3    3    0  502 -0.30678008404E+01  0.35214814716E+02  0.41243143105E+02  0.54479021932E+02  0.41800000000E+01 0.  1.
        -11    1    4    4    0    0  0.44907624798E+02 -0.25751311344E+02  0.53078179741E+02  0.74142551653E+02  0.00000000000E+00 0.  1.
         11    1    4    4    0    0  0.91476550546E+01  0.29187188168E+02  0.18390888934E+03  0.18643511237E+03  0.00000000000E+00 0. -1.
</event>
<event>
 8    1  0.6703334E-009  0.1073043E+03  0.7561462E-02  0.1265645E+00
          2   -1    0    0  501    0  0.00000000000E+00  0.00000000000E+00  0.85483109557E+03  0.85483109557E+03  0.00000000000E+00 0. -1.
         -2   -1    0    0    0  501 -0.00000000000E+00 -0.00000000000E+00 -0.18822418153E+02  0.18822418153E+02  0.00000000000E+00 0.  1.
         25    2    1    2    0    0 -0.13547596203E+02  0.54382990568E+02  0.56754810190E+03  0.58386714734E+03  0.12509576632E+03 0.  0.
         23    2    1    2    0    0  0.13547596203E+02 -0.54382990568E+02  0.26846057552E+03  0.28978636638E+03  0.93616294020E+02 0.  0.
          5    1    3    3  502    0 -0.52004880203E+02  0.39738991442E+02  0.14315073895E+03  0.15745888818E+03  0.41800000000E+01 0. -1.
         -5    1    3    3    0  502  0.38457284000E+02  0.14643999126E+02  0.42439736295E+03  0.42640825916E+03  0.41800000000E+01 0. -1.
        -11    1    4    4    0    0 -0.27418970207E+02 -0.60328172303E+02  0.18732746792E+03  0.19870296559E+03  0.00000000000E+00 0. -1.
         11    1    4    4    0    0  0.40966566410E+02  0.59451817353E+01  0.81133107607E+02  0.91083400789E+02  0.00000000000E+00 0.  1.
</event>
<event>
 8    1  0.6703334E-009  0.1963624E+03  0.7561462E-02  0.1152845E+00
          2   -1    0    0  501    0  0.00000000000E+00  0.00000000000E+00  0.12183511845E+04  0.12183511845E+04  0.00000000000E+00 0. -1.
         -2   -1    0    0    0  501 -0.00000000000E+00 -0.00000000000E+00 -0.32500521856E+02  0.32500521856E+02  0.00000000000E+00 0.  1.
         25    2    1    2    0    0  0.11925114478E+03 -0.11379073228E+03  0.66724218385E+03  0.69858982888E+03  0.12508577388E+03 0.  0.
         23    2    1    2    0    0 -0.11925114478E+03  0.11379073228E+03  0.51860847884E+03  0.55226187752E+03  0.94176752706E+02 0.  0.
          5    1    3    3  502    0  0.13858953160E+03 -0.11904274106E+03  0.54975287471E+03  0.57933058622E+03  0.41800000000E+01 0. -1.
         -5    1    3    3    0  502 -0.19338386818E+02  0.52520087771E+01  0.11748930913E+03  0.11925924266E+03  0.41800000000E+01 0. -1.
        -11    1    4    4    0    0 -0.73431486406E+02  0.75612583947E+01  0.18637917409E+03  0.20046583839E+03  0.00000000000E+00 0.  1.
         11    1    4    4    0    0 -0.45819658373E+02  0.10622947389E+03  0.33222930475E+03  0.35179603913E+03  0.00000000000E+00 0. -1.
</event>
<event>
 8    1  0.6703334E-009  0.1649334E+03  0.7561462E-02  0.1183237E+00
          2   -1    0    0  501    0  0.00000000000E+00  0.00000000000E+00  0.83125678643E+03  0.83125678643E+03  0.00000000000E+00 0. -1.
         -2   -1    0    0    0  501 -0.00000000000E+00 -0.00000000000E+00 -0.67706719101E+02  0.67706719101E+02  0.00000000000E+00 0.  1.
         25    2    1    2    0    0 -0.15627614632E+03  0.51092169413E+02  0.64317229236E+03  0.67553756243E+03  0.12509099453E+03 0.  0.
         23    2    1    2    0    0  0.15627614632E+03 -0.51092169413E+02  0.12037777497E+03  0.22342594310E+03  0.91628050618E+02 0.  0.
          5    1    3    3  502    0 -0.13155166360E+03  0.40701221320E+02  0.28721886967E+03  0.31855075123E+03  0.41800000000E+01 0. -1.
         -5    1    3    3    0  502 -0.24724482713E+02  0.10390948093E+02  0.35595342269E+03  0.35698681120E+03  0.41800000000E+01 0. -1.
        -11    1    4    4    0    0  0.14350260012E+03 -0.42886204215E+02  0.60295549881E+02  0.16145518291E+03  0.00000000000E+00 0. -1.
         11    1    4    4    0    0  0.12773546201E+02 -0.82059651989E+01  0.60082225086E+02  0.61970760192E+02  0.00000000000E+00 0.  1.
</event>
<event>
 8    1  0.6703334E-009  0.1235246E+03  0.7561462E-02  0.1237393E+00
          1   -1    0    0  501    0  0.00000000000E+00  0.00000000000E+00  0.10563836674E+04  0.10563836674E+04  0.00000000000E+00 0. -1.
         -1   -1    0    0    0  501 -0.00000000000E+00 -0.00000000000E+00 -0.45341626524E+02  0.45341626524E+02  0.00000000000E+00 0.  1.
         25    2    1    2    0    0  0.92978565852E+02 -0.46508803108E+02  0.92598381744E+03  0.94016010131E+03  0.12508758316E+03 0.  0.
         23    2    1    2    0    0 -0.92978565852E+02  0.46508803108E+02  0.85058223428E+02  0.16156519261E+03  0.89779327322E+02 0.  0.
          5    1    3    3  502    0  0.34977330160E+02  0.66375252161E+00  0.51048176135E+02  0.62026146739E+02  0.41800000000E+01 0. -1.
         -5    1    3    3    0  502  0.58001235692E+02 -0.47172555629E+02  0.87493564131E+03  0.87813395457E+03  0.41800000000E+01 0. -1.
        -11    1    4    4    0    0 -0.37903120393E+02 -0.25941377543E+02  0.34611211837E+02  0.57511195338E+02  0.00000000000E+00 0.  1.
         11    1    4    4    0    0 -0.55075445460E+02  0.72450180651E+02  0.50447011591E+02  0.10405399727E+03  0.00000000000E+00 0. -1.
</event>
<event>
 8    1  0.6703334E-009  0.9614696E+02  0.7561462E-02  0.1288614E+00
         -1   -1    0    0    0  501 -0.00000000000E+00  0.00000000000E+00  0.20382240079E+02  0.20382240079E+02  0.00000000000E+00 0.  1.
          1   -1    0    0  501    0  0.00000000000E+00 -0.00000000000E+00 -0.69983656601E+03  0.69983656601E+03  0.00000000000E+00 0. -1.
         25    2    1    2    0    0 -0.33486653768E+02  0.86927499279E+01 -0.50071244868E+03  0.51726159884E+03  0.12509870302E+03 0.  0.
         23    2    1    2    0    0  0.33486653768E+02 -0.86927499279E+01 -0.17874187726E+03  0.20295720725E+03  0.89699773724E+02 0.  0.
          5    1    3    3  502    0  0.81973617545E+01  0.58154730149E+02 -0.31769076139E+03  0.32310069893E+03  0.41800000000E+01 0.  1.
         -5    1    3    3    0  502 -0.41684015522E+02 -0.49461980222E+02 -0.18302168729E+03  0.19416089991E+03  0.41800000000E+01 0.  1.
        -11    1    4    4    0    0  0.27144002927E+01 -0.30665118338E+02 -0.13799591856E+02  0.33736422262E+02  0.00000000000E+00 0.  1.
         11    1    4    4    0    0  0.30772253475E+02  0.21972368410E+02 -0.16494228540E+03  0.16922078498E+03  0.00000000000E+00 0. -1.
</event>
<event>
 8    1  0.6703334E-009  0.2521899E+03  0.7561462E-02  0.1111929E+00
         -1   -1    0    0    0  501 -0.00000000000E+00  0.00000000000E+00  0.86857341376E+02  0.86857341376E+02  0.00000000000E+00 0.  1.
          1   -1    0    0  501    0  0.00000000000E+00 -0.00000000000E+00 -0.13004289068E+04  0.13004289068E+04  0.00000000000E+00 0. -1.
         25    2    1    2    0    0  0.14467271810E+03 -0.20305767613E+03 -0.21066477562E+03  0.34955554340E+03  0.12508722972E+03 0.  0.
         23    2    1    2    0    0 -0.14467271810E+03  0.20305767613E+03 -0.10029067898E+04  0.10377307048E+04  0.94341779738E+02 0.  0.
          5    1    3    3  502    0  0.18759717453E+02 -0.39545982683E+02  0.12354618336E+02  0.45671881279E+02  0.41800000000E+01 0. -1.
         -5    1    3    3    0  502  0.12591300064E+03 -0.16351169344E+03 -0.22301939395E+03  0.30388366212E+03  0.41800000000E+01 0. -1.
        -11    1    4    4    0    0 -0.78167084148E+02  0.14912222428E+03 -0.79949244200E+03  0.81702857700E+03  0.00000000000E+00 0.  1.
         11    1    4    4    0    0 -0.66505633948E+02  0.53935451848E+02 -0.20341434782E+03  0.22070212779E+03  0.00000000000E+00 0. -1.
</event>
<event>
 8    1  0.6703334E-009  0.1044744E+03  0.7561462E-02  0.1271159E+00
          2   -1    0    0  501    0  0.00000000000E+00  0.00000000000E+00  0.49364568223E+02  0.49364568223E+02  0.00000000000E+00 0.  1.
         -2   -1    0    0    0  501 -0.00000000000E+00 -0.00000000000E+00 -0.36359450661E+03  0.36359450661E+03  0.00000000000E+00 0. -1.
         25    2    1    2    0    0 -0.69576145616E+02 -0.12415585589E+00 -0.11809138929E+03  0.18556409338E+03  0.12509037163E+03 0.  0.
         23    2    1    2    0    0  0.69576145616E+02  0.12415585589E+00 -0.19613854909E+03  0.22739498145E+03  0.91636737693E+02 0.  0.
          5    1    3    3  502    0  0.14770099564E+02 -0.19179859342E+01 -0.97369460721E+02  0.98590662805E+02  0.41800000000E+01 0.  1.
         -5    1    3    3    0  502 -0.84346245181E+02  0.17938300784E+01 -0.20721928570E+02  0.86973430576E+02  0.41800000000E+01 0.  1.
        -11    1    4    4    0    0 -0.18271997505E+02  0.96216568672E+01 -0.13981702427E+02  0.24938527953E+02  0.00000000000E+00 0.  1.
         11    1    4    4    0    0  0.87848143122E+02 -0.94975010113E+01 -0.18215684666E+03  0.20245645350E+03  0.00000000000E+00 0. -1.
</event>
<event>
 8    1  0.6703334E-009  0.1011624E+03  0.7561462E-02  0.1277870E+00
          4   -1    0    0  501    0  0.00000000000E+00  0.00000000000E+00  0.15444054269E+03  0.15444054269E+03  0.00000000000E+00 0. -1.
         -4   -1    0    0    0  501 -0.00000000000E+00 -0.00000000000E+00 -0.84011845747E+02  0.84011845747E+02  0.00000000000E+00 0.  1.
         25    2    1    2    0    0  0.48079798334E+01 -0.15889799997E+01  0.68248678200E+02  0.14258778206E+03  0.12509097485E+03 0.  0.
         23    2    1    2    0    0 -0.48079798334E+01  0.15889799997E+01  0.21800187407E+01  0.95864606373E+02  0.95705949375E+02 0.  0.
          5    1    3    3  502    0 -0.26738192353E+02  0.54295806764E+02  0.37327777255E+02  0.71230617835E+02  0.41800000000E+01 0.  1.
         -5    1    3    3    0  502  0.31546172186E+02 -0.55884786763E+02  0.30920900945E+02  0.71357164226E+02  0.41800000000E+01 0.  1.
        -11    1    4    4    0    0  0.24107659897E+02  0.28858122561E+02  0.29365815218E+02  0.47710812263E+02  0.00000000000E+00 0.  1.
         11    1    4    4    0    0 -0.28915639730E+02 -0.27269142561E+02 -0.27185796477E+02  0.48153794109E+02  0.00000000000E+00 0. -1.
</event>
<event>
 8    1  0.6703334E-009  0.1327614E+03  0.7561462E-02  0.1223415E+00
         -1   -1    0    0    0  501 -0.00000000000E+00  0.00000000000E+00  0.28671844544E+02  0.28671844544E+02  0.00000000000E+00 0.  1.
          1   -1    0    0  501    0  0.00000000000E+00 -0.00000000000E+00 -0.78186043869E+03  0.78186043869E+03  0.00000000000E+00 0. -1.
         25    2    1    2    0    0  0.95412220878E+02  0.13380544713E+02 -0.50907383295E+03  0.53299767451E+03  0.12509125777E+03 0.  0.
         23    2    1    2    0    0 -0.95412220878E+02 -0.13380544713E+02 -0.24411476120E+03  0.27753460873E+03  0.90282398817E+02 0.  0.
          5    1    3    3  502    0 -0.23545252113E+02 -0.37387039908E+00 -0.26179387561E+02  0.35459151276E+02  0.41800000000E+01 0.  1.
         -5    1    3    3    0  502  0.11895747299E+03  0.13754415113E+02 -0.48289444539E+03  0.49753852323E+03  0.41800000000E+01 0.  1.
        -11    1    4    4    0    0 -0.70095578529E+02  0.26172291865E+02 -0.93407681752E+02  0.11968029913E+03  0.00000000000E+00 0. -1.
         11    1    4    4    0    0 -0.25316642349E+02 -0.39552836578E+02 -0.15070707945E+03  0.15785430959E+03  0.00000000000E+00 0.  1.
</event>
<event>
 8    1  0.6703334E-009  0.9485711E+02  0.7561462E-02  0.1291498E+00
         -1   -1    0    0    0  501 -0.00000000000E+00  0.00000000000E+00  0.15985364549E+02  0.15985364549E+02  0.00000000000E+00 0.  1.
          1   -1    0    0  501    0  0.00000000000E+00 -0.00000000000E+00 -0.11109478263E+04  0.11109478263E+04  0.00000000000E+00 0. -1.
         25    2    1    2    0    0 -0.55301653575E+02  0.46276788584E+02 -0.74201570708E+03  0.75593302237E+03  0.12509041016E+03 0.  0.
         23    2    1    2    0    0  0.55301653575E+02 -0.46276788584E+02 -0.35294675469E+03  0.37100016850E+03  0.88712453053E+02 0.  0.
          5    1    3    3  502    0 -0.22630345616E+02  0.34921668110E+02 -0.60620049751E+02  0.73647255741E+02  0.41800000000E+01 0.  1.
         -5    1    3    3    0  502 -0.32671307959E+02  0.11355120474E+02 -0.68139565733E+03  0.68228576663E+03  0.41800000000E+01 0.  1.
        -11    1    4    4    0    0  0.66507459089E+02 -0.11112373838E+01 -0.23413658590E+03  0.24340176216E+03  0.00000000000E+00 0.  1.
         11    1    4    4    0    0 -0.11205805514E+02 -0.45165551200E+02 -0.11881016879E+03  0.12759840634E+03  0.00000000000E+00 0. -1.
</event>
<event>
 8    1  0.6703334E-009  0.1048632E+03  0.7561462E-02  0.1270389E+00
         -2   -1    0    0    0  501 -0.00000000000E+00  0.00000000000E+00  0.46285093264E+02  0.46285093264E+02  0.00000000000E+00 0.  1.
          2   -1    0    0  501    0  0.00000000000E+00 -0.00000000000E+00 -0.30352756202E+03  0.30352756202E+03  0.00000000000E+00 0. -1.
         25    2    1    2    0    0 -0.12171819680E+02  0.81426825958E+01 -0.20547313231E+03  0.24098655771E+03  0.12506340961E+03 0.  0.
         23    2    1    2    0    0  0.12171819680E+02 -0.81426825958E+01 -0.51769336447E+02  0.10882609757E+03  0.94597034001E+02 0.  0.
          5    1    3    3  502    0  0.13948106856E+02  0.62577565362E+02 -0.12196849326E+03  0.13785603766E+03  0.41800000000E+01 0. -1.
         -5    1    3    3    0  502 -0.26119926536E+02 -0.54434882766E+02 -0.83504639049E+02  0.10313052005E+03  0.41800000000E+01 0. -1.
        -11    1    4    4    0    0 -0.35952599114E+02 -0.79943199070E+01 -0.48072609450E+02  0.60559675636E+02  0.00000000000E+00 0. -1.
         11    1    4    4    0    0  0.48124418794E+02 -0.14836268886E+00 -0.36967269974E+01  0.48266421933E+02  0.00000000000E+00 0.  1.
</event>
<event>
 8    1  0.6703334E-009  0.7882711E+02  0.7561462E-02  0.1332413E+00
         -2   -1    0    0    0  501 -0.00000000000E+00  0.00000000000E+00  0.30476501519E+02  0.30476501519E+02  0.00000000000E+00 0.  1.
          2   -1    0    0  501    0  0.00000000000E+00 -0.00000000000E+00 -0.42530317432E+03  0.42530317432E+03  0.00000000000E+00 0. -1.
         25    2    1    2    0    0  0.14158129008E+02 -0.10069026895E+02 -0.31272675708E+03  0.33726272622E+03  0.12508510696E+03 0.  0.
         23    2    1    2    0    0 -0.14158129008E+02  0.10069026895E+02 -0.82099915716E+02  0.11851694961E+03  0.83690102556E+02 0.  0.
          5    1    3    3  502    0  0.48749822941E+01 -0.56401249801E+02 -0.26089846651E+03  0.26700252557E+03  0.41800000000E+01 0. -1.
         -5    1    3    3    0  502  0.92831467137E+01  0.46332222906E+02 -0.51828290568E+02  0.70260200651E+02  0.41800000000E+01 0. -1.
        -11    1    4    4    0    0 -0.32454951438E+02 -0.22789401018E+00  0.13328226159E+01  0.32483106758E+02  0.00000000000E+00 0.  1.
         11    1    4    4    0    0  0.18296822430E+02  0.10296920905E+02 -0.83432738332E+02  0.86033842857E+02  0.00000000000E+00 0. -1.
</event>
<event>
 8    1  0.6703334E-009  0.8145140E+02  0.7561462E-02  0.1324982E+00
          2   -1    0    0  501    0  0.00000000000E+00  0.00000000000E+00  0.60556572196E+02  0.60556572196E+02  0.00000000000E+00 0. -1.
         -2   -1    0    0    0  501 -0.00000000000E+00 -0.00000000000E+00 -0.23564218116E+03  0.23564218116E+03  0.00000000000E+00 0.  1.
         25    2    1    2    0    0 -0.27782294450E+02 -0.23289329938E+02 -0.13728510476E+03  0.18923330968E+03  0.12509115367E+03 0.  0.
         23    2    1    2    0    0  0.27782294450E+02  0.23289329938E+02 -0.37800504199E+02  0.10696544368E+03  0.93265638096E+02 0.  0.
          5    1    3    3  502    0 -0.18240198281E+02 -0.53742535340E+02 -0.97961044870E+01  0.57744272454E+02  0.41800000000E+01 0.  1.
         -5    1    3    3    0  502 -0.95420961693E+01  0.30453205402E+02 -0.12748900028E+03  0.13148903722E+03  0.41800000000E+01 0.  1.
        -11    1    4    4    0    0 -0.17234783283E+02  0.23064041150E+02  0.18994344379E+02  0.34493084342E+02  0.00000000000E+00 0. -1.
         11    1    4    4    0    0  0.45017077733E+02  0.22528878755E+00 -0.56794848578E+02  0.72472359336E+02  0.00000000000E+00 0.  1.
</event>
<event>
 8    1  0.6703334E-009  0.1130721E+03  0.7561462E-02  0.1254984E+00
          1   -1    0    0  501    0  0.00000000000E+00  0.00000000000E+00  0.55305973533E+03  0.55305973533E+03  0.00000000000E+00 0. -1.
         -1   -1    0    0    0  501 -0.00000000000E+00 -0.00000000000E+00 -0.30838242014E+02  0.30838242014E+02  0.00000000000E+00 0.  1.
         25    2    1    2    0    0  0.33011502549E+02 -0.38572697132E+02  0.17121719386E+03  0.21803396752E+03  0.12508345715E+03 0.  0.
         23    2    1    2    0    0 -0.33011502549E+02  0.38572697132E+02  0.35100429946E+03  0.36586400983E+03  0.89860131247E+02 0.  0.
          5    1    3    3  502    0  0.12265594826E+02  0.40142587252E+02  0.10452719478E+03  0.11271769593E+03  0.41800000000E+01 0.  1.
         -5    1    3    3    0  502  0.20745907723E+02 -0.78715284385E+02  0.66689999085E+02  0.10531627159E+03  0.41800000000E+01 0.  1.
        -11    1    4    4    0    0 -0.60976400487E+02  0.42338769182E+02  0.23334837846E+03  0.24487171850E+03  0.00000000000E+00 0. -1.
         11    1    4    4    0    0  0.27964897938E+02 -0.37660720498E+01  0.11765592100E+03  0.12099229133E+03  0.00000000000E+00 0.  1.
</event>
<event>
 8    1  0.6703334E-009  0.7878640E+02  0.7561462E-02  0.1332531E+00
          1   -1    0    0  501    0  0.00000000000E+00  0.00000000000E+00  0.19769340775E+03  0.19769340775E+03  0.00000000000E+00 0. -1.
         -1   -1    0    0    0  501 -0.00000000000E+00 -0.00000000000E+00 -0.70982760346E+02  0.70982760346E+02  0.00000000000E+00 0.  1.
         25    2    1    2    0    0  0.34822360511E+02 -0.27632290776E+02  0.57533034750E+02  0.14468215217E+03  0.12508690893E+03 0.  0.
         23    2    1    2    0    0 -0.34822360511E+02  0.27632290776E+02  0.69177612652E+02  0.12399401592E+03  0.92805353332E+02 0.  0.
          5    1    3    3  502    0  0.23086999953E+02  0.98052499389E+00  0.93882160954E+02  0.96774498405E+02  0.41800000000E+01 0. -1.
         -5    1    3    3    0  502  0.11735360558E+02 -0.28612815770E+02 -0.36349126204E+02  0.47907653768E+02  0.41800000000E+01 0. -1.
        -11    1    4    4    0    0  0.22260730580E+02  0.38786096485E+02  0.31279888591E+02  0.54574104086E+02  0.00000000000E+00 0.  1.
         11    1    4    4    0    0 -0.57083091091E+02 -0.11153805709E+02  0.37897724061E+02  0.69419911836E+02  0.00000000000E+00 0. -1.
</event>
<event>
 8    1  0.6703334E-009  0.1415292E+03  0.7561462E-02  0.1211286E+00
          2   -1    0    0  501    0  0.00000000000E+00  0.00000000000E+00  0.53990923977E+03  0.53990923977E+03  0.00000000000E+00 0. -1.
         -2   -1    0    0    0  501 -0.00000000000E+00 -0.00000000000E+00 -0.81981199881E+02  0.81981199881E+02  0.00000000000E+00 0.  1.
         25    2    1    2    0    0 -0.11010390878E+03 -0.82839767923E+02  0.41277493253E+03  0.45278560744E+03  0.12508542481E+03 0.  0.
         23    2    1    2    0    0  0.11010390878E+03  0.82839767923E+02  0.45153107360E+02  0.16910483221E+03  0.87019212212E+02 0.  0.
          5    1    3    3  502    0 -0.12788067233E+02  0.44689041041E+01 -0.49832884678E+01  0.15027020044E+02  0.41800000000E+01 0. -1.
         -5    1    3    3    0  502 -0.97315841549E+02 -0.87308672027E+02  0.41775822100E+03  0.43775858740E+03  0.41800000000E+01 0. -1.
        -11    1    4    4    0    0  0.49992824510E+02  0.32101757081E+02  0.64914950200E+02  0.87998614021E+02  0.00000000000E+00 0. -1.
         11    1    4    4    0    0  0.60111084272E+02  0.50738010842E+02 -0.19761842840E+02  0.81106218190E+02  0.00000000000E+00 0.  1.
</event>
<event>
 8    1  0.6703334E-009  0.1195219E+03  0.7561462E-02  0.1243888E+00
          1   -1    0    0  501    0  0.00000000000E+00  0.00000000000E+00  0.58863763326E+03  0.58863763326E+03  0.00000000000E+00 0. -1.
         -1   -1    0    0    0  501 -0.00000000000E+00 -0.00000000000E+00 -0.43421147373E+02  0.43421147373E+02  0.00000000000E+00 0.  1.
         25    2    1    2    0    0 -0.91583477799E+02  0.52967643552E+02  0.19672829844E+03  0.25601303558E+03  0.12509015273E+03 0.  0.
         23    2    1    2    0    0  0.91583477799E+02 -0.52967643552E+02  0.34848818745E+03  0.37604574506E+03  0.93665793718E+02 0.  0.
          5    1    3    3  502    0 -0.12403110131E+02  0.16743606402E+02 -0.15681154063E+02  0.26411294725E+02  0.41800000000E+01 0.  1.
         -5    1    3    3    0  502 -0.79180367668E+02  0.36224037149E+02  0.21240945250E+03  0.22960174085E+03  0.41800000000E+01 0.  1.
        -11    1    4    4    0    0 -0.11120833824E+02 -0.19767779481E+02  0.13425821018E+03  0.13616058553E+03  0.00000000000E+00 0. -1.
         11    1    4    4    0    0  0.10270431162E+03 -0.33199864070E+02  0.21422997727E+03  0.23988515953E+03  0.00000000000E+00 0.  1.
</event>
<event>
 8    1  0.6703334E-009  0.9079427E+02  0.7561462E-02  0.1300940E+00
         -1   -1    0    0    0  501 -0.00000000000E+00  0.00000000000E+00  0.87878220838E+02  0.87878220838E+02  0.00000000000E+00 0.  1.
          1   -1    0    0  501    0  0.00000000000E+00 -0.00000000000E+00 -0.24102295529E+03  0.24102295529E+03  0.00000000000E+00 0. -1.
         25    2    1    2    0    0  0.34362331416E+01  0.11542766495E+02  0.24833481270E+02  0.12809401737E+03  0.12508530025E+03 0.  0.
         23    2    1    2    0    0 -0.34362331416E+01 -0.11542766495E+02 -0.17797821572E+03  0.20080715876E+03  0.92207519109E+02 0.  0.
          5    1    3    3  502    0  0.12767364524E+02  0.55012943060E+02 -0.24366978603E+02  0.61649424549E+02  0.41800000000E+01 0. -1.
         -5    1    3    3    0  502 -0.93311313822E+01 -0.43470176565E+02  0.49200459872E+02  0.66444592821E+02  0.41800000000E+01 0. -1.
        -11    1    4    4    0    0 -0.23262724778E+02  0.27798417685E+02 -0.13298781085E+03  0.13783926953E+03  0.00000000000E+00 0. -1.
         11    1    4    4    0    0  0.19826491637E+02 -0.39341184180E+02 -0.44990404874E+02  0.62967889230E+02  0.00000000000E+00 0.  1.
</event>
<event>
 8    1  0.6703334E-009  0.1077272E+03  0.7561462E-02  0.1264837E+00
         -1   -1    0    0    0  501 -0.00000000000E+00  0.00000000000E+00  0.10651029409E+03  0.10651029409E+03  0.00000000000E+00 0.  1.
          1   -1    0    0  501    0  0.00000000000E+00 -0.00000000000E+00 -0.12939476106E+03  0.12939476106E+03  0.00000000000E+00 0. -1.
         25    2    1    2    0    0  0.14990949937E+02  0.42090330060E+02 -0.25359082135E+02  0.13523030363E+03  0.12509127670E+03 0.  0.
         23    2    1    2    0    0 -0.14990949937E+02 -0.42090330060E+02  0.24746151730E+01  0.10067475152E+03  0.90182910849E+02 0.  0.
          5    1    3    3  502    0 -0.50913504124E+02  0.11572872608E+02 -0.33272761612E+02  0.62053729524E+02  0.41800000000E+01 0. -1.
         -5    1    3    3    0  502  0.65904454061E+02  0.30517457452E+02  0.79136794773E+01  0.73176574102E+02  0.41800000000E+01 0. -1.
        -11    1    4    4    0    0 -0.39409768128E+02  0.25001085927E+01  0.23170456700E+02  0.45784827515E+02  0.00000000000E+00 0.  1.
         11    1    4    4    0    0  0.24418818191E+02 -0.44590438653E+02 -0.20695841527E+02  0.54889924008E+02  0.00000000000E+00 0. -1.
</event>
<event>
 8    1  0.6703334E-009  0.1175531E+03  0.7561462E-02  0.1247189E+00
          4   -1    0    0  501    0  0.00000000000E+00  0.00000000000E+00  0.16193363928E+03  0.16193363928E+03  0.00000000000E+00 0. -1.
         -4   -1    0    0    0  501 -0.00000000000E+00 -0.00000000000E+00 -0.15467254685E+03  0.15467254685E+03  0.00000000000E+00 0.  1.
         25    2    1    2    0    0  0.49653316547E+02  0.86035176104E+02 -0.52393985973E+02  0.16810718655E+03  0.12508954005E+03 0.  0.
         23    2    1    2    0    0 -0.49653316547E+02 -0.86035176104E+02  0.59655078404E+02  0.14849899958E+03  0.92874760435E+02 0.  0.
          5    1    3    3  502    0  0.22173846110E+02  0.45604837937E+02 -0.91946689689E+02  0.10508637799E+03  0.41800000000E+01 0.  1.
         -5    1    3    3    0  502  0.27479470437E+02  0.40430338166E+02  0.39552703716E+02  0.63020808555E+02  0.41800000000E+01 0.  1.
        -11    1    4    4    0    0 -0.36536206510E+02 -0.10552348142E+03  0.42819809945E+02  0.11959780784E+03  0.00000000000E+00 0. -1.
         11    1    4    4    0    0 -0.13117110036E+02  0.19488305316E+02  0.16835268460E+02  0.28901191738E+02  0.00000000000E+00 0.  1.
</event>
<event>
 8    1  0.6703334E-009  0.1251717E+03  0.7561462E-02  0.1234801E+00
          1   -1    0    0  501    0  0.00000000000E+00  0.00000000000E+00  0.62881312890E+03  0.62881312890E+03  0.00000000000E+00 0. -1.
         -1   -1    0    0    0  501 -0.00000000000E+00 -0.00000000000E+00 -0.48873562658E+02  0.48873562658E+02  0.00000000000E+00 0.  1.
         25    2    1    2    0    0 -0.46479603957E+02  0.60498872015E+02  0.86736023303E+02  0.17026821729E+03  0.12509061108E+03 0.  0.
         23    2    1    2    0    0  0.46479603957E+02 -0.60498872015E+02  0.49320354294E+03  0.50741847428E+03  0.91669548750E+02 0.  0.
          5    1    3    3  502    0 -0.64913344756E+02 -0.83175109169E+01  0.72018210922E+02  0.97401326581E+02  0.41800000000E+01 0. -1.
         -5    1    3    3    0  502  0.18433740800E+02  0.68816382932E+02  0.14717812382E+02  0.72866890705E+02  0.41800000000E+01 0. -1.
        -11    1    4    4    0    0  0.53345546650E+02 -0.84396888161E+00  0.31187832373E+03  0.31640883117E+03  0.00000000000E+00 0. -1.
         11    1    4    4    0    0 -0.68659426937E+01 -0.59654903133E+02  0.18132521921E+03  0.19100964311E+03  0.00000000000E+00 0.  1.
</event>
<event>
 8    1  0.6703334E-009  0.1073045E+03  0.7561462E-02  0.1265644E+00
         -1   -1    0    0    0  501 -0.00000000000E+00  0.00000000000E+00  0.12156637690E+03  0.12156637690E+03  0.00000000000E+00 0.  1.
          1   -1    0    0  501    0  0.00000000000E+00 -0.00000000000E+00 -0.14345478942E+03  0.14345478942E+03  0.00000000000E+00 0. -1.
         25    2    1    2    0    0 -0.39287658770E+02  0.54815523245E+02 -0.43841703960E+02  0.14871739799E+03  0.12508600137E+03 0.  0.
         23    2    1    2    0    0  0.39287658770E+02 -0.54815523245E+02  0.21953291437E+02  0.11630376833E+03  0.92175689861E+02 0.  0.
          5    1    3    3  502    0 -0.68750543086E+01  0.88091877617E+02 -0.50096395122E+02  0.10165906983E+03  0.41800000000E+01 0.  1.
         -5    1    3    3    0  502 -0.32412604462E+02 -0.33276354372E+02  0.62546911615E+01  0.47058328166E+02  0.41800000000E+01 0.  1.
        -11    1    4    4    0    0  0.26752941854E+01 -0.39877560709E+02 -0.30741541519E+02  0.50422409919E+02  0.00000000000E+00 0. -1.
         11    1    4    4    0    0  0.36612364585E+02 -0.14937962536E+02  0.52694832955E+02  0.65881358406E+02  0.00000000000E+00 0.  1.
</event>
<event>
 8    1  0.6703334E-009  0.2202784E+03  0.7561462E-02  0.1133676E+00
          2   -1    0    0  501    0  0.00000000000E+00  0.00000000000E+00  0.24892754812E+04  0.24892754812E+04  0.00000000000E+00 0. -1.
         -2   -1    0    0    0  501 -0.00000000000E+00 -0.00000000000E+00 -0.24803376064E+02  0.24803376064E+02  0.00000000000E+00 0.  1.
         25    2    1    2    0    0  0.99211616736E+02 -0.17559208251E+03  0.17568180047E+04  0.17727753887E+04  0.12509017895E+03 0.  0.
         23    2    1    2    0    0 -0.99211616736E+02  0.17559208251E+03  0.70765410046E+03  0.74130346857E+03  0.89894283916E+02 0.  0.
          5    1    3    3  502    0 -0.26258697566E+02 -0.88615157185E+01  0.17084913058E+03  0.17313273370E+03  0.41800000000E+01 0.  1.
         -5    1    3    3    0  502  0.12547031430E+03 -0.16673056679E+03  0.15859688741E+04  0.15996426550E+04  0.41800000000E+01 0.  1.
        -11    1    4    4    0    0 -0.67380720295E+02  0.89470005735E+02  0.52566007932E+03  0.53746028913E+03  0.00000000000E+00 0. -1.
         11    1    4    4    0    0 -0.31830896441E+02  0.86122076775E+02  0.18199402114E+03  0.20384317944E+03  0.00000000000E+00 0.  1.
</event>
<event>
 8    1  0.6703334E-009  0.1127223E+03  0.7561462E-02  0.1255610E+00
         -2   -1    0    0    0  501 -0.00000000000E+00  0.00000000000E+00  0.14957202676E+03  0.14957202676E+03  0.00000000000E+00 0.  1.
          2   -1    0    0  501    0  0.00000000000E+00 -0.00000000000E+00 -0.17726808858E+03  0.17726808858E+03  0.00000000000E+00 0. -1.
         25    2    1    2    0    0 -0.57975161617E+02  0.72478831296E+02 -0.93735431420E+02  0.18179084995E+03  0.12508909494E+03 0.  0.
         23    2    1    2    0    0  0.57975161617E+02 -0.72478831296E+02  0.66039369596E+02  0.14504926539E+03  0.89798611921E+02 0.  0.
          5    1    3    3  502    0 -0.73832128225E+02  0.44997769213E+02 -0.11457644873E+03  0.14360089622E+03  0.41800000000E+01 0.  1.
         -5    1    3    3    0  502  0.15856966608E+02  0.27481062083E+02  0.20841017311E+02  0.38189953728E+02  0.41800000000E+01 0.  1.
        -11    1    4    4    0    0  0.41892538959E+01 -0.47308984081E+02 -0.10033790365E+02  0.48542422396E+02  0.00000000000E+00 0. -1.
         11    1    4    4    0    0  0.53785907721E+02 -0.25169847215E+02  0.76073159960E+02  0.96506842993E+02  0.00000000000E+00 0.  1.
</event>
<event>
 8    1  0.6703334E-009  0.1224689E+03  0.7561462E-02  0.1239079E+00
          1   -1    0    0  501    0  0.00000000000E+00  0.00000000000E+00  0.45362292873E+03  0.45362292873E+03  0.00000000000E+00 0. -1.
         -1   -1    0    0    0  501 -0.00000000000E+00 -0.00000000000E+00 -0.50116708852E+02  0.50116708852E+02  0.00000000000E+00 0.  1.
         25    2    1    2    0    0 -0.60738989039E+02  0.42868971864E+02  0.95066680881E+02  0.17381788564E+03  0.12509200620E+03 0.  0.
         23    2    1    2    0    0  0.60738989039E+02 -0.42868971864E+02  0.30843953899E+03  0.32992175194E+03  0.90478945896E+02 0.  0.
          5    1    3    3  502    0 -0.31604489823E+02 -0.36761060128E+02  0.70089797338E+02  0.85324506501E+02  0.41800000000E+01 0. -1.
         -5    1    3    3    0  502 -0.29134499216E+02  0.79630031992E+02  0.24976883543E+02  0.88493379137E+02  0.41800000000E+01 0. -1.
        -11    1    4    4    0    0  0.32254335623E+02 -0.66800653731E+02  0.24886059664E+03  0.25968108531E+03  0.00000000000E+00 0. -1.
         11    1    4    4    0    0  0.28484653416E+02  0.23931681868E+02  0.59578942351E+02  0.70240666632E+02  0.00000000000E+00 0.  1.
</event>
<event>
 8    1  0.6703334E-009  0.9343343E+02  0.7561462E-02  0.1294744E+00
         -1   -1    0    0    0  501 -0.00000000000E+00  0.00000000000E+00  0.93382795603E+01  0.93382795603E+01  0.00000000000E+00 0.  1.
          1   -1    0    0  501    0  0.00000000000E+00 -0.00000000000E+00 -0.18706870847E+04  0.18706870847E+04  0.00000000000E+00 0. -1.
         25    2    1    2    0    0 -0.14571450826E+02  0.61831503383E+01 -0.15469027548E+04  0.15520332725E+04  0.12509431502E+03 0.  0.
         23    2    1    2    0    0  0.14571450826E+02 -0.61831503383E+01 -0.31444605038E+03  0.32799209178E+03  0.91934406773E+02 0.  0.
          5    1    3    3  502    0  0.24978773245E+01  0.48720567856E+02 -0.27682197846E+03  0.28111885971E+03  0.41800000000E+01 0. -1.
         -5    1    3    3    0  502 -0.17069328150E+02 -0.42537417518E+02 -0.12700807763E+04  0.12709144128E+04  0.41800000000E+01 0. -1.
        -11    1    4    4    0    0 -0.37026857936E+02  0.89771265543E+01 -0.15917952156E+03  0.16367558491E+03  0.00000000000E+00 0. -1.
         11    1    4    4    0    0  0.51598308762E+02 -0.15160276893E+02 -0.15526652881E+03  0.16431650688E+03  0.00000000000E+00 0.  1.
</event>
<event>
 8    1  0.6703334E-009  0.1841090E+03  0.7561462E-02  0.1163885E+00
          1   -1    0    0  501    0  0.00000000000E+00  0.00000000000E+00  0.12679041299E+03  0.12679041299E+03  0.00000000000E+00 0. -1.
         -1   -1    0    0    0  501 -0.00000000000E+00 -0.00000000000E+00 -0.30660939101E+03  0.30660939101E+03  0.00000000000E+00 0.  1.
         25    2    1    2    0    0  0.97686696645E+02 -0.12830190237E+03 -0.10037840754E+03  0.22743769245E+03  0.12509200772E+03 0.  0.
         23    2    1    2    0    0 -0.97686696645E+02  0.12830190237E+03 -0.79440570490E+02  0.20596211155E+03  0.10052620704E+03 0.  0.
          5    1    3    3  502    0  0.53768297847E+02 -0.72411117215E+01 -0.80350051241E+02  0.97041571951E+02  0.41800000000E+01 0.  1.
         -5    1    3    3    0  502  0.43918398797E+02 -0.12106079065E+03 -0.20028356294E+02  0.13039612050E+03  0.41800000000E+01 0.  1.
        -11    1    4    4    0    0 -0.18036714274E+02  0.98142286077E+02 -0.19133468806E+02  0.10160374504E+03  0.00000000000E+00 0.  1.
         11    1    4    4    0    0 -0.79649982371E+02  0.30159616290E+02 -0.60307101684E+02  0.10435836651E+03  0.00000000000E+00 0. -1.
</event>
<event>
 8    1  0.6703334E-009  0.1087799E+03  0.7561462E-02  0.1262846E+00
          4   -1    0    0  501    0  0.00000000000E+00  0.00000000000E+00  0.69813795336E+02  0.69813795336E+02  0.00000000000E+00 0. -1.
         -4   -1    0    0    0  501 -0.00000000000E+00 -0.00000000000E+00 -0.21447470530E+03  0.21447470530E+03  0.00000000000E+00 0.  1.
         25    2    1    2    0    0 -0.28986169012E+02  0.46766021803E+02 -0.10141570468E+03  0.17017301140E+03  0.12508577004E+03 0.  0.
         23    2    1    2    0    0  0.28986169012E+02 -0.46766021803E+02 -0.43245205282E+02  0.11411548923E+03  0.90138439707E+02 0.  0.
          5    1    3    3  502    0  0.39021297596E+02  0.33206984721E+02 -0.54445875083E+01  0.51696048529E+02  0.41800000000E+01 0.  1.
         -5    1    3    3    0  502 -0.68007466608E+02  0.13559037081E+02 -0.95971117170E+02  0.11847696287E+03  0.41800000000E+01 0.  1.
        -11    1    4    4    0    0  0.56244725491E+02 -0.38628456489E+02 -0.78150817152E+01  0.68678252005E+02  0.00000000000E+00 0. -1.
         11    1    4    4    0    0 -0.27258556479E+02 -0.81375653140E+01 -0.35430123567E+02  0.45437237224E+02  0.00000000000E+00 0.  1.
</event>
<event>
 8    1  0.6703334E-009  0.1147706E+03  0.7561462E-02  0.1251982E+00
          2   -1    0    0  501    0  0.00000000000E+00  0.00000000000E+00  0.40440237884E+03  0.40440237884E+03  0.00000000000E+00 0. -1.
         -2   -1    0    0    0  501 -0.00000000000E+00 -0.00000000000E+00 -0.46647495643E+02  0.46647495643E+02  0.00000000000E+00 0.  1.
         25    2    1    2    0    0  0.39195553529E+02 -0.71625724237E+02  0.22317483586E+03  0.26855417573E+03  0.12509117535E+03 0.  0.
         23    2    1    2    0    0 -0.39195553529E+02  0.71625724237E+02  0.13458004734E+03  0.18249569875E+03  0.92338264730E+02 0.  0.
          5    1    3    3  502    0  0.90141524397E+01 -0.76405122982E+02  0.22483201628E+03  0.23766763706E+03  0.41800000000E+01 0.  1.
         -5    1    3    3    0  502  0.30181401090E+02  0.47793987450E+01 -0.16571804170E+01  0.30886538670E+02  0.41800000000E+01 0.  1.
        -11    1    4    4    0    0 -0.55470683519E+01  0.85190449696E+02  0.10721900172E+03  0.13705508753E+03  0.00000000000E+00 0.  1.
         11    1    4    4    0    0 -0.33648485178E+02 -0.13564725459E+02  0.27361045617E+02  0.45440611228E+02  0.00000000000E+00 0. -1.
</event>
<event>
 8    1  0.6703334E-009  0.1462526E+03  0.7561462E-02  0.1205155E+00
          2   -1    0    0  501    0  0.00000000000E+00  0.00000000000E+00  0.12372136731E+03  0.12372136731E+03  0.00000000000E+00 0. -1.
         -2   -1    0    0    0  501 -0.00000000000E+00 -0.00000000000E+00 -0.25747771609E+03  0.25747771609E+03  0.00000000000E+00 0.  1.
         25    2    1    2    0    0 -0.26913832950E+02  0.11990912698E+03  0.33929625158E+01  0.17539084586E+03  0.12509150043E+03 0.  0.
         23    2    1    2    0    0  0.26913832950E+02 -0.11990912698E+03 -0.13714931129E+03  0.20580823753E+03  0.91894199550E+02 0.  0.
          5    1    3    3  502    0  0.11783581305E+02 -0.15769648521E+02  0.25536283419E+02  0.32513209219E+02  0.41800000000E+01 0. -1.
         -5    1    3    3    0  502 -0.38697414255E+02  0.13567877551E+03 -0.22143320903E+02  0.14287763664E+03  0.41800000000E+01 0. -1.
        -11    1    4    4    0    0  0.20530556533E+02 -0.13373038416E+02 -0.82184213361E+02  0.85758887783E+02  0.00000000000E+00 0.  1.
         11    1    4    4    0    0  0.63832764173E+01 -0.10653608857E+03 -0.54965097932E+02  0.12004934975E+03  0.00000000000E+00 0. -1.
</event>
<event>
 8    1  0.6703334E-009  0.1941666E+03  0.7561462E-02  0.1154756E+00
          1   -1    0    0  501    0  0.00000000000E+00  0.00000000000E+00  0.25551192264E+03  0.25551192264E+03  0.00000000000E+00 0. -1.
         -1   -1    0    0    0  501 -0.00000000000E+00 -0.00000000000E+00 -0.17090690629E+03  0.17090690629E+03  0.00000000000E+00 0.  1.
         25    2    1    2    0    0 -0.14987164598E+03  0.73965591611E+02  0.11353750246E+03  0.23764882754E+03  0.12511507406E+03 0.  0.
         23    2    1    2    0    0  0.14987164598E+03 -0.73965591611E+02 -0.28932486105E+02  0.18877000139E+03  0.82852915825E+02 0.  0.
          5    1    3    3  502    0 -0.14900153361E+03  0.16374539265E+02  0.70948263936E+02  0.16589367411E+03  0.41800000000E+01 0. -1.
         -5    1    3    3    0  502 -0.87011236649E+00  0.57591052346E+02  0.42589238521E+02  0.71755153429E+02  0.41800000000E+01 0. -1.
        -11    1    4    4    0    0  0.65092533560E+02 -0.70243689701E+02  0.82491256574E+01  0.96121079593E+02  0.00000000000E+00 0.  1.
         11    1    4    4    0    0  0.84779112421E+02 -0.37219019104E+01 -0.37181611762E+02  0.92648921796E+02  0.00000000000E+00 0. -1.
</event>
<event>
 8    1  0.6703334E-009  0.1677482E+03  0.7561462E-02  0.1180217E+00
         -1   -1    0    0    0  501 -0.00000000000E+00  0.00000000000E+00  0.38211187377E+02  0.38211187377E+02  0.00000000000E+00 0.  1.
          1   -1    0    0  501    0  0.00000000000E+00 -0.00000000000E+00 -0.76890652433E+03  0.76890652433E+03  0.00000000000E+00 0. -1.
         25    2    1    2    0    0  0.95389799601E+02 -0.89885299144E+02 -0.35248144080E+03  0.39631966215E+03  0.12509007806E+03 0.  0.
         23    2    1    2    0    0 -0.95389799601E+02  0.89885299144E+02 -0.37821389616E+03  0.41079804956E+03  0.92361817899E+02 0.  0.
          5    1    3    3  502    0 -0.24080978831E+02 -0.46430397699E+02 -0.12743386485E+03  0.13781341619E+03  0.41800000000E+01 0.  1.
         -5    1    3    3    0  502  0.11947077843E+03 -0.43454901445E+02 -0.22504757595E+03  0.25850624596E+03  0.41800000000E+01 0.  1.
        -11    1    4    4    0    0  0.10578861885E+02  0.34851728003E+02 -0.52587931959E+02  0.63969100755E+02  0.00000000000E+00 0. -1.
         11    1    4    4    0    0 -0.10596866149E+03  0.55033571141E+02 -0.32562596420E+03  0.34682894881E+03  0.00000000000E+00 0.  1.
</event>
<event>
 8    1  0.6703334E-009  0.1838115E+03  0.7561462E-02  0.1164164E+00
         -1   -1    0    0    0  501 -0.00000000000E+00  0.00000000000E+00  0.13872899113E+03  0.13872899113E+03  0.00000000000E+00 0.  1.
          1   -1    0    0  501    0  0.00000000000E+00 -0.00000000000E+00 -0.37897651819E+03  0.37897651819E+03  0.00000000000E+00 0. -1.
         25    2    1    2    0    0  0.11970630540E+03  0.11317129408E+03 -0.25576844228E+03  0.32894994855E+03  0.12511287396E+03 0.  0.
         23    2    1    2    0    0 -0.11970630540E+03 -0.11317129408E+03  0.15520915212E+02  0.18875556077E+03  0.90831831171E+02 0.  0.
          5    1    3    3  502    0  0.29925404706E+02  0.10086192833E+03 -0.83981562619E+02  0.13468122992E+03  0.41800000000E+01 0.  1.
         -5    1    3    3    0  502  0.89780900699E+02  0.12309365748E+02 -0.17178687966E+03  0.19426871863E+03  0.41800000000E+01 0.  1.
        -11    1    4    4    0    0 -0.79242461834E+02 -0.10288551739E+03 -0.23074424601E+02  0.13189854630E+03  0.00000000000E+00 0. -1.
         11    1    4    4    0    0 -0.40463843571E+02 -0.10285776693E+02  0.38595339813E+02  0.56857014466E+02  0.00000000000E+00 0.  1.
</event>
<event>
 8    1  0.6703334E-009  0.1058271E+03  0.7561462E-02  0.1268499E+00
         -1   -1    0    0    0  501 -0.00000000000E+00  0.00000000000E+00  0.10406574516E+03  0.10406574516E+03  0.00000000000E+00 0.  1.
          1   -1    0    0  501    0  0.00000000000E+00 -0.00000000000E+00 -0.14052824908E+03  0.14052824908E+03  0.00000000000E+00 0. -1.
         25    2    1    2    0    0 -0.39724931904E+02  0.31836396196E+02 -0.39771172566E+01  0.13511476456E+03  0.12509418772E+03 0.  0.
         23    2    1    2    0    0  0.39724931904E+02 -0.31836396196E+02 -0.32485386663E+02  0.10947922968E+03  0.91316893551E+02 0.  0.
          5    1    3    3  502    0  0.28638837165E+01 -0.38080255713E+02 -0.30398930351E+02  0.48988519794E+02  0.41800000000E+01 0. -1.
         -5    1    3    3    0  502 -0.42588815621E+02  0.69916651909E+02  0.26421813094E+02  0.86126244765E+02  0.41800000000E+01 0. -1.
        -11    1    4    4    0    0  0.40818044274E+02  0.15687316482E+02  0.10959067784E+02  0.45081102509E+02  0.00000000000E+00 0.  1.
         11    1    4    4    0    0 -0.10931123698E+01 -0.47523712677E+02 -0.43444454447E+02  0.64398127174E+02  0.00000000000E+00 0. -1.
</event>
<event>
 8    1  0.6703334E-009  0.1705641E+03  0.7561462E-02  0.1177261E+00
          1   -1    0    0  501    0  0.00000000000E+00  0.00000000000E+00  0.55053733244E+03  0.55053733244E+03  0.00000000000E+00 0. -1.
         -1   -1    0    0    0  501 -0.00000000000E+00 -0.00000000000E+00 -0.69326226962E+02  0.69326226962E+02  0.00000000000E+00 0.  1.
         25    2    1    2    0    0  0.14686446255E+03 -0.50945608293E+02  0.32607020713E+03  0.38227417428E+03  0.12508852456E+03 0.  0.
         23    2    1    2    0    0 -0.14686446255E+03  0.50945608293E+02  0.15514089835E+03  0.23758938513E+03  0.90638800862E+02 0.  0.
          5    1    3    3  502    0  0.80559992398E+02  0.25228294719E+02  0.22038127385E+03  0.23603338215E+03  0.41800000000E+01 0.  1.
         -5    1    3    3    0  502  0.66304470147E+02 -0.76173903012E+02  0.10568893329E+03  0.14624079212E+03  0.41800000000E+01 0.  1.
        -11    1    4    4    0    0 -0.30869791744E+02  0.12901960926E+02 -0.74453476733E+01  0.34275907574E+02  0.00000000000E+00 0.  1.
         11    1    4    4    0    0 -0.11599467080E+03  0.38043647368E+02  0.16258624602E+03  0.20331347755E+03  0.00000000000E+00 0. -1.
</event>
<event>
 8    1  0.6703334E-009  0.1823580E+03  0.7561462E-02  0.1165540E+00
          2   -1    0    0  501    0  0.00000000000E+00  0.00000000000E+00  0.12458588906E+04  0.12458588906E+04  0.00000000000E+00 0. -1.
         -2   -1    0    0    0  501 -0.00000000000E+00 -0.00000000000E+00 -0.45450799368E+02  0.45450799368E+02  0.00000000000E+00 0.  1.
         25    2    1    2    0    0  0.36427826780E+02  0.17479168227E+03  0.92750597258E+03  0.95278209902E+03  0.12508908938E+03 0.  0.
         23    2    1    2    0    0 -0.36427826780E+02 -0.17479168227E+03  0.27290211862E+03  0.33852759092E+03  0.90808836069E+02 0.  0.
          5    1    3    3  502    0  0.29422283704E+02  0.82089043848E+02  0.72111858301E+03  0.72638403414E+03  0.41800000000E+01 0.  1.
         -5    1    3    3    0  502  0.70055430760E+01  0.92702638427E+02  0.20638738957E+03  0.22639806487E+03  0.41800000000E+01 0.  1.
        -11    1    4    4    0    0 -0.24952669217E+02 -0.29626606742E+02  0.13447841919E+02  0.41002633822E+02  0.00000000000E+00 0.  1.
         11    1    4    4    0    0 -0.11475157563E+02 -0.14516507553E+03  0.25945427670E+03  0.29752495710E+03  0.00000000000E+00 0. -1.
</event>
<event>
 8    1  0.6703334E-009  0.1050644E+03  0.7561462E-02  0.1269993E+00
          1   -1    0    0  501    0  0.00000000000E+00  0.00000000000E+00  0.10672712480E+03  0.10672712480E+03  0.00000000000E+00 0. -1.
         -1   -1    0    0    0  501 -0.00000000000E+00 -0.00000000000E+00 -0.18707053066E+03  0.18707053066E+03  0.00000000000E+00 0.  1.
         25    2    1    2    0    0  0.51955142577E+02 -0.72801378300E+02 -0.57512796958E+02  0.16417521504E+03  0.12508557829E+03 0.  0.
         23    2    1    2    0    0 -0.51955142577E+02  0.72801378300E+02 -0.22830608900E+02  0.12962244042E+03  0.91001993576E+02 0.  0.
          5    1    3    3  502    0  0.29646514190E+02  0.10451447421E+02 -0.70129949546E+02  0.76966426318E+02  0.41800000000E+01 0. -1.
         -5    1    3    3    0  502  0.22308628387E+02 -0.83252825721E+02  0.12617152588E+02  0.87208788723E+02  0.41800000000E+01 0. -1.
        -11    1    4    4    0    0 -0.26155187727E+02  0.18590976727E+02 -0.53362786106E+02  0.62268011063E+02  0.00000000000E+00 0.  1.
         11    1    4    4    0    0 -0.25799954849E+02  0.54210401574E+02  0.30532177206E+02  0.67354429357E+02  0.00000000000E+00 0. -1.
</event>
<event>
 8    1  0.6703334E-009  0.1210151E+03  0.7561462E-02  0.1241432E+00
         -1   -1    0    0    0  501 -0.00000000000E+00  0.00000000000E+00  0.50286001559E+02  0.50286001559E+02  0.00000000000E+00 0.  1.
          1   -1    0    0  501    0  0.00000000000E+00 -0.00000000000E+00 -0.35727146729E+03  0.35727146729E+03  0.00000000000E+00 0. -1.
         25    2    1    2    0    0  0.38150971455E+01 -0.71826322225E+02 -0.16493052278E+03  0.21914285052E+03  0.12509171059E+03 0.  0.
         23    2    1    2    0    0 -0.38150971455E+01  0.71826322225E+02 -0.14205494295E+03  0.18841461833E+03  0.10073175295E+03 0.  0.
          5    1    3    3  502    0 -0.46874446461E+02 -0.37480931422E+02 -0.22817050334E+02  0.64343796416E+02  0.41800000000E+01 0.  1.
         -5    1    3    3    0  502  0.50689543607E+02 -0.34345390803E+02 -0.14211347244E+03  0.15479905410E+03  0.41800000000E+01 0.  1.
        -11    1    4    4    0    0 -0.49870062588E+02  0.45155391255E+02 -0.10028307748E+03  0.12075896709E+03  0.00000000000E+00 0.  1.
         11    1    4    4    0    0  0.46054965442E+02  0.26670930970E+02 -0.41771865468E+02  0.67655651245E+02  0.00000000000E+00 0. -1.
</event>
<event>
 8    1  0.6703334E-009  0.7520969E+02  0.7561462E-02  0.1343223E+00
          2   -1    0    0  501    0  0.00000000000E+00  0.00000000000E+00  0.13266054014E+03  0.13266054014E+03  0.00000000000E+00 0. -1.
         -2   -1    0    0    0  501 -0.00000000000E+00 -0.00000000000E+00 -0.11738435414E+03  0.11738435414E+03  0.00000000000E+00 0.  1.
         25    2    1    2    0    0  0.42815058295E+02  0.29022863270E+02  0.44393835536E+02  0.14245261190E+03  0.12508588327E+03 0.  0.
         23    2    1    2    0    0 -0.42815058295E+02 -0.29022863270E+02 -0.29117649536E+02  0.10759228238E+03  0.89737427553E+02 0.  0.
          5    1    3    3  502    0  0.65082904523E+02  0.85179648528E+01 -0.22009259056E+02  0.69355750090E+02  0.41800000000E+01 0.  1.
         -5    1    3    3    0  502 -0.22267846228E+02  0.20504898417E+02  0.66403094592E+02  0.73096861808E+02  0.41800000000E+01 0.  1.
        -11    1    4    4    0    0 -0.15338296089E+02 -0.18543250415E+01 -0.57569593877E+02  0.59606710926E+02  0.00000000000E+00 0.  1.
         11    1    4    4    0    0 -0.27476762207E+02 -0.27168538229E+02  0.28451944342E+02  0.47985571453E+02  0.00000000000E+00 0. -1.
</event>
<event>
 8    1  0.6703334E-009  0.1344073E+03  0.7561462E-02  0.1221059E+00
          1   -1    0    0  501    0  0.00000000000E+00  0.00000000000E+00  0.30932782114E+03  0.30932782114E+03  0.00000000000E+00 0. -1.
         -1   -1    0    0    0  501 -0.00000000000E+00 -0.00000000000E+00 -0.67725510199E+02  0.67725510199E+02  0.00000000000E+00 0.  1.
         25    2    1    2    0    0 -0.80713659832E+00 -0.93454925013E+02  0.15500984796E+03  0.22002444960E+03  0.12509288941E+03 0.  0.
         23    2    1    2    0    0  0.80713659832E+00  0.93454925013E+02  0.86592462987E+02  0.15702888174E+03  0.91789653969E+02 0.  0.
          5    1    3    3  502    0 -0.45992340466E+02 -0.82969143473E+02  0.55080694239E+02  0.10977490345E+03  0.41800000000E+01 0.  1.
         -5    1    3    3    0  502  0.45185203867E+02 -0.10485781540E+02  0.99929153718E+02  0.11024954615E+03  0.41800000000E+01 0.  1.
        -11    1    4    4    0    0  0.30086261010E+02  0.93272785843E+02  0.81164247539E+02  0.12725026821E+03  0.00000000000E+00 0.  1.
         11    1    4    4    0    0 -0.29279124411E+02  0.18213917008E+00  0.54282154485E+01  0.29778613533E+02  0.00000000000E+00 0. -1.
</event>
<event>
 8    1  0.6703334E-009  0.9243580E+02  0.7561462E-02  0.1297058E+00
          1   -1    0    0  501    0  0.00000000000E+00  0.00000000000E+00  0.22405749050E+04  0.22405749050E+04  0.00000000000E+00 0. -1.
         -1   -1    0    0    0  501 -0.00000000000E+00 -0.00000000000E+00 -0.10643053580E+02  0.10643053580E+02  0.00000000000E+00 0.  1.
         25    2    1    2    0    0 -0.41676843611E+02  0.23110744101E+02  0.19190828020E+04  0.19237456641E+04  0.12509002123E+03 0.  0.
         23    2    1    2    0    0  0.41676843611E+02 -0.23110744101E+02  0.31084904944E+03  0.32747229451E+03  0.91323087679E+02 0.  0.
          5    1    3    3  502    0 -0.15949980676E+02 -0.30759516881E+02  0.15005754430E+04  0.15009812399E+04  0.41800000000E+01 0. -1.
         -5    1    3    3    0  502 -0.25726862935E+02  0.53870260982E+02  0.41850735897E+03  0.42276442424E+03  0.41800000000E+01 0. -1.
        -11    1    4    4    0    0  0.32349691679E+02  0.25148336791E+02  0.22366578373E+03  0.22738804763E+03  0.00000000000E+00 0. -1.
         11    1    4    4    0    0  0.93271519317E+01 -0.48259080892E+02  0.87183265715E+02  0.10008424687E+03  0.00000000000E+00 0.  1.
</event>
<event>
 8    1  0.6703334E-009  0.9168828E+02  0.7561462E-02  0.1298814E+00
         -1   -1    0    0    0  501 -0.00000000000E+00  0.00000000000E+00  0.46011992059E+02  0.46011992059E+02  0.00000000000E+00 0.  1.
          1   -1    0    0  501    0  0.00000000000E+00 -0.00000000000E+00 -0.41838580892E+03  0.41838580892E+03  0.00000000000E+00 0. -1.
         25    2    1    2    0    0 -0.80714973417E+01  0.66055767313E+02 -0.11076497186E+03  0.17984669164E+03  0.12508972794E+03 0.  0.
         23    2    1    2    0    0  0.80714973417E+01 -0.66055767313E+02 -0.26160884500E+03  0.28455110934E+03  0.90009069440E+02 0.  0.
          5    1    3    3  502    0 -0.25873851524E+02  0.36741867818E+02 -0.13185725691E+03  0.13936724739E+03  0.41800000000E+01 0.  1.
         -5    1    3    3    0  502  0.17802354183E+02  0.29313899496E+02  0.21092285051E+02  0.40479444250E+02  0.41800000000E+01 0.  1.
        -11    1    4    4    0    0  0.23843357942E+02 -0.79482408284E+02 -0.24274071655E+03  0.25653267709E+03  0.00000000000E+00 0. -1.
         11    1    4    4    0    0 -0.15771860601E+02  0.13426640971E+02 -0.18868128445E+02  0.28018432247E+02  0.00000000000E+00 0.  1.
</event>
<event>
 8    1  0.6703334E-009  0.6197639E+02  0.7561462E-02  0.1389720E+00
          1   -1    0    0  501    0  0.00000000000E+00  0.00000000000E+00  0.33521334305E+03  0.33521334305E+03  0.00000000000E+00 0. -1.
         -1   -1    0    0    0  501 -0.00000000000E+00 -0.00000000000E+00 -0.37689389854E+02  0.37689389854E+02  0.00000000000E+00 0.  1.
         25    2    1    2    0    0  0.32563551407E+01  0.34849565290E+02  0.17908369586E+03  0.22122660651E+03  0.12508055507E+03 0.  0.
         23    2    1    2    0    0 -0.32563551407E+01 -0.34849565290E+02  0.11844025734E+03  0.15167612639E+03  0.88048036373E+02 0.  0.
          5    1    3    3  502    0 -0.34030323298E+02  0.14238384380E+02  0.28392488885E-01  0.37125027941E+02  0.41800000000E+01 0.  1.
         -5    1    3    3    0  502  0.37286678439E+02  0.20611180910E+02  0.17905530337E+03  0.18410157857E+03  0.41800000000E+01 0.  1.
        -11    1    4    4    0    0  0.74628765031E+01 -0.32095380269E+02  0.13091574542E+03  0.13499903836E+03  0.00000000000E+00 0. -1.
         11    1    4    4    0    0 -0.10719231644E+02 -0.27541850212E+01 -0.12475488083E+02  0.16677088027E+02  0.00000000000E+00 0.  1.
</event>
<event>
 8    1  0.6703334E-009  0.1733784E+03  0.7561462E-02  0.1174370E+00
          1   -1    0    0  501    0  0.00000000000E+00  0.00000000000E+00  0.94640307136E+02  0.94640307136E+02  0.00000000000E+00 0. -1.
         -1   -1    0    0    0  501 -0.00000000000E+00 -0.00000000000E+00 -0.46297485809E+03  0.46297485809E+03  0.00000000000E+00 0.  1.
         25    2    1    2    0    0  0.15458396108E+03 -0.26387394435E+02 -0.80367189728E+02  0.21609947167E+03  0.12509037078E+03 0.  0.
         23    2    1    2    0    0 -0.15458396108E+03  0.26387394435E+02 -0.28796736122E+03  0.34151569356E+03  0.95473934708E+02 0.  0.
          5    1    3    3  502    0  0.24048419284E+02  0.28246943579E+02  0.20198876980E+02  0.42446240386E+02  0.41800000000E+01 0.  1.
         -5    1    3    3    0  502  0.13053554179E+03 -0.54634338014E+02 -0.10056606671E+03  0.17365323128E+03  0.41800000000E+01 0.  1.
        -11    1    4    4    0    0 -0.43595184482E+02  0.35879556234E+02 -0.17060653812E+03  0.17970663181E+03  0.00000000000E+00 0.  1.
         11    1    4    4    0    0 -0.11098877659E+03 -0.94921617989E+01 -0.11736082310E+03  0.16180906175E+03  0.00000000000E+00 0. -1.
</event>
<event>
 8    1  0.6703334E-009  0.1455495E+03  0.7561462E-02  0.1206051E+00
         -1   -1    0    0    0  501 -0.00000000000E+00  0.00000000000E+00  0.66315081139E+02  0.66315081139E+02  0.00000000000E+00 0.  1.
          1   -1    0    0  501    0  0.00000000000E+00 -0.00000000000E+00 -0.44023672475E+03  0.44023672475E+03  0.00000000000E+00 0. -1.
         25    2    1    2    0    0 -0.81544567952E+02  0.82915243248E+02 -0.29097817618E+03  0.33740356764E+03  0.12509362222E+03 0.  0.
         23    2    1    2    0    0  0.81544567952E+02 -0.82915243248E+02 -0.82943467431E+02  0.16914823824E+03  0.90592789925E+02 0.  0.
          5    1    3    3  502    0 -0.61668302808E+02 -0.17057379462E+02 -0.15227631398E+03  0.16522554877E+03  0.41800000000E+01 0. -1.
         -5    1    3    3    0  502 -0.19876265144E+02  0.99972622709E+02 -0.13870186220E+03  0.17217801888E+03  0.41800000000E+01 0. -1.
        -11    1    4    4    0    0  0.62481285805E+02 -0.85317459366E+02 -0.25786496991E+02  0.10884816662E+03  0.00000000000E+00 0.  1.
         11    1    4    4    0    0  0.19063282147E+02  0.24022161183E+01 -0.57156970440E+02  0.60300071629E+02  0.00000000000E+00 0. -1.
</event>
<event>
 8    1  0.6703334E-009  0.9113692E+02  0.7561462E-02  0.1300122E+00
         -1   -1    0    0    0  501 -0.00000000000E+00  0.00000000000E+00  0.54234653468E+03  0.54234653468E+03  0.00000000000E+00 0.  1.
          1   -1    0    0  501    0  0.00000000000E+00 -0.00000000000E+00 -0.19268068934E+02  0.19268068934E+02  0.00000000000E+00 0. -1.
         25    2    1    2    0    0  0.18767684223E+01 -0.22857885990E+02  0.40539253664E+03  0.42487277892E+03  0.12509102403E+03 0.  0.
         23    2    1    2    0    0 -0.18767684223E+01  0.22857885990E+02  0.11768592910E+03  0.13674182469E+03  0.65744532088E+02 0.  0.
          5    1    3    3  502    0  0.53687101805E+02  0.21984948301E+02  0.17005477162E+03  0.17972684998E+03  0.41800000000E+01 0. -1.
         -5    1    3    3    0  502 -0.51810333383E+02 -0.44842834291E+02  0.23533776502E+03  0.24514592894E+03  0.41800000000E+01 0. -1.
        -11    1    4    4    0    0 -0.17194613349E+02 -0.95112349959E+01  0.77543742798E+01  0.21124597980E+02  0.00000000000E+00 0. -1.
         11    1    4    4    0    0  0.15317844927E+02  0.32369120986E+02  0.10993155482E+03  0.11561722671E+03  0.00000000000E+00 0.  1.
</event>
<event>
 8    1  0.6703334E-009  0.1414990E+03  0.7561462E-02  0.1211326E+00
         -1   -1    0    0    0  501 -0.00000000000E+00  0.00000000000E+00  0.24734333769E+02  0.24734333769E+02  0.00000000000E+00 0.  1.
          1   -1    0    0  501    0  0.00000000000E+00 -0.00000000000E+00 -0.93896245674E+03  0.93896245674E+03  0.00000000000E+00 0. -1.
         25    2    1    2    0    0 -0.19426775921E+02  0.10997743991E+03 -0.47709498989E+03  0.50570882720E+03  0.12509736854E+03 0.  0.
         23    2    1    2    0    0  0.19426775921E+02 -0.10997743991E+03 -0.43713313308E+03  0.45798796331E+03  0.78709348812E+02 0.  0.
          5    1    3    3  502    0  0.35073661963E+02  0.17072328454E+01 -0.46866355441E+02  0.58711192117E+02  0.41800000000E+01 0.  1.
         -5    1    3    3    0  502 -0.54500437884E+02  0.10827020706E+03 -0.43022863445E+03  0.44699763508E+03  0.41800000000E+01 0.  1.
        -11    1    4    4    0    0 -0.15994919708E+02 -0.74567643745E+02 -0.17176331260E+03  0.18793298408E+03  0.00000000000E+00 0.  1.
         11    1    4    4    0    0  0.35421695629E+02 -0.35409796161E+02 -0.26536982048E+03  0.27005497923E+03  0.00000000000E+00 0. -1.
</event>
<event>
 8    1  0.6703334E-009  0.1770177E+03  0.7561462E-02  0.1170721E+00
          1   -1    0    0  501    0  0.00000000000E+00  0.00000000000E+00  0.14211863469E+04  0.14211863469E+04  0.00000000000E+00 0. -1.
         -1   -1    0    0    0  501 -0.00000000000E+00 -0.00000000000E+00 -0.25669777785E+02  0.25669777785E+02  0.00000000000E+00 0.  1.
         25    2    1    2    0    0  0.84100931921E+02  0.12496117299E+03  0.89930328533E+03  0.92036997070E+03  0.12508486105E+03 0.  0.
         23    2    1    2    0    0 -0.84100931921E+02 -0.12496117299E+03  0.49621328380E+03  0.52648615400E+03  0.90949358583E+02 0.  0.
          5    1    3    3  502    0 -0.20900961632E+02 -0.10198122994E+02  0.82500514612E+02  0.85817592724E+02  0.41800000000E+01 0. -1.
         -5    1    3    3    0  502  0.10500189355E+03  0.13515929598E+03  0.81680277072E+03  0.83455237798E+03  0.41800000000E+01 0. -1.
        -11    1    4    4    0    0 -0.65850164430E+02 -0.51752887638E+02  0.14672259044E+03  0.16894414485E+03  0.00000000000E+00 0.  1.
         11    1    4    4    0    0 -0.18250767491E+02 -0.73208285347E+02  0.34949069337E+03  0.35754200915E+03  0.00000000000E+00 0. -1.
</event>
<event>
 8    1  0.6703334E-009  0.7844585E+02  0.7561462E-02  0.1333521E+00
         -1   -1    0    0    0  501 -0.00000000000E+00  0.00000000000E+00  0.21721713468E+02  0.21721713468E+02  0.00000000000E+00 0.  1.
          1   -1    0    0  501    0  0.00000000000E+00 -0.00000000000E+00 -0.12751262522E+04  0.12751262522E+04  0.00000000000E+00 0. -1.
         25    2    1    2    0    0  0.59354927307E+02 -0.11778451173E+02 -0.10776683324E+04  0.10865886252E+04  0.12507624205E+03 0.  0.
         23    2    1    2    0    0 -0.59354927307E+02  0.11778451173E+02 -0.17573620626E+03  0.21025934045E+03  0.98305832734E+02 0.  0.
          5    1    3    3  502    0  0.13589196106E+02  0.15147827901E+02 -0.24704887392E+02  0.32278890966E+02  0.41800000000E+01 0. -1.
         -5    1    3    3    0  502  0.45765731201E+02 -0.26926279074E+02 -0.10529634451E+04  0.10543097342E+04  0.41800000000E+01 0. -1.
        -11    1    4    4    0    0 -0.46180886342E+02  0.33774727675E+02 -0.34705580959E+02  0.66916992181E+02  0.00000000000E+00 0.  1.
         11    1    4    4    0    0 -0.13174040965E+02 -0.21996276502E+02 -0.14103062530E+03  0.14334234827E+03  0.00000000000E+00 0. -1.
</event>
<event>
 8    1  0.6703334E-009  0.1048144E+03  0.7561462E-02  0.1270486E+00
          2   -1    0    0  501    0  0.00000000000E+00  0.00000000000E+00  0.21354790025E+03  0.21354790025E+03  0.00000000000E+00 0. -1.
         -2   -1    0    0    0  501 -0.00000000000E+00 -0.00000000000E+00 -0.91019427542E+02  0.91019427542E+02  0.00000000000E+00 0.  1.
         25    2    1    2    0    0 -0.46673081588E+02  0.49772425003E+02  0.12630218029E+03  0.19041014119E+03  0.12509240698E+03 0.  0.
         23    2    1    2    0    0  0.46673081588E+02 -0.49772425003E+02 -0.37737075857E+01  0.11415718660E+03  0.91443706992E+02 0.  0.
          5    1    3    3  502    0 -0.53963857262E+02  0.88085135376E+01  0.13672625989E+03  0.14731337463E+03  0.41800000000E+01 0. -1.
         -5    1    3    3    0  502  0.72907756745E+01  0.40963911466E+02 -0.10424079596E+02  0.43096766560E+02  0.41800000000E+01 0. -1.
        -11    1    4    4    0    0 -0.13460105981E+02 -0.51083171928E+02 -0.97306221010E+01  0.53715453212E+02  0.00000000000E+00 0. -1.
         11    1    4    4    0    0  0.60133187569E+02  0.13107469253E+01  0.59569145153E+01  0.60441733390E+02  0.00000000000E+00 0.  1.
</event>
<event>
 8    1  0.6703334E-009  0.7838476E+02  0.7561462E-02  0.1333699E+00
          3   -1    0    0  501    0  0.00000000000E+00  0.00000000000E+00  0.21137720166E+03  0.21137720166E+03  0.00000000000E+00 0. -1.
         -3   -1    0    0    0  501 -0.00000000000E+00 -0.00000000000E+00 -0.66508975293E+02  0.66508975293E+02  0.00000000000E+00 0.  1.
         25    2    1    2    0    0 -0.33039051389E+02  0.29080136885E+02  0.58531939923E+02  0.14495270601E+03  0.12509222882E+03 0.  0.
         23    2    1    2    0    0  0.33039051389E+02 -0.29080136885E+02  0.86336286446E+02  0.13293347095E+03  0.90995165051E+02 0.  0.
          5    1    3    3  502    0  0.16343172092E+02  0.42614247729E+02  0.77625387625E+02  0.90145696445E+02  0.41800000000E+01 0. -1.
         -5    1    3    3    0  502 -0.49382223481E+02 -0.13534110844E+02 -0.19093447702E+02  0.54807009565E+02  0.41800000000E+01 0. -1.
        -11    1    4    4    0    0 -0.13606255387E+01 -0.24870724423E+02 -0.12735560248E+02  0.27974966130E+02  0.00000000000E+00 0.  1.
         11    1    4    4    0    0  0.34399676928E+02 -0.42094124624E+01  0.99071846693E+02  0.10495850482E+03  0.00000000000E+00 0. -1.
</event>
<event>
 8    1  0.6703334E-009  0.6001304E+02  0.7561462E-02  0.1397777E+00
         -4   -1    0    0    0  501 -0.00000000000E+00  0.00000000000E+00  0.76661385574E+02  0.76661385574E+02  0.00000000000E+00 0.  1.
          4   -1    0    0  501    0  0.00000000000E+00 -0.00000000000E+00 -0.17534013668E+03  0.17534013668E+03  0.00000000000E+00 0. -1.
         25    2    1    2    0    0  0.37453676569E+01 -0.44584199888E+02 -0.40899174128E+02  0.13900444982E+03  0.12509083087E+03 0.  0.
         23    2    1    2    0    0 -0.37453676569E+01  0.44584199888E+02 -0.57779576982E+02  0.11299707243E+03  0.86186311001E+02 0.  0.
          5    1    3    3  502    0  0.19910818094E+02 -0.21608162758E+02 -0.83040821740E+02  0.88185054574E+02  0.41800000000E+01 0. -1.
         -5    1    3    3    0  502 -0.16165450438E+02 -0.22976037130E+02  0.42141647612E+02  0.50819395249E+02  0.41800000000E+01 0. -1.
        -11    1    4    4    0    0 -0.22978850572E+02  0.18300753398E+02  0.15203195821E+02  0.33076915087E+02  0.00000000000E+00 0.  1.
         11    1    4    4    0    0  0.19233482915E+02  0.26283446491E+02 -0.72982772802E+02  0.79920157347E+02  0.00000000000E+00 0. -1.
</event>
<event>
 8    1  0.6703334E-009  0.2040446E+03  0.7561462E-02  0.1146371E+00
          2   -1    0    0  501    0  0.00000000000E+00  0.00000000000E+00  0.25595301354E+03  0.25595301354E+03  0.00000000000E+00 0. -1.
         -2   -1    0    0    0  501 -0.00000000000E+00 -0.00000000000E+00 -0.35517722879E+03  0.35517722879E+03  0.00000000000E+00 0.  1.
         25    2    1    2    0    0  0.16155918056E+03 -0.98947246563E+02  0.15983517127E+03  0.27764563331E+03  0.12509152367E+03 0.  0.
         23    2    1    2    0    0 -0.16155918056E+03  0.98947246563E+02 -0.25905938652E+03  0.33348460902E+03  0.90599626304E+02 0.  0.
          5    1    3    3  502    0  0.35201122685E+02  0.42428817315E+01 -0.14782346752E+02  0.38640797859E+02  0.41800000000E+01 0. -1.
         -5    1    3    3    0  502  0.12635805787E+03 -0.10319012829E+03  0.17461751802E+03  0.23900483545E+03  0.41800000000E+01 0. -1.
        -11    1    4    4    0    0 -0.33802128939E+02  0.70681091935E+02 -0.83141422596E+02  0.11424052184E+03  0.00000000000E+00 0. -1.
         11    1    4    4    0    0 -0.12775705162E+03  0.28266154628E+02 -0.17591796393E+03  0.21924408719E+03  0.00000000000E+00 0.  1.
</event>
<event>
 8    1  0.6703334E-009  0.8426888E+02  0.7561462E-02  0.1317356E+00
          2   -1    0    0  501    0  0.00000000000E+00  0.00000000000E+00  0.14232541827E+03  0.14232541827E+03  0.00000000000E+00 0. -1.
         -2   -1    0    0    0  501 -0.00000000000E+00 -0.00000000000E+00 -0.11876889650E+03  0.11876889650E+03  0.00000000000E+00 0.  1.
         25    2    1    2    0    0  0.53541440033E+02  0.47587072647E+02  0.16524577360E+02  0.14509193098E+03  0.12508953392E+03 0.  0.
         23    2    1    2    0    0 -0.53541440033E+02 -0.47587072647E+02  0.70319444053E+01  0.11600238378E+03  0.90971916091E+02 0.  0.
          5    1    3    3  502    0  0.18016882364E+02  0.52492206370E+02 -0.46456397411E+02  0.72496269146E+02  0.41800000000E+01 0.  1.
         -5    1    3    3    0  502  0.35524557669E+02 -0.49051337225E+01  0.62980974772E+02  0.72595661837E+02  0.41800000000E+01 0.  1.
        -11    1    4    4    0    0 -0.31943284047E+02 -0.44769229945E+02  0.45776439093E+02  0.71555151608E+02  0.00000000000E+00 0. -1.
         11    1    4    4    0    0 -0.21598155986E+02 -0.28178427024E+01 -0.38744494687E+02  0.44447232175E+02  0.00000000000E+00 0.  1.
</event>
<event>
 8    1  0.6703334E-009  0.1339839E+03  0.7561462E-02  0.1221661E+00
          1   -1    0    0  501    0  0.00000000000E+00  0.00000000000E+00  0.80071186363E+03  0.80071186363E+03  0.00000000000E+00 0. -1.
         -1   -1    0    0    0  501 -0.00000000000E+00 -0.00000000000E+00 -0.40285041433E+02  0.40285041433E+02  0.00000000000E+00 0.  1.
         25    2    1    2    0    0  0.51585558562E+02 -0.11125108575E+03  0.23130149417E+03  0.29014797202E+03  0.12509032948E+03 0.  0.
         23    2    1    2    0    0 -0.51585558562E+02  0.11125108575E+03  0.52912532803E+03  0.55084893304E+03  0.91777232136E+02 0.  0.
          5    1    3    3  502    0 -0.19460427381E+01 -0.17827514894E-01 -0.14414892805E+02  0.15134362714E+02  0.41800000000E+01 0.  1.
         -5    1    3    3    0  502  0.53531601300E+02 -0.11123325824E+03  0.24571638698E+03  0.27501360931E+03  0.41800000000E+01 0.  1.
        -11    1    4    4    0    0  0.32065662183E+01  0.72879077568E+02  0.16183278843E+03  0.17751476959E+03  0.00000000000E+00 0.  1.
         11    1    4    4    0    0 -0.54792124780E+02  0.38372008186E+02  0.36729253960E+03  0.37333416345E+03  0.00000000000E+00 0. -1.
</event>
<event>
 8    1  0.6703334E-009  0.1133377E+03  0.7561462E-02  0.1254511E+00
         -2   -1    0    0    0  501 -0.00000000000E+00  0.00000000000E+00  0.65707844971E+02  0.65707844971E+02  0.00000000000E+00 0.  1.
          2   -1    0    0  501    0  0.00000000000E+00 -0.00000000000E+00 -0.27515541992E+03  0.27515541992E+03  0.00000000000E+00 0. -1.
         25    2    1    2    0    0  0.29217464253E+02 -0.20770836874E+02 -0.29175472067E+02  0.13336138724E+03  0.12509581749E+03 0.  0.
         23    2    1    2    0    0 -0.29217464253E+02  0.20770836874E+02 -0.18027210288E+03  0.20750187765E+03  0.96301143656E+02 0.  0.
          5    1    3    3  502    0 -0.31762201539E+02  0.32072058568E+02 -0.26521165710E+02  0.52519510832E+02  0.41800000000E+01 0.  1.
         -5    1    3    3    0  502  0.60979665793E+02 -0.52842895443E+02 -0.26543063575E+01  0.80841876408E+02  0.41800000000E+01 0.  1.
        -11    1    4    4    0    0  0.32254424257E+02 -0.71383170221E+01 -0.40378370556E+02  0.52170070566E+02  0.00000000000E+00 0.  1.
         11    1    4    4    0    0 -0.61471888511E+02  0.27909153896E+02 -0.13989373232E+03  0.15533180708E+03  0.00000000000E+00 0. -1.
</event>
<event>
 8    1  0.6703334E-009  0.2963155E+03  0.7561462E-02  0.1087097E+00
          2   -1    0    0  501    0  0.00000000000E+00  0.00000000000E+00  0.79874693403E+03  0.79874693403E+03  0.00000000000E+00 0. -1.
         -2   -1    0    0    0  501 -0.00000000000E+00 -0.00000000000E+00 -0.13430692675E+03  0.13430692675E+03  0.00000000000E+00 0.  1.
         25    2    1    2    0    0 -0.28554161575E+03  0.13301452793E+02  0.17231279651E+03  0.35644246820E+03  0.12509432572E+03 0.  0.
         23    2    1    2    0    0  0.28554161575E+03 -0.13301452793E+02  0.49212721077E+03  0.57661139258E+03  0.92631331115E+02 0.  0.
          5    1    3    3  502    0 -0.15625691581E+03 -0.44756580232E+02  0.52635245771E+02  0.17090148247E+03  0.41800000000E+01 0.  1.
         -5    1    3    3    0  502 -0.12928469994E+03  0.58058033026E+02  0.11967755074E+03  0.18554098573E+03  0.41800000000E+01 0.  1.
        -11    1    4    4    0    0  0.11229635358E+03 -0.23418692522E+02  0.12000274199E+03  0.16601073541E+03  0.00000000000E+00 0. -1.
         11    1    4    4    0    0  0.17324526217E+03  0.10117239729E+02  0.37212446878E+03  0.41060065717E+03  0.00000000000E+00 0.  1.
</event>
<event>
 8    1  0.6703334E-009  0.8803705E+02  0.7561462E-02  0.1307676E+00
          1   -1    0    0  501    0  0.00000000000E+00  0.00000000000E+00  0.56890919460E+02  0.56890919460E+02  0.00000000000E+00 0. -1.
         -1   -1    0    0    0  501 -0.00000000000E+00 -0.00000000000E+00 -0.17822473552E+03  0.17822473552E+03  0.00000000000E+00 0.  1.
         25    2    1    2    0    0  0.23220109728E+02  0.15981409728E+02 -0.77685406920E+02  0.14992258165E+03  0.12508868489E+03 0.  0.
         23    2    1    2    0    0 -0.23220109728E+02 -0.15981409728E+02 -0.43648409141E+02  0.85193073331E+02  0.67513681356E+02 0.  0.
          5    1    3    3  502    0  0.28620256235E+01  0.69615505320E+02 -0.33682210155E+02  0.77501441616E+02  0.41800000000E+01 0.  1.
         -5    1    3    3    0  502  0.20358084104E+02 -0.53634095592E+02 -0.44003196765E+02  0.72421140034E+02  0.41800000000E+01 0.  1.
        -11    1    4    4    0    0 -0.17685505663E+02  0.11253967307E+02 -0.52087954521E+02  0.56147875266E+02  0.00000000000E+00 0.  1.
         11    1    4    4    0    0 -0.55346040655E+01 -0.27235377036E+02  0.84395453795E+01  0.29045198065E+02  0.00000000000E+00 0. -1.
</event>
<event>
 8    1  0.6703334E-009  0.2377711E+03  0.7561462E-02  0.1121287E+00
         -2   -1    0    0    0  501 -0.00000000000E+00  0.00000000000E+00  0.16538847383E+03  0.16538847383E+03  0.00000000000E+00 0.  1.
          2   -1    0    0  501    0  0.00000000000E+00 -0.00000000000E+00 -0.38060951453E+03  0.38060951453E+03  0.00000000000E+00 0. -1.
         25    2    1    2    0    0  0.18826880040E+02  0.22486420240E+03 -0.10126692523E+03  0.27716632298E+03  0.12509124475E+03 0.  0.
         23    2    1    2    0    0 -0.18826880040E+02 -0.22486420240E+03 -0.11395411547E+03  0.26883166539E+03  0.91468917928E+02 0.  0.
          5    1    3    3  502    0  0.57597334419E+02  0.13956475879E+03 -0.10392184944E+03  0.18333847937E+03  0.41800000000E+01 0. -1.
         -5    1    3    3    0  502 -0.38770454379E+02  0.85299443618E+02  0.26549242064E+01  0.93827843612E+02  0.41800000000E+01 0. -1.
        -11    1    4    4    0    0  0.16351702804E+02 -0.77534478612E+02  0.69642783515E-01  0.79240005101E+02  0.00000000000E+00 0. -1.
         11    1    4    4    0    0 -0.35178582844E+02 -0.14732972379E+03 -0.11402375825E+03  0.18959166029E+03  0.00000000000E+00 0.  1.
</event>
<event>
 8    1  0.6703334E-009  0.1411746E+03  0.7561462E-02  0.1211757E+00
          2   -1    0    0  501    0  0.00000000000E+00  0.00000000000E+00  0.44040557868E+03  0.44040557868E+03  0.00000000000E+00 0. -1.
         -2   -1    0    0    0  501 -0.00000000000E+00 -0.00000000000E+00 -0.57724237125E+02  0.57724237125E+02  0.00000000000E+00 0.  1.
         25    2    1    2    0    0 -0.16247745318E+02 -0.10953151408E+03  0.26281267544E+03  0.31142987093E+03  0.12512761618E+03 0.  0.
         23    2    1    2    0    0  0.16247745318E+02  0.10953151408E+03  0.11986866611E+03  0.18669994488E+03  0.90704082021E+02 0.  0.
          5    1    3    3  502    0 -0.31844097565E+02 -0.13375936037E+03  0.20818716914E+03  0.24952952297E+03  0.41800000000E+01 0. -1.
         -5    1    3    3    0  502  0.15596352247E+02  0.24227846292E+02  0.54625506296E+02  0.61900347960E+02  0.41800000000E+01 0. -1.
        -11    1    4    4    0    0 -0.10001824752E+02  0.19836832275E+02  0.83518692406E+02  0.86422846483E+02  0.00000000000E+00 0. -1.
         11    1    4    4    0    0  0.26249570070E+02  0.89694681807E+02  0.36349973709E+02  0.10027709839E+03  0.00000000000E+00 0.  1.
</event>
<event>
 8    1  0.6703334E-009  0.1606337E+03  0.7561462E-02  0.1187983E+00
         -2   -1    0    0    0  501 -0.00000000000E+00  0.00000000000E+00  0.33505916464E+02  0.33505916464E+02  0.00000000000E+00 0.  1.
          2   -1    0    0  501    0  0.00000000000E+00 -0.00000000000E+00 -0.81748253439E+03  0.81748253439E+03  0.00000000000E+00 0. -1.
         25    2    1    2    0    0 -0.53711062613E+02 -0.10906079246E+03 -0.48893809714E+03  0.51912051190E+03  0.12508600379E+03 0.  0.
         23    2    1    2    0    0  0.53711062613E+02  0.10906079246E+03 -0.29503852079E+03  0.33186793895E+03  0.91156269446E+02 0.  0.
          5    1    3    3  502    0 -0.59639540329E+02 -0.13433223929E+03 -0.39160510210E+03  0.41829900032E+03  0.41800000000E+01 0. -1.
         -5    1    3    3    0  502  0.59284777161E+01  0.25271446833E+02 -0.97332995044E+02  0.10082151158E+03  0.41800000000E+01 0. -1.
        -11    1    4    4    0    0  0.74554564849E+02  0.63863830136E+02 -0.22916036061E+03  0.24930191097E+03  0.00000000000E+00 0.  1.
         11    1    4    4    0    0 -0.20843502236E+02  0.45196962319E+02 -0.65878160175E+02  0.82566027980E+02  0.00000000000E+00 0. -1.
</event>
<event>
 8    1  0.6703334E-009  0.1510365E+03  0.7561462E-02  0.1199205E+00
          2   -1    0    0  501    0  0.00000000000E+00  0.00000000000E+00  0.10440672926E+04  0.10440672926E+04  0.00000000000E+00 0. -1.
         -2   -1    0    0    0  501 -0.00000000000E+00 -0.00000000000E+00 -0.30361331689E+02  0.30361331689E+02  0.00000000000E+00 0.  1.
         25    2    1    2    0    0 -0.90150989853E+02 -0.10553102843E+03  0.60138410893E+03  0.62974163020E+03  0.12509066867E+03 0.  0.
         23    2    1    2    0    0  0.90150989853E+02  0.10553102843E+03  0.41232185193E+03  0.44468699405E+03  0.92050063353E+02 0.  0.
          5    1    3    3  502    0 -0.58049813375E+02 -0.91273949540E+02  0.57629762057E+03  0.58637627388E+03  0.41800000000E+01 0.  1.
         -5    1    3    3    0  502 -0.32101176478E+02 -0.14257078889E+02  0.25086488366E+02  0.43365356315E+02  0.41800000000E+01 0.  1.
        -11    1    4    4    0    0  0.67669660533E+02  0.20810578050E+02  0.11818564810E+03  0.13776832195E+03  0.00000000000E+00 0.  1.
         11    1    4    4    0    0  0.22481329320E+02  0.84720450379E+02  0.29413620383E+03  0.30691867210E+03  0.00000000000E+00 0. -1.
</event>
<event>
 8    1  0.6703334E-009  0.9909359E+02  0.7561462E-02  0.1282214E+00
          3   -1    0    0  501    0  0.00000000000E+00  0.00000000000E+00  0.78281380689E+02  0.78281380689E+02  0.00000000000E+00 0. -1.
         -3   -1    0    0    0  501 -0.00000000000E+00 -0.00000000000E+00 -0.22842936472E+03  0.22842936472E+03  0.00000000000E+00 0.  1.
         25    2    1    2    0    0  0.40788565149E+02 -0.37949753609E+02 -0.14681680249E+03  0.20076590079E+03  0.12509149684E+03 0.  0.
         23    2    1    2    0    0 -0.40788565149E+02  0.37949753609E+02 -0.33311815372E+01  0.10594484461E+03  0.90051776682E+02 0.  0.
          5    1    3    3  502    0 -0.67976584530E+01 -0.47395507173E+02 -0.14420266774E+03  0.15200139487E+03  0.41800000000E+01 0.  1.
         -5    1    3    3    0  502  0.47586223602E+02  0.94457535646E+01 -0.26141347515E+01  0.48764505920E+02  0.41800000000E+01 0.  1.
        -11    1    4    4    0    0 -0.37982895502E+02 -0.20331024085E+02 -0.16492141740E+02  0.46130701601E+02  0.00000000000E+00 0.  1.
         11    1    4    4    0    0 -0.28056696472E+01  0.58280777693E+02  0.13160960203E+02  0.59814143011E+02  0.00000000000E+00 0. -1.
</event>
<event>
 8    1  0.6703334E-009  0.1124999E+03  0.7561462E-02  0.1256009E+00
         -3   -1    0    0    0  501 -0.00000000000E+00  0.00000000000E+00  0.12732274579E+03  0.12732274579E+03  0.00000000000E+00 0.  1.
          3   -1    0    0  501    0  0.00000000000E+00 -0.00000000000E+00 -0.12880204878E+03  0.12880204878E+03  0.00000000000E+00 0. -1.
         25    2    1    2    0    0  0.12290181621E+02  0.50066757217E+02 -0.42389150262E+02  0.14178499219E+03  0.12509362577E+03 0.  0.
         23    2    1    2    0    0 -0.12290181621E+02 -0.50066757217E+02  0.40909847281E+02  0.11433980238E+03  0.93499978937E+02 0.  0.
          5    1    3    3  502    0  0.26807299885E+02  0.86789065016E+02 -0.46016194850E+02  0.10191141115E+03  0.41800000000E+01 0. -1.
         -5    1    3    3    0  502 -0.14517118264E+02 -0.36722307799E+02  0.36270445880E+01  0.39873581043E+02  0.41800000000E+01 0. -1.
        -11    1    4    4    0    0 -0.28546066673E+01 -0.71178745706E+02  0.52482119106E+02  0.88481271721E+02  0.00000000000E+00 0. -1.
         11    1    4    4    0    0 -0.94355749534E+01  0.21111988489E+02 -0.11572271824E+02  0.25858530659E+02  0.00000000000E+00 0.  1.
</event>
<event>
 8    1  0.6703334E-009  0.1329352E+03  0.7561462E-02  0.1223164E+00
          2   -1    0    0  501    0  0.00000000000E+00  0.00000000000E+00  0.15229756368E+04  0.15229756368E+04  0.00000000000E+00 0. -1.
         -2   -1    0    0    0  501 -0.00000000000E+00 -0.00000000000E+00 -0.14012232634E+02  0.14012232634E+02  0.00000000000E+00 0.  1.
         25    2    1    2    0    0  0.70868040346E+02  0.45154066583E+02  0.11164802935E+04  0.11266018057E+04  0.12506883714E+03 0.  0.
         23    2    1    2    0    0 -0.70868040346E+02 -0.45154066583E+02  0.39248311069E+03  0.41038606373E+03  0.85513509200E+02 0.  0.
          5    1    3    3  502    0  0.91278914407E+02 -0.82384218769E+01  0.76458056298E+03  0.77006533586E+03  0.41800000000E+01 0.  1.
         -5    1    3    3    0  502 -0.20410874061E+02  0.53392488460E+02  0.35189973053E+03  0.35653646987E+03  0.41800000000E+01 0.  1.
        -11    1    4    4    0    0 -0.85555867175E+02 -0.20282777407E+02  0.25019170210E+03  0.26519254376E+03  0.00000000000E+00 0.  1.
         11    1    4    4    0    0  0.14687826829E+02 -0.24871289176E+02  0.14229140858E+03  0.14519351996E+03  0.00000000000E+00 0. -1.
</event>
<event>
 8    1  0.6703334E-009  0.1397802E+03  0.7561462E-02  0.1213625E+00
         -2   -1    0    0    0  501 -0.00000000000E+00  0.00000000000E+00  0.29206756292E+02  0.29206756292E+02  0.00000000000E+00 0.  1.
          2   -1    0    0  501    0  0.00000000000E+00 -0.00000000000E+00 -0.87908410985E+03  0.87908410985E+03  0.00000000000E+00 0. -1.
         25    2    1    2    0    0  0.10901473299E+03  0.14689450172E+02 -0.33946932570E+03  0.37813643394E+03  0.12509095741E+03 0.  0.
         23    2    1    2    0    0 -0.10901473299E+03 -0.14689450172E+02 -0.51040802786E+03  0.53015443220E+03  0.91909603021E+02 0.  0.
          5    1    3    3  502    0  0.38432350493E+02 -0.50598992514E+02 -0.18979026430E+03  0.20018771298E+03  0.41800000000E+01 0. -1.
         -5    1    3    3    0  502  0.70582382496E+02  0.65288442686E+02 -0.14967906141E+03  0.17794872096E+03  0.41800000000E+01 0. -1.
        -11    1    4    4    0    0 -0.31006902553E+02  0.17098026172E+02 -0.45384960186E+02  0.57563574558E+02  0.00000000000E+00 0. -1.
         11    1    4    4    0    0 -0.78007830435E+02 -0.31787476344E+02 -0.46502306767E+03  0.47259085764E+03  0.00000000000E+00 0.  1.
</event>
<event>
 8    1  0.6703334E-009  0.9854313E+02  0.7561462E-02  0.1283390E+00
          2   -1    0    0  501    0  0.00000000000E+00  0.00000000000E+00  0.10849997575E+03  0.10849997575E+03  0.00000000000E+00 0.  1.
         -2   -1    0    0    0  501 -0.00000000000E+00 -0.00000000000E+00 -0.93271588498E+02  0.93271588498E+02  0.00000000000E+00 0. -1.
         25    2    1    2    0    0 -0.20140824155E+02 -0.22657824589E+02  0.17577687198E+02  0.12990368168E+03  0.12508781561E+03 0.  0.
         23    2    1    2    0    0  0.20140824155E+02  0.22657824589E+02 -0.23492999425E+01  0.71867882573E+02  0.65118687967E+02 0.  0.
          5    1    3    3  502    0 -0.60230379938E+01 -0.74430063647E+02  0.77770882437E+01  0.75193529394E+02  0.41800000000E+01 0.  1.
         -5    1    3    3    0  502 -0.14117786161E+02  0.51772239058E+02  0.98005989541E+01  0.54710152284E+02  0.41800000000E+01 0.  1.
        -11    1    4    4    0    0  0.27146766512E+02 -0.14418597197E+02 -0.11873600675E+02  0.32951862925E+02  0.00000000000E+00 0.  1.
         11    1    4    4    0    0 -0.70059423572E+01  0.37076421787E+02  0.95243007325E+01  0.38916019648E+02  0.00000000000E+00 0. -1.
</event>
<event>
 8    1  0.6703334E-009  0.3245886E+03  0.7561462E-02  0.1073557E+00
         -2   -1    0    0    0  501 -0.00000000000E+00  0.00000000000E+00  0.61412772675E+03  0.61412772675E+03  0.00000000000E+00 0.  1.
          2   -1    0    0  501    0  0.00000000000E+00 -0.00000000000E+00 -0.25909911564E+03  0.25909911564E+03  0.00000000000E+00 0. -1.
         25    2    1    2    0    0  0.19540760215E+03  0.24208253267E+03 -0.65652726633E+02  0.34168071552E+03  0.12508935703E+03 0.  0.
         23    2    1    2    0    0 -0.19540760215E+03 -0.24208253267E+03  0.42068133774E+03  0.53154612687E+03  0.93703860434E+02 0.  0.
          5    1    3    3  502    0  0.17546960370E+03  0.24960237596E+03 -0.39491854707E+02  0.30768166487E+03  0.41800000000E+01 0.  1.
         -5    1    3    3    0  502  0.19937998450E+02 -0.75198432904E+01 -0.26160871926E+02  0.33999050653E+02  0.41800000000E+01 0.  1.
        -11    1    4    4    0    0 -0.14436707325E+03 -0.11241064771E+03  0.27152363242E+03  0.32741882738E+03  0.00000000000E+00 0.  1.
         11    1    4    4    0    0 -0.51040528895E+02 -0.12967188497E+03  0.14915770532E+03  0.20412729949E+03  0.00000000000E+00 0. -1.
</event>
<event>
 8    1  0.6703334E-009  0.1053088E+03  0.7561462E-02  0.1269512E+00
          2   -1    0    0  501    0  0.00000000000E+00  0.00000000000E+00  0.10206698282E+04  0.10206698282E+04  0.00000000000E+00 0. -1.
         -2   -1    0    0    0  501 -0.00000000000E+00 -0.00000000000E+00 -0.13982138298E+02  0.13982138298E+02  0.00000000000E+00 0.  1.
         25    2    1    2    0    0  0.37926953331E+02 -0.22428380074E+02  0.66182155028E+03  0.67498007278E+03  0.12509535645E+03 0.  0.
         23    2    1    2    0    0 -0.37926953331E+02  0.22428380074E+02  0.34486613966E+03  0.35967189376E+03  0.92139735492E+02 0.  0.
          5    1    3    3  502    0 -0.37769971382E+02  0.11573708054E+02  0.35114346179E+03  0.35338325458E+03  0.41800000000E+01 0.  1.
         -5    1    3    3    0  502  0.75696924713E+02 -0.34002088128E+02  0.31067808849E+03  0.32159681820E+03  0.41800000000E+01 0.  1.
        -11    1    4    4    0    0  0.16974423927E+02  0.27872820368E+02  0.50130925771E+02  0.59817513335E+02  0.00000000000E+00 0.  1.
         11    1    4    4    0    0 -0.54901377258E+02 -0.54444402936E+01  0.29473521389E+03  0.29985438043E+03  0.00000000000E+00 0. -1.
</event>
<event>
 8    1  0.6703334E-009  0.1146197E+03  0.7561462E-02  0.1252246E+00
          1   -1    0    0  501    0  0.00000000000E+00  0.00000000000E+00  0.21512161000E+03  0.21512161000E+03  0.00000000000E+00 0. -1.
         -1   -1    0    0    0  501 -0.00000000000E+00 -0.00000000000E+00 -0.83110175808E+02  0.83110175808E+02  0.00000000000E+00 0.  1.
         25    2    1    2    0    0  0.33077299100E+02 -0.69884255184E+02  0.52991557595E+02  0.15631384291E+03  0.12509194807E+03 0.  0.
         23    2    1    2    0    0 -0.33077299100E+02  0.69884255184E+02  0.79019876597E+02  0.14191794290E+03  0.88986767443E+02 0.  0.
          5    1    3    3  502    0 -0.90205260942E+01 -0.84175636901E+02 -0.28566433247E+01  0.84808847119E+02  0.41800000000E+01 0.  1.
         -5    1    3    3    0  502  0.42097825194E+02  0.14291381716E+02  0.55848200920E+02  0.71504995793E+02  0.41800000000E+01 0.  1.
        -11    1    4    4    0    0  0.83812262801E+01  0.55215586892E+02  0.53282542023E+01  0.56101660249E+02  0.00000000000E+00 0.  1.
         11    1    4    4    0    0 -0.41458525380E+02  0.14668668292E+02  0.73691622394E+02  0.85816282647E+02  0.00000000000E+00 0. -1.
</event>
<event>
 8    1  0.6703334E-009  0.1345950E+03  0.7561462E-02  0.1220793E+00
          2   -1    0    0  501    0  0.00000000000E+00  0.00000000000E+00  0.13661578644E+03  0.13661578644E+03  0.00000000000E+00 0. -1.
         -2   -1    0    0    0  501 -0.00000000000E+00 -0.00000000000E+00 -0.16020846704E+03  0.16020846704E+03  0.00000000000E+00 0.  1.
         25    2    1    2    0    0  0.10677446440E+03  0.23536243151E+02 -0.45464190642E+02  0.17223215731E+03  0.12506871068E+03 0.  0.
         23    2    1    2    0    0 -0.10677446440E+03 -0.23536243151E+02  0.21871510044E+02  0.12459209617E+03  0.55588546360E+02 0.  0.
          5    1    3    3  502    0 -0.15122249125E+02  0.30772388115E+02  0.12840796747E+02  0.36850790358E+02  0.41800000000E+01 0.  1.
         -5    1    3    3    0  502  0.12189671353E+03 -0.72361449640E+01 -0.58304987390E+02  0.13538136695E+03  0.41800000000E+01 0.  1.
        -11    1    4    4    0    0 -0.74417292934E+02 -0.36931506183E+01 -0.98084197283E+01  0.75151699560E+02  0.00000000000E+00 0.  1.
         11    1    4    4    0    0 -0.32357171471E+02 -0.19843092532E+02  0.31679929772E+02  0.49440396613E+02  0.00000000000E+00 0. -1.
</event>
<event>
 8    1  0.6703334E-009  0.1786989E+03  0.7561462E-02  0.1169068E+00
          1   -1    0    0  501    0  0.00000000000E+00  0.00000000000E+00  0.10884571078E+04  0.10884571078E+04  0.00000000000E+00 0. -1.
         -1   -1    0    0    0  501 -0.00000000000E+00 -0.00000000000E+00 -0.34227912606E+02  0.34227912606E+02  0.00000000000E+00 0.  1.
         25    2    1    2    0    0  0.41638549394E+02  0.15206457151E+03  0.52852494121E+03  0.56554684631E+03  0.12508884518E+03 0.  0.
         23    2    1    2    0    0 -0.41638549394E+02 -0.15206457151E+03  0.52570425393E+03  0.55713817405E+03  0.95815341533E+02 0.  0.
          5    1    3    3  502    0  0.26701833220E+02 -0.11660325533E+02  0.37251498113E+02  0.47477337757E+02  0.41800000000E+01 0. -1.
         -5    1    3    3    0  502  0.14936716174E+02  0.16372489704E+03  0.49127344310E+03  0.51806950855E+03  0.41800000000E+01 0. -1.
        -11    1    4    4    0    0  0.36131007016E+01 -0.67477471052E+02  0.99537924260E+02  0.12030819574E+03  0.00000000000E+00 0.  1.
         11    1    4    4    0    0 -0.45251650096E+02 -0.84587100453E+02  0.42616632967E+03  0.43682997831E+03  0.00000000000E+00 0. -1.
</event>
<event>
 8    1  0.6703334E-009  0.1224221E+03  0.7561462E-02  0.1239154E+00
         -2   -1    0    0    0  501 -0.00000000000E+00  0.00000000000E+00  0.15358946315E+03  0.15358946315E+03  0.00000000000E+00 0.  1.
          2   -1    0    0  501    0  0.00000000000E+00 -0.00000000000E+00 -0.12875690746E+03  0.12875690746E+03  0.00000000000E+00 0. -1.
         25    2    1    2    0    0  0.57277978911E+02 -0.65427309308E+02  0.33241846083E+02  0.15593103907E+03  0.12509184204E+03 0.  0.
         23    2    1    2    0    0 -0.57277978911E+02  0.65427309308E+02 -0.84092903896E+01  0.12641533154E+03  0.91370784235E+02 0.  0.
          5    1    3    3  502    0  0.52088202841E+02 -0.99482875573E+02  0.73079484957E+01  0.11260951078E+03  0.41800000000E+01 0.  1.
         -5    1    3    3    0  502  0.51897760695E+01  0.34055566265E+02  0.25933897588E+02  0.43321528290E+02  0.41800000000E+01 0.  1.
        -11    1    4    4    0    0 -0.26281316925E+02  0.10296030176E+01  0.34249241587E+02  0.43183078294E+02  0.00000000000E+00 0.  1.
         11    1    4    4    0    0 -0.30996661986E+02  0.64397706291E+02 -0.42658531976E+02  0.83232253244E+02  0.00000000000E+00 0. -1.
</event>
<event>
 8    1  0.6703334E-009  0.1435786E+03  0.7561462E-02  0.1208593E+00
          3   -1    0    0  501    0  0.00000000000E+00  0.00000000000E+00  0.11236971131E+04  0.11236971131E+04  0.00000000000E+00 0. -1.
         -3   -1    0    0    0  501 -0.00000000000E+00 -0.00000000000E+00 -0.20338454684E+02  0.20338454684E+02  0.00000000000E+00 0.  1.
         25    2    1    2    0    0 -0.25241253886E+02  0.99457038067E+02  0.57191026880E+03  0.59435465645E+03  0.12508908332E+03 0.  0.
         23    2    1    2    0    0  0.25241253886E+02 -0.99457038067E+02  0.53144838965E+03  0.54968091137E+03  0.95827397664E+02 0.  0.
          5    1    3    3  502    0  0.32365791177E+02  0.96998042873E+00  0.47364834135E+02  0.57527256263E+02  0.41800000000E+01 0.  1.
         -5    1    3    3    0  502 -0.57607045063E+02  0.98487057639E+02  0.52454543467E+03  0.53682740019E+03  0.41800000000E+01 0.  1.
        -11    1    4    4    0    0 -0.13600189389E+02  0.14535446770E+02  0.69749865202E+02  0.72534736919E+02  0.00000000000E+00 0. -1.
         11    1    4    4    0    0  0.38841443275E+02 -0.11399248484E+03  0.46169852445E+03  0.47714617445E+03  0.00000000000E+00 0.  1.
</event>
<event>
 8    1  0.6703334E-009  0.1043845E+03  0.7561462E-02  0.1271337E+00
          2   -1    0    0  501    0  0.00000000000E+00  0.00000000000E+00  0.70414364732E+03  0.70414364732E+03  0.00000000000E+00 0. -1.
         -2   -1    0    0    0  501 -0.00000000000E+00 -0.00000000000E+00 -0.25081952936E+02  0.25081952936E+02  0.00000000000E+00 0.  1.
         25    2    1    2    0    0  0.15126965993E+01  0.76805259448E+02  0.35198886467E+03  0.38137276013E+03  0.12509070784E+03 0.  0.
         23    2    1    2    0    0 -0.15126965993E+01 -0.76805259448E+02  0.32707282972E+03  0.34785284013E+03  0.90131161738E+02 0.  0.
          5    1    3    3  502    0  0.20850216575E+02  0.62250415543E+02  0.35065857900E+03  0.35677549971E+03  0.41800000000E+01 0. -1.
         -5    1    3    3    0  502 -0.19337519976E+02  0.14554843905E+02  0.13302856620E+01  0.24597260414E+02  0.41800000000E+01 0. -1.
        -11    1    4    4    0    0  0.27869770722E+02  0.77360696172E+01  0.80693933926E+02  0.85720953481E+02  0.00000000000E+00 0.  1.
         11    1    4    4    0    0 -0.29382467321E+02 -0.84541329065E+02  0.24637889579E+03  0.26213188665E+03  0.00000000000E+00 0. -1.
</event>
<event>
 8    1  0.6703334E-009  0.1639678E+03  0.7561462E-02  0.1184289E+00
          1   -1    0    0  501    0  0.00000000000E+00  0.00000000000E+00  0.42576842056E+03  0.42576842056E+03  0.00000000000E+00 0. -1.
         -1   -1    0    0    0  501 -0.00000000000E+00 -0.00000000000E+00 -0.10502001863E+03  0.10502001863E+03  0.00000000000E+00 0.  1.
         25    2    1    2    0    0 -0.87080720107E+02 -0.10450622603E+03  0.17178883619E+02  0.18560007450E+03  0.12509064921E+03 0.  0.
         23    2    1    2    0    0  0.87080720107E+02  0.10450622603E+03  0.30356951831E+03  0.34518836468E+03  0.92173486292E+02 0.  0.
          5    1    3    3  502    0 -0.73591271543E+02 -0.87925939223E+00  0.31264162094E+02  0.80071022073E+02  0.41800000000E+01 0. -1.
         -5    1    3    3    0  502 -0.13489448564E+02 -0.10362696664E+03 -0.14085278475E+02  0.10552905243E+03  0.41800000000E+01 0. -1.
        -11    1    4    4    0    0  0.91414054492E+02  0.70729374389E+02  0.15844731710E+03  0.19612426178E+03  0.00000000000E+00 0.  1.
         11    1    4    4    0    0 -0.43333343855E+01  0.33776851642E+02  0.14512220120E+03  0.14906410291E+03  0.00000000000E+00 0. -1.
</event>
<event>
 8    1  0.6703334E-009  0.1731633E+03  0.7561462E-02  0.1174589E+00
         -1   -1    0    0    0  501 -0.00000000000E+00  0.00000000000E+00  0.33918498739E+02  0.33918498739E+02  0.00000000000E+00 0.  1.
          1   -1    0    0  501    0  0.00000000000E+00 -0.00000000000E+00 -0.10323761133E+04  0.10323761133E+04  0.00000000000E+00 0. -1.
         25    2    1    2    0    0  0.14225438765E+03  0.57066930672E+02 -0.54837957666E+03  0.58297605447E+03  0.12509186469E+03 0.  0.
         23    2    1    2    0    0 -0.14225438765E+03 -0.57066930672E+02 -0.45007803788E+03  0.48331855754E+03  0.86796558109E+02 0.  0.
          5    1    3    3  502    0  0.99874487723E+02  0.80255157430E+00 -0.16317093819E+03  0.19135774052E+03  0.41800000000E+01 0.  1.
         -5    1    3    3    0  502  0.42379899929E+02  0.56264379098E+02 -0.38520863847E+03  0.39161831396E+03  0.41800000000E+01 0.  1.
        -11    1    4    4    0    0 -0.57885287897E+02 -0.69575390937E+02 -0.21656115302E+03  0.23471296210E+03  0.00000000000E+00 0.  1.
         11    1    4    4    0    0 -0.84369099755E+02  0.12508460265E+02 -0.23351688485E+03  0.24860559544E+03  0.00000000000E+00 0. -1.
</event>
<event>
 8    1  0.6703334E-009  0.1006002E+03  0.7561462E-02  0.1279039E+00
         -3   -1    0    0    0  501 -0.00000000000E+00  0.00000000000E+00  0.32932789898E+02  0.32932789898E+02  0.00000000000E+00 0.  1.
          3   -1    0    0  501    0  0.00000000000E+00 -0.00000000000E+00 -0.48515003785E+03  0.48515003785E+03  0.00000000000E+00 0. -1.
         25    2    1    2    0    0  0.52851452433E+02  0.68065350820E+01 -0.31482746234E+03  0.34293400099E+03  0.12509113897E+03 0.  0.
         23    2    1    2    0    0 -0.52851452433E+02 -0.68065350820E+01 -0.13738978562E+03  0.17514882676E+03  0.94665481460E+02 0.  0.
          5    1    3    3  502    0 -0.12231580229E+02 -0.28091056152E+02 -0.15474525199E+02  0.34578205864E+02  0.41800000000E+01 0. -1.
         -5    1    3    3    0  502  0.65083032662E+02  0.34897591234E+02 -0.29935293714E+03  0.30835579513E+03  0.41800000000E+01 0. -1.
        -11    1    4    4    0    0 -0.36713169602E+02  0.35476256612E+02 -0.11239736804E+03  0.12344873409E+03  0.00000000000E+00 0. -1.
         11    1    4    4    0    0 -0.16138282832E+02 -0.42282791694E+02 -0.24992417577E+02  0.51700092674E+02  0.00000000000E+00 0.  1.
</event>
<event>
 8    1  0.6703334E-009  0.1336828E+03  0.7561462E-02  0.1222091E+00
          3   -1    0    0  501    0  0.00000000000E+00  0.00000000000E+00  0.52746610762E+03  0.52746610762E+03  0.00000000000E+00 0. -1.
         -3   -1    0    0    0  501 -0.00000000000E+00 -0.00000000000E+00 -0.38666659759E+02  0.38666659759E+02  0.00000000000E+00 0.  1.
         25    2    1    2    0    0  0.17241266317E+02 -0.79662010862E+02  0.21155250676E+03  0.25893075876E+03  0.12508947787E+03 0.  0.
         23    2    1    2    0    0 -0.17241266317E+02  0.79662010862E+02  0.27724694110E+03  0.30720200863E+03  0.10423008451E+03 0.  0.
          5    1    3    3  502    0  0.43959013900E+02  0.13350187730E+02  0.36338802660E+02  0.58724810721E+02  0.41800000000E+01 0.  1.
         -5    1    3    3    0  502 -0.26717747583E+02 -0.93012198592E+02  0.17521370410E+03  0.20020594803E+03  0.41800000000E+01 0.  1.
        -11    1    4    4    0    0  0.12861436792E+02  0.91222348023E+02  0.24433670852E+03  0.26112709638E+03  0.00000000000E+00 0. -1.
         11    1    4    4    0    0 -0.30102703109E+02 -0.11560337161E+02  0.32910232579E+02  0.46074912243E+02  0.00000000000E+00 0.  1.
</event>
<event>
 8    1  0.6703334E-009  0.1258382E+03  0.7561462E-02  0.1233765E+00
          3   -1    0    0  501    0  0.00000000000E+00  0.00000000000E+00  0.11319793550E+03  0.11319793550E+03  0.00000000000E+00 0. -1.
         -3   -1    0    0    0  501 -0.00000000000E+00 -0.00000000000E+00 -0.14730834462E+03  0.14730834462E+03  0.00000000000E+00 0.  1.
         25    2    1    2    0    0  0.61948663920E+02 -0.14730698044E+02 -0.43419399576E+02  0.14688425427E+03  0.12504043132E+03 0.  0.
         23    2    1    2    0    0 -0.61948663920E+02  0.14730698044E+02  0.93089904504E+01  0.11362202585E+03  0.93641214372E+02 0.  0.
          5    1    3    3  502    0  0.57913873805E+02  0.49006718360E+02 -0.28628962830E+02  0.81195844328E+02  0.41800000000E+01 0. -1.
         -5    1    3    3    0  502  0.40347901159E+01 -0.63737416404E+02 -0.14790436746E+02  0.65688409939E+02  0.41800000000E+01 0. -1.
        -11    1    4    4    0    0 -0.53115997030E+02 -0.33409623086E+02  0.14501457741E+02  0.64403449689E+02  0.00000000000E+00 0. -1.
         11    1    4    4    0    0 -0.88326668907E+01  0.48140321130E+02 -0.51924672911E+01  0.49218576163E+02  0.00000000000E+00 0.  1.
</event>
<event>
 8    1  0.6703334E-009  0.1113331E+03  0.7561462E-02  0.1258121E+00
          1   -1    0    0  501    0  0.00000000000E+00  0.00000000000E+00  0.56672683443E+03  0.56672683443E+03  0.00000000000E+00 0. -1.
         -1   -1    0    0    0  501 -0.00000000000E+00 -0.00000000000E+00 -0.26406244688E+02  0.26406244688E+02  0.00000000000E+00 0.  1.
         25    2    1    2    0    0 -0.29235906941E+02 -0.36138495094E+02  0.36608254206E+03  0.38964721863E+03  0.12509115998E+03 0.  0.
         23    2    1    2    0    0  0.29235906941E+02  0.36138495094E+02  0.17423804768E+03  0.20348586048E+03  0.94270191868E+02 0.  0.
          5    1    3    3  502    0  0.42182662567E+02 -0.24753824001E+02  0.74627462806E+02  0.89324461537E+02  0.41800000000E+01 0.  1.
         -5    1    3    3    0  502 -0.71418569509E+02 -0.11384671093E+02  0.29145507925E+03  0.30032275710E+03  0.41800000000E+01 0.  1.
        -11    1    4    4    0    0  0.14031634496E+02  0.66081855359E+02  0.88002012159E+02  0.11094166268E+03  0.00000000000E+00 0.  1.
         11    1    4    4    0    0  0.15204272446E+02 -0.29943360265E+02  0.86236035522E+02  0.92544197804E+02  0.00000000000E+00 0. -1.
</event>
<event>
 7    1  0.6703334E-009  0.8301845E+02  0.7561462E-02  0.1320697E+00
         -2   -1    0    0    0  501 -0.00000000000E+00  0.00000000000E+00  0.37939118825E+02  0.37939118825E+02  0.00000000000E+00 0.  1.
          2   -1    0    0  501    0  0.00000000000E+00 -0.00000000000E+00 -0.34443487662E+03  0.34443487662E+03  0.00000000000E+00 0. -1.
         23    2    1    2    0    0  0.13832532704E+02 -0.98586295646E+01 -0.18672902926E+03  0.20873828713E+03  0.91735547137E+02 0.  0.
          5    1    1    2  502    0 -0.49743269827E+02 -0.16206564978E+02 -0.77177841685E+01  0.53047923936E+02  0.41800000000E+01 0. -1.
         -5    1    1    2    0  502  0.35910737123E+02  0.26065194543E+02 -0.11204894437E+03  0.12058778438E+03  0.41800000000E+01 0. -1.
        -11    1    3    3    0    0 -0.21781877999E+02 -0.22382239720E+02 -0.18445012692E+02  0.36271660525E+02  0.00000000000E+00 0.  1.
         11    1    3    3    0    0  0.35614410703E+02  0.12523610155E+02 -0.16828401656E+03  0.17246662660E+03  0.00000000000E+00 0. -1.
</event>
<event>
 8    1  0.6703334E-009  0.1534221E+03  0.7561462E-02  0.1196330E+00
          1   -1    0    0  501    0  0.00000000000E+00  0.00000000000E+00  0.22137313795E+03  0.22137313795E+03  0.00000000000E+00 0. -1.
         -1   -1    0    0    0  501 -0.00000000000E+00 -0.00000000000E+00 -0.12146173387E+03  0.12146173387E+03  0.00000000000E+00 0.  1.
         25    2    1    2    0    0 -0.98181080695E+02 -0.53902611081E+02  0.18997818466E+01  0.16791670887E+03  0.12508955136E+03 0.  0.
         23    2    1    2    0    0  0.98181080695E+02  0.53902611081E+02  0.98011622233E+02  0.17491816295E+03  0.91897059526E+02 0.  0.
          5    1    3    3  502    0  0.13698413302E+02  0.23313360525E+02 -0.14436528637E+02  0.30936144961E+02  0.41800000000E+01 0. -1.
         -5    1    3    3    0  502 -0.11187949400E+03 -0.77215971607E+02  0.16336310484E+02  0.13698056391E+03  0.41800000000E+01 0. -1.
        -11    1    4    4    0    0  0.43042751958E+02  0.73321802455E+02  0.69825279643E+02  0.11001970227E+03  0.00000000000E+00 0.  1.
         11    1    4    4    0    0  0.55138328737E+02 -0.19419191374E+02  0.28186342590E+02  0.64898460676E+02  0.00000000000E+00 0. -1.
</event>
<event>
 8    1  0.6703334E-009  0.1290216E+03  0.7561462E-02  0.1228915E+00
         -2   -1    0    0    0  501 -0.00000000000E+00  0.00000000000E+00  0.35036721730E+02  0.35036721730E+02  0.00000000000E+00 0.  1.
          2   -1    0    0  501    0  0.00000000000E+00 -0.00000000000E+00 -0.55292525935E+03  0.55292525935E+03  0.00000000000E+00 0. -1.
         25    2    1    2    0    0 -0.66413468851E+01 -0.84045011574E+02 -0.33594774712E+03  0.36825619958E+03  0.12507624984E+03 0.  0.
         23    2    1    2    0    0  0.66413468851E+01  0.84045011574E+02 -0.18194079050E+03  0.21970578151E+03  0.89780330359E+02 0.  0.
          5    1    3    3  502    0 -0.31591035524E+02 -0.10897208916E+03 -0.27800772800E+03  0.30029765063E+03  0.41800000000E+01 0. -1.
         -5    1    3    3    0  502  0.24949688639E+02  0.24927077589E+02 -0.57940019116E+02  0.67958548951E+02  0.41800000000E+01 0. -1.
        -11    1    4    4    0    0 -0.13393601652E+02  0.87622672625E+02 -0.93039707601E+02  0.12850489685E+03  0.00000000000E+00 0.  1.
         11    1    4    4    0    0  0.20034948537E+02 -0.35776610507E+01 -0.88901082903E+02  0.91200884660E+02  0.00000000000E+00 0. -1.
</event>
<event>
 8    1  0.6703334E-009  0.4294397E+03  0.7561462E-02  0.1034037E+00
         -2   -1    0    0    0  501 -0.00000000000E+00  0.00000000000E+00  0.71879269196E+03  0.71879269196E+03  0.00000000000E+00 0.  1.
          2   -1    0    0  501    0  0.00000000000E+00 -0.00000000000E+00 -0.36975921845E+03  0.36975921845E+03  0.00000000000E+00 0. -1.
         25    2    1    2    0    0  0.33637777655E+03 -0.25334921494E+03  0.46679169244E+03  0.64099704175E+03  0.12508752987E+03 0.  0.
         23    2    1    2    0    0 -0.33637777655E+03  0.25334921494E+03 -0.11775821893E+03  0.44755486866E+03  0.95407175152E+02 0.  0.
          5    1    3    3  502    0  0.30246668022E+03 -0.25317812366E+03  0.46033025182E+03  0.60622328236E+03  0.41800000000E+01 0. -1.
         -5    1    3    3    0  502  0.33911096337E+02 -0.17109128013E+00  0.64614406278E+01  0.34773759388E+02  0.41800000000E+01 0. -1.
        -11    1    4    4    0    0 -0.10998621064E+03  0.13706090789E+03 -0.66734911783E+02  0.18797927400E+03  0.00000000000E+00 0. -1.
         11    1    4    4    0    0 -0.22639156592E+03  0.11628830705E+03 -0.51023307144E+02  0.25957559467E+03  0.00000000000E+00 0.  1.
</event>
<event>
 8    1  0.6703334E-009  0.1403590E+03  0.7561462E-02  0.1212847E+00
          1   -1    0    0  501    0  0.00000000000E+00  0.00000000000E+00  0.51107560885E+03  0.51107560885E+03  0.00000000000E+00 0. -1.
         -1   -1    0    0    0  501 -0.00000000000E+00 -0.00000000000E+00 -0.79775870503E+02  0.79775870503E+02  0.00000000000E+00 0.  1.
         25    2    1    2    0    0 -0.79330592408E+02 -0.48352328568E+02  0.43157391331E+03  0.45884020671E+03  0.12508797734E+03 0.  0.
         23    2    1    2    0    0  0.79330592408E+02  0.48352328568E+02 -0.27417496146E+00  0.13201127265E+03  0.93784915439E+02 0.  0.
          5    1    3    3  502    0  0.27767660561E+02 -0.27965629935E+02  0.62740239314E+02  0.74208688574E+02  0.41800000000E+01 0.  1.
         -5    1    3    3    0  502 -0.10709825297E+03 -0.20386698633E+02  0.36883367399E+03  0.38463151813E+03  0.41800000000E+01 0.  1.
        -11    1    4    4    0    0 -0.16610358723E+02  0.30020256177E+02 -0.12013681649E+01  0.34330206572E+02  0.00000000000E+00 0.  1.
         11    1    4    4    0    0  0.95940951130E+02  0.18332072391E+02  0.92719320343E+00  0.97681066073E+02  0.00000000000E+00 0. -1.
</event>
<event>
 8    1  0.6703334E-009  0.1042256E+03  0.7561462E-02  0.1271653E+00
         -3   -1    0    0    0  501 -0.00000000000E+00  0.00000000000E+00  0.54132503660E+02  0.54132503660E+02  0.00000000000E+00 0.  1.
          3   -1    0    0  501    0  0.00000000000E+00 -0.00000000000E+00 -0.32360096632E+03  0.32360096632E+03  0.00000000000E+00 0. -1.
         25    2    1    2    0    0  0.56220388039E+02 -0.48757691272E+02 -0.12529848354E+03  0.19205534599E+03  0.12508997345E+03 0.  0.
         23    2    1    2    0    0 -0.56220388039E+02  0.48757691272E+02 -0.14416997912E+03  0.18567812399E+03  0.90295837996E+02 0.  0.
          5    1    3    3  502    0 -0.24341773736E+02 -0.21562183757E+02 -0.96925458218E+02  0.10232041130E+03  0.41800000000E+01 0.  1.
         -5    1    3    3    0  502  0.80562161775E+02 -0.27195507515E+02 -0.28373025325E+02  0.89734934696E+02  0.41800000000E+01 0.  1.
        -11    1    4    4    0    0 -0.29093887811E+02 -0.57432967841E+01 -0.51942383226E+00  0.29659898297E+02  0.00000000000E+00 0.  1.
         11    1    4    4    0    0 -0.27126500228E+02  0.54500988056E+02 -0.14365055529E+03  0.15601822569E+03  0.00000000000E+00 0. -1.
</event>
<event>
 8    1  0.6703334E-009  0.1188783E+03  0.7561462E-02  0.1244959E+00
          2   -1    0    0  501    0  0.00000000000E+00  0.00000000000E+00  0.11209249523E+03  0.11209249523E+03  0.00000000000E+00 0. -1.
         -2   -1    0    0    0  501 -0.00000000000E+00 -0.00000000000E+00 -0.12943592652E+03  0.12943592652E+03  0.00000000000E+00 0.  1.
         25    2    1    2    0    0 -0.37631677946E+02  0.34552605204E+02 -0.24085182278E+02  0.13725104831E+03  0.12509088114E+03 0.  0.
         23    2    1    2    0    0  0.37631677946E+02 -0.34552605204E+02  0.67417509837E+01  0.10427737345E+03  0.90654805141E+02 0.  0.
          5    1    3    3  502    0 -0.76449780495E+02 -0.70303025162E+01 -0.47836497585E+01  0.77034731104E+02  0.41800000000E+01 0.  1.
         -5    1    3    3    0  502  0.38818102549E+02  0.41582907720E+02 -0.19301532520E+02  0.60216317204E+02  0.41800000000E+01 0.  1.
        -11    1    4    4    0    0 -0.29461646245E+02 -0.18685148436E+02 -0.98813507302E+00  0.34901286258E+02  0.00000000000E+00 0. -1.
         11    1    4    4    0    0  0.67093324190E+02 -0.15867456768E+02  0.77298860567E+01  0.69376087189E+02  0.00000000000E+00 0.  1.
</event>
<event>
 8    1  0.6703334E-009  0.2526224E+03  0.7561462E-02  0.1111659E+00
          1   -1    0    0  501    0  0.00000000000E+00  0.00000000000E+00  0.25392409537E+04  0.25392409537E+04  0.00000000000E+00 0. -1.
         -1   -1    0    0    0  501 -0.00000000000E+00 -0.00000000000E+00 -0.26283557904E+02  0.26283557904E+02  0.00000000000E+00 0.  1.
         25    2    1    2    0    0 -0.28510933933E+02  0.23221941278E+03  0.12873296983E+04  0.13143831592E+04  0.12508640253E+03 0.  0.
         23    2    1    2    0    0  0.28510933933E+02 -0.23221941278E+03  0.12256276975E+04  0.12511413523E+04  0.91938575942E+02 0.  0.
          5    1    3    3  502    0 -0.65471680140E+02  0.14159987961E+03  0.96367804110E+03  0.97623250617E+03  0.41800000000E+01 0.  1.
         -5    1    3    3    0  502  0.36960746207E+02  0.90619533166E+02  0.32365165723E+03  0.33815065308E+03  0.41800000000E+01 0.  1.
        -11    1    4    4    0    0  0.59817740029E+02 -0.11168741496E+03  0.63971110003E+03  0.65213689681E+03  0.00000000000E+00 0.  1.
         11    1    4    4    0    0 -0.31306806095E+02 -0.12053199782E+03  0.58591659743E+03  0.59900445553E+03  0.00000000000E+00 0. -1.
</event>
<event>
 8    1  0.6703334E-009  0.1475370E+03  0.7561462E-02  0.1203533E+00
          2   -1    0    0  501    0  0.00000000000E+00  0.00000000000E+00  0.51920371761E+03  0.51920371761E+03  0.00000000000E+00 0. -1.
         -2   -1    0    0    0  501 -0.00000000000E+00 -0.00000000000E+00 -0.49830850843E+02  0.49830850843E+02  0.00000000000E+00 0.  1.
         25    2    1    2    0    0  0.10169668063E+03  0.54580296163E+02  0.22315380791E+03  0.28065698878E+03  0.12509796076E+03 0.  0.
         23    2    1    2    0    0 -0.10169668063E+03 -0.54580296163E+02  0.24621905886E+03  0.28837757968E+03  0.96003020439E+02 0.  0.
          5    1    3    3  502    0  0.10882896072E+03  0.83696572172E+02  0.19965090583E+03  0.24233616214E+03  0.41800000000E+01 0.  1.
         -5    1    3    3    0  502 -0.71322800879E+01 -0.29116276010E+02  0.23502902083E+02  0.38320826638E+02  0.41800000000E+01 0.  1.
        -11    1    4    4    0    0 -0.63609352952E+01 -0.27669113906E+02  0.14113516149E+03  0.14396240888E+03  0.00000000000E+00 0. -1.
         11    1    4    4    0    0 -0.95335745335E+02 -0.26911182256E+02  0.10508389737E+03  0.14441517079E+03  0.00000000000E+00 0.  1.
</event>
<event>
 8    1  0.6703334E-009  0.7340883E+02  0.7561462E-02  0.1348870E+00
         -2   -1    0    0    0  501 -0.00000000000E+00  0.00000000000E+00  0.53447065989E+02  0.53447065989E+02  0.00000000000E+00 0.  1.
          2   -1    0    0  501    0  0.00000000000E+00 -0.00000000000E+00 -0.25170756643E+03  0.25170756643E+03  0.00000000000E+00 0. -1.
         25    2    1    2    0    0  0.22355200442E+02  0.13908461571E+02 -0.15897731892E+03  0.20399225844E+03  0.12508338531E+03 0.  0.
         23    2    1    2    0    0 -0.22355200442E+02 -0.13908461571E+02 -0.39283181520E+02  0.10116237399E+03  0.89428503677E+02 0.  0.
          5    1    3    3  502    0  0.17466672533E+02 -0.41758338107E+02 -0.12473422808E+02  0.47137056838E+02  0.41800000000E+01 0. -1.
         -5    1    3    3    0  502  0.48885279095E+01  0.55666799678E+02 -0.14650389612E+03  0.15685520160E+03  0.41800000000E+01 0. -1.
        -11    1    4    4    0    0  0.97028725309E+01 -0.83214177720E+01  0.25578917552E+02  0.28594977745E+02  0.00000000000E+00 0.  1.
         11    1    4    4    0    0 -0.32058072973E+02 -0.55870437986E+01 -0.64862099072E+02  0.72567396241E+02  0.00000000000E+00 0. -1.
</event>
<event>
 8    1  0.6703334E-009  0.1018342E+03  0.7561462E-02  0.1276485E+00
          1   -1    0    0  501    0  0.00000000000E+00  0.00000000000E+00  0.35978456267E+02  0.35978456267E+02  0.00000000000E+00 0. -1.
         -1   -1    0    0    0  501 -0.00000000000E+00 -0.00000000000E+00 -0.46613397292E+03  0.46613397292E+03  0.00000000000E+00 0.  1.
         25    2    1    2    0    0  0.12003576172E+02  0.59900915945E+02 -0.29773986739E+03  0.32867778235E+03  0.12509136824E+03 0.  0.
         23    2    1    2    0    0 -0.12003576172E+02 -0.59900915945E+02 -0.13241564926E+03  0.17343464683E+03  0.93880067004E+02 0.  0.
          5    1    3    3  502    0 -0.31557410626E+02  0.75446208009E+02 -0.24541727980E+03  0.25871821368E+03  0.41800000000E+01 0. -1.
         -5    1    3    3    0  502  0.43560986797E+02 -0.15545292064E+02 -0.52322587594E+02  0.69959568671E+02  0.41800000000E+01 0. -1.
        -11    1    4    4    0    0  0.16841554806E+02 -0.21317817408E+02 -0.12088505558E+03  0.12390029850E+03  0.00000000000E+00 0.  1.
         11    1    4    4    0    0 -0.28845130977E+02 -0.38583098537E+02 -0.11530593686E+02  0.49534348331E+02  0.00000000000E+00 0. -1.
</event>
<event>
 8    1  0.6703334E-009  0.6334187E+02  0.7561462E-02  0.1384320E+00
          2   -1    0    0  501    0  0.00000000000E+00  0.00000000000E+00  0.26523483658E+03  0.26523483658E+03  0.00000000000E+00 0. -1.
         -2   -1    0    0    0  501 -0.00000000000E+00 -0.00000000000E+00 -0.53943776818E+02  0.53943776818E+02  0.00000000000E+00 0.  1.
         25    2    1    2    0    0  0.12443671765E+02 -0.46118995226E+01  0.18441409620E+03  0.22323196524E+03  0.12509131402E+03 0.  0.
         23    2    1    2    0    0 -0.12443671765E+02  0.46118995226E+01  0.26876963553E+02  0.95946648153E+02  0.91144245775E+02 0.  0.
          5    1    3    3  502    0 -0.23700913895E+02  0.28687436581E+02  0.16665388181E+03  0.17080893144E+03  0.41800000000E+01 0. -1.
         -5    1    3    3    0  502  0.36144585660E+02 -0.33299336103E+02  0.17760214392E+02  0.52423033799E+02  0.41800000000E+01 0. -1.
        -11    1    4    4    0    0  0.35732031972E+01 -0.14526128839E+02 -0.30172652789E+02  0.33677368907E+02  0.00000000000E+00 0.  1.
         11    1    4    4    0    0 -0.16016874962E+02  0.19138028362E+02  0.57049616342E+02  0.62269279246E+02  0.00000000000E+00 0. -1.
</event>
<event>
 8    1  0.6703334E-009  0.2512220E+03  0.7561462E-02  0.1112535E+00
         -2   -1    0    0    0  501 -0.00000000000E+00  0.00000000000E+00  0.37147782313E+03  0.37147782313E+03  0.00000000000E+00 0.  1.
          2   -1    0    0  501    0  0.00000000000E+00 -0.00000000000E+00 -0.21327191977E+03  0.21327191977E+03  0.00000000000E+00 0. -1.
         25    2    1    2    0    0 -0.19598370064E+02  0.24337967526E+03  0.17205536003E+03  0.32383317051E+03  0.12508842062E+03 0.  0.
         23    2    1    2    0    0  0.19598370064E+02 -0.24337967526E+03 -0.13849456669E+02  0.26091657238E+03  0.90927926721E+02 0.  0.
          5    1    3    3  502    0 -0.58674074667E+01  0.18292748122E+03  0.18510750190E+03  0.26034429034E+03  0.41800000000E+01 0. -1.
         -5    1    3    3    0  502 -0.13730962598E+02  0.60452194036E+02 -0.13052141872E+02  0.63488880169E+02  0.41800000000E+01 0. -1.
        -11    1    4    4    0    0 -0.13311925738E+02 -0.20980767959E+03  0.49420775815E+01  0.21028764565E+03  0.00000000000E+00 0.  1.
         11    1    4    4    0    0  0.32910295803E+02 -0.33571995664E+02 -0.18791534250E+02  0.50628926733E+02  0.00000000000E+00 0. -1.
</event>
<event>
 8    1  0.6703334E-009  0.8082194E+02  0.7561462E-02  0.1326735E+00
         -1   -1    0    0    0  501 -0.00000000000E+00  0.00000000000E+00  0.58300777319E+02  0.58300777319E+02  0.00000000000E+00 0.  1.
          1   -1    0    0  501    0  0.00000000000E+00 -0.00000000000E+00 -0.28665175278E+03  0.28665175278E+03  0.00000000000E+00 0. -1.
         25    2    1    2    0    0 -0.43543300395E+02 -0.20023558346E+02 -0.15689423125E+03  0.20630507948E+03  0.12509605958E+03 0.  0.
         23    2    1    2    0    0  0.43543300395E+02  0.20023558346E+02 -0.71456744207E+02  0.13864745061E+03  0.10872022522E+03 0.  0.
          5    1    3    3  502    0 -0.39027394096E+02  0.78471892147E+01  0.63995122729E+01  0.40535688299E+02  0.41800000000E+01 0. -1.
         -5    1    3    3    0  502 -0.45159062987E+01 -0.27870747561E+02 -0.16329374352E+03  0.16576939118E+03  0.41800000000E+01 0. -1.
        -11    1    4    4    0    0  0.64108006435E+02 -0.37475509549E+00 -0.28450495309E+01  0.64172199878E+02  0.00000000000E+00 0.  1.
         11    1    4    4    0    0 -0.20564706040E+02  0.20398313442E+02 -0.68611694676E+02  0.74475250736E+02  0.00000000000E+00 0. -1.
</event>
<event>
 8    1  0.6703334E-009  0.7710490E+02  0.7561462E-02  0.1337474E+00
          2   -1    0    0  501    0  0.00000000000E+00  0.00000000000E+00  0.65596177196E+03  0.65596177196E+03  0.00000000000E+00 0.  1.
         -2   -1    0    0    0  501 -0.00000000000E+00 -0.00000000000E+00 -0.21301048451E+02  0.21301048451E+02  0.00000000000E+00 0. -1.
         25    2    1    2    0    0  0.40126066301E+02 -0.16218038431E+02  0.38478237150E+03  0.40691336623E+03  0.12509151943E+03 0.  0.
         23    2    1    2    0    0 -0.40126066301E+02  0.16218038431E+02  0.24987835200E+03  0.27034945417E+03  0.93683032643E+02 0.  0.
          5    1    3    3  502    0  0.69924753657E+01  0.67744702824E+01  0.35836325404E+03  0.35851984939E+03  0.41800000000E+01 0. -1.
         -5    1    3    3    0  502  0.33133590935E+02 -0.22992508714E+02  0.26419117467E+02  0.48393516848E+02  0.41800000000E+01 0. -1.
        -11    1    4    4    0    0 -0.70410454046E+02  0.43593986893E+01  0.17718117194E+03  0.19070868907E+03  0.00000000000E+00 0. -1.
         11    1    4    4    0    0  0.30284387745E+02  0.11858639742E+02  0.72697180063E+02  0.79640765107E+02  0.00000000000E+00 0.  1.
</event>
<event>
 8    1  0.6703334E-009  0.1031187E+03  0.7561462E-02  0.1273871E+00
          1   -1    0    0  501    0  0.00000000000E+00  0.00000000000E+00  0.13888679184E+03  0.13888679184E+03  0.00000000000E+00 0. -1.
         -1   -1    0    0    0  501 -0.00000000000E+00 -0.00000000000E+00 -0.19169115892E+03  0.19169115892E+03  0.00000000000E+00 0.  1.
         25    2    1    2    0    0  0.48472404584E+02 -0.58917792880E+02 -0.12490360189E+03  0.19253040887E+03  0.12508464436E+03 0.  0.
         23    2    1    2    0    0 -0.48472404584E+02  0.58917792880E+02  0.72099234806E+02  0.13804754189E+03  0.89654580694E+02 0.  0.
          5    1    3    3  502    0  0.58016081289E+02 -0.83423851796E+02 -0.13037043819E+03  0.16534608641E+03  0.41800000000E+01 0. -1.
         -5    1    3    3    0  502 -0.95436767058E+01  0.24506058916E+02  0.54668363068E+01  0.27184322465E+02  0.41800000000E+01 0. -1.
        -11    1    4    4    0    0 -0.40882602198E+02  0.38626248536E+02 -0.64063064016E+01  0.56607552501E+02  0.00000000000E+00 0.  1.
         11    1    4    4    0    0 -0.75898023855E+01  0.20291544344E+02  0.78505541207E+02  0.81439989393E+02  0.00000000000E+00 0. -1.
</event>
<event>
 8    1  0.6703334E-009  0.1157579E+03  0.7561462E-02  0.1250264E+00
          1   -1    0    0  501    0  0.00000000000E+00  0.00000000000E+00  0.95665684532E+01  0.95665684532E+01  0.00000000000E+00 0. -1.
         -1   -1    0    0    0  501 -0.00000000000E+00 -0.00000000000E+00 -0.19820695487E+04  0.19820695487E+04  0.00000000000E+00 0.  1.
         25    2    1    2    0    0 -0.39822788677E+02  0.29703452291E+01 -0.16130917416E+04  0.16184273194E+04  0.12508934279E+03 0.  0.
         23    2    1    2    0    0  0.39822788677E+02 -0.29703452291E+01 -0.35941123864E+03  0.37320879782E+03  0.92269663810E+02 0.  0.
          5    1    3    3  502    0 -0.31641356951E+01 -0.58881767681E+02 -0.68602021622E+03  0.68856247631E+03  0.41800000000E+01 0. -1.
         -5    1    3    3    0  502 -0.36658652982E+02  0.61852112910E+02 -0.92707152541E+03  0.92986484305E+03  0.41800000000E+01 0. -1.
        -11    1    4    4    0    0  0.64902662454E+02  0.18367384917E+02 -0.25120018248E+03  0.26009853537E+03  0.00000000000E+00 0.  1.
         11    1    4    4    0    0 -0.25079873778E+02 -0.21337730146E+02 -0.10821105616E+03  0.11311026245E+03  0.00000000000E+00 0. -1.
</event>
<event>
 8    1  0.6703334E-009  0.2719585E+03  0.7561462E-02  0.1100164E+00
          1   -1    0    0  501    0  0.00000000000E+00  0.00000000000E+00  0.29017011484E+03  0.29017011484E+03  0.00000000000E+00 0. -1.
         -1   -1    0    0    0  501 -0.00000000000E+00 -0.00000000000E+00 -0.31684019954E+03  0.31684019954E+03  0.00000000000E+00 0.  1.
         25    2    1    2    0    0  0.30007837648E+02 -0.26094645414E+03 -0.11859600858E+03  0.31417566425E+03  0.12509121675E+03 0.  0.
         23    2    1    2    0    0 -0.30007837648E+02  0.26094645414E+03  0.91925923881E+02  0.29283465013E+03  0.91149517777E+02 0.  0.
          5    1    3    3  502    0  0.19413461046E+02 -0.26719610690E+03 -0.89793963631E+02  0.28257931686E+03  0.41800000000E+01 0. -1.
         -5    1    3    3    0  502  0.10594376602E+02  0.62496527605E+01 -0.28802044952E+02  0.31596347394E+02  0.41800000000E+01 0. -1.
        -11    1    4    4    0    0 -0.31073188981E+02  0.23776963552E+03  0.50047220189E+02  0.24495850035E+03  0.00000000000E+00 0.  1.
         11    1    4    4    0    0  0.10653513324E+01  0.23176818620E+02  0.41878703692E+02  0.47876149780E+02  0.00000000000E+00 0. -1.
</event>
<event>
 8    1  0.6703334E-009  0.1047653E+03  0.7561462E-02  0.1270583E+00
         -2   -1    0    0    0  501 -0.00000000000E+00  0.00000000000E+00  0.39978654880E+02  0.39978654880E+02  0.00000000000E+00 0.  1.
          2   -1    0    0  501    0  0.00000000000E+00 -0.00000000000E+00 -0.46082687525E+03  0.46082687525E+03  0.00000000000E+00 0. -1.
         25    2    1    2    0    0 -0.62537848902E+02  0.94558865037E+01 -0.12926057279E+03  0.19066918755E+03  0.12508415994E+03 0.  0.
         23    2    1    2    0    0  0.62537848902E+02 -0.94558865037E+01 -0.29158764759E+03  0.31013634259E+03  0.84621501015E+02 0.  0.
          5    1    3    3  502    0  0.14118300115E+02  0.25113636220E+02  0.10083058325E+02  0.30808466166E+02  0.41800000000E+01 0.  1.
         -5    1    3    3    0  502 -0.76656149017E+02 -0.15657749717E+02 -0.13934363111E+03  0.15986072138E+03  0.41800000000E+01 0.  1.
        -11    1    4    4    0    0  0.54383876082E+02  0.29773426371E+02 -0.21418072039E+03  0.22297408792E+03  0.00000000000E+00 0. -1.
         11    1    4    4    0    0  0.81539728200E+01 -0.39229312874E+02 -0.77406927194E+02  0.87162254669E+02  0.00000000000E+00 0.  1.
</event>
<event>
 8    1  0.6703334E-009  0.2351645E+03  0.7561462E-02  0.1123057E+00
          1   -1    0    0  501    0  0.00000000000E+00  0.00000000000E+00  0.51530151102E+03  0.51530151102E+03  0.00000000000E+00 0. -1.
         -1   -1    0    0    0  501 -0.00000000000E+00 -0.00000000000E+00 -0.15395652723E+03  0.15395652723E+03  0.00000000000E+00 0.  1.
         25    2    1    2    0    0  0.17841460021E+03 -0.13788433468E+03  0.33726973796E+03  0.42455012991E+03  0.12509227532E+03 0.  0.
         23    2    1    2    0    0 -0.17841460021E+03  0.13788433468E+03  0.24075245840E+02  0.24470790834E+03  0.91970014813E+02 0.  0.
          5    1    3    3  502    0  0.35273288592E+02 -0.68249369551E+02  0.20009278409E+03  0.21437531569E+03  0.41800000000E+01 0.  1.
         -5    1    3    3    0  502  0.14314131161E+03 -0.69634965129E+02  0.13717695387E+03  0.21017481422E+03  0.41800000000E+01 0.  1.
        -11    1    4    4    0    0 -0.16121387765E+03  0.93065569982E+02 -0.90733634593E+01  0.18636909772E+03  0.00000000000E+00 0.  1.
         11    1    4    4    0    0 -0.17200722561E+02  0.44818764698E+02  0.33148609299E+02  0.58338810617E+02  0.00000000000E+00 0. -1.
</event>
<event>
 8    1  0.6703334E-009  0.1094863E+03  0.7561462E-02  0.1261524E+00
          1   -1    0    0  501    0  0.00000000000E+00  0.00000000000E+00  0.51440462063E+02  0.51440462063E+02  0.00000000000E+00 0. -1.
         -1   -1    0    0    0  501 -0.00000000000E+00 -0.00000000000E+00 -0.23944462280E+03  0.23944462280E+03  0.00000000000E+00 0.  1.
         25    2    1    2    0    0 -0.91843552281E+01 -0.12565540875E+02 -0.11783216332E+03  0.17254984206E+03  0.12508710599E+03 0.  0.
         23    2    1    2    0    0  0.91843552281E+01  0.12565540875E+02 -0.70171997421E+02  0.11833524280E+03  0.94004655569E+02 0.  0.
          5    1    3    3  502    0  0.55329879297E+02 -0.22556750837E+02 -0.65661295463E+02  0.88876772406E+02  0.41800000000E+01 0.  1.
         -5    1    3    3    0  502 -0.64514234525E+02  0.99912099620E+01 -0.52170867852E+02  0.83673069654E+02  0.41800000000E+01 0.  1.
        -11    1    4    4    0    0  0.25366296063E+02 -0.35108189355E+02 -0.21686518195E+02  0.48439023599E+02  0.00000000000E+00 0. -1.
         11    1    4    4    0    0 -0.16181940835E+02  0.47673730230E+02 -0.48485479226E+02  0.69896219204E+02  0.00000000000E+00 0.  1.
</event>
<event>
 8    1  0.6703334E-009  0.8419343E+02  0.7561462E-02  0.1317555E+00
         -1   -1    0    0    0  501 -0.00000000000E+00  0.00000000000E+00  0.59380710855E+02  0.59380710855E+02  0.00000000000E+00 0.  1.
          1   -1    0    0  501    0  0.00000000000E+00 -0.00000000000E+00 -0.28649749897E+03  0.28649749897E+03  0.00000000000E+00 0. -1.
         25    2    1    2    0    0  0.21648276121E+02  0.45296782643E+02 -0.19220367148E+03  0.23475576154E+03  0.12509024690E+03 0.  0.
         23    2    1    2    0    0 -0.21648276121E+02 -0.45296782643E+02 -0.34913116639E+02  0.11112244829E+03  0.92783761636E+02 0.  0.
          5    1    3    3  502    0 -0.15385982915E+02 -0.24869606166E+02 -0.13147836358E+03  0.13475629214E+03  0.41800000000E+01 0.  1.
         -5    1    3    3    0  502  0.37034259037E+02  0.70166388809E+02 -0.60725307896E+02  0.99999469398E+02  0.41800000000E+01 0.  1.
        -11    1    4    4    0    0 -0.24015686873E+02 -0.13578238099E+02  0.28818195888E+02  0.39894989412E+02  0.00000000000E+00 0.  1.
         11    1    4    4    0    0  0.23674107518E+01 -0.31718544543E+02 -0.63731312527E+02  0.71227458877E+02  0.00000000000E+00 0. -1.
</event>
<event>
 8    1  0.6703334E-009  0.1054267E+03  0.7561462E-02  0.1269281E+00
          2   -1    0    0  501    0  0.00000000000E+00  0.00000000000E+00  0.45724040062E+03  0.45724040062E+03  0.00000000000E+00 0. -1.
         -2   -1    0    0    0  501 -0.00000000000E+00 -0.00000000000E+00 -0.28519579844E+02  0.28519579844E+02  0.00000000000E+00 0.  1.
         25    2    1    2    0    0 -0.62904397466E+01 -0.28451277911E+02  0.29198043346E+03  0.31898353340E+03  0.12509546839E+03 0.  0.
         23    2    1    2    0    0  0.62904397466E+01  0.28451277911E+02  0.13674038732E+03  0.16677644706E+03  0.90925271098E+02 0.  0.
          5    1    3    3  502    0  0.36317599204E+02  0.27557971813E+02  0.54071163387E+02  0.70848944469E+02  0.41800000000E+01 0.  1.
         -5    1    3    3    0  502 -0.42608038950E+02 -0.56009249724E+02  0.23790927008E+03  0.24813458893E+03  0.41800000000E+01 0.  1.
        -11    1    4    4    0    0  0.47473744475E+02  0.65306782647E+01  0.57812968979E+02  0.75091581121E+02  0.00000000000E+00 0. -1.
         11    1    4    4    0    0 -0.41183304729E+02  0.21920599646E+02  0.78927418337E+02  0.91684865941E+02  0.00000000000E+00 0.  1.
</event>
<event>
 8    1  0.6703334E-009  0.1825023E+03  0.7561462E-02  0.1165403E+00
          2   -1    0    0  501    0  0.00000000000E+00  0.00000000000E+00  0.86828284586E+03  0.86828284586E+03  0.00000000000E+00 0. -1.
         -2   -1    0    0    0  501 -0.00000000000E+00 -0.00000000000E+00 -0.55171380982E+02  0.55171380982E+02  0.00000000000E+00 0.  1.
         25    2    1    2    0    0  0.14234501737E+03  0.88477319172E+02  0.61217680942E+03  0.64691458315E+03  0.12509073475E+03 0.  0.
         23    2    1    2    0    0 -0.14234501737E+03 -0.88477319172E+02  0.20093465546E+03  0.27653964369E+03  0.89493568436E+02 0.  0.
          5    1    3    3  502    0  0.17771774201E+02  0.64938789763E+02  0.11061055331E+03  0.12955712747E+03  0.41800000000E+01 0.  1.
         -5    1    3    3    0  502  0.12457324317E+03  0.23538529409E+02  0.50156625611E+03  0.51735745569E+03  0.41800000000E+01 0.  1.
        -11    1    4    4    0    0 -0.37063922785E+02 -0.73413977495E+01  0.27161844665E+01  0.37881501438E+02  0.00000000000E+00 0.  1.
         11    1    4    4    0    0 -0.10528109459E+03 -0.81135921423E+02  0.19821847099E+03  0.23865814226E+03  0.00000000000E+00 0. -1.
</event>
<event>
 8    1  0.6703334E-009  0.1001539E+03  0.7561462E-02  0.1279973E+00
         -1   -1    0    0    0  501 -0.00000000000E+00  0.00000000000E+00  0.52089493702E+02  0.52089493702E+02  0.00000000000E+00 0.  1.
          1   -1    0    0  501    0  0.00000000000E+00 -0.00000000000E+00 -0.28205859974E+03  0.28205859974E+03  0.00000000000E+00 0. -1.
         25    2    1    2    0    0 -0.19938849443E+00  0.47543150468E+02 -0.16983554929E+03  0.21620553425E+03  0.12506129827E+03 0.  0.
         23    2    1    2    0    0  0.19938849443E+00 -0.47543150468E+02 -0.60133556744E+02  0.11794255919E+03  0.89632648682E+02 0.  0.
          5    1    3    3  502    0 -0.56225829379E+02  0.57737127505E+01 -0.11150320031E+03  0.12508043703E+03  0.41800000000E+01 0.  1.
         -5    1    3    3    0  502  0.56026440885E+02  0.41769437718E+02 -0.58332348984E+02  0.91125097221E+02  0.41800000000E+01 0.  1.
        -11    1    4    4    0    0 -0.24370384120E+02 -0.41809920361E+02  0.44574504412E+01  0.48598908703E+02  0.00000000000E+00 0. -1.
         11    1    4    4    0    0  0.24569772614E+02 -0.57332301077E+01 -0.64591007185E+02  0.69343650488E+02  0.00000000000E+00 0.  1.
</event>
<event>
 8    1  0.6703334E-009  0.1019464E+03  0.7561462E-02  0.1276255E+00
         -2   -1    0    0    0  501 -0.00000000000E+00  0.00000000000E+00  0.17133831313E+02  0.17133831313E+02  0.00000000000E+00 0. -1.
          2   -1    0    0  501    0  0.00000000000E+00 -0.00000000000E+00 -0.72018183455E+03  0.72018183455E+03  0.00000000000E+00 0.  1.
         25    2    1    2    0    0  0.66983270791E+01 -0.13347799582E+01 -0.49721627148E+03  0.51275496654E+03  0.12508791253E+03 0.  0.
         23    2    1    2    0    0 -0.66983270791E+01  0.13347799582E+01 -0.20583173176E+03  0.22456069933E+03  0.89521822258E+02 0.  0.
          5    1    3    3  502    0 -0.34501003251E+02 -0.45666696642E+02 -0.15671096648E+03  0.16688788399E+03  0.41800000000E+01 0.  1.
         -5    1    3    3    0  502  0.41199330330E+02  0.44331916683E+02 -0.34050530501E+03  0.34586708255E+03  0.41800000000E+01 0.  1.
        -11    1    4    4    0    0 -0.38392417635E+02 -0.23990927503E+02 -0.14092237363E+03  0.14801573471E+03  0.00000000000E+00 0.  1.
         11    1    4    4    0    0  0.31694090555E+02  0.25325707462E+02 -0.64909358131E+02  0.76544964612E+02  0.00000000000E+00 0. -1.
</event>
<event>
 8    1  0.6703334E-009  0.1031657E+03  0.7561462E-02  0.1273776E+00
          3   -1    0    0  501    0  0.00000000000E+00  0.00000000000E+00  0.13062139055E+03  0.13062139055E+03  0.00000000000E+00 0. -1.
         -3   -1    0    0    0  501 -0.00000000000E+00 -0.00000000000E+00 -0.20759115279E+03  0.20759115279E+03  0.00000000000E+00 0.  1.
         25    2    1    2    0    0 -0.66340680097E+02 -0.58739121226E+02  0.47973906022E+02  0.16062458772E+03  0.12508953722E+03 0.  0.
         23    2    1    2    0    0  0.66340680097E+02  0.58739121226E+02 -0.12494366827E+03  0.17758795562E+03  0.89862069556E+02 0.  0.
          5    1    3    3  502    0 -0.24115689852E+02 -0.26619049579E+02  0.87273815445E+02  0.94468680311E+02  0.41800000000E+01 0. -1.
         -5    1    3    3    0  502 -0.42224990245E+02 -0.32120071648E+02 -0.39299909423E+02  0.66155907405E+02  0.41800000000E+01 0. -1.
        -11    1    4    4    0    0 -0.17154280557E+02  0.14502878106E+02 -0.56826673809E+02  0.61105430781E+02  0.00000000000E+00 0.  1.
         11    1    4    4    0    0  0.83494960654E+02  0.44236243120E+02 -0.68116994458E+02  0.11648252484E+03  0.00000000000E+00 0. -1.
</event>
<event>
 8    1  0.6703334E-009  0.8127302E+02  0.7561462E-02  0.1325477E+00
         -1   -1    0    0    0  501 -0.00000000000E+00  0.00000000000E+00  0.43923360992E+02  0.43923360992E+02  0.00000000000E+00 0.  1.
          1   -1    0    0  501    0  0.00000000000E+00 -0.00000000000E+00 -0.32877799906E+03  0.32877799906E+03  0.00000000000E+00 0. -1.
         25    2    1    2    0    0 -0.20085052482E+02 -0.37230345868E+02 -0.11410282822E+03  0.17451879009E+03  0.12509134542E+03 0.  0.
         23    2    1    2    0    0  0.20085052482E+02  0.37230345868E+02 -0.17075180985E+03  0.19818256997E+03  0.91272353341E+02 0.  0.
          5    1    3    3  502    0 -0.30068191730E+02  0.78223458639E+01  0.16864129032E+02  0.35597141693E+02  0.41800000000E+01 0.  1.
         -5    1    3    3    0  502  0.99831392477E+01 -0.45052691732E+02 -0.13096695725E+03  0.13892164840E+03  0.41800000000E+01 0.  1.
        -11    1    4    4    0    0  0.48054745630E+02  0.20288938700E+02 -0.47100981808E+02  0.70280880034E+02  0.00000000000E+00 0.  1.
         11    1    4    4    0    0 -0.27969693148E+02  0.16941407168E+02 -0.12365082804E+03  0.12790168993E+03  0.00000000000E+00 0. -1.
</event>
<event>
 8    1  0.6703334E-009  0.1284592E+03  0.7561462E-02  0.1229760E+00
          1   -1    0    0  501    0  0.00000000000E+00  0.00000000000E+00  0.72674942910E+02  0.72674942910E+02  0.00000000000E+00 0. -1.
         -1   -1    0    0    0  501 -0.00000000000E+00 -0.00000000000E+00 -0.22727288283E+03  0.22727288283E+03  0.00000000000E+00 0.  1.
         25    2    1    2    0    0  0.29196798350E+02 -0.60486627389E+02 -0.81661184341E+02  0.16378999322E+03  0.12509007844E+03 0.  0.
         23    2    1    2    0    0 -0.29196798350E+02  0.60486627389E+02 -0.72936755577E+02  0.13615783252E+03  0.93317200539E+02 0.  0.
          5    1    3    3  502    0  0.77909664657E+02 -0.47668483373E+02 -0.51895440621E+02  0.10513234189E+03  0.41800000000E+01 0.  1.
         -5    1    3    3    0  502 -0.48712866307E+02 -0.12818144016E+02 -0.29765743720E+02  0.58657651326E+02  0.41800000000E+01 0.  1.
        -11    1    4    4    0    0  0.34060191953E+02  0.16147743385E+02 -0.22423270792E+02  0.43859427325E+02  0.00000000000E+00 0.  1.
         11    1    4    4    0    0 -0.63256990303E+02  0.44338884004E+02 -0.50513484785E+02  0.92298405197E+02  0.00000000000E+00 0. -1.
</event>
<event>
 8    1  0.6703334E-009  0.1365611E+03  0.7561462E-02  0.1218033E+00
          1   -1    0    0  501    0  0.00000000000E+00  0.00000000000E+00  0.98531064927E+03  0.98531064927E+03  0.00000000000E+00 0. -1.
         -1   -1    0    0    0  501 -0.00000000000E+00 -0.00000000000E+00 -0.25073128828E+02  0.25073128828E+02  0.00000000000E+00 0.  1.
         25    2    1    2    0    0  0.38330861348E+02  0.10445009971E+03  0.61674784902E+03  0.63906553258E+03  0.12509103643E+03 0.  0.
         23    2    1    2    0    0 -0.38330861348E+02 -0.10445009971E+03  0.34348967142E+03  0.37131824552E+03  0.86677602759E+02 0.  0.
          5    1    3    3  502    0 -0.33783176774E+02  0.42917970831E+01  0.24385376221E+03  0.24625566450E+03  0.41800000000E+01 0. -1.
         -5    1    3    3    0  502  0.72114038122E+02  0.10015830263E+03  0.37289408681E+03  0.39280986808E+03  0.41800000000E+01 0. -1.
        -11    1    4    4    0    0 -0.29222739587E+02 -0.36463160856E+02  0.44382185220E+02  0.64446171131E+02  0.00000000000E+00 0.  1.
         11    1    4    4    0    0 -0.91081217612E+01 -0.67986938858E+02  0.29910748620E+03  0.30687207439E+03  0.00000000000E+00 0. -1.
</event>
<event>
 8    1  0.6703334E-009  0.2066465E+03  0.7561462E-02  0.1144249E+00
         -1   -1    0    0    0  501 -0.00000000000E+00  0.00000000000E+00  0.69351205463E+02  0.69351205463E+02  0.00000000000E+00 0.  1.
          1   -1    0    0  501    0  0.00000000000E+00 -0.00000000000E+00 -0.76730088536E+03  0.76730088536E+03  0.00000000000E+00 0. -1.
         25    2    1    2    0    0  0.17855068913E+03  0.40951768317E+02 -0.51935056448E+03  0.56473868400E+03  0.12508947385E+03 0.  0.
         23    2    1    2    0    0 -0.17855068913E+03 -0.40951768317E+02 -0.17859911542E+03  0.27191340683E+03  0.92097018755E+02 0.  0.
          5    1    3    3  502    0  0.18922769644E+03  0.12425398707E+02 -0.46662553289E+03  0.50370464756E+03  0.41800000000E+01 0. -1.
         -5    1    3    3    0  502 -0.10677007305E+02  0.28526369610E+02 -0.52725031588E+02  0.61034036439E+02  0.41800000000E+01 0. -1.
        -11    1    4    4    0    0 -0.11163422918E+03  0.49115753766E+01 -0.56221888644E+02  0.12508887024E+03  0.00000000000E+00 0. -1.
         11    1    4    4    0    0 -0.66916459955E+02 -0.45863343693E+02 -0.12237722678E+03  0.14682453658E+03  0.00000000000E+00 0.  1.
</event>
<event>
 8    1  0.6703334E-009  0.1035281E+03  0.7561462E-02  0.1273047E+00
          1   -1    0    0  501    0  0.00000000000E+00  0.00000000000E+00  0.54365648594E+02  0.54365648594E+02  0.00000000000E+00 0. -1.
         -1   -1    0    0    0  501 -0.00000000000E+00 -0.00000000000E+00 -0.32584945553E+03  0.32584945553E+03  0.00000000000E+00 0.  1.
         25    2    1    2    0    0  0.49439609546E+02  0.12798476165E+02 -0.69738972546E+02  0.15204693823E+03  0.12508665456E+03 0.  0.
         23    2    1    2    0    0 -0.49439609546E+02 -0.12798476165E+02 -0.20174483439E+03  0.22816816590E+03  0.93550295252E+02 0.  0.
          5    1    3    3  502    0  0.70970780917E+02 -0.11867418005E+02  0.30309651370E+01  0.72141156795E+02  0.41800000000E+01 0.  1.
         -5    1    3    3    0  502 -0.21531171371E+02  0.24665894170E+02 -0.72769937683E+02  0.79905781432E+02  0.41800000000E+01 0.  1.
        -11    1    4    4    0    0 -0.34781134007E+02 -0.50615055160E+02 -0.87207199192E+02  0.10666164579E+03  0.00000000000E+00 0.  1.
         11    1    4    4    0    0 -0.14658475539E+02  0.37816578995E+02 -0.11453763520E+03  0.12150652011E+03  0.00000000000E+00 0. -1.
</event>
<event>
 8    1  0.6703334E-009  0.1154217E+03  0.7561462E-02  0.1250847E+00
          2   -1    0    0  501    0  0.00000000000E+00  0.00000000000E+00  0.82957736992E+03  0.82957736992E+03  0.00000000000E+00 0. -1.
         -2   -1    0    0    0  501 -0.00000000000E+00 -0.00000000000E+00 -0.18160976081E+02  0.18160976081E+02  0.00000000000E+00 0.  1.
         25    2    1    2    0    0  0.33434681340E+02  0.16380710946E+02  0.58561492301E+03  0.59998734838E+03  0.12511504531E+03 0.  0.
         23    2    1    2    0    0 -0.33434681340E+02 -0.16380710946E+02  0.22580147084E+03  0.24775099762E+03  0.94910731662E+02 0.  0.
          5    1    3    3  502    0 -0.33526733979E+01 -0.52083909385E+02  0.25716340176E+03  0.26243944376E+03  0.41800000000E+01 0. -1.
         -5    1    3    3    0  502  0.36787354738E+02  0.68464620330E+02  0.32845152125E+03  0.33754790463E+03  0.41800000000E+01 0. -1.
        -11    1    4    4    0    0 -0.50316734133E+02  0.24834337549E+02  0.10594659182E+03  0.11988827454E+03  0.00000000000E+00 0.  1.
         11    1    4    4    0    0  0.16882052793E+02 -0.41215048495E+02  0.11985487902E+03  0.12786272308E+03  0.00000000000E+00 0. -1.
</event>
<event>
 8    1  0.6703334E-009  0.2094986E+03  0.7561462E-02  0.1141964E+00
          1   -1    0    0  501    0  0.00000000000E+00  0.00000000000E+00  0.10305150953E+03  0.10305150953E+03  0.00000000000E+00 0. -1.
         -1   -1    0    0    0  501 -0.00000000000E+00 -0.00000000000E+00 -0.50183683545E+03  0.50183683545E+03  0.00000000000E+00 0.  1.
         25    2    1    2    0    0  0.15821080639E+03 -0.11680987195E+03 -0.24889824533E+03  0.34098998465E+03  0.12509447494E+03 0.  0.
         23    2    1    2    0    0 -0.15821080639E+03  0.11680987195E+03 -0.14988708060E+03  0.26389836034E+03  0.92200879688E+02 0.  0.
          5    1    3    3  502    0  0.83163823304E+02 -0.29027375176E+02 -0.19388895158E+03  0.21300048817E+03  0.41800000000E+01 0.  1.
         -5    1    3    3    0  502  0.75046983082E+02 -0.87782496772E+02 -0.55009293744E+02  0.12798949647E+03  0.41800000000E+01 0.  1.
        -11    1    4    4    0    0 -0.12525918298E+03  0.39710617513E+02 -0.10842722851E+03  0.17036214353E+03  0.00000000000E+00 0.  1.
         11    1    4    4    0    0 -0.32951623403E+02  0.77099254436E+02 -0.41459852086E+02  0.93536216806E+02  0.00000000000E+00 0. -1.
</event>
<event>
 8    1  0.6703334E-009  0.1228661E+03  0.7561462E-02  0.1238442E+00
         -1   -1    0    0    0  501 -0.00000000000E+00  0.00000000000E+00  0.89137558462E+02  0.89137558462E+02  0.00000000000E+00 0.  1.
          1   -1    0    0  501    0  0.00000000000E+00 -0.00000000000E+00 -0.20615081115E+03  0.20615081115E+03  0.00000000000E+00 0. -1.
         25    2    1    2    0    0  0.10638824543E+02 -0.77384514445E+02 -0.82252843457E+02  0.16885698344E+03  0.12508238459E+03 0.  0.
         23    2    1    2    0    0 -0.10638824543E+02  0.77384514445E+02 -0.34760409235E+02  0.12643138618E+03  0.93140011259E+02 0.  0.
          5    1    3    3  502    0  0.65450381547E+02 -0.21731803732E+02 -0.42439443803E+02  0.81083922749E+02  0.41800000000E+01 0.  1.
         -5    1    3    3    0  502 -0.54811557004E+02 -0.55652710713E+02 -0.39813399655E+02  0.87773060690E+02  0.41800000000E+01 0.  1.
        -11    1    4    4    0    0 -0.32635760200E+02  0.66048551506E+02 -0.57009757645E+02  0.93153724921E+02  0.00000000000E+00 0. -1.
         11    1    4    4    0    0  0.21996935657E+02  0.11335962939E+02  0.22249348410E+02  0.33277661257E+02  0.00000000000E+00 0.  1.
</event>
<event>
 7    1  0.6703334E-009  0.1341981E+03  0.7561462E-02  0.1221356E+00
          1   -1    0    0  501    0  0.00000000000E+00  0.00000000000E+00  0.53090054413E+02  0.53090054413E+02  0.00000000000E+00 0. -1.
         -1   -1    0    0    0  501 -0.00000000000E+00 -0.00000000000E+00 -0.44445297827E+03  0.44445297827E+03  0.00000000000E+00 0.  1.
         23    2    1    2    0    0 -0.49018921936E+02 -0.69894647500E+02 -0.28785788441E+03  0.31397223840E+03  0.91805710139E+02 0.  0.
          5    1    1    2  502    0  0.73350602808E+02  0.91952951008E+02 -0.72653880729E+02  0.13831744256E+03  0.41800000000E+01 0.  1.
         -5    1    1    2    0  502 -0.24331680872E+02 -0.22058303508E+02 -0.30851158720E+02  0.45253351722E+02  0.41800000000E+01 0.  1.
        -11    1    3    3    0    0  0.14170336389E+02 -0.49043078139E+02 -0.18125476103E+03  0.18830642672E+03  0.00000000000E+00 0.  1.
         11    1    3    3    0    0 -0.63189258325E+02 -0.20851569361E+02 -0.10660312338E+03  0.12566581169E+03  0.00000000000E+00 0. -1.
</event>
<event>
 8    1  0.6703334E-009  0.1067741E+03  0.7561462E-02  0.1266663E+00
         -1   -1    0    0    0  501 -0.00000000000E+00  0.00000000000E+00  0.27144200969E+03  0.27144200969E+03  0.00000000000E+00 0.  1.
          1   -1    0    0  501    0  0.00000000000E+00 -0.00000000000E+00 -0.65478939320E+02  0.65478939320E+02  0.00000000000E+00 0. -1.
         25    2    1    2    0    0  0.65421580174E+02  0.42338716674E+02  0.11618696511E+03  0.18766790742E+03  0.12508909837E+03 0.  0.
         23    2    1    2    0    0 -0.65421580174E+02 -0.42338716674E+02  0.89776105256E+02  0.14925304159E+03  0.90245062283E+02 0.  0.
          5    1    3    3  502    0  0.12554714714E+02  0.39096633019E+02  0.12692083221E+03  0.13346361910E+03  0.41800000000E+01 0. -1.
         -5    1    3    3    0  502  0.52866865460E+02  0.32420836550E+01 -0.10733867090E+02  0.54204288324E+02  0.41800000000E+01 0. -1.
        -11    1    4    4    0    0  0.17012962529E+02  0.11633995686E+02  0.17790219028E+02  0.27226506252E+02  0.00000000000E+00 0.  1.
         11    1    4    4    0    0 -0.82434542703E+02 -0.53972712360E+02  0.71985886228E+02  0.12202653534E+03  0.00000000000E+00 0. -1.
</event>
<event>
 8    1  0.6703334E-009  0.9996050E+02  0.7561462E-02  0.1280379E+00
         -2   -1    0    0    0  501 -0.00000000000E+00  0.00000000000E+00  0.16458095333E+03  0.16458095333E+03  0.00000000000E+00 0.  1.
          2   -1    0    0  501    0  0.00000000000E+00 -0.00000000000E+00 -0.13826774035E+03  0.13826774035E+03  0.00000000000E+00 0. -1.
         25    2    1    2    0    0  0.73781255955E+02 -0.23842003083E+02 -0.58036407374E+02  0.15820126240E+03  0.12508916821E+03 0.  0.
         23    2    1    2    0    0 -0.73781255955E+02  0.23842003083E+02  0.84349620353E+02  0.14464743129E+03  0.88294428384E+02 0.  0.
          5    1    3    3  502    0  0.20028345201E+02  0.59165156852E+01  0.38323289994E+02  0.43843890399E+02  0.41800000000E+01 0.  1.
         -5    1    3    3    0  502  0.53752910754E+02 -0.29758518768E+02 -0.96359697368E+02  0.11435737200E+03  0.41800000000E+01 0.  1.
        -11    1    4    4    0    0 -0.61965016591E+02 -0.24978504339E+02  0.41722653373E+02  0.78767815538E+02  0.00000000000E+00 0. -1.
         11    1    4    4    0    0 -0.11816239364E+02  0.48820507422E+02  0.42626966980E+02  0.65879615752E+02  0.00000000000E+00 0.  1.
</event>
<event>
 8    1  0.6703334E-009  0.1622153E+03  0.7561462E-02  0.1186218E+00
          1   -1    0    0  501    0  0.00000000000E+00  0.00000000000E+00  0.22314219065E+03  0.22314219065E+03  0.00000000000E+00 0. -1.
         -1   -1    0    0    0  501 -0.00000000000E+00 -0.00000000000E+00 -0.13932825163E+03  0.13932825163E+03  0.00000000000E+00 0.  1.
         25    2    1    2    0    0 -0.12110328831E+03  0.27380736446E+02  0.10627649612E+03  0.20581177996E+03  0.12509230183E+03 0.  0.
         23    2    1    2    0    0  0.12110328831E+03 -0.27380736446E+02 -0.22462557096E+02  0.15665866231E+03  0.92852888156E+02 0.  0.
          5    1    3    3  502    0 -0.74140387401E+02  0.73797053279E+02  0.39742730737E+02  0.11198106609E+03  0.41800000000E+01 0. -1.
         -5    1    3    3    0  502 -0.46962900904E+02 -0.46416316833E+02  0.66533765381E+02  0.93830713871E+02  0.41800000000E+01 0. -1.
        -11    1    4    4    0    0  0.48372800518E+02 -0.57251663736E+02 -0.21699995440E+02  0.78029293426E+02  0.00000000000E+00 0.  1.
         11    1    4    4    0    0  0.72730487787E+02  0.29870927289E+02 -0.76256165586E+00  0.78629368885E+02  0.00000000000E+00 0. -1.
</event>
<event>
 8    1  0.6703334E-009  0.1322323E+03  0.7561462E-02  0.1224180E+00
         -1   -1    0    0    0  501 -0.00000000000E+00  0.00000000000E+00  0.10762761471E+03  0.10762761471E+03  0.00000000000E+00 0.  1.
          1   -1    0    0  501    0  0.00000000000E+00 -0.00000000000E+00 -0.19023038731E+03  0.19023038731E+03  0.00000000000E+00 0. -1.
         25    2    1    2    0    0  0.84334848343E+02 -0.64675368884E+01 -0.84004276622E+02  0.17279341392E+03  0.12508656892E+03 0.  0.
         23    2    1    2    0    0 -0.84334848343E+02  0.64675368884E+01  0.14015040143E+01  0.12506458810E+03  0.92114012530E+02 0.  0.
          5    1    3    3  502    0  0.11094145006E+03  0.17648807331E+02 -0.49541261304E+02  0.12284663086E+03  0.41800000000E+01 0.  1.
         -5    1    3    3    0  502 -0.26606601718E+02 -0.24116344219E+02 -0.34463015318E+02  0.49946783062E+02  0.41800000000E+01 0.  1.
        -11    1    4    4    0    0 -0.82526361982E+02 -0.23554342720E+02  0.22017051578E+02  0.88601117618E+02  0.00000000000E+00 0.  1.
         11    1    4    4    0    0 -0.18084863604E+01  0.30021879608E+02 -0.20615547564E+02  0.36463470481E+02  0.00000000000E+00 0. -1.
</event>
<event>
 8    1  0.6703334E-009  0.9828866E+02  0.7561462E-02  0.1283936E+00
         -1   -1    0    0    0  501 -0.00000000000E+00  0.00000000000E+00  0.25898114603E+02  0.25898114603E+02  0.00000000000E+00 0.  1.
          1   -1    0    0  501    0  0.00000000000E+00 -0.00000000000E+00 -0.45932190234E+03  0.45932190234E+03  0.00000000000E+00 0. -1.
         25    2    1    2    0    0 -0.12070233490E+02 -0.13695271018E+02 -0.23152742059E+03  0.26379169949E+03  0.12509141957E+03 0.  0.
         23    2    1    2    0    0  0.12070233490E+02  0.13695271018E+02 -0.20189636715E+03  0.22142831745E+03  0.89079210362E+02 0.  0.
          5    1    3    3  502    0 -0.60282364067E+02  0.86843770975E+01 -0.17826527361E+03  0.18842866554E+03  0.41800000000E+01 0. -1.
         -5    1    3    3    0  502  0.48212130577E+02 -0.22379648115E+02 -0.53262146980E+02  0.75363033945E+02  0.41800000000E+01 0. -1.
        -11    1    4    4    0    0  0.36511582150E+02 -0.19183081161E+02 -0.14853115800E+03  0.15415119569E+03  0.00000000000E+00 0. -1.
         11    1    4    4    0    0 -0.24441348660E+02  0.32878352179E+02 -0.53365209142E+02  0.67277121766E+02  0.00000000000E+00 0.  1.
</event>
<event>
 8    1  0.6703334E-009  0.1209587E+03  0.7561462E-02  0.1241524E+00
         -2   -1    0    0    0  501 -0.00000000000E+00  0.00000000000E+00  0.43394659046E+02  0.43394659046E+02  0.00000000000E+00 0.  1.
          2   -1    0    0  501    0  0.00000000000E+00 -0.00000000000E+00 -0.78390843188E+03  0.78390843188E+03  0.00000000000E+00 0. -1.
         25    2    1    2    0    0  0.74408936091E+02 -0.78294438371E+02 -0.62049541824E+03  0.64212283634E+03  0.12506184086E+03 0.  0.
         23    2    1    2    0    0 -0.74408936091E+02  0.78294438371E+02 -0.12001835460E+03  0.18518025459E+03  0.90667592890E+02 0.  0.
          5    1    3    3  502    0  0.49760207537E+02 -0.78883418088E+02 -0.19820004191E+03  0.21908765578E+03  0.41800000000E+01 0. -1.
         -5    1    3    3    0  502  0.24648728555E+02  0.58897971711E+00 -0.42229537633E+03  0.42303518055E+03  0.41800000000E+01 0. -1.
        -11    1    4    4    0    0 -0.71535520038E+02  0.34074532028E+02 -0.11627890624E+03  0.14070958886E+03  0.00000000000E+00 0. -1.
         11    1    4    4    0    0 -0.28734160534E+01  0.44219906343E+02 -0.37394483563E+01  0.44470665734E+02  0.00000000000E+00 0.  1.
</event>
<event>
 8    1  0.6703334E-009  0.1369866E+03  0.7561462E-02  0.1217442E+00
         -3   -1    0    0    0  501 -0.00000000000E+00  0.00000000000E+00  0.48124291497E+03  0.48124291497E+03  0.00000000000E+00 0.  1.
          3   -1    0    0  501    0  0.00000000000E+00 -0.00000000000E+00 -0.50477734182E+02  0.50477734182E+02  0.00000000000E+00 0. -1.
         25    2    1    2    0    0 -0.78253280604E+02  0.51791223392E+02  0.12756568018E+03  0.20180458422E+03  0.12508469414E+03 0.  0.
         23    2    1    2    0    0  0.78253280604E+02 -0.51791223392E+02  0.30319950061E+03  0.32991606493E+03  0.90048686747E+02 0.  0.
          5    1    3    3  502    0 -0.10600779589E+03  0.27881464518E+02  0.12274930829E+03  0.16462045419E+03  0.41800000000E+01 0.  1.
         -5    1    3    3    0  502  0.27754515282E+02  0.23909758873E+02  0.48163718893E+01  0.37184130030E+02  0.41800000000E+01 0.  1.
        -11    1    4    4    0    0  0.23121280166E+02  0.24236333924E+02  0.53286911280E+02  0.62940355832E+02  0.00000000000E+00 0.  1.
         11    1    4    4    0    0  0.55132000438E+02 -0.76027557316E+02  0.24991258933E+03  0.26697570910E+03  0.00000000000E+00 0. -1.
</event>
<event>
 8    1  0.6703334E-009  0.4485423E+03  0.7561462E-02  0.1028158E+00
         -2   -1    0    0    0  501 -0.00000000000E+00  0.00000000000E+00  0.15326701255E+03  0.15326701255E+03  0.00000000000E+00 0. -1.
          2   -1    0    0  501    0  0.00000000000E+00 -0.00000000000E+00 -0.16278562333E+04  0.16278562333E+04  0.00000000000E+00 0.  1.
         25    2    1    2    0    0  0.44235644092E+03  0.31584855127E+02 -0.11026321394E+04  0.11950418152E+04  0.12510188351E+03 0.  0.
         23    2    1    2    0    0 -0.44235644092E+03 -0.31584855127E+02 -0.37195708138E+03  0.58608143071E+03  0.91992114523E+02 0.  0.
          5    1    3    3  502    0  0.17575189588E+03 -0.32774483198E+02 -0.33282207017E+03  0.37782389872E+03  0.41800000000E+01 0.  1.
         -5    1    3    3    0  502  0.26660454504E+03  0.64359338325E+02 -0.76981006922E+03  0.81721791643E+03  0.41800000000E+01 0.  1.
        -11    1    4    4    0    0 -0.16849413342E+03 -0.22052603994E+02 -0.87621228572E+02  0.19119118713E+03  0.00000000000E+00 0.  1.
         11    1    4    4    0    0 -0.27386230750E+03 -0.95322511327E+01 -0.28433585280E+03  0.39489024358E+03  0.00000000000E+00 0. -1.
</event>
<event>
 8    1  0.6703334E-009  0.8803839E+02  0.7561462E-02  0.1307673E+00
         -1   -1    0    0    0  501 -0.00000000000E+00  0.00000000000E+00  0.32261516681E+03  0.32261516681E+03  0.00000000000E+00 0.  1.
          1   -1    0    0  501    0  0.00000000000E+00 -0.00000000000E+00 -0.50874368920E+02  0.50874368920E+02  0.00000000000E+00 0. -1.
         25    2    1    2    0    0  0.18946345645E+02  0.50320126495E+02  0.20884556487E+03  0.24930447912E+03  0.12508067077E+03 0.  0.
         23    2    1    2    0    0 -0.18946345645E+02 -0.50320126495E+02  0.62895233021E+02  0.12418505661E+03  0.92601505413E+02 0.  0.
          5    1    3    3  502    0 -0.28383895150E+02 -0.18109446191E+02  0.12745717026E+02  0.36242561275E+02  0.41800000000E+01 0. -1.
         -5    1    3    3    0  502  0.47330240795E+02  0.68429572686E+02  0.19609984784E+03  0.21306191784E+03  0.41800000000E+01 0. -1.
        -11    1    4    4    0    0 -0.14365033661E+02 -0.83371111919E+01  0.77682954465E+02  0.79438674646E+02  0.00000000000E+00 0.  1.
         11    1    4    4    0    0 -0.45813119841E+01 -0.41983015304E+02 -0.14787721444E+02  0.44746381965E+02  0.00000000000E+00 0. -1.
</event>
<event>
 8    1  0.6703334E-009  0.1275370E+03  0.7561462E-02  0.1231157E+00
          3   -1    0    0  501    0  0.00000000000E+00  0.00000000000E+00  0.41732384493E+02  0.41732384493E+02  0.00000000000E+00 0. -1.
         -3   -1    0    0    0  501 -0.00000000000E+00 -0.00000000000E+00 -0.51206512965E+03  0.51206512965E+03  0.00000000000E+00 0.  1.
         25    2    1    2    0    0  0.11364358252E+02 -0.95234909539E+02 -0.22654659293E+03  0.27598483567E+03  0.12508170977E+03 0.  0.
         23    2    1    2    0    0 -0.11364358252E+02  0.95234909539E+02 -0.24378615223E+03  0.27781267848E+03  0.92462747474E+02 0.  0.
          5    1    3    3  502    0 -0.29450650417E+02 -0.14155201108E+02 -0.15999484796E+03  0.16335095440E+03  0.41800000000E+01 0.  1.
         -5    1    3    3    0  502  0.40815008670E+02 -0.81079708430E+02 -0.66551744966E+02  0.11263388127E+03  0.41800000000E+01 0.  1.
        -11    1    4    4    0    0  0.38826222376E+02  0.52790615877E+02 -0.97973605213E+02  0.11786921560E+03  0.00000000000E+00 0.  1.
         11    1    4    4    0    0 -0.50190580629E+02  0.42444293661E+02 -0.14581254702E+03  0.15994346287E+03  0.00000000000E+00 0. -1.
</event>
<event>
 8    1  0.6703334E-009  0.1180198E+03  0.7561462E-02  0.1246400E+00
         -1   -1    0    0    0  501 -0.00000000000E+00  0.00000000000E+00  0.26170941175E+02  0.26170941175E+02  0.00000000000E+00 0.  1.
          1   -1    0    0  501    0  0.00000000000E+00 -0.00000000000E+00 -0.64340725437E+03  0.64340725437E+03  0.00000000000E+00 0. -1.
         25    2    1    2    0    0  0.43813033992E+02 -0.30989708945E+02 -0.40310893967E+03  0.42546974431E+03  0.12509093523E+03 0.  0.
         23    2    1    2    0    0 -0.43813033992E+02  0.30989708945E+02 -0.21412737353E+03  0.24410845124E+03  0.10420393400E+03 0.  0.
          5    1    3    3  502    0  0.40473992098E+02  0.36106103949E+02 -0.89633782791E+02  0.10484980780E+03  0.41800000000E+01 0.  1.
         -5    1    3    3    0  502  0.33390418937E+01 -0.67095812895E+02 -0.31347515687E+03  0.32061993651E+03  0.41800000000E+01 0.  1.
        -11    1    4    4    0    0 -0.36560571938E+02  0.67684138834E+02 -0.11696584809E+03  0.13999581311E+03  0.00000000000E+00 0. -1.
         11    1    4    4    0    0 -0.72524620537E+01 -0.36694429888E+02 -0.97161525446E+02  0.10411263813E+03  0.00000000000E+00 0.  1.
</event>
<event>
 8    1  0.6703334E-009  0.1112026E+03  0.7561462E-02  0.1258359E+00
          1   -1    0    0  501    0  0.00000000000E+00  0.00000000000E+00  0.99797643311E+03  0.99797643311E+03  0.00000000000E+00 0. -1.
         -1   -1    0    0    0  501 -0.00000000000E+00 -0.00000000000E+00 -0.32054599048E+02  0.32054599048E+02  0.00000000000E+00 0.  1.
         25    2    1    2    0    0  0.40797864844E+02  0.46880984576E+02  0.87644613182E+03  0.88750605313E+03  0.12508748887E+03 0.  0.
         23    2    1    2    0    0 -0.40797864844E+02 -0.46880984576E+02  0.89475702247E+02  0.14252497903E+03  0.91897637972E+02 0.  0.
          5    1    3    3  502    0  0.72147670842E+02  0.17346927372E+02  0.28677194910E+03  0.29624622442E+03  0.41800000000E+01 0.  1.
         -5    1    3    3    0  502 -0.31349805998E+02  0.29534057204E+02  0.58967418272E+03  0.59125982871E+03  0.41800000000E+01 0.  1.
        -11    1    4    4    0    0 -0.63281635187E+02 -0.13729030022E+02  0.31376160580E+02  0.71954951671E+02  0.00000000000E+00 0.  1.
         11    1    4    4    0    0  0.22483770344E+02 -0.33151954554E+02  0.58099541668E+02  0.70570027360E+02  0.00000000000E+00 0. -1.
</event>
<event>
 8    1  0.6703334E-009  0.1283417E+03  0.7561462E-02  0.1229937E+00
          1   -1    0    0  501    0  0.00000000000E+00  0.00000000000E+00  0.43163679139E+03  0.43163679139E+03  0.00000000000E+00 0. -1.
         -1   -1    0    0    0  501 -0.00000000000E+00 -0.00000000000E+00 -0.57850663499E+02  0.57850663499E+02  0.00000000000E+00 0.  1.
         25    2    1    2    0    0  0.67546281679E+02  0.64706284781E+02  0.10110721177E+03  0.18606265507E+03  0.12508892789E+03 0.  0.
         23    2    1    2    0    0 -0.67546281679E+02 -0.64706284781E+02  0.27267891613E+03  0.30342479982E+03  0.94675310344E+02 0.  0.
          5    1    3    3  502    0 -0.24979216472E+02  0.43870442596E+01 -0.11602398936E+02  0.28200983564E+02  0.41800000000E+01 0.  1.
         -5    1    3    3    0  502  0.92525498152E+02  0.60319240521E+02  0.11270961070E+03  0.15786167150E+03  0.41800000000E+01 0.  1.
        -11    1    4    4    0    0 -0.42495180136E+02  0.82709176712E+01  0.16734975736E+03  0.17285887222E+03  0.00000000000E+00 0. -1.
         11    1    4    4    0    0 -0.25051101543E+02 -0.72977202452E+02  0.10532915876E+03  0.13056592761E+03  0.00000000000E+00 0.  1.
</event>
<event>
 8    1  0.6703334E-009  0.1375838E+03  0.7561462E-02  0.1216618E+00
          2   -1    0    0  501    0  0.00000000000E+00  0.00000000000E+00  0.27714777414E+02  0.27714777414E+02  0.00000000000E+00 0.  1.
         -2   -1    0    0    0  501 -0.00000000000E+00 -0.00000000000E+00 -0.80082842690E+03  0.80082842690E+03  0.00000000000E+00 0. -1.
         25    2    1    2    0    0  0.61226932607E+02  0.77920631651E+02 -0.38327073864E+03  0.41516751689E+03  0.12508895182E+03 0.  0.
         23    2    1    2    0    0 -0.61226932607E+02 -0.77920631651E+02 -0.38984291085E+03  0.41337568743E+03  0.95297438082E+02 0.  0.
          5    1    3    3  502    0  0.10467979193E+02  0.85457682272E+02 -0.12515198411E+03  0.15196409305E+03  0.41800000000E+01 0.  1.
         -5    1    3    3    0  502  0.50758953414E+02 -0.75370506210E+01 -0.25811875453E+03  0.26320342384E+03  0.41800000000E+01 0.  1.
        -11    1    4    4    0    0 -0.58341600534E+02  0.11579770657E+01 -0.16522632584E+03  0.17522791448E+03  0.00000000000E+00 0.  1.
         11    1    4    4    0    0 -0.28853320731E+01 -0.79078608717E+02 -0.22461658501E+03  0.23814777295E+03  0.00000000000E+00 0. -1.
</event>
<event>
 8    1  0.6703334E-009  0.1542964E+03  0.7561462E-02  0.1195291E+00
         -3   -1    0    0    0  501 -0.00000000000E+00  0.00000000000E+00  0.15182269819E+03  0.15182269819E+03  0.00000000000E+00 0.  1.
          3   -1    0    0  501    0  0.00000000000E+00 -0.00000000000E+00 -0.20301690214E+03  0.20301690214E+03  0.00000000000E+00 0. -1.
         25    2    1    2    0    0  0.12003325815E+03 -0.24949616976E+02 -0.90344719740E+02  0.19708139397E+03  0.12509372892E+03 0.  0.
         23    2    1    2    0    0 -0.12003325815E+03  0.24949616976E+02  0.39150515796E+02  0.15775820636E+03  0.91238272326E+02 0.  0.
          5    1    3    3  502    0  0.10681310512E+03  0.28185752061E+02 -0.28077306704E+02  0.11405824651E+03  0.41800000000E+01 0.  1.
         -5    1    3    3    0  502  0.13220153036E+02 -0.53135369037E+02 -0.62267413035E+02  0.83023147466E+02  0.41800000000E+01 0.  1.
        -11    1    4    4    0    0 -0.12182967832E+03  0.39803956060E+02  0.14584644299E+02  0.12899433045E+03  0.00000000000E+00 0.  1.
         11    1    4    4    0    0  0.17964201709E+01 -0.14854339084E+02  0.24565871497E+02  0.28763875912E+02  0.00000000000E+00 0. -1.
</event>
<event>
 8    1  0.6703334E-009  0.1103646E+03  0.7561462E-02  0.1259896E+00
         -2   -1    0    0    0  501 -0.00000000000E+00  0.00000000000E+00  0.23956286059E+02  0.23956286059E+02  0.00000000000E+00 0.  1.
          2   -1    0    0  501    0  0.00000000000E+00 -0.00000000000E+00 -0.63550333502E+03  0.63550333502E+03  0.00000000000E+00 0. -1.
         25    2    1    2    0    0 -0.44764216268E+02 -0.33481147553E+02 -0.39220434127E+03  0.41544726942E+03  0.12508943223E+03 0.  0.
         23    2    1    2    0    0  0.44764216268E+02  0.33481147553E+02 -0.21934270769E+03  0.24401235166E+03  0.91137160630E+02 0.  0.
          5    1    3    3  502    0 -0.58387298271E+02  0.21414862873E+02 -0.30582824390E+03  0.31211545960E+03  0.41800000000E+01 0. -1.
         -5    1    3    3    0  502  0.13623082003E+02 -0.54896010425E+02 -0.86376097368E+02  0.10333180982E+03  0.41800000000E+01 0. -1.
        -11    1    4    4    0    0  0.14447595079E+02  0.59809530335E+02 -0.16746378106E+03  0.17840972757E+03  0.00000000000E+00 0. -1.
         11    1    4    4    0    0  0.30316621189E+02 -0.26328382782E+02 -0.51878926621E+02  0.65602624091E+02  0.00000000000E+00 0.  1.
</event>
<event>
 8    1  0.6703334E-009  0.1303145E+03  0.7561462E-02  0.1226990E+00
         -3   -1    0    0    0  501 -0.00000000000E+00  0.00000000000E+00  0.51417120072E+02  0.51417120072E+02  0.00000000000E+00 0.  1.
          3   -1    0    0  501    0  0.00000000000E+00 -0.00000000000E+00 -0.49773764311E+03  0.49773764311E+03  0.00000000000E+00 0. -1.
         25    2    1    2    0    0  0.33482166403E+02  0.92570195715E+02 -0.34257325382E+03  0.37774817141E+03  0.12508776984E+03 0.  0.
         23    2    1    2    0    0 -0.33482166403E+02 -0.92570195715E+02 -0.10374726921E+03  0.17140659177E+03  0.94479771552E+02 0.  0.
          5    1    3    3  502    0  0.27889619438E+02 -0.25554390376E+02 -0.56021432218E+02  0.67725408878E+02  0.41800000000E+01 0.  1.
         -5    1    3    3    0  502  0.55925469647E+01  0.11812458609E+03 -0.28655182161E+03  0.31002276253E+03  0.41800000000E+01 0.  1.
        -11    1    4    4    0    0 -0.11282733490E+02 -0.75232495007E+02 -0.14010939739E+02  0.77353311580E+02  0.00000000000E+00 0.  1.
         11    1    4    4    0    0 -0.22199432913E+02 -0.17337700707E+02 -0.89736329475E+02  0.94053280194E+02  0.00000000000E+00 0. -1.
</event>
<event>
 8    1  0.6703334E-009  0.1858621E+03  0.7561462E-02  0.1162247E+00
         -1   -1    0    0    0  501 -0.00000000000E+00  0.00000000000E+00  0.90051130564E+02  0.90051130564E+02  0.00000000000E+00 0.  1.
          1   -1    0    0  501    0  0.00000000000E+00 -0.00000000000E+00 -0.39860170900E+03  0.39860170900E+03  0.00000000000E+00 0. -1.
         25    2    1    2    0    0 -0.15317614495E+03  0.18936010437E+02 -0.18375223882E+03  0.27061605773E+03  0.12508661621E+03 0.  0.
         23    2    1    2    0    0  0.15317614495E+03 -0.18936010437E+02 -0.12479833961E+03  0.21803678183E+03  0.90243608038E+02 0.  0.
          5    1    3    3  502    0 -0.15333700346E+03  0.54546028822E+02 -0.14967291157E+03  0.22114917759E+03  0.41800000000E+01 0. -1.
         -5    1    3    3    0  502  0.16085851040E+00 -0.35610018385E+02 -0.34079327253E+02  0.49466880141E+02  0.41800000000E+01 0. -1.
        -11    1    4    4    0    0  0.27366796557E+02 -0.36941991106E+02 -0.59378608844E+02  0.75096414355E+02  0.00000000000E+00 0. -1.
         11    1    4    4    0    0  0.12580934839E+03  0.18005980669E+02 -0.65419730764E+02  0.14294036748E+03  0.00000000000E+00 0.  1.
</event>
<event>
 8    1  0.6703334E-009  0.1208921E+03  0.7561462E-02  0.1241633E+00
          1   -1    0    0  501    0  0.00000000000E+00  0.00000000000E+00  0.40839237525E+03  0.40839237525E+03  0.00000000000E+00 0. -1.
         -1   -1    0    0    0  501 -0.00000000000E+00 -0.00000000000E+00 -0.45928011668E+02  0.45928011668E+02  0.00000000000E+00 0.  1.
         25    2    1    2    0    0  0.46791208496E+02  0.40287932533E+02  0.11636981761E+03  0.18166525744E+03  0.12509115320E+03 0.  0.
         23    2    1    2    0    0 -0.46791208496E+02 -0.40287932533E+02  0.24609454597E+03  0.27265512948E+03  0.99828650072E+02 0.  0.
          5    1    3    3  502    0  0.84024617957E+02  0.28864288402E+02  0.11082932907E+03  0.14210522914E+03  0.41800000000E+01 0.  1.
         -5    1    3    3    0  502 -0.37233409460E+02  0.11423644131E+02  0.55404885396E+01  0.39560028293E+02  0.41800000000E+01 0.  1.
        -11    1    4    4    0    0  0.87294747313E+01 -0.55437922873E+02  0.15559465370E+03  0.16540635805E+03  0.00000000000E+00 0. -1.
         11    1    4    4    0    0 -0.55520683228E+02  0.15149990341E+02  0.90499892268E+02  0.10724877143E+03  0.00000000000E+00 0.  1.
</event>
<event>
 8    1  0.6703334E-009  0.8360110E+02  0.7561462E-02  0.1319132E+00
          2   -1    0    0  501    0  0.00000000000E+00  0.00000000000E+00  0.17266569996E+03  0.17266569996E+03  0.00000000000E+00 0. -1.
         -2   -1    0    0    0  501 -0.00000000000E+00 -0.00000000000E+00 -0.97325108411E+02  0.97325108411E+02  0.00000000000E+00 0.  1.
         25    2    1    2    0    0  0.24691343972E+02  0.64862451676E+01  0.10898117157E+03  0.16785648392E+03  0.12508864694E+03 0.  0.
         23    2    1    2    0    0 -0.24691343972E+02 -0.64862451676E+01 -0.33640580024E+02  0.10213432445E+03  0.92994611473E+02 0.  0.
          5    1    3    3  502    0  0.47448854815E+02 -0.47990950029E+02  0.67786368775E+02  0.95744395656E+02  0.41800000000E+01 0.  1.
         -5    1    3    3    0  502 -0.22757510843E+02  0.54477195196E+02  0.41194802798E+02  0.72112088264E+02  0.41800000000E+01 0.  1.
        -11    1    4    4    0    0 -0.19072551002E+02  0.11009766606E+02 -0.63423784578E+02  0.67138317023E+02  0.00000000000E+00 0.  1.
         11    1    4    4    0    0 -0.56187929706E+01 -0.17496011773E+02  0.29783204554E+02  0.34996007428E+02  0.00000000000E+00 0. -1.
</event>
<event>
 8    1  0.6703334E-009  0.1019945E+03  0.7561462E-02  0.1276157E+00
          1   -1    0    0  501    0  0.00000000000E+00  0.00000000000E+00  0.57666250226E+03  0.57666250226E+03  0.00000000000E+00 0. -1.
         -1   -1    0    0    0  501 -0.00000000000E+00 -0.00000000000E+00 -0.32029785662E+02  0.32029785662E+02  0.00000000000E+00 0.  1.
         25    2    1    2    0    0  0.25383558082E+02 -0.95887527111E+01  0.12596555308E+03  0.17958610269E+03  0.12509028147E+03 0.  0.
         23    2    1    2    0    0 -0.25383558082E+02  0.95887527111E+01  0.41866716352E+03  0.42910618523E+03  0.90075830237E+02 0.  0.
          5    1    3    3  502    0  0.64924108558E+02 -0.25630435360E+02  0.33231145173E+02  0.77419897302E+02  0.41800000000E+01 0.  1.
         -5    1    3    3    0  502 -0.39540550476E+02  0.16041682649E+02  0.92734407904E+02  0.10216620539E+03  0.41800000000E+01 0.  1.
        -11    1    4    4    0    0 -0.30794951797E+02  0.45461770057E+02  0.30120444369E+03  0.30616861121E+03  0.00000000000E+00 0.  1.
         11    1    4    4    0    0  0.54113937149E+01 -0.35873017346E+02  0.11746271983E+03  0.12293757402E+03  0.00000000000E+00 0. -1.
</event>
<event>
 8    1  0.6703334E-009  0.1377466E+03  0.7561462E-02  0.1216394E+00
         -1   -1    0    0    0  501 -0.00000000000E+00  0.00000000000E+00  0.44836642840E+02  0.44836642840E+02  0.00000000000E+00 0. -1.
          1   -1    0    0  501    0  0.00000000000E+00 -0.00000000000E+00 -0.65416424850E+03  0.65416424850E+03  0.00000000000E+00 0.  1.
         25    2    1    2    0    0  0.76267821593E+02  0.64532588148E+02 -0.14694790654E+03  0.21730721630E+03  0.12508998151E+03 0.  0.
         23    2    1    2    0    0 -0.76267821593E+02 -0.64532588148E+02 -0.46237969912E+03  0.48169367505E+03  0.90843683751E+02 0.  0.
          5    1    3    3  502    0  0.54597744583E+02 -0.16488247925E+02 -0.11316527762E+03  0.12679364531E+03  0.41800000000E+01 0. -1.
         -5    1    3    3    0  502  0.21670077010E+02  0.81020836073E+02 -0.33782628927E+02  0.90513570987E+02  0.41800000000E+01 0. -1.
        -11    1    4    4    0    0 -0.37548048072E+02  0.19134171466E+02 -0.12322093904E+03  0.13022815459E+03  0.00000000000E+00 0.  1.
         11    1    4    4    0    0 -0.38719773521E+02 -0.83666759614E+02 -0.33915876009E+03  0.35146552045E+03  0.00000000000E+00 0. -1.
</event>
<event>
 8    1  0.6703334E-009  0.1669146E+03  0.7561462E-02  0.1181104E+00
          2   -1    0    0  501    0  0.00000000000E+00  0.00000000000E+00  0.45948371193E+02  0.45948371193E+02  0.00000000000E+00 0.  1.
         -2   -1    0    0    0  501 -0.00000000000E+00 -0.00000000000E+00 -0.73132292042E+03  0.73132292042E+03  0.00000000000E+00 0. -1.
         25    2    1    2    0    0 -0.14261466823E+03 -0.21579442782E+02 -0.41849447542E+03  0.45998953076E+03  0.12509247182E+03 0.  0.
         23    2    1    2    0    0  0.14261466823E+03  0.21579442782E+02 -0.26688007380E+03  0.31728176085E+03  0.92941519399E+02 0.  0.
          5    1    3    3  502    0 -0.34045246783E+02  0.47738615648E+02 -0.94353911749E+02  0.11116738422E+03  0.41800000000E+01 0. -1.
         -5    1    3    3    0  502 -0.10856942145E+03 -0.69318058431E+02 -0.32414056367E+03  0.34882214654E+03  0.41800000000E+01 0. -1.
        -11    1    4    4    0    0  0.12016594715E+03  0.91677237820E+01 -0.12704093170E+03  0.17510939535E+03  0.00000000000E+00 0.  1.
         11    1    4    4    0    0  0.22448721085E+02  0.12411719000E+02 -0.13983914210E+03  0.14217236550E+03  0.00000000000E+00 0. -1.
</event>
<event>
 8    1  0.6703334E-009  0.1477099E+03  0.7561462E-02  0.1203316E+00
          2   -1    0    0  501    0  0.00000000000E+00  0.00000000000E+00  0.25044443766E+03  0.25044443766E+03  0.00000000000E+00 0.  1.
         -2   -1    0    0    0  501 -0.00000000000E+00 -0.00000000000E+00 -0.10290982199E+03  0.10290982199E+03  0.00000000000E+00 0. -1.
         25    2    1    2    0    0  0.11021707067E+03  0.14569533675E+02  0.11030787139E+03  0.20043817030E+03  0.12509020602E+03 0.  0.
         23    2    1    2    0    0 -0.11021707067E+03 -0.14569533675E+02  0.37226744273E+02  0.15291608936E+03  0.98170392267E+02 0.  0.
          5    1    3    3  502    0 -0.50641527856E+01  0.31561092580E+02  0.69999570074E+02  0.77065948504E+02  0.41800000000E+01 0.  1.
         -5    1    3    3    0  502  0.11528122345E+03 -0.16991558906E+02  0.40308301318E+02  0.12337222179E+03  0.41800000000E+01 0.  1.
        -11    1    4    4    0    0 -0.12286379868E+03  0.53566984515E+01  0.39593576447E+02  0.12919697574E+03  0.00000000000E+00 0.  1.
         11    1    4    4    0    0  0.12646728016E+02 -0.19926232126E+02 -0.23668321737E+01  0.23719113617E+02  0.00000000000E+00 0. -1.
</event>
<event>
 8    1  0.6703334E-009  0.1136416E+03  0.7561462E-02  0.1253971E+00
          2   -1    0    0  501    0  0.00000000000E+00  0.00000000000E+00  0.10962856181E+04  0.10962856181E+04  0.00000000000E+00 0. -1.
         -2   -1    0    0    0  501 -0.00000000000E+00 -0.00000000000E+00 -0.21904366651E+02  0.21904366651E+02  0.00000000000E+00 0.  1.
         25    2    1    2    0    0  0.30006243358E+02 -0.10187049351E+03  0.63478257154E+03  0.65564832603E+03  0.12509133546E+03 0.  0.
         23    2    1    2    0    0 -0.30006243358E+02  0.10187049351E+03  0.43959867992E+03  0.46254165873E+03  0.97055729277E+02 0.  0.
          5    1    3    3  502    0  0.44897906283E+02 -0.72449002663E+02  0.17532287073E+03  0.19498784931E+03  0.41800000000E+01 0. -1.
         -5    1    3    3    0  502 -0.14891662926E+02 -0.29421490848E+02  0.45945970081E+03  0.46066047672E+03  0.41800000000E+01 0. -1.
        -11    1    4    4    0    0 -0.13779059475E+02  0.15134534839E+02  0.79359975542E+01  0.21952145271E+02  0.00000000000E+00 0.  1.
         11    1    4    4    0    0 -0.16227183882E+02  0.86735958672E+02  0.43166268236E+03  0.44058951346E+03  0.00000000000E+00 0. -1.
</event>
<event>
 8    1  0.6703334E-009  0.8314438E+02  0.7561462E-02  0.1320358E+00
         -1   -1    0    0    0  501 -0.00000000000E+00  0.00000000000E+00  0.42234164803E+02  0.42234164803E+02  0.00000000000E+00 0.  1.
          1   -1    0    0  501    0  0.00000000000E+00 -0.00000000000E+00 -0.35085610720E+03  0.35085610720E+03  0.00000000000E+00 0. -1.
         25    2    1    2    0    0  0.37295464151E+02 -0.17697113113E+02 -0.23206690061E+03  0.26684526124E+03  0.12508879898E+03 0.  0.
         23    2    1    2    0    0 -0.37295464151E+02  0.17697113113E+02 -0.76555041786E+02  0.12624501076E+03  0.91504037400E+02 0.  0.
          5    1    3    3  502    0 -0.11900613927E+02 -0.15403467115E+02  0.82115201603E+01  0.21535850908E+02  0.41800000000E+01 0.  1.
         -5    1    3    3    0  502  0.49196078078E+02 -0.22936459980E+01 -0.24027842077E+03  0.24530941033E+03  0.41800000000E+01 0.  1.
        -11    1    4    4    0    0  0.25556131092E+02 -0.11045963090E+02 -0.37994971752E+02  0.47103577522E+02  0.00000000000E+00 0. -1.
         11    1    4    4    0    0 -0.62851595243E+02  0.28743076202E+02 -0.38560070034E+02  0.79141433239E+02  0.00000000000E+00 0.  1.
</event>
<event>
 8    1  0.6703334E-009  0.1938215E+03  0.7561462E-02  0.1155059E+00
         -2   -1    0    0    0  501 -0.00000000000E+00  0.00000000000E+00  0.48879479278E+02  0.48879479278E+02  0.00000000000E+00 0. -1.
          2   -1    0    0  501    0  0.00000000000E+00 -0.00000000000E+00 -0.88081851939E+03  0.88081851939E+03  0.00000000000E+00 0.  1.
         25    2    1    2    0    0 -0.11711709502E+03  0.12813379419E+03 -0.50235305970E+03  0.54602231632E+03  0.12508832948E+03 0.  0.
         23    2    1    2    0    0  0.11711709502E+03 -0.12813379419E+03 -0.32958598041E+03  0.38367568235E+03  0.91899007509E+02 0.  0.
          5    1    3    3  502    0 -0.13867940761E+03  0.78342191489E+02 -0.38483144104E+03  0.41651192957E+03  0.41800000000E+01 0.  1.
         -5    1    3    3    0  502  0.21562312592E+02  0.49791602699E+02 -0.11752161866E+03  0.12951038675E+03  0.41800000000E+01 0.  1.
        -11    1    4    4    0    0  0.96919239483E+02 -0.10004041605E+03 -0.16707074914E+03  0.21751795109E+03  0.00000000000E+00 0. -1.
         11    1    4    4    0    0  0.20197855536E+02 -0.28093378139E+02 -0.16251523127E+03  0.16615773126E+03  0.00000000000E+00 0.  1.
</event>
<event>
 8    1  0.6703334E-009  0.1750258E+03  0.7561462E-02  0.1172706E+00
          2   -1    0    0  501    0  0.00000000000E+00  0.00000000000E+00  0.30566569453E+03  0.30566569453E+03  0.00000000000E+00 0.  1.
         -2   -1    0    0    0  501 -0.00000000000E+00 -0.00000000000E+00 -0.11740909151E+03  0.11740909151E+03  0.00000000000E+00 0. -1.
         25    2    1    2    0    0 -0.14901655210E+03 -0.30116189070E+02  0.47171720630E+02  0.20244927594E+03  0.12509044910E+03 0.  0.
         23    2    1    2    0    0  0.14901655210E+03  0.30116189070E+02  0.14108488239E+03  0.22062551011E+03  0.75218043221E+02 0.  0.
          5    1    3    3  502    0 -0.16075068859E+03 -0.15901622895E+02  0.11399371448E+02  0.16199093667E+03  0.41800000000E+01 0. -1.
         -5    1    3    3    0  502  0.11734136485E+02 -0.14214566174E+02  0.35772349181E+02  0.40458339271E+02  0.41800000000E+01 0. -1.
        -11    1    4    4    0    0  0.16002244357E+02  0.32827513793E+02  0.28059013518E+02  0.46054595057E+02  0.00000000000E+00 0. -1.
         11    1    4    4    0    0  0.13301430775E+03 -0.27113247230E+01  0.11302586887E+03  0.17457091505E+03  0.00000000000E+00 0.  1.
</event>
<event>
 8    1  0.6703334E-009  0.1619524E+03  0.7561462E-02  0.1186510E+00
          2   -1    0    0  501    0  0.00000000000E+00  0.00000000000E+00  0.94227882071E+02  0.94227882071E+02  0.00000000000E+00 0. -1.
         -2   -1    0    0    0  501 -0.00000000000E+00 -0.00000000000E+00 -0.43372568606E+03  0.43372568606E+03  0.00000000000E+00 0.  1.
         25    2    1    2    0    0  0.93764146696E+02 -0.12598169415E+03 -0.98349352268E+02  0.22357015702E+03  0.12509163663E+03 0.  0.
         23    2    1    2    0    0 -0.93764146696E+02  0.12598169415E+03 -0.24114845172E+03  0.30438341111E+03  0.99164422682E+02 0.  0.
          5    1    3    3  502    0  0.35551532030E+02 -0.90747145026E+02  0.73105200069E+01  0.97825721888E+02  0.41800000000E+01 0. -1.
         -5    1    3    3    0  502  0.58212614665E+02 -0.35234549119E+02 -0.10565987228E+03  0.12574443513E+03  0.41800000000E+01 0. -1.
        -11    1    4    4    0    0 -0.59181892578E+02  0.93978446481E+02 -0.81036237762E+02  0.13748205935E+03  0.00000000000E+00 0. -1.
         11    1    4    4    0    0 -0.34582254118E+02  0.32003247664E+02 -0.16011221396E+03  0.16690135176E+03  0.00000000000E+00 0.  1.
</event>
<event>
 8    1  0.6703334E-009  0.1209406E+03  0.7561462E-02  0.1241553E+00
          4   -1    0    0  501    0  0.00000000000E+00  0.00000000000E+00  0.22443084612E+02  0.22443084612E+02  0.00000000000E+00 0. -1.
         -4   -1    0    0    0  501 -0.00000000000E+00 -0.00000000000E+00 -0.78485287446E+03  0.78485287446E+03  0.00000000000E+00 0.  1.
         25    2    1    2    0    0  0.67363771155E+01  0.59801690054E+02 -0.27724181265E+03  0.31005286792E+03  0.12509251502E+03 0.  0.
         23    2    1    2    0    0 -0.67363771155E+01 -0.59801690054E+02 -0.48516797719E+03  0.49724309115E+03  0.90780530345E+02 0.  0.
          5    1    3    3  502    0 -0.46502502616E+02 -0.12632518508E+02 -0.10915374119E+03  0.11939043047E+03  0.41800000000E+01 0.  1.
         -5    1    3    3    0  502  0.53238879732E+02  0.72434208561E+02 -0.16808807146E+03  0.19066243745E+03  0.41800000000E+01 0.  1.
        -11    1    4    4    0    0 -0.38060785593E+02 -0.24103290130E+01 -0.11007961058E+03  0.11649872854E+03  0.00000000000E+00 0.  1.
         11    1    4    4    0    0  0.31324408478E+02 -0.57391361041E+02 -0.37508836661E+03  0.38074436261E+03  0.00000000000E+00 0. -1.
</event>
<event>
 8    1  0.6703334E-009  0.9309751E+02  0.7561462E-02  0.1295519E+00
         -1   -1    0    0    0  501 -0.00000000000E+00  0.00000000000E+00  0.12416836731E+03  0.12416836731E+03  0.00000000000E+00 0.  1.
          1   -1    0    0  501    0  0.00000000000E+00 -0.00000000000E+00 -0.14669146719E+03  0.14669146719E+03  0.00000000000E+00 0. -1.
         25    2    1    2    0    0  0.71327252547E+02 -0.36456424444E+02 -0.28947063974E+01  0.14857032897E+03  0.12509242778E+03 0.  0.
         23    2    1    2    0    0 -0.71327252547E+02  0.36456424444E+02 -0.19628393480E+02  0.12228950552E+03  0.90292865117E+02 0.  0.
          5    1    3    3  502    0  0.30930545110E+02 -0.31035451283E+02  0.59447876261E+02  0.73969049265E+02  0.41800000000E+01 0.  1.
         -5    1    3    3    0  502  0.40396707438E+02 -0.54209731613E+01 -0.62342582659E+02  0.74601279710E+02  0.41800000000E+01 0.  1.
        -11    1    4    4    0    0 -0.82716737587E+02  0.29285488234E+02  0.11383271084E+02  0.88483203822E+02  0.00000000000E+00 0.  1.
         11    1    4    4    0    0  0.11389485040E+02  0.71709362100E+01 -0.31011664564E+02  0.33806301700E+02  0.00000000000E+00 0. -1.
</event>
<event>
 8    1  0.6703334E-009  0.2058912E+03  0.7561462E-02  0.1144862E+00
          2   -1    0    0  501    0  0.00000000000E+00  0.00000000000E+00  0.11448079823E+03  0.11448079823E+03  0.00000000000E+00 0. -1.
         -2   -1    0    0    0  501 -0.00000000000E+00 -0.00000000000E+00 -0.44061399125E+03  0.44061399125E+03  0.00000000000E+00 0.  1.
         25    2    1    2    0    0  0.18659639956E+03  0.29794091477E+02 -0.10467860299E+03  0.24962051680E+03  0.12508752242E+03 0.  0.
         23    2    1    2    0    0 -0.18659639956E+03 -0.29794091477E+02 -0.22145459003E+03  0.30547427269E+03  0.92555343508E+02 0.  0.
          5    1    3    3  502    0  0.20066683808E+03  0.15890323962E+02 -0.77483270422E+02  0.21573319609E+03  0.41800000000E+01 0.  1.
         -5    1    3    3    0  502 -0.14070438518E+02  0.13903767515E+02 -0.27195332567E+02  0.33887320706E+02  0.41800000000E+01 0.  1.
        -11    1    4    4    0    0 -0.83284376621E+02 -0.22914702792E+01 -0.34637110833E+02  0.90228973573E+02  0.00000000000E+00 0. -1.
         11    1    4    4    0    0 -0.10331202294E+03 -0.27502621198E+02 -0.18681747920E+03  0.21524529911E+03  0.00000000000E+00 0.  1.
</event>
<event>
 8    1  0.6703334E-009  0.1325884E+03  0.7561462E-02  0.1223665E+00
         -2   -1    0    0    0  501 -0.00000000000E+00  0.00000000000E+00  0.12292467475E+03  0.12292467475E+03  0.00000000000E+00 0. -1.
          2   -1    0    0  501    0  0.00000000000E+00 -0.00000000000E+00 -0.21675327587E+03  0.21675327587E+03  0.00000000000E+00 0.  1.
         25    2    1    2    0    0 -0.80218183382E+02 -0.58382689643E+02  0.22696114167E+02  0.16126615341E+03  0.12509261865E+03 0.  0.
         23    2    1    2    0    0  0.80218183382E+02  0.58382689643E+02 -0.11652471529E+03  0.17841179721E+03  0.91702043138E+02 0.  0.
          5    1    3    3  502    0 -0.96947379269E+02 -0.52341553371E+00  0.79420749648E+00  0.97042111872E+02  0.41800000000E+01 0.  1.
         -5    1    3    3    0  502  0.16729195888E+02 -0.57859274109E+02  0.21901906670E+02  0.64224041536E+02  0.41800000000E+01 0.  1.
        -11    1    4    4    0    0  0.36641363170E+02  0.22618643612E+01  0.55859935558E+01  0.37133661944E+02  0.00000000000E+00 0. -1.
         11    1    4    4    0    0  0.43576820211E+02  0.56120825281E+02 -0.12211070884E+03  0.14127813526E+03  0.00000000000E+00 0.  1.
</event>
<event>
 8    1  0.6703334E-009  0.2560977E+03  0.7561462E-02  0.1109511E+00
          1   -1    0    0  501    0  0.00000000000E+00  0.00000000000E+00  0.15450570051E+04  0.15450570051E+04  0.00000000000E+00 0. -1.
         -1   -1    0    0    0  501 -0.00000000000E+00 -0.00000000000E+00 -0.48802976956E+02  0.48802976956E+02  0.00000000000E+00 0.  1.
         25    2    1    2    0    0  0.45766431927E+02  0.23654125371E+03  0.55068657400E+03  0.61396245806E+03  0.12509143105E+03 0.  0.
         23    2    1    2    0    0 -0.45766431927E+02 -0.23654125371E+03  0.94556745414E+03  0.97989752399E+03  0.89749742065E+02 0.  0.
          5    1    3    3  502    0 -0.23788554413E+02  0.17939013670E+03  0.38184375549E+03  0.42257406744E+03  0.41800000000E+01 0.  1.
         -5    1    3    3    0  502  0.69554986341E+02  0.57151117011E+02  0.16884281851E+03  0.19138839062E+03  0.41800000000E+01 0.  1.
        -11    1    4    4    0    0 -0.23885652118E+02 -0.10212354565E+03  0.24974892202E+03  0.27087684841E+03  0.00000000000E+00 0.  1.
         11    1    4    4    0    0 -0.21880779809E+02 -0.13441770806E+03  0.69581853211E+03  0.70902067558E+03  0.00000000000E+00 0. -1.
</event>
<event>
 8    1  0.6703334E-009  0.1003874E+03  0.7561462E-02  0.1279483E+00
         -1   -1    0    0    0  501 -0.00000000000E+00  0.00000000000E+00  0.35935589190E+03  0.35935589190E+03  0.00000000000E+00 0.  1.
          1   -1    0    0  501    0  0.00000000000E+00 -0.00000000000E+00 -0.42248932060E+02  0.42248932060E+02  0.00000000000E+00 0. -1.
         25    2    1    2    0    0 -0.46361138395E+02 -0.16166714286E+01  0.12025675727E+03  0.17961340044E+03  0.12508923681E+03 0.  0.
         23    2    1    2    0    0  0.46361138395E+02  0.16166714286E+01  0.19685020257E+03  0.22199142353E+03  0.91532623080E+02 0.  0.
          5    1    3    3  502    0 -0.24330127724E+02  0.53001325751E+02  0.17378097493E+02  0.60996445133E+02  0.41800000000E+01 0.  1.
         -5    1    3    3    0  502 -0.22031010671E+02 -0.54617997180E+02  0.10287865978E+03  0.11861695530E+03  0.41800000000E+01 0.  1.
        -11    1    4    4    0    0  0.64780921085E+02  0.85861464932E-01  0.19235341727E+03  0.20296899330E+03  0.00000000000E+00 0.  1.
         11    1    4    4    0    0 -0.18419782690E+02  0.15308099637E+01  0.44967853034E+01  0.19022430223E+02  0.00000000000E+00 0. -1.
</event>
<event>
 8    1  0.6703334E-009  0.1479387E+03  0.7561462E-02  0.1203029E+00
         -1   -1    0    0    0  501 -0.00000000000E+00  0.00000000000E+00  0.24580735961E+02  0.24580735961E+02  0.00000000000E+00 0.  1.
          1   -1    0    0  501    0  0.00000000000E+00 -0.00000000000E+00 -0.91925180592E+03  0.91925180592E+03  0.00000000000E+00 0. -1.
         25    2    1    2    0    0 -0.45040802094E+02 -0.90829114859E+02 -0.41264871641E+03  0.44295179371E+03  0.12509486974E+03 0.  0.
         23    2    1    2    0    0  0.45040802094E+02  0.90829114859E+02 -0.48202235355E+03  0.50088074817E+03  0.90870086435E+02 0.  0.
          5    1    3    3  502    0  0.13191791381E+01 -0.11003670358E+03 -0.29948769382E+03  0.31909272558E+03  0.41800000000E+01 0. -1.
         -5    1    3    3    0  502 -0.46359981232E+02  0.19207588721E+02 -0.11316102259E+03  0.12385906813E+03  0.41800000000E+01 0. -1.
        -11    1    4    4    0    0  0.47839822368E+02  0.34389881492E+01 -0.14642001741E+03  0.15407562021E+03  0.00000000000E+00 0.  1.
         11    1    4    4    0    0 -0.27990202741E+01  0.87390126710E+02 -0.33560233614E+03  0.34680512796E+03  0.00000000000E+00 0. -1.
</event>
<event>
 8    1  0.6703334E-009  0.1209863E+03  0.7561462E-02  0.1241479E+00
          1   -1    0    0  501    0  0.00000000000E+00  0.00000000000E+00  0.98895011334E+02  0.98895011334E+02  0.00000000000E+00 0. -1.
         -1   -1    0    0    0  501 -0.00000000000E+00 -0.00000000000E+00 -0.15161665282E+03  0.15161665282E+03  0.00000000000E+00 0.  1.
         25    2    1    2    0    0  0.50580810891E+02 -0.23702301225E+02 -0.40554383157E+02  0.14287123946E+03  0.12508923039E+03 0.  0.
         23    2    1    2    0    0 -0.50580810891E+02  0.23702301225E+02 -0.12167258329E+02  0.10764042469E+03  0.91204173911E+02 0.  0.
          5    1    3    3  502    0  0.67191321492E+02 -0.64197612312E+02 -0.27195336624E+02  0.96917830375E+02  0.41800000000E+01 0.  1.
         -5    1    3    3    0  502 -0.16610510601E+02  0.40495311087E+02 -0.13359046534E+02  0.45953409087E+02  0.41800000000E+01 0.  1.
        -11    1    4    4    0    0  0.10169143288E+02  0.40656005558E+02 -0.14983035418E+02  0.44506332286E+02  0.00000000000E+00 0. -1.
         11    1    4    4    0    0 -0.60749954179E+02 -0.16953704333E+02  0.28157770887E+01  0.63134092406E+02  0.00000000000E+00 0.  1.
</event>
<event>
 8    1  0.6703334E-009  0.1197055E+03  0.7561462E-02  0.1243584E+00
         -2   -1    0    0    0  501 -0.00000000000E+00  0.00000000000E+00  0.93374420870E+02  0.93374420870E+02  0.00000000000E+00 0.  1.
          2   -1    0    0  501    0  0.00000000000E+00 -0.00000000000E+00 -0.20342179364E+03  0.20342179364E+03  0.00000000000E+00 0. -1.
         25    2    1    2    0    0  0.10585205904E+02  0.78252871740E+02 -0.97041708399E+02  0.17691582778E+03  0.12508620400E+03 0.  0.
         23    2    1    2    0    0 -0.10585205904E+02 -0.78252871740E+02 -0.13005664375E+02  0.11988038673E+03  0.89255819407E+02 0.  0.
          5    1    3    3  502    0 -0.16948915887E+02  0.89509985812E+02 -0.18810930310E+02  0.93116200571E+02  0.41800000000E+01 0.  1.
         -5    1    3    3    0  502  0.27534121791E+02 -0.11257114072E+02 -0.78230778089E+02  0.83799627210E+02  0.41800000000E+01 0.  1.
        -11    1    4    4    0    0 -0.49069228675E+02 -0.34949504768E+02  0.11069485441E+01  0.60253484724E+02  0.00000000000E+00 0.  1.
         11    1    4    4    0    0  0.38484022772E+02 -0.43303366972E+02 -0.14112612919E+02  0.59626902009E+02  0.00000000000E+00 0. -1.
</event>
<event>
 8    1  0.6703334E-009  0.5743153E+02  0.7561462E-02  0.1408938E+00
          1   -1    0    0  501    0  0.00000000000E+00  0.00000000000E+00  0.26683714241E+03  0.26683714241E+03  0.00000000000E+00 0. -1.
         -1   -1    0    0    0  501 -0.00000000000E+00 -0.00000000000E+00 -0.46504583604E+02  0.46504583604E+02  0.00000000000E+00 0.  1.
         25    2    1    2    0    0  0.76563656475E+00 -0.11610835852E+02  0.15866431435E+03  0.20237969391E+03  0.12509107942E+03 0.  0.
         23    2    1    2    0    0 -0.76563656475E+00  0.11610835852E+02  0.61668244453E+02  0.11096203210E+03  0.91510668699E+02 0.  0.
          5    1    3    3  502    0  0.23088971528E+02 -0.95092227195E+01  0.17339133748E+03  0.17523000382E+03  0.41800000000E+01 0. -1.
         -5    1    3    3    0  502 -0.22323334963E+02 -0.21016131322E+01 -0.14727023135E+02  0.27149690091E+02  0.41800000000E+01 0. -1.
        -11    1    4    4    0    0 -0.24052120288E+02 -0.17290050853E+02 -0.91538943333E+01  0.31003937335E+02  0.00000000000E+00 0.  1.
         11    1    4    4    0    0  0.23286483723E+02  0.28900886705E+02  0.70822138786E+02  0.79958094767E+02  0.00000000000E+00 0. -1.
</event>
<event>
 8    1  0.6703334E-009  0.9430586E+02  0.7561462E-02  0.1292747E+00
          1   -1    0    0  501    0  0.00000000000E+00  0.00000000000E+00  0.16596621859E+03  0.16596621859E+03  0.00000000000E+00 0. -1.
         -1   -1    0    0    0  501 -0.00000000000E+00 -0.00000000000E+00 -0.75906103830E+02  0.75906103830E+02  0.00000000000E+00 0.  1.
         25    2    1    2    0    0  0.15234357599E+02 -0.15304295534E+02  0.73293504794E+02  0.14657963160E+03  0.12508934183E+03 0.  0.
         23    2    1    2    0    0 -0.15234357599E+02  0.15304295534E+02  0.16766609969E+02  0.95292690827E+02  0.91286749323E+02 0.  0.
          5    1    3    3  502    0 -0.49780580969E+02 -0.30225415772E+02  0.46222748923E+02  0.74469436134E+02  0.41800000000E+01 0.  1.
         -5    1    3    3    0  502  0.65014938568E+02  0.14921120238E+02  0.27070755871E+02  0.72110195462E+02  0.41800000000E+01 0.  1.
        -11    1    4    4    0    0  0.23095856035E+02  0.73864049397E+01  0.42161070191E+02  0.48636749312E+02  0.00000000000E+00 0. -1.
         11    1    4    4    0    0 -0.38330213634E+02  0.79178905947E+01 -0.25394460223E+02  0.46655941515E+02  0.00000000000E+00 0.  1.
</event>
<event>
 8    1  0.6703334E-009  0.1217234E+03  0.7561462E-02  0.1240281E+00
         -1   -1    0    0    0  501 -0.00000000000E+00  0.00000000000E+00  0.11181538177E+03  0.11181538177E+03  0.00000000000E+00 0.  1.
          1   -1    0    0  501    0  0.00000000000E+00 -0.00000000000E+00 -0.17389182617E+03  0.17389182617E+03  0.00000000000E+00 0. -1.
         25    2    1    2    0    0 -0.74863979885E+02  0.12245857579E+02  0.12183337847E+02  0.14680086533E+03  0.12508990298E+03 0.  0.
         23    2    1    2    0    0  0.74863979885E+02 -0.12245857579E+02 -0.74259782246E+02  0.13890634261E+03  0.89587277256E+02 0.  0.
          5    1    3    3  502    0  0.23534342938E+02 -0.28602468857E+02 -0.84003244038E+01  0.38210003564E+02  0.41800000000E+01 0.  1.
         -5    1    3    3    0  502 -0.98398322822E+02  0.40848326436E+02  0.20583662251E+02  0.10859086176E+03  0.41800000000E+01 0.  1.
        -11    1    4    4    0    0  0.29407828786E+02  0.26677747509E+02  0.45335621172E+01  0.39963430678E+02  0.00000000000E+00 0.  1.
         11    1    4    4    0    0  0.45456151098E+02 -0.38923605088E+02 -0.78793344363E+02  0.98942911932E+02  0.00000000000E+00 0. -1.
</event>
<event>
 8    1  0.6703334E-009  0.9525681E+02  0.7561462E-02  0.1290599E+00
         -1   -1    0    0    0  501 -0.00000000000E+00  0.00000000000E+00  0.25854242496E+03  0.25854242496E+03  0.00000000000E+00 0.  1.
          1   -1    0    0  501    0  0.00000000000E+00 -0.00000000000E+00 -0.50102008084E+02  0.50102008084E+02  0.00000000000E+00 0. -1.
         25    2    1    2    0    0 -0.12613041770E+02  0.16292781345E+02  0.16034806382E+03  0.20440997998E+03  0.12508954711E+03 0.  0.
         23    2    1    2    0    0  0.12613041770E+02 -0.16292781345E+02  0.48092353052E+02  0.10423445307E+03  0.90152111665E+02 0.  0.
          5    1    3    3  502    0  0.95332762372E+01 -0.38949933433E+02  0.84200314141E+01  0.41186769711E+02  0.41800000000E+01 0.  1.
         -5    1    3    3    0  502 -0.22146318007E+02  0.55242714778E+02  0.15192803241E+03  0.16322321026E+03  0.41800000000E+01 0.  1.
        -11    1    4    4    0    0  0.32619703224E+01 -0.52773106449E+02  0.17436138291E+02  0.55674591450E+02  0.00000000000E+00 0. -1.
         11    1    4    4    0    0  0.93510714472E+01  0.36480325103E+02  0.30656214762E+02  0.48559861618E+02  0.00000000000E+00 0.  1.
</event>
<event>
 8    1  0.6703334E-009  0.8096331E+02  0.7561462E-02  0.1326340E+00
          1   -1    0    0  501    0  0.00000000000E+00  0.00000000000E+00  0.74483168352E+02  0.74483168352E+02  0.00000000000E+00 0. -1.
         -1   -1    0    0    0  501 -0.00000000000E+00 -0.00000000000E+00 -0.19003316239E+03  0.19003316239E+03  0.00000000000E+00 0.  1.
         25    2    1    2    0    0  0.40089957777E+02 -0.27550247848E+02 -0.77928703475E+02  0.15519770812E+03  0.12508886805E+03 0.  0.
         23    2    1    2    0    0 -0.40089957777E+02  0.27550247848E+02 -0.37621290559E+02  0.10931862262E+03  0.90382403577E+02 0.  0.
          5    1    3    3  502    0  0.23030620433E+02  0.43869494474E+01 -0.10634649942E+03  0.10898029703E+03  0.41800000000E+01 0. -1.
         -5    1    3    3    0  502  0.17059337344E+02 -0.31937197295E+02  0.28417795941E+02  0.46217411090E+02  0.41800000000E+01 0. -1.
        -11    1    4    4    0    0 -0.41333980978E+02 -0.25521058374E+02 -0.10475064096E+02  0.49694560787E+02  0.00000000000E+00 0.  1.
         11    1    4    4    0    0  0.12440232005E+01  0.53071306222E+02 -0.27146226463E+02  0.59624061830E+02  0.00000000000E+00 0. -1.
</event>
<event>
 8    1  0.6703334E-009  0.1222000E+03  0.7561462E-02  0.1239511E+00
          2   -1    0    0  501    0  0.00000000000E+00  0.00000000000E+00  0.20155797186E+03  0.20155797186E+03  0.00000000000E+00 0. -1.
         -2   -1    0    0    0  501 -0.00000000000E+00 -0.00000000000E+00 -0.76203332098E+02  0.76203332098E+02  0.00000000000E+00 0.  1.
         25    2    1    2    0    0  0.21469119976E+02 -0.56554519262E+02  0.80276810971E+02  0.16048452266E+03  0.12510627032E+03 0.  0.
         23    2    1    2    0    0 -0.21469119976E+02  0.56554519262E+02  0.45077828788E+02  0.11727678129E+03  0.89791402821E+02 0.  0.
          5    1    3    3  502    0  0.71603591357E+02 -0.44603200790E+02  0.64962996498E+02  0.10655600936E+03  0.41800000000E+01 0. -1.
         -5    1    3    3    0  502 -0.50134471381E+02 -0.11951318471E+02  0.15313814473E+02  0.53928513308E+02  0.41800000000E+01 0. -1.
        -11    1    4    4    0    0 -0.34920856330E+02 -0.13092402600E+02  0.17031825639E+02  0.40999515817E+02  0.00000000000E+00 0. -1.
         11    1    4    4    0    0  0.13451736354E+02  0.69646921862E+02  0.28046003149E+02  0.76277265475E+02  0.00000000000E+00 0.  1.
</event>
<event>
 8    1  0.6703334E-009  0.9758074E+02  0.7561462E-02  0.1285467E+00
          4   -1    0    0  501    0  0.00000000000E+00  0.00000000000E+00  0.25476685740E+02  0.25476685740E+02  0.00000000000E+00 0. -1.
         -4   -1    0    0    0  501 -0.00000000000E+00 -0.00000000000E+00 -0.60577514559E+03  0.60577514559E+03  0.00000000000E+00 0.  1.
         25    2    1    2    0    0  0.25305097835E+02  0.10854489051E+02 -0.18805642763E+03  0.22753425615E+03  0.12509376418E+03 0.  0.
         23    2    1    2    0    0 -0.25305097835E+02 -0.10854489051E+02 -0.39224203222E+03  0.40371757519E+03  0.91519947371E+02 0.  0.
          5    1    3    3  502    0 -0.35950631309E+02  0.12502488354E+02 -0.15104804469E+03  0.15582600653E+03  0.41800000000E+01 0. -1.
         -5    1    3    3    0  502  0.61255729144E+02 -0.16479993023E+01 -0.37008382945E+02  0.71708249616E+02  0.41800000000E+01 0. -1.
        -11    1    4    4    0    0  0.33950964194E+02 -0.12478262548E+02 -0.13884905709E+03  0.14348322431E+03  0.00000000000E+00 0. -1.
         11    1    4    4    0    0 -0.59256062029E+02  0.16237734969E+01 -0.25339297513E+03  0.26023435087E+03  0.00000000000E+00 0.  1.
</event>
<event>
 8    1  0.6703334E-009  0.1121597E+03  0.7561462E-02  0.1256622E+00
          2   -1    0    0  501    0  0.00000000000E+00  0.00000000000E+00  0.50110277503E+02  0.50110277503E+02  0.00000000000E+00 0. -1.
         -2   -1    0    0    0  501 -0.00000000000E+00 -0.00000000000E+00 -0.33222899526E+03  0.33222899526E+03  0.00000000000E+00 0.  1.
         25    2    1    2    0    0  0.37128436785E+01  0.67979333374E+02 -0.13326105711E+03  0.19503972250E+03  0.12508800517E+03 0.  0.
         23    2    1    2    0    0 -0.37128436785E+01 -0.67979333374E+02 -0.14885766065E+03  0.18729955026E+03  0.91035945763E+02 0.  0.
          5    1    3    3  502    0  0.14969475832E+02 -0.35231481221E+02 -0.35795174054E+02  0.52574797777E+02  0.41800000000E+01 0.  1.
         -5    1    3    3    0  502 -0.11256632153E+02  0.10321081460E+03 -0.97465883057E+02  0.14246492472E+03  0.41800000000E+01 0.  1.
        -11    1    4    4    0    0 -0.17948083350E+02 -0.69649732653E+01 -0.11397680388E+03  0.11559133346E+03  0.00000000000E+00 0.  1.
         11    1    4    4    0    0  0.14235239672E+02 -0.61014360108E+02 -0.34880856767E+02  0.71708216801E+02  0.00000000000E+00 0. -1.
</event>
<event>
 8    1  0.6703334E-009  0.1908747E+03  0.7561462E-02  0.1157675E+00
          2   -1    0    0  501    0  0.00000000000E+00  0.00000000000E+00  0.52711381674E+03  0.52711381674E+03  0.00000000000E+00 0. -1.
         -2   -1    0    0    0  501 -0.00000000000E+00 -0.00000000000E+00 -0.86251403895E+02  0.86251403895E+02  0.00000000000E+00 0.  1.
         25    2    1    2    0    0  0.14843460204E+03 -0.95863746894E+02  0.29834813597E+03  0.36861571123E+03  0.12507295180E+03 0.  0.
         23    2    1    2    0    0 -0.14843460204E+03  0.95863746894E+02  0.14251427687E+03  0.24474950941E+03  0.91483955935E+02 0.  0.
          5    1    3    3  502    0  0.17476691501E+02 -0.68959658784E+02  0.16505387938E+03  0.17978076867E+03  0.41800000000E+01 0.  1.
         -5    1    3    3    0  502  0.13095791054E+03 -0.26904088109E+02  0.13329425660E+03  0.18883494256E+03  0.41800000000E+01 0.  1.
        -11    1    4    4    0    0 -0.89019775497E+02  0.59362122789E+02  0.27875718545E+02  0.11056870143E+03  0.00000000000E+00 0.  1.
         11    1    4    4    0    0 -0.59414826539E+02  0.36501624105E+02  0.11463855832E+03  0.13418080798E+03  0.00000000000E+00 0. -1.
</event>
<event>
 8    1  0.6703334E-009  0.1823200E+03  0.7561462E-02  0.1165576E+00
         -1   -1    0    0    0  501 -0.00000000000E+00  0.00000000000E+00  0.62093436443E+02  0.62093436443E+02  0.00000000000E+00 0.  1.
          1   -1    0    0  501    0  0.00000000000E+00 -0.00000000000E+00 -0.61158261581E+03  0.61158261581E+03  0.00000000000E+00 0. -1.
         25    2    1    2    0    0 -0.36132429808E+02 -0.15724018258E+03 -0.27513701990E+03  0.34259915434E+03  0.12507507080E+03 0.  0.
         23    2    1    2    0    0  0.36132429808E+02  0.15724018258E+03 -0.27435215947E+03  0.33107689791E+03  0.91174434048E+02 0.  0.
          5    1    3    3  502    0  0.45900629797E+02 -0.47723601875E+02 -0.10529524815E+03  0.12445469728E+03  0.41800000000E+01 0.  1.
         -5    1    3    3    0  502 -0.82033059606E+02 -0.10951658070E+03 -0.16984177174E+03  0.21814445706E+03  0.41800000000E+01 0.  1.
        -11    1    4    4    0    0  0.22942864169E+02  0.90291710675E+02 -0.72632879285E+02  0.11812918008E+03  0.00000000000E+00 0.  1.
         11    1    4    4    0    0  0.13189565639E+02  0.66948471902E+02 -0.20171928018E+03  0.21294771783E+03  0.00000000000E+00 0. -1.
</event>
<event>
 8    1  0.6703334E-009  0.1073609E+03  0.7561462E-02  0.1265537E+00
          2   -1    0    0  501    0  0.00000000000E+00  0.00000000000E+00  0.43349845151E+03  0.43349845151E+03  0.00000000000E+00 0. -1.
         -2   -1    0    0    0  501 -0.00000000000E+00 -0.00000000000E+00 -0.43444550367E+02  0.43444550367E+02  0.00000000000E+00 0.  1.
         25    2    1    2    0    0 -0.83932650703E+02 -0.67508546503E+01  0.22884501504E+03  0.27405823119E+03  0.12509040443E+03 0.  0.
         23    2    1    2    0    0  0.83932650703E+02  0.67508546503E+01  0.16120888610E+03  0.20288477069E+03  0.89909183774E+02 0.  0.
          5    1    3    3  502    0  0.92248817420E+00 -0.13083702814E+02 -0.12204169952E+02  0.18396967901E+02  0.41800000000E+01 0.  1.
         -5    1    3    3    0  502 -0.84855138877E+02  0.63328481636E+01  0.24104918499E+03  0.25566126329E+03  0.41800000000E+01 0.  1.
        -11    1    4    4    0    0 -0.42142296854E+01  0.25330056842E+02  0.11440076228E+02  0.28111329666E+02  0.00000000000E+00 0.  1.
         11    1    4    4    0    0  0.88146880388E+02 -0.18579202192E+02  0.14976880987E+03  0.17477344102E+03  0.00000000000E+00 0. -1.
</event>
<event>
 8    1  0.6703334E-009  0.1358923E+03  0.7561462E-02  0.1218966E+00
         -2   -1    0    0    0  501 -0.00000000000E+00  0.00000000000E+00  0.31044110214E+02  0.31044110214E+02  0.00000000000E+00 0.  1.
          2   -1    0    0  501    0  0.00000000000E+00 -0.00000000000E+00 -0.90621315261E+03  0.90621315261E+03  0.00000000000E+00 0. -1.
         25    2    1    2    0    0 -0.47502146645E+02 -0.11521028948E+03 -0.38856295984E+03  0.42680239084E+03  0.12509693174E+03 0.  0.
         23    2    1    2    0    0  0.47502146645E+02  0.11521028948E+03 -0.48660608256E+03  0.51045487198E+03  0.90823080844E+02 0.  0.
          5    1    3    3  502    0 -0.54636954621E+02 -0.33936892399E+02 -0.29777350223E+03  0.30466939542E+03  0.41800000000E+01 0.  1.
         -5    1    3    3    0  502  0.71348079755E+01 -0.81273397078E+02 -0.90789457615E+02  0.12213299542E+03  0.41800000000E+01 0.  1.
        -11    1    4    4    0    0  0.37654185287E+02  0.71256082319E+02 -0.43300041329E+03  0.44043685682E+03  0.00000000000E+00 0. -1.
         11    1    4    4    0    0  0.98479613583E+01  0.43954207158E+02 -0.53605669264E+02  0.70018015160E+02  0.00000000000E+00 0.  1.
</event>
<event>
 8    1  0.6703334E-009  0.1634908E+03  0.7561462E-02  0.1184811E+00
          2   -1    0    0  501    0  0.00000000000E+00  0.00000000000E+00  0.14945872524E+04  0.14945872524E+04  0.00000000000E+00 0. -1.
         -2   -1    0    0    0  501 -0.00000000000E+00 -0.00000000000E+00 -0.20584192211E+02  0.20584192211E+02  0.00000000000E+00 0.  1.
         25    2    1    2    0    0 -0.62655137531E+02  0.12053259565E+03  0.86444747875E+03  0.88395154177E+03  0.12508841594E+03 0.  0.
         23    2    1    2    0    0  0.62655137531E+02 -0.12053259565E+03  0.60955558145E+03  0.63121990286E+03  0.91797527276E+02 0.  0.
          5    1    3    3  502    0  0.26182650411E+02  0.56971642463E+02  0.17604996806E+03  0.18692876419E+03  0.41800000000E+01 0. -1.
         -5    1    3    3    0  502 -0.88837787943E+02  0.63560953182E+02  0.68839751070E+03  0.69702277758E+03  0.41800000000E+01 0. -1.
        -11    1    4    4    0    0  0.76809083024E+02 -0.75814995844E+02  0.50826069740E+03  0.51959261480E+03  0.00000000000E+00 0.  1.
         11    1    4    4    0    0 -0.14153945493E+02 -0.44717599801E+02  0.10129488405E+03  0.11162728806E+03  0.00000000000E+00 0. -1.
</event>
<event>
 8    1  0.6703334E-009  0.2107921E+03  0.7561462E-02  0.1140940E+00
         -2   -1    0    0    0  501 -0.00000000000E+00  0.00000000000E+00  0.11354639908E+03  0.11354639908E+03  0.00000000000E+00 0.  1.
          2   -1    0    0  501    0  0.00000000000E+00 -0.00000000000E+00 -0.57953905430E+03  0.57953905430E+03  0.00000000000E+00 0. -1.
         25    2    1    2    0    0  0.75244545929E+02  0.18576199884E+03 -0.80601278078E+02  0.24962840602E+03  0.12509401729E+03 0.  0.
         23    2    1    2    0    0 -0.75244545929E+02 -0.18576199884E+03 -0.38539137715E+03  0.44345704736E+03  0.89209738084E+02 0.  0.
          5    1    3    3  502    0  0.10857068625E+02  0.57722587575E+02 -0.88199472866E+02  0.10604900975E+03  0.41800000000E+01 0.  1.
         -5    1    3    3    0  502  0.64387477304E+02  0.12803941126E+03  0.75981947884E+01  0.14357939627E+03  0.41800000000E+01 0.  1.
        -11    1    4    4    0    0 -0.58612226296E+02 -0.19261380055E+03 -0.35648631047E+03  0.40941172282E+03  0.00000000000E+00 0.  1.
         11    1    4    4    0    0 -0.16632319633E+02  0.68518017123E+01 -0.28905066681E+02  0.34045324538E+02  0.00000000000E+00 0. -1.
</event>
<event>
 7    1  0.6703334E-009  0.1798183E+03  0.7561462E-02  0.1167979E+00
          1   -1    0    0  501    0  0.00000000000E+00  0.00000000000E+00  0.43066090978E+02  0.43066090978E+02  0.00000000000E+00 0. -1.
         -1   -1    0    0    0  501 -0.00000000000E+00 -0.00000000000E+00 -0.92812747214E+03  0.92812747214E+03  0.00000000000E+00 0.  1.
         23    2    1    2    0    0 -0.11954491402E+03 -0.10361198382E+03 -0.55658942255E+03  0.58578775794E+03  0.91263806653E+02 0.  0.
          5    1    1    2  502    0  0.16343971986E+01  0.50134099676E+02 -0.18669657205E+03  0.19336282378E+03  0.41800000000E+01 0. -1.
         -5    1    1    2    0  502  0.11791051682E+03  0.53477884143E+02 -0.14177538656E+03  0.19204298140E+03  0.41800000000E+01 0. -1.
        -11    1    3    3    0    0 -0.34985953135E+02  0.11592755359E+02 -0.16135748539E+03  0.16551328340E+03  0.00000000000E+00 0.  1.
         11    1    3    3    0    0 -0.84558960881E+02 -0.11520473918E+03 -0.39523193716E+03  0.42027447454E+03  0.00000000000E+00 0. -1.
</event>
<event>
 8    1  0.6703334E-009  0.1358336E+03  0.7561462E-02  0.1219048E+00
         -2   -1    0    0    0  501 -0.00000000000E+00  0.00000000000E+00  0.25928510331E+02  0.25928510331E+02  0.00000000000E+00 0.  1.
          2   -1    0    0  501    0  0.00000000000E+00 -0.00000000000E+00 -0.75845562137E+03  0.75845562137E+03  0.00000000000E+00 0. -1.
         25    2    1    2    0    0 -0.43823794582E+02  0.73414876314E+02 -0.33920241361E+03  0.37150496218E+03  0.12508952989E+03 0.  0.
         23    2    1    2    0    0  0.43823794582E+02 -0.73414876314E+02 -0.39332469743E+03  0.41287916952E+03  0.91949018382E+02 0.  0.
          5    1    3    3  502    0  0.41652364746E+02  0.19603780500E+02 -0.69391944514E+02  0.83378306904E+02  0.41800000000E+01 0. -1.
         -5    1    3    3    0  502 -0.85476159328E+02  0.53811095814E+02 -0.26981046909E+03  0.28812665527E+03  0.41800000000E+01 0. -1.
        -11    1    4    4    0    0 -0.23522554385E+02  0.15567064240E+01 -0.54388445026E+02  0.59277625223E+02  0.00000000000E+00 0. -1.
         11    1    4    4    0    0  0.67346348968E+02 -0.74971582738E+02 -0.33893625241E+03  0.35360154430E+03  0.00000000000E+00 0.  1.
</event>
<event>
 8    1  0.6703334E-009  0.1689974E+03  0.7561462E-02  0.1178897E+00
          1   -1    0    0  501    0  0.00000000000E+00  0.00000000000E+00  0.43226572420E+02  0.43226572420E+02  0.00000000000E+00 0. -1.
         -1   -1    0    0    0  501 -0.00000000000E+00 -0.00000000000E+00 -0.66941024616E+03  0.66941024616E+03  0.00000000000E+00 0.  1.
         25    2    1    2    0    0  0.12343791856E+03 -0.41914160626E+02 -0.32271798610E+03  0.36984841288E+03  0.12508890182E+03 0.  0.
         23    2    1    2    0    0 -0.12343791856E+03  0.41914160626E+02 -0.30346568764E+03  0.34278840570E+03  0.91753751472E+02 0.  0.
          5    1    3    3  502    0  0.12371995674E+03  0.12136332071E+02 -0.19758203024E+03  0.23347387289E+03  0.41800000000E+01 0. -1.
         -5    1    3    3    0  502 -0.28203818387E+00 -0.54050492697E+02 -0.12513595586E+03  0.13637453998E+03  0.41800000000E+01 0. -1.
        -11    1    4    4    0    0 -0.15277756636E+02  0.48685442171E+02 -0.99325626185E+02  0.11166585039E+03  0.00000000000E+00 0.  1.
         11    1    4    4    0    0 -0.10816016192E+03 -0.67712815447E+01 -0.20414006145E+03  0.23112255530E+03  0.00000000000E+00 0. -1.
</event>
<event>
 8    1  0.6703334E-009  0.1455803E+03  0.7561462E-02  0.1206012E+00
          1   -1    0    0  501    0  0.00000000000E+00  0.00000000000E+00  0.92523661232E+02  0.92523661232E+02  0.00000000000E+00 0. -1.
         -1   -1    0    0    0  501 -0.00000000000E+00 -0.00000000000E+00 -0.45748386693E+03  0.45748386693E+03  0.00000000000E+00 0.  1.
         25    2    1    2    0    0 -0.11645489016E+03 -0.59820982743E+01 -0.37086056854E+03  0.40839039331E+03  0.12509046771E+03 0.  0.
         23    2    1    2    0    0  0.11645489016E+03  0.59820982743E+01  0.59003628341E+01  0.14161713485E+03  0.80144068150E+02 0.  0.
          5    1    3    3  502    0 -0.11926384271E+03 -0.47807835232E+02 -0.26807267575E+03  0.29730436453E+03  0.41800000000E+01 0.  1.
         -5    1    3    3    0  502  0.28089525453E+01  0.41825736958E+02 -0.10278789279E+03  0.11108602878E+03  0.41800000000E+01 0.  1.
        -11    1    4    4    0    0  0.91911375331E+02  0.17171660510E+02 -0.28642332158E+02  0.97790337107E+02  0.00000000000E+00 0.  1.
         11    1    4    4    0    0  0.24543514832E+02 -0.11189562236E+02  0.34542694992E+02  0.43826797746E+02  0.00000000000E+00 0. -1.
</event>
<event>
 8    1  0.6703334E-009  0.9183647E+02  0.7561462E-02  0.1298464E+00
         -1   -1    0    0    0  501 -0.00000000000E+00  0.00000000000E+00  0.90561344078E+02  0.90561344078E+02  0.00000000000E+00 0.  1.
          1   -1    0    0  501    0  0.00000000000E+00 -0.00000000000E+00 -0.15557665628E+03  0.15557665628E+03  0.00000000000E+00 0. -1.
         25    2    1    2    0    0 -0.45691847167E+01 -0.16567168929E+02 -0.84865219550E+02  0.15213389580E+03  0.12508904119E+03 0.  0.
         23    2    1    2    0    0  0.45691847167E+01  0.16567168929E+02  0.19849907351E+02  0.94004104555E+02  0.90262973118E+02 0.  0.
          5    1    3    3  502    0 -0.52632764231E+02 -0.64626027334E+01  0.91447346394E+00  0.53200392540E+02  0.41800000000E+01 0.  1.
         -5    1    3    3    0  502  0.48063579514E+02 -0.10104566196E+02 -0.85779693014E+02  0.98933503260E+02  0.41800000000E+01 0.  1.
        -11    1    4    4    0    0  0.41248712271E+02  0.16720450355E+02 -0.11256641800E+02  0.45910148210E+02  0.00000000000E+00 0. -1.
         11    1    4    4    0    0 -0.36679527554E+02 -0.15328142556E+00  0.31106549151E+02  0.48093956345E+02  0.00000000000E+00 0.  1.
</event>
<event>
 8    1  0.6703334E-009  0.1593799E+03  0.7561462E-02  0.1189399E+00
         -1   -1    0    0    0  501 -0.00000000000E+00  0.00000000000E+00  0.24237439190E+03  0.24237439190E+03  0.00000000000E+00 0.  1.
          1   -1    0    0  501    0  0.00000000000E+00 -0.00000000000E+00 -0.12985446248E+03  0.12985446248E+03  0.00000000000E+00 0. -1.
         25    2    1    2    0    0 -0.67207551219E+02  0.10915730570E+03  0.12020227521E+03  0.21567282732E+03  0.12503603140E+03 0.  0.
         23    2    1    2    0    0  0.67207551219E+02 -0.10915730570E+03 -0.76823457895E+01  0.15655602706E+03  0.89546629437E+02 0.  0.
          5    1    3    3  502    0  0.34166852887E+02  0.36250753034E+02  0.56471210482E+02  0.75418571619E+02  0.41800000000E+01 0. -1.
         -5    1    3    3    0  502 -0.10137440411E+03  0.72906552668E+02  0.63731064730E+02  0.14025425570E+03  0.41800000000E+01 0. -1.
        -11    1    4    4    0    0  0.48958931478E+02 -0.20100470340E+02 -0.32772559865E+02  0.62249871963E+02  0.00000000000E+00 0. -1.
         11    1    4    4    0    0  0.18248619741E+02 -0.89056835362E+02  0.25090214075E+02  0.94306155098E+02  0.00000000000E+00 0.  1.
</event>
<event>
 8    1  0.6703334E-009  0.1383358E+03  0.7561462E-02  0.1215586E+00
          1   -1    0    0  501    0  0.00000000000E+00  0.00000000000E+00  0.24540471895E+03  0.24540471895E+03  0.00000000000E+00 0. -1.
         -1   -1    0    0    0  501 -0.00000000000E+00 -0.00000000000E+00 -0.11112945939E+03  0.11112945939E+03  0.00000000000E+00 0.  1.
         25    2    1    2    0    0 -0.73169075124E+02  0.93338906265E+02  0.12382121179E+03  0.21223928611E+03  0.12509179470E+03 0.  0.
         23    2    1    2    0    0  0.73169075124E+02 -0.93338906265E+02  0.10454047775E+02  0.14429489224E+03  0.81522167749E+02 0.  0.
          5    1    3    3  502    0 -0.47015005587E+02  0.82347648101E+01 -0.12361139400E+02  0.49482241957E+02  0.41800000000E+01 0.  1.
         -5    1    3    3    0  502 -0.26154069537E+02  0.85104141455E+02  0.13618235119E+03  0.16275704415E+03  0.41800000000E+01 0.  1.
        -11    1    4    4    0    0  0.80065176384E+02 -0.47129175101E+02  0.23410008431E+02  0.95810334045E+02  0.00000000000E+00 0.  1.
         11    1    4    4    0    0 -0.68961012605E+01 -0.46209731164E+02 -0.12955960656E+02  0.48484558195E+02  0.00000000000E+00 0. -1.
</event>
<event>
 8    1  0.6703334E-009  0.1140801E+03  0.7561462E-02  0.1253195E+00
          1   -1    0    0  501    0  0.00000000000E+00  0.00000000000E+00  0.27033176168E+03  0.27033176168E+03  0.00000000000E+00 0. -1.
         -1   -1    0    0    0  501 -0.00000000000E+00 -0.00000000000E+00 -0.53379110935E+02  0.53379110935E+02  0.00000000000E+00 0.  1.
         25    2    1    2    0    0 -0.68186913609E+01  0.42954513267E+02  0.89494366112E+02  0.15983944845E+03  0.12509125851E+03 0.  0.
         23    2    1    2    0    0  0.68186913609E+01 -0.42954513267E+02  0.12745828463E+03  0.16387142416E+03  0.93362972171E+02 0.  0.
          5    1    3    3  502    0  0.35295167668E+02  0.70634311672E+02  0.70124747297E+02  0.10568778278E+03  0.41800000000E+01 0.  1.
         -5    1    3    3    0  502 -0.42113859029E+02 -0.27679798405E+02  0.19369618815E+02  0.54151665672E+02  0.41800000000E+01 0.  1.
        -11    1    4    4    0    0 -0.40850427722E+02 -0.17048800042E+02  0.34034666927E+02  0.55837062788E+02  0.00000000000E+00 0.  1.
         11    1    4    4    0    0  0.47669119083E+02 -0.25905713225E+02  0.93423617704E+02  0.10803436137E+03  0.00000000000E+00 0. -1.
</event>
<event>
 8    1  0.6703334E-009  0.9574578E+02  0.7561462E-02  0.1289505E+00
          2   -1    0    0  501    0  0.00000000000E+00  0.00000000000E+00  0.17476271256E+04  0.17476271256E+04  0.00000000000E+00 0. -1.
         -2   -1    0    0    0  501 -0.00000000000E+00 -0.00000000000E+00 -0.10702690513E+02  0.10702690513E+02  0.00000000000E+00 0.  1.
         25    2    1    2    0    0 -0.28484464091E+02  0.26059766591E+02  0.15440916988E+04  0.15496314841E+04  0.12509231066E+03 0.  0.
         23    2    1    2    0    0  0.28484464091E+02 -0.26059766591E+02  0.19283273634E+03  0.20869833203E+03  0.69857379420E+02 0.  0.
          5    1    3    3  502    0  0.43404229922E+02 -0.97404788027E+01  0.79035460818E+03  0.79161650007E+03  0.41800000000E+01 0. -1.
         -5    1    3    3    0  502 -0.71888694013E+02  0.35800245393E+02  0.75373709058E+03  0.75801498403E+03  0.41800000000E+01 0. -1.
        -11    1    4    4    0    0 -0.15710296806E+02 -0.13704269544E+01  0.92914393835E+01  0.18303615533E+02  0.00000000000E+00 0.  1.
         11    1    4    4    0    0  0.44194760897E+02 -0.24689339636E+02  0.18354129695E+03  0.19039471650E+03  0.00000000000E+00 0. -1.
</event>
<event>
 8    1  0.6703334E-009  0.1240188E+03  0.7561462E-02  0.1236611E+00
          2   -1    0    0  501    0  0.00000000000E+00  0.00000000000E+00  0.59836061416E+03  0.59836061416E+03  0.00000000000E+00 0. -1.
         -2   -1    0    0    0  501 -0.00000000000E+00 -0.00000000000E+00 -0.33692425579E+02  0.33692425579E+02  0.00000000000E+00 0.  1.
         25    2    1    2    0    0 -0.16390478030E+02 -0.70601019368E+02  0.39843157432E+03  0.42384934265E+03  0.12508954451E+03 0.  0.
         23    2    1    2    0    0  0.16390478030E+02  0.70601019368E+02  0.16623661426E+03  0.20820369709E+03  0.10227910761E+03 0.  0.
          5    1    3    3  502    0 -0.24626275102E+02  0.30421415770E+02  0.15928537837E+03  0.16407687261E+03  0.41800000000E+01 0.  1.
         -5    1    3    3    0  502  0.82357970720E+01 -0.10102243514E+03  0.23914619595E+03  0.25977247004E+03  0.41800000000E+01 0.  1.
        -11    1    4    4    0    0 -0.15328305604E+02 -0.11535139960E+02 -0.99485497527E+00  0.19209532608E+02  0.00000000000E+00 0.  1.
         11    1    4    4    0    0  0.31718783633E+02  0.82136159329E+02  0.16723146923E+03  0.18899416448E+03  0.00000000000E+00 0. -1.
</event>
<event>
 8    1  0.6703334E-009  0.1097926E+03  0.7561462E-02  0.1260954E+00
         -1   -1    0    0    0  501 -0.00000000000E+00  0.00000000000E+00  0.27736840257E+03  0.27736840257E+03  0.00000000000E+00 0.  1.
          1   -1    0    0  501    0  0.00000000000E+00 -0.00000000000E+00 -0.68199878884E+02  0.68199878884E+02  0.00000000000E+00 0. -1.
         25    2    1    2    0    0  0.67723714499E+02  0.27856335285E+02  0.71625082163E+02  0.16167853915E+03  0.12508925095E+03 0.  0.
         23    2    1    2    0    0 -0.67723714499E+02 -0.27856335285E+02  0.13754344152E+03  0.18388974231E+03  0.97646106419E+02 0.  0.
          5    1    3    3  502    0  0.10127576480E+03  0.19265305413E+02  0.30168427661E+02  0.10749669277E+03  0.41800000000E+01 0.  1.
         -5    1    3    3    0  502 -0.33552050306E+02  0.85910298723E+01  0.41456654502E+02  0.54181846374E+02  0.41800000000E+01 0.  1.
        -11    1    4    4    0    0 -0.42157062813E+02  0.20138911501E+01  0.14493805539E+01  0.42230017838E+02  0.00000000000E+00 0. -1.
         11    1    4    4    0    0 -0.25566651685E+02 -0.29870226435E+02  0.13609406097E+03  0.14165972447E+03  0.00000000000E+00 0.  1.
</event>
<event>
 8    1  0.6703334E-009  0.1514966E+03  0.7561462E-02  0.1198646E+00
         -1   -1    0    0    0  501 -0.00000000000E+00  0.00000000000E+00  0.23660273898E+02  0.23660273898E+02  0.00000000000E+00 0.  1.
          1   -1    0    0  501    0  0.00000000000E+00 -0.00000000000E+00 -0.13616389452E+04  0.13616389452E+04  0.00000000000E+00 0. -1.
         25    2    1    2    0    0  0.50661597515E+02  0.13091561698E+03 -0.81607635678E+03  0.83745622890E+03  0.12508724555E+03 0.  0.
         23    2    1    2    0    0 -0.50661597515E+02 -0.13091561698E+03 -0.52190231457E+03  0.54784299024E+03  0.89690689457E+02 0.  0.
          5    1    3    3  502    0  0.46615370405E+02  0.11626690146E+03 -0.36156754285E+03  0.38267420292E+03  0.41800000000E+01 0. -1.
         -5    1    3    3    0  502  0.40462271097E+01  0.14648715513E+02 -0.45450881393E+03  0.45478202599E+03  0.41800000000E+01 0. -1.
        -11    1    4    4    0    0 -0.59749612603E+02 -0.13799709923E+03 -0.50798598557E+03  0.52977634634E+03  0.00000000000E+00 0. -1.
         11    1    4    4    0    0  0.90880150886E+01  0.70814822566E+01 -0.13916328996E+02  0.18066643903E+02  0.00000000000E+00 0.  1.
</event>
<event>
 8    1  0.6703334E-009  0.1094468E+03  0.7561462E-02  0.1261598E+00
         -2   -1    0    0    0  501 -0.00000000000E+00  0.00000000000E+00  0.74516749925E+02  0.74516749925E+02  0.00000000000E+00 0. -1.
          2   -1    0    0  501    0  0.00000000000E+00 -0.00000000000E+00 -0.26954927893E+03  0.26954927893E+03  0.00000000000E+00 0.  1.
         25    2    1    2    0    0 -0.81030211031E+02  0.49306140506E+02 -0.64332063485E+02  0.16965658164E+03  0.12509096974E+03 0.  0.
         23    2    1    2    0    0  0.81030211031E+02 -0.49306140506E+02 -0.13070046552E+03  0.17440944722E+03  0.65871488514E+02 0.  0.
          5    1    3    3  502    0 -0.82593970810E+01 -0.94984472722E+01  0.32403795494E+02  0.35013090454E+02  0.41800000000E+01 0.  1.
         -5    1    3    3    0  502 -0.72770813950E+02  0.58804587778E+02 -0.96735858980E+02  0.13464349119E+03  0.41800000000E+01 0.  1.
        -11    1    4    4    0    0  0.46501863997E+02  0.58869053618E+01 -0.34291963052E+02  0.58077687108E+02  0.00000000000E+00 0. -1.
         11    1    4    4    0    0  0.34528347034E+02 -0.55193045868E+02 -0.96408502470E+02  0.11633176011E+03  0.00000000000E+00 0.  1.
</event>
<event>
 8    1  0.6703334E-009  0.7448816E+02  0.7561462E-02  0.1345463E+00
         -2   -1    0    0    0  501 -0.00000000000E+00  0.00000000000E+00  0.93542869601E+02  0.93542869601E+02  0.00000000000E+00 0.  1.
          2   -1    0    0  501    0  0.00000000000E+00 -0.00000000000E+00 -0.14128613951E+03  0.14128613951E+03  0.00000000000E+00 0. -1.
         25    2    1    2    0    0  0.19294591696E+02  0.19912079029E+02 -0.36112169960E+01  0.12817546813E+03  0.12508851899E+03 0.  0.
         23    2    1    2    0    0 -0.19294591696E+02 -0.19912079029E+02 -0.44132052909E+02  0.10665354097E+03  0.93051424212E+02 0.  0.
          5    1    3    3  502    0  0.94269521503E+01 -0.21510059951E+02  0.52469228313E+02  0.57637161846E+02  0.41800000000E+01 0. -1.
         -5    1    3    3    0  502  0.98676395459E+01  0.41422138980E+02 -0.56080445309E+02  0.70538306288E+02  0.41800000000E+01 0. -1.
        -11    1    4    4    0    0 -0.25667532502E+01  0.29787046119E+02 -0.45212599919E+02  0.54203648680E+02  0.00000000000E+00 0. -1.
         11    1    4    4    0    0 -0.16727838446E+02 -0.49699125149E+02  0.10805470107E+01  0.52449892292E+02  0.00000000000E+00 0.  1.
</event>
<event>
 8    1  0.6703334E-009  0.1029110E+03  0.7561462E-02  0.1274291E+00
          2   -1    0    0  501    0  0.00000000000E+00  0.00000000000E+00  0.10285107910E+04  0.10285107910E+04  0.00000000000E+00 0. -1.
         -2   -1    0    0    0  501 -0.00000000000E+00 -0.00000000000E+00 -0.11615404998E+02  0.11615404998E+02  0.00000000000E+00 0.  1.
         25    2    1    2    0    0  0.21172379897E+01 -0.20433161249E+02  0.66083818121E+03  0.67288834130E+03  0.12509844657E+03 0.  0.
         23    2    1    2    0    0 -0.21172379897E+01  0.20433161249E+02  0.35605720476E+03  0.36723785467E+03  0.87549483516E+02 0.  0.
          5    1    3    3  502    0  0.51525158030E+02 -0.37908427687E+02  0.48910439557E+03  0.49328741415E+03  0.41800000000E+01 0. -1.
         -5    1    3    3    0  502 -0.49407920041E+02  0.17475266438E+02  0.17173378564E+03  0.17960092714E+03  0.41800000000E+01 0. -1.
        -11    1    4    4    0    0 -0.44419779392E+02  0.89796628965E+01  0.20513658150E+03  0.21008276516E+03  0.00000000000E+00 0.  1.
         11    1    4    4    0    0  0.42302541402E+02  0.11453498352E+02  0.15092062327E+03  0.15715508951E+03  0.00000000000E+00 0. -1.
</event>
<event>
 8    1  0.6703334E-009  0.1362761E+03  0.7561462E-02  0.1218429E+00
          2   -1    0    0  501    0  0.00000000000E+00  0.00000000000E+00  0.44665508687E+02  0.44665508687E+02  0.00000000000E+00 0. -1.
         -2   -1    0    0    0  501 -0.00000000000E+00 -0.00000000000E+00 -0.53647894549E+03  0.53647894549E+03  0.00000000000E+00 0.  1.
         25    2    1    2    0    0  0.96621525461E+02  0.52020473037E+02 -0.26279679096E+03  0.31104903240E+03  0.12508996132E+03 0.  0.
         23    2    1    2    0    0 -0.96621525461E+02 -0.52020473037E+02 -0.22901664585E+03  0.27009542178E+03  0.91984042054E+02 0.  0.
          5    1    3    3  502    0  0.31188808996E+02  0.80533986598E+02 -0.93912925063E+02  0.12765412135E+03  0.41800000000E+01 0.  1.
         -5    1    3    3    0  502  0.65432716465E+02 -0.28513513562E+02 -0.16888386589E+03  0.18339491105E+03  0.41800000000E+01 0.  1.
        -11    1    4    4    0    0 -0.87236386990E+02 -0.56760516378E+02 -0.23568704158E+03  0.25764379481E+03  0.00000000000E+00 0.  1.
         11    1    4    4    0    0 -0.93851384715E+01  0.47400433411E+01  0.66703957312E+01  0.12451626971E+02  0.00000000000E+00 0. -1.
</event>
<event>
 8    1  0.6703334E-009  0.1805967E+03  0.7561462E-02  0.1167227E+00
         -1   -1    0    0    0  501 -0.00000000000E+00  0.00000000000E+00  0.28467615934E+02  0.28467615934E+02  0.00000000000E+00 0.  1.
          1   -1    0    0  501    0  0.00000000000E+00 -0.00000000000E+00 -0.14075033717E+04  0.14075033717E+04  0.00000000000E+00 0. -1.
         25    2    1    2    0    0  0.80639579049E+01  0.16397177552E+03 -0.90116399084E+03  0.92449762939E+03  0.12509019852E+03 0.  0.
         23    2    1    2    0    0 -0.80639579049E+01 -0.16397177552E+03 -0.47787176490E+03  0.51147335823E+03  0.79320879356E+02 0.  0.
          5    1    3    3  502    0 -0.11069294415E+02 -0.12836296466E+02 -0.25218919930E+02  0.30671910737E+02  0.41800000000E+01 0.  1.
         -5    1    3    3    0  502  0.19133252320E+02  0.17680807198E+03 -0.87594507091E+03  0.89382571865E+03  0.41800000000E+01 0.  1.
        -11    1    4    4    0    0  0.79057541792E+01 -0.34554484300E+02 -0.35044909030E+02  0.49846353762E+02  0.00000000000E+00 0.  1.
         11    1    4    4    0    0 -0.15969712084E+02 -0.12941729122E+03 -0.44282685587E+03  0.46162700447E+03  0.00000000000E+00 0. -1.
</event>
<event>
 8    1  0.6703334E-009  0.1545365E+03  0.7561462E-02  0.1195007E+00
         -2   -1    0    0    0  501 -0.00000000000E+00  0.00000000000E+00  0.26806793196E+02  0.26806793196E+02  0.00000000000E+00 0.  1.
          2   -1    0    0  501    0  0.00000000000E+00 -0.00000000000E+00 -0.11962046509E+04  0.11962046509E+04  0.00000000000E+00 0. -1.
         25    2    1    2    0    0 -0.10709299880E+03 -0.94488154076E+02 -0.61590716973E+03  0.64450409973E+03  0.12508785389E+03 0.  0.
         23    2    1    2    0    0  0.10709299880E+03  0.94488154076E+02 -0.55349068793E+03  0.57850734432E+03  0.89004967034E+02 0.  0.
          5    1    3    3  502    0  0.17894305344E+01 -0.44231369423E+02 -0.54112393700E+02  0.70037416105E+02  0.41800000000E+01 0.  1.
         -5    1    3    3    0  502 -0.10888242933E+03 -0.50256784653E+02 -0.56179477603E+03  0.57446668363E+03  0.41800000000E+01 0.  1.
        -11    1    4    4    0    0  0.62259563723E+02  0.39783008846E+02 -0.13331290058E+03  0.15241807809E+03  0.00000000000E+00 0.  1.
         11    1    4    4    0    0  0.44833435077E+02  0.54705145231E+02 -0.42017778735E+03  0.42608926623E+03  0.00000000000E+00 0. -1.
</event>
<event>
 8    1  0.6703334E-009  0.1295648E+03  0.7561462E-02  0.1228103E+00
         -2   -1    0    0    0  501 -0.00000000000E+00  0.00000000000E+00  0.43809204237E+03  0.43809204237E+03  0.00000000000E+00 0.  1.
          2   -1    0    0  501    0  0.00000000000E+00 -0.00000000000E+00 -0.88527177086E+02  0.88527177086E+02  0.00000000000E+00 0. -1.
         25    2    1    2    0    0 -0.48067868027E+02  0.64940648069E+02 -0.82777876576E+01  0.14914317052E+03  0.12508939139E+03 0.  0.
         23    2    1    2    0    0  0.48067868027E+02 -0.64940648069E+02  0.35784265294E+03  0.37747604893E+03  0.88932533669E+02 0.  0.
          5    1    3    3  502    0 -0.13526868578E+02 -0.37835807189E+02 -0.29867733011E+01  0.40508242296E+02  0.41800000000E+01 0.  1.
         -5    1    3    3    0  502 -0.34540999450E+02  0.10277645526E+03 -0.52910143565E+01  0.10863492823E+03  0.41800000000E+01 0.  1.
        -11    1    4    4    0    0 -0.12412117330E+02 -0.44788529556E+02  0.22966792438E+03  0.23432334183E+03  0.00000000000E+00 0.  1.
         11    1    4    4    0    0  0.60479985358E+02 -0.20152118513E+02  0.12817472856E+03  0.14315270711E+03  0.00000000000E+00 0. -1.
</event>
<event>
 8    1  0.6703334E-009  0.1307763E+03  0.7561462E-02  0.1226308E+00
         -3   -1    0    0    0  501 -0.00000000000E+00  0.00000000000E+00  0.37184169233E+02  0.37184169233E+02  0.00000000000E+00 0.  1.
          3   -1    0    0  501    0  0.00000000000E+00 -0.00000000000E+00 -0.63282558669E+03  0.63282558669E+03  0.00000000000E+00 0. -1.
         25    2    1    2    0    0 -0.93440732949E+02  0.39324210175E+02 -0.23670795918E+03  0.28627895707E+03  0.12508964483E+03 0.  0.
         23    2    1    2    0    0  0.93440732949E+02 -0.39324210175E+02 -0.35893345828E+03  0.38373079885E+03  0.90213826186E+02 0.  0.
          5    1    3    3  502    0 -0.46483728769E+02  0.83416104099E+02 -0.12638736535E+03  0.15846205219E+03  0.41800000000E+01 0. -1.
         -5    1    3    3    0  502 -0.46957004180E+02 -0.44091893924E+02 -0.11032059383E+03  0.12781690488E+03  0.41800000000E+01 0. -1.
        -11    1    4    4    0    0  0.38883452436E+02 -0.14829674730E+02 -0.35158322820E+02  0.54478893063E+02  0.00000000000E+00 0.  1.
         11    1    4    4    0    0  0.54557280513E+02 -0.24494535446E+02 -0.32377513546E+03  0.32925190579E+03  0.00000000000E+00 0. -1.
</event>
<event>
 8    1  0.6703334E-009  0.1201238E+03  0.7561462E-02  0.1242893E+00
          2   -1    0    0  501    0  0.00000000000E+00  0.00000000000E+00  0.57614352257E+02  0.57614352257E+02  0.00000000000E+00 0. -1.
         -2   -1    0    0    0  501 -0.00000000000E+00 -0.00000000000E+00 -0.30447680060E+03  0.30447680060E+03  0.00000000000E+00 0.  1.
         25    2    1    2    0    0 -0.68898884390E+02 -0.20910281615E+02 -0.10466615167E+03  0.17828913142E+03  0.12509082672E+03 0.  0.
         23    2    1    2    0    0  0.68898884390E+02  0.20910281615E+02 -0.14219629668E+03  0.18380202144E+03  0.91537424861E+02 0.  0.
          5    1    3    3  502    0 -0.20683089460E+02 -0.69272410792E+02 -0.73249735376E+02  0.10300220007E+03  0.41800000000E+01 0.  1.
         -5    1    3    3    0  502 -0.48215794930E+02  0.48362129177E+02 -0.31416416294E+02  0.75286931349E+02  0.41800000000E+01 0.  1.
        -11    1    4    4    0    0  0.53941659548E+02  0.45542397656E+02 -0.13755489612E+03  0.15461294275E+03  0.00000000000E+00 0.  1.
         11    1    4    4    0    0  0.14957224841E+02 -0.24632116041E+02 -0.46414005524E+01  0.29189078689E+02  0.00000000000E+00 0. -1.
</event>
<event>
 8    1  0.6703334E-009  0.8050188E+02  0.7561462E-02  0.1327633E+00
         -1   -1    0    0    0  501 -0.00000000000E+00  0.00000000000E+00  0.78155291033E+02  0.78155291033E+02  0.00000000000E+00 0.  1.
          1   -1    0    0  501    0  0.00000000000E+00 -0.00000000000E+00 -0.18713412255E+03  0.18713412255E+03  0.00000000000E+00 0. -1.
         25    2    1    2    0    0 -0.28337462286E+02 -0.47081065348E+02 -0.56979096588E+02  0.14803284665E+03  0.12508983874E+03 0.  0.
         23    2    1    2    0    0  0.28337462286E+02  0.47081065348E+02 -0.51999734925E+02  0.11725656693E+03  0.89585107980E+02 0.  0.
          5    1    3    3  502    0 -0.51393432919E+02 -0.54117827060E+02  0.11211937064E+02  0.75585739963E+02  0.41800000000E+01 0. -1.
         -5    1    3    3    0  502  0.23055970633E+02  0.70367617127E+01 -0.68191033652E+02  0.72447106690E+02  0.41800000000E+01 0. -1.
        -11    1    4    4    0    0  0.25539124452E+02  0.15066784970E+02  0.21773466547E+02  0.36787752481E+02  0.00000000000E+00 0.  1.
         11    1    4    4    0    0  0.27983378342E+01  0.32014280377E+02 -0.73773201472E+02  0.80468814445E+02  0.00000000000E+00 0. -1.
</event>
<event>
 8    1  0.6703334E-009  0.1099673E+03  0.7561462E-02  0.1260630E+00
          2   -1    0    0  501    0  0.00000000000E+00  0.00000000000E+00  0.75751285059E+03  0.75751285059E+03  0.00000000000E+00 0. -1.
         -2   -1    0    0    0  501 -0.00000000000E+00 -0.00000000000E+00 -0.17033206371E+02  0.17033206371E+02  0.00000000000E+00 0.  1.
         25    2    1    2    0    0 -0.18736406709E+02  0.24956144969E+02  0.40197645137E+03  0.42214470876E+03  0.12508887068E+03 0.  0.
         23    2    1    2    0    0  0.18736406709E+02 -0.24956144969E+02  0.33850319285E+03  0.35240134820E+03  0.92889377964E+02 0.  0.
          5    1    3    3  502    0  0.30746274767E+02  0.55815047987E+02  0.14237388792E+03  0.15603989668E+03  0.41800000000E+01 0.  1.
         -5    1    3    3    0  502 -0.49482681476E+02 -0.30858903018E+02  0.25960256345E+03  0.26610481208E+03  0.41800000000E+01 0.  1.
        -11    1    4    4    0    0 -0.31816772716E+02  0.13022471508E+02  0.10474225849E+03  0.11023988618E+03  0.00000000000E+00 0.  1.
         11    1    4    4    0    0  0.50553179425E+02 -0.37978616477E+02  0.23376093435E+03  0.24216146202E+03  0.00000000000E+00 0. -1.
</event>
<event>
 8    1  0.6703334E-009  0.1350955E+03  0.7561462E-02  0.1220085E+00
          1   -1    0    0  501    0  0.00000000000E+00  0.00000000000E+00  0.94515719395E+03  0.94515719395E+03  0.00000000000E+00 0.  1.
         -1   -1    0    0    0  501 -0.00000000000E+00 -0.00000000000E+00 -0.32666473699E+02  0.32666473699E+02  0.00000000000E+00 0. -1.
         25    2    1    2    0    0  0.11051408379E+03 -0.58601115829E+02  0.63853168470E+03  0.66258376845E+03  0.12508830624E+03 0.  0.
         23    2    1    2    0    0 -0.11051408379E+03  0.58601115829E+02  0.27395903555E+03  0.31523989920E+03  0.93140686032E+02 0.  0.
          5    1    3    3  502    0  0.65127127957E+02 -0.37131857346E+02  0.11962642949E+03  0.14123835407E+03  0.41800000000E+01 0. -1.
         -5    1    3    3    0  502  0.45386955830E+02 -0.21469258484E+02  0.51890525521E+03  0.52134541439E+03  0.41800000000E+01 0. -1.
        -11    1    4    4    0    0  0.35270678245E+01  0.25826356996E+02  0.14247117762E+02  0.29705576709E+02  0.00000000000E+00 0. -1.
         11    1    4    4    0    0 -0.11404115161E+03  0.32774758834E+02  0.25971191779E+03  0.28553432249E+03  0.00000000000E+00 0.  1.
</event>
<event>
 8    1  0.6703334E-009  0.1326515E+03  0.7561462E-02  0.1223574E+00
          2   -1    0    0  501    0  0.00000000000E+00  0.00000000000E+00  0.59877779655E+02  0.59877779655E+02  0.00000000000E+00 0. -1.
         -2   -1    0    0    0  501 -0.00000000000E+00 -0.00000000000E+00 -0.46632419243E+03  0.46632419243E+03  0.00000000000E+00 0.  1.
         25    2    1    2    0    0  0.74431862597E+02  0.58957331204E+02 -0.34734085352E+03  0.38119948029E+03  0.12510518046E+03 0.  0.
         23    2    1    2    0    0 -0.74431862597E+02 -0.58957331204E+02 -0.59105559257E+02  0.14500249180E+03  0.92283186005E+02 0.  0.
          5    1    3    3  502    0  0.52377756953E+02  0.92691121323E+02 -0.18134348686E+03  0.21032832910E+03  0.41800000000E+01 0. -1.
         -5    1    3    3    0  502  0.22054105644E+02 -0.33733790119E+02 -0.16599736665E+03  0.17087115119E+03  0.41800000000E+01 0. -1.
        -11    1    4    4    0    0 -0.20689791735E+02 -0.61041810909E+02  0.85096069886E+00  0.64458469538E+02  0.00000000000E+00 0. -1.
         11    1    4    4    0    0 -0.53742070862E+02  0.20844797044E+01 -0.59956519956E+02  0.80544022257E+02  0.00000000000E+00 0.  1.
</event>
<event>
 7    1  0.6703334E-009  0.1190437E+03  0.7561462E-02  0.1244683E+00
         -3   -1    0    0    0  501 -0.00000000000E+00  0.00000000000E+00  0.50277935013E+02  0.50277935013E+02  0.00000000000E+00 0.  1.
          3   -1    0    0  501    0  0.00000000000E+00 -0.00000000000E+00 -0.52992624429E+03  0.52992624429E+03  0.00000000000E+00 0. -1.
         23    2    1    2    0    0 -0.85257271151E+01 -0.52056801644E+02 -0.41807311761E+03  0.43121040911E+03  0.91513313957E+02 0.  0.
          5    1    1    2  502    0 -0.44132503717E+02  0.67222978932E+02 -0.32679375601E+02  0.86902363434E+02  0.41800000000E+01 0. -1.
         -5    1    1    2    0  502  0.52658230832E+02 -0.15166177288E+02 -0.28895816066E+02  0.62091406765E+02  0.41800000000E+01 0. -1.
        -11    1    3    3    0    0 -0.34551430804E+01 -0.77037792888E+02 -0.35295286623E+03  0.36127895777E+03  0.00000000000E+00 0. -1.
         11    1    3    3    0    0 -0.50705840348E+01  0.24980991244E+02 -0.65120251378E+02  0.69931451333E+02  0.00000000000E+00 0.  1.
</event>
<event>
 8    1  0.6703334E-009  0.1322443E+03  0.7561462E-02  0.1224163E+00
          2   -1    0    0  501    0  0.00000000000E+00  0.00000000000E+00  0.42418470512E+03  0.42418470512E+03  0.00000000000E+00 0. -1.
         -2   -1    0    0    0  501 -0.00000000000E+00 -0.00000000000E+00 -0.72889454464E+02  0.72889454464E+02  0.00000000000E+00 0.  1.
         25    2    1    2    0    0 -0.97466790684E+02 -0.29563967356E+02  0.55173597180E+02  0.17048380409E+03  0.12508716232E+03 0.  0.
         23    2    1    2    0    0  0.97466790684E+02  0.29563967356E+02  0.29612165348E+03  0.32659035550E+03  0.92733074975E+02 0.  0.
          5    1    3    3  502    0 -0.45515382354E+01 -0.40869855108E+02  0.64200611183E+02  0.76356089692E+02  0.41800000000E+01 0.  1.
         -5    1    3    3    0  502 -0.92915252449E+02  0.11305887751E+02 -0.90270140029E+01  0.94127714395E+02  0.41800000000E+01 0.  1.
        -11    1    4    4    0    0  0.93156896639E+02 -0.62703521892E+01  0.15520154675E+03  0.18112162991E+03  0.00000000000E+00 0.  1.
         11    1    4    4    0    0  0.43098940447E+01  0.35834319546E+02  0.14092010673E+03  0.14546872559E+03  0.00000000000E+00 0. -1.
</event>
<event>
 8    1  0.6703334E-009  0.1407083E+03  0.7561462E-02  0.1212379E+00
          1   -1    0    0  501    0  0.00000000000E+00  0.00000000000E+00  0.11709391730E+04  0.11709391730E+04  0.00000000000E+00 0. -1.
         -1   -1    0    0    0  501 -0.00000000000E+00 -0.00000000000E+00 -0.21784870445E+02  0.21784870445E+02  0.00000000000E+00 0.  1.
         25    2    1    2    0    0  0.10079760761E+03 -0.34126225847E+02  0.78012464197E+03  0.79722368892E+03  0.12508555548E+03 0.  0.
         23    2    1    2    0    0 -0.10079760761E+03  0.34126225847E+02  0.36902966054E+03  0.39550035447E+03  0.94408066597E+02 0.  0.
          5    1    3    3  502    0  0.34063357072E+02 -0.73560602051E+02  0.29658076222E+03  0.30748836626E+03  0.41800000000E+01 0.  1.
         -5    1    3    3    0  502  0.66734250536E+02  0.39434376204E+02  0.48354387975E+03  0.48973532266E+03  0.41800000000E+01 0.  1.
        -11    1    4    4    0    0 -0.84506145875E+02 -0.32629515920E+00  0.14160065023E+03  0.16490039207E+03  0.00000000000E+00 0.  1.
         11    1    4    4    0    0 -0.16291461733E+02  0.34452521007E+02  0.22742901031E+03  0.23059996240E+03  0.00000000000E+00 0. -1.
</event>
<event>
 8    1  0.6703334E-009  0.8849709E+02  0.7561462E-02  0.1306533E+00
         -2   -1    0    0    0  501 -0.00000000000E+00  0.00000000000E+00  0.44572403402E+03  0.44572403402E+03  0.00000000000E+00 0.  1.
          2   -1    0    0  501    0  0.00000000000E+00 -0.00000000000E+00 -0.35023589220E+02  0.35023589220E+02  0.00000000000E+00 0. -1.
         25    2    1    2    0    0  0.40297755343E+02  0.38042474088E+02  0.18065794251E+03  0.22661741775E+03  0.12508806064E+03 0.  0.
         23    2    1    2    0    0 -0.40297755343E+02 -0.38042474088E+02  0.23004250229E+03  0.25413020549E+03  0.92690180505E+02 0.  0.
          5    1    3    3  502    0  0.56933386251E+02  0.59604523553E+02  0.57927846661E+02  0.10083262129E+03  0.41800000000E+01 0. -1.
         -5    1    3    3    0  502 -0.16635630908E+02 -0.21562049466E+02  0.12273009585E+03  0.12578479646E+03  0.41800000000E+01 0. -1.
        -11    1    4    4    0    0 -0.18655578250E+02  0.44891457015E+01 -0.19982768860E-02  0.19188096126E+02  0.00000000000E+00 0. -1.
         11    1    4    4    0    0 -0.21642177094E+02 -0.42531619789E+02  0.23004450057E+03  0.23494210936E+03  0.00000000000E+00 0.  1.
</event>
<event>
 8    1  0.6703334E-009  0.1122150E+03  0.7561462E-02  0.1256522E+00
          2   -1    0    0  501    0  0.00000000000E+00  0.00000000000E+00  0.12367632415E+03  0.12367632415E+03  0.00000000000E+00 0. -1.
         -2   -1    0    0    0  501 -0.00000000000E+00 -0.00000000000E+00 -0.15024835674E+03  0.15024835674E+03  0.00000000000E+00 0.  1.
         25    2    1    2    0    0  0.10438585882E+02 -0.45247552885E+02  0.41270294627E+02  0.13966864725E+03  0.12509112154E+03 0.  0.
         23    2    1    2    0    0 -0.10438585882E+02  0.45247552885E+02 -0.67842327213E+02  0.13425603365E+03  0.10614045455E+03 0.  0.
          5    1    3    3  502    0 -0.35850325638E+02 -0.53962419255E+02 -0.14530061997E+02  0.66526563431E+02  0.41800000000E+01 0. -1.
         -5    1    3    3    0  502  0.46288911520E+02  0.87148663704E+01  0.55800356624E+02  0.73142083816E+02  0.41800000000E+01 0. -1.
        -11    1    4    4    0    0  0.27410572314E+02 -0.21938296588E+02 -0.64673090623E+01  0.35699501653E+02  0.00000000000E+00 0. -1.
         11    1    4    4    0    0 -0.37849158196E+02  0.67185849473E+02 -0.61375018150E+02  0.98556531993E+02  0.00000000000E+00 0.  1.
</event>
<event>
 8    1  0.6703334E-009  0.7720859E+02  0.7561462E-02  0.1337165E+00
         -4   -1    0    0    0  501 -0.00000000000E+00  0.00000000000E+00  0.10379508881E+04  0.10379508881E+04  0.00000000000E+00 0.  1.
          4   -1    0    0  501    0  0.00000000000E+00 -0.00000000000E+00 -0.12553634114E+02  0.12553634114E+02  0.00000000000E+00 0. -1.
         25    2    1    2    0    0 -0.12325688868E+02  0.22947138358E+02  0.68645365075E+03  0.69824448191E+03  0.12509295793E+03 0.  0.
         23    2    1    2    0    0  0.12325688868E+02 -0.22947138358E+02  0.33894360321E+03  0.35226004028E+03  0.92335670547E+02 0.  0.
          5    1    3    3  502    0  0.56815850379E+01 -0.15048441512E+02  0.61505598472E+03  0.61528048299E+03  0.41800000000E+01 0. -1.
         -5    1    3    3    0  502 -0.18007273906E+02  0.37995579870E+02  0.71397666024E+02  0.82963998920E+02  0.41800000000E+01 0. -1.
        -11    1    4    4    0    0  0.47217937743E+02  0.91931994417E+01  0.18662283597E+03  0.19272293965E+03  0.00000000000E+00 0.  1.
         11    1    4    4    0    0 -0.34892248875E+02 -0.32140337800E+02  0.15232076724E+03  0.15953710063E+03  0.00000000000E+00 0. -1.
</event>
<event>
 8    1  0.6703334E-009  0.2266058E+03  0.7561462E-02  0.1129052E+00
         -2   -1    0    0    0  501 -0.00000000000E+00  0.00000000000E+00  0.44355032298E+02  0.44355032298E+02  0.00000000000E+00 0.  1.
          2   -1    0    0  501    0  0.00000000000E+00 -0.00000000000E+00 -0.15001475138E+04  0.15001475138E+04  0.00000000000E+00 0. -1.
         25    2    1    2    0    0  0.39451887606E+02  0.21767234407E+03 -0.97435146160E+03  0.10069487727E+04  0.12508940503E+03 0.  0.
         23    2    1    2    0    0 -0.39451887606E+02 -0.21767234407E+03 -0.48144101995E+03  0.53755377347E+03  0.90779418789E+02 0.  0.
          5    1    3    3  502    0  0.34675648823E+01  0.91426896389E+02 -0.65908321529E+03  0.66541645491E+03  0.41800000000E+01 0.  1.
         -5    1    3    3    0  502  0.35984322724E+02  0.12624544769E+03 -0.31526824631E+03  0.34153231776E+03  0.41800000000E+01 0.  1.
        -11    1    4    4    0    0  0.16623103584E+02 -0.78460550873E+02 -0.24220833792E+03  0.25514165589E+03  0.00000000000E+00 0. -1.
         11    1    4    4    0    0 -0.56074991190E+02 -0.13921179320E+03 -0.23923268203E+03  0.28241211758E+03  0.00000000000E+00 0.  1.
</event>
<event>
 8    1  0.6703334E-009  0.1363410E+03  0.7561462E-02  0.1218339E+00
         -2   -1    0    0    0  501 -0.00000000000E+00  0.00000000000E+00  0.34820453942E+02  0.34820453942E+02  0.00000000000E+00 0.  1.
          2   -1    0    0  501    0  0.00000000000E+00 -0.00000000000E+00 -0.70256618217E+03  0.70256618217E+03  0.00000000000E+00 0. -1.
         25    2    1    2    0    0 -0.75932088137E+02 -0.47697519614E+02 -0.51075331046E+03  0.53343887243E+03  0.12508937239E+03 0.  0.
         23    2    1    2    0    0  0.75932088137E+02  0.47697519614E+02 -0.15699241777E+03  0.20394776368E+03  0.94378682388E+02 0.  0.
          5    1    3    3  502    0 -0.68217968555E+02 -0.84984537338E+02 -0.43612734458E+03  0.44955599864E+03  0.41800000000E+01 0.  1.
         -5    1    3    3    0  502 -0.77141195815E+01  0.37287017724E+02 -0.74625965882E+02  0.83882873791E+02  0.41800000000E+01 0.  1.
        -11    1    4    4    0    0  0.43372122862E+02  0.72435401362E+02 -0.77737531906E+02  0.11476564067E+03  0.00000000000E+00 0.  1.
         11    1    4    4    0    0  0.32559965275E+02 -0.24737881748E+02 -0.79254885861E+02  0.89182123012E+02  0.00000000000E+00 0. -1.
</event>
<event>
 8    1  0.6703334E-009  0.6514407E+02  0.7561462E-02  0.1377430E+00
          1   -1    0    0  501    0  0.00000000000E+00  0.00000000000E+00  0.25389572047E+03  0.25389572047E+03  0.00000000000E+00 0. -1.
         -1   -1    0    0    0  501 -0.00000000000E+00 -0.00000000000E+00 -0.47542950696E+02  0.47542950696E+02  0.00000000000E+00 0.  1.
         25    2    1    2    0    0  0.11909028354E+02  0.33042523182E+01  0.10588009071E+03  0.16435177986E+03  0.12509264924E+03 0.  0.
         23    2    1    2    0    0 -0.11909028354E+02 -0.33042523182E+01  0.10047267906E+03  0.13708689131E+03  0.92440864830E+02 0.  0.
          5    1    3    3  502    0  0.27115688324E+02  0.10859767465E+02 -0.21035224156E+02  0.36237386192E+02  0.41800000000E+01 0.  1.
         -5    1    3    3    0  502 -0.15206659970E+02 -0.75555151470E+01  0.12691531487E+03  0.12811439367E+03  0.41800000000E+01 0.  1.
        -11    1    4    4    0    0 -0.18259052752E+02 -0.41097410512E+02  0.84190363607E+02  0.95448454585E+02  0.00000000000E+00 0. -1.
         11    1    4    4    0    0  0.63500243978E+01  0.37793158194E+02  0.16282315455E+02  0.41638436723E+02  0.00000000000E+00 0.  1.
</event>
<event>
 8    1  0.6703334E-009  0.8475162E+02  0.7561462E-02  0.1316083E+00
         -2   -1    0    0    0  501 -0.00000000000E+00  0.00000000000E+00  0.92587270328E+02  0.92587270328E+02  0.00000000000E+00 0.  1.
          2   -1    0    0  501    0  0.00000000000E+00 -0.00000000000E+00 -0.14741310445E+03  0.14741310445E+03  0.00000000000E+00 0. -1.
         25    2    1    2    0    0 -0.23579988385E+02  0.35976103339E+02 -0.29441573425E+02  0.13551617667E+03  0.12509009565E+03 0.  0.
         23    2    1    2    0    0  0.23579988385E+02 -0.35976103339E+02 -0.25384260697E+02  0.10448419811E+03  0.91773041246E+02 0.  0.
          5    1    3    3  502    0 -0.11872405092E+02  0.51954060515E+02 -0.71244158340E+02  0.89069528484E+02  0.41800000000E+01 0.  1.
         -5    1    3    3    0  502 -0.11707583293E+02 -0.15977957176E+02  0.41802584915E+02  0.46446648185E+02  0.41800000000E+01 0.  1.
        -11    1    4    4    0    0  0.87658197612E+01 -0.63736256541E+02 -0.45141495714E+00  0.64337809796E+02  0.00000000000E+00 0. -1.
         11    1    4    4    0    0  0.14814168624E+02  0.27760153202E+02 -0.24932845740E+02  0.40146388312E+02  0.00000000000E+00 0.  1.
</event>
<event>
 8    1  0.6703334E-009  0.1149026E+03  0.7561462E-02  0.1251751E+00
          1   -1    0    0  501    0  0.00000000000E+00  0.00000000000E+00  0.36629139240E+03  0.36629139240E+03  0.00000000000E+00 0. -1.
         -1   -1    0    0    0  501 -0.00000000000E+00 -0.00000000000E+00 -0.62181378783E+02  0.62181378783E+02  0.00000000000E+00 0.  1.
         25    2    1    2    0    0 -0.27819143143E+02  0.92559485751E+02  0.12010438240E+03  0.19852996303E+03  0.12509164808E+03 0.  0.
         23    2    1    2    0    0  0.27819143143E+02 -0.92559485751E+02  0.18400563122E+03  0.22994280816E+03  0.98358830704E+02 0.  0.
          5    1    3    3  502    0 -0.33046332244E+02  0.11810905599E+02  0.11159653716E+03  0.11705903242E+03  0.41800000000E+01 0. -1.
         -5    1    3    3    0  502  0.52271891007E+01  0.80748580152E+02  0.85078452426E+01  0.81470930602E+02  0.41800000000E+01 0. -1.
        -11    1    4    4    0    0  0.45745821389E+02 -0.53036625258E+02  0.17076351704E+03  0.18456907256E+03  0.00000000000E+00 0. -1.
         11    1    4    4    0    0 -0.17926678247E+02 -0.39522860493E+02  0.13242114175E+02  0.45373735600E+02  0.00000000000E+00 0.  1.
</event>
<event>
 8    1  0.6703334E-009  0.1098159E+03  0.7561462E-02  0.1260911E+00
         -4   -1    0    0    0  501 -0.00000000000E+00  0.00000000000E+00  0.13756190560E+03  0.13756190560E+03  0.00000000000E+00 0.  1.
          4   -1    0    0  501    0  0.00000000000E+00 -0.00000000000E+00 -0.14421127078E+03  0.14421127078E+03  0.00000000000E+00 0. -1.
         25    2    1    2    0    0 -0.54739104163E+02  0.35659369353E+02 -0.66529688128E+02  0.15599135948E+03  0.12505656593E+03 0.  0.
         23    2    1    2    0    0  0.54739104163E+02 -0.35659369353E+02  0.59880322944E+02  0.12578181690E+03  0.89260586154E+02 0.  0.
          5    1    3    3  502    0 -0.28193588816E+01  0.71735486283E+02 -0.13070127579E+02  0.73090556241E+02  0.41800000000E+01 0. -1.
         -5    1    3    3    0  502 -0.51919745281E+02 -0.36076116930E+02 -0.53459560548E+02  0.82900803234E+02  0.41800000000E+01 0. -1.
        -11    1    4    4    0    0  0.39804273664E+02 -0.49826157247E+02  0.76305894579E+02  0.99446546926E+02  0.00000000000E+00 0.  1.
         11    1    4    4    0    0  0.14934830499E+02  0.14166787893E+02 -0.16425571636E+02  0.26335269978E+02  0.00000000000E+00 0. -1.
</event>
<event>
 8    1  0.6703334E-009  0.1312740E+03  0.7561462E-02  0.1225577E+00
          2   -1    0    0  501    0  0.00000000000E+00  0.00000000000E+00  0.37911964527E+03  0.37911964527E+03  0.00000000000E+00 0. -1.
         -2   -1    0    0    0  501 -0.00000000000E+00 -0.00000000000E+00 -0.63662530415E+02  0.63662530415E+02  0.00000000000E+00 0.  1.
         25    2    1    2    0    0  0.49747278917E+02 -0.69177699350E+02  0.68979230059E+02  0.16633020781E+03  0.12508900033E+03 0.  0.
         23    2    1    2    0    0 -0.49747278917E+02  0.69177699350E+02  0.24647788479E+03  0.27645196787E+03  0.91727842014E+02 0.  0.
          5    1    3    3  502    0  0.89376161162E+02 -0.30957345203E+02  0.32272899708E+02  0.10002733557E+03  0.41800000000E+01 0.  1.
         -5    1    3    3    0  502 -0.39628882246E+02 -0.38220354147E+02  0.36706330350E+02  0.66302872238E+02  0.41800000000E+01 0.  1.
        -11    1    4    4    0    0 -0.66572282626E+02  0.36553252536E+02  0.21525997688E+03  0.22826490473E+03  0.00000000000E+00 0. -1.
         11    1    4    4    0    0  0.16825003710E+02  0.32624446814E+02  0.31217907917E+02  0.48187063144E+02  0.00000000000E+00 0.  1.
</event>
<event>
 8    1  0.6703334E-009  0.1235130E+03  0.7561462E-02  0.1237412E+00
         -2   -1    0    0    0  501 -0.00000000000E+00  0.00000000000E+00  0.34770907520E+02  0.34770907520E+02  0.00000000000E+00 0.  1.
          2   -1    0    0  501    0  0.00000000000E+00 -0.00000000000E+00 -0.45314271795E+03  0.45314271795E+03  0.00000000000E+00 0. -1.
         25    2    1    2    0    0 -0.56453994271E+02 -0.33047360601E+01 -0.27267142605E+03  0.30527937653E+03  0.12509123231E+03 0.  0.
         23    2    1    2    0    0  0.56453994271E+02  0.33047360601E+01 -0.14570038438E+03  0.18263424894E+03  0.94491756930E+02 0.  0.
          5    1    3    3  502    0 -0.96282702410E+02 -0.73709132940E+01 -0.18196294044E+03  0.20604046505E+03  0.41800000000E+01 0.  1.
         -5    1    3    3    0  502  0.39828708139E+02  0.40661772338E+01 -0.90708485614E+02  0.99238911480E+02  0.41800000000E+01 0.  1.
        -11    1    4    4    0    0  0.81802496511E+01  0.45361596822E+02 -0.61694340361E+02  0.77011574345E+02  0.00000000000E+00 0. -1.
         11    1    4    4    0    0  0.48273744620E+02 -0.42056860762E+02 -0.84006044021E+02  0.10562267460E+03  0.00000000000E+00 0.  1.
</event>
<event>
 8    1  0.6703334E-009  0.1258992E+03  0.7561462E-02  0.1233671E+00
         -2   -1    0    0    0  501 -0.00000000000E+00  0.00000000000E+00  0.20707336877E+03  0.20707336877E+03  0.00000000000E+00 0.  1.
          2   -1    0    0  501    0  0.00000000000E+00 -0.00000000000E+00 -0.13165274983E+03  0.13165274983E+03  0.00000000000E+00 0. -1.
         25    2    1    2    0    0  0.42915118857E+02  0.99840046658E+02  0.10619294165E+03  0.19681419039E+03  0.12509653209E+03 0.  0.
         23    2    1    2    0    0 -0.42915118857E+02 -0.99840046658E+02 -0.30772322707E+02  0.14191192821E+03  0.85920411900E+02 0.  0.
          5    1    3    3  502    0  0.12656716376E+02  0.67602332959E+02  0.12947698359E+03  0.14666979774E+03  0.41800000000E+01 0. -1.
         -5    1    3    3    0  502  0.30258402480E+02  0.32237713700E+02 -0.23284041941E+02  0.50144392651E+02  0.41800000000E+01 0. -1.
        -11    1    4    4    0    0 -0.65849331423E+02 -0.47061493176E+02 -0.16075188030E+02  0.82518666125E+02  0.00000000000E+00 0.  1.
         11    1    4    4    0    0  0.22934212566E+02 -0.52778553483E+02 -0.14697134678E+02  0.59393262088E+02  0.00000000000E+00 0. -1.
</event>
<event>
 8    1  0.6703334E-009  0.1941230E+03  0.7561462E-02  0.1154794E+00
         -2   -1    0    0    0  501 -0.00000000000E+00  0.00000000000E+00  0.36044104879E+02  0.36044104879E+02  0.00000000000E+00 0. -1.
          2   -1    0    0  501    0  0.00000000000E+00 -0.00000000000E+00 -0.12695225165E+04  0.12695225165E+04  0.00000000000E+00 0.  1.
         25    2    1    2    0    0 -0.15441978062E+03  0.91820869748E+02 -0.51688509803E+03  0.56133297215E+03  0.12509180744E+03 0.  0.
         23    2    1    2    0    0  0.15441978062E+03 -0.91820869748E+02 -0.71659331358E+03  0.74423364922E+03  0.90006704144E+02 0.  0.
          5    1    3    3  502    0 -0.89142611155E+02  0.22216085208E+02 -0.10995977079E+03  0.14334776998E+03  0.41800000000E+01 0.  1.
         -5    1    3    3    0  502 -0.65277169470E+02  0.69604784540E+02 -0.40692532725E+03  0.41798520218E+03  0.41800000000E+01 0.  1.
        -11    1    4    4    0    0  0.74467094159E+02 -0.95050414929E+02 -0.44614300792E+03  0.46219423732E+03  0.00000000000E+00 0.  1.
         11    1    4    4    0    0  0.79952686466E+02  0.32295451812E+01 -0.27045030566E+03  0.28203941190E+03  0.00000000000E+00 0. -1.
</event>
<event>
 8    1  0.6703334E-009  0.2175645E+03  0.7561462E-02  0.1135712E+00
         -1   -1    0    0    0  501 -0.00000000000E+00  0.00000000000E+00  0.40525737086E+02  0.40525737086E+02  0.00000000000E+00 0.  1.
          1   -1    0    0  501    0  0.00000000000E+00 -0.00000000000E+00 -0.12987802582E+04  0.12987802582E+04  0.00000000000E+00 0. -1.
         25    2    1    2    0    0  0.19323034512E+03  0.54924569231E+02 -0.58883267604E+03  0.63460474553E+03  0.12507832783E+03 0.  0.
         23    2    1    2    0    0 -0.19323034512E+03 -0.54924569231E+02 -0.66942184503E+03  0.70470124971E+03  0.90130850264E+02 0.  0.
          5    1    3    3  502    0 -0.17772489095E+01 -0.91698717620E+01  0.78484223731E+00  0.10263212906E+02  0.41800000000E+01 0.  1.
         -5    1    3    3    0  502  0.19500759403E+03  0.64094440993E+02 -0.58961751828E+03  0.62434153262E+03  0.41800000000E+01 0.  1.
        -11    1    4    4    0    0 -0.15508958791E+03 -0.29533125301E+01 -0.49573987211E+03  0.51944154930E+03  0.00000000000E+00 0. -1.
         11    1    4    4    0    0 -0.38140757209E+02 -0.51971256701E+02 -0.17368197291E+03  0.18525970042E+03  0.00000000000E+00 0.  1.
</event>
<event>
 8    1  0.6703334E-009  0.1179737E+03  0.7561462E-02  0.1246478E+00
         -1   -1    0    0    0  501 -0.00000000000E+00  0.00000000000E+00  0.33186679650E+02  0.33186679650E+02  0.00000000000E+00 0.  1.
          1   -1    0    0  501    0  0.00000000000E+00 -0.00000000000E+00 -0.44003061539E+03  0.44003061539E+03  0.00000000000E+00 0. -1.
         25    2    1    2    0    0 -0.20205509184E+01 -0.52125915012E+02 -0.25708552479E+03  0.29062804079E+03  0.12510194801E+03 0.  0.
         23    2    1    2    0    0  0.20205509184E+01  0.52125915012E+02 -0.14975841095E+03  0.18258925425E+03  0.90498952890E+02 0.  0.
          5    1    3    3  502    0  0.51852876472E+02 -0.57079812214E+02 -0.11491968479E+03  0.13845877406E+03  0.41800000000E+01 0.  1.
         -5    1    3    3    0  502 -0.53873427391E+02  0.49538972016E+01 -0.14216584000E+03  0.15216926673E+03  0.41800000000E+01 0.  1.
        -11    1    4    4    0    0 -0.64653124426E+01  0.77464977207E+02 -0.11122578831E+03  0.13569745371E+03  0.00000000000E+00 0.  1.
         11    1    4    4    0    0  0.84858633609E+01 -0.25339062195E+02 -0.38532622641E+02  0.46891800535E+02  0.00000000000E+00 0. -1.
</event>
<event>
 8    1  0.6703334E-009  0.9949387E+02  0.7561462E-02  0.1281364E+00
          2   -1    0    0  501    0  0.00000000000E+00  0.00000000000E+00  0.87027885987E+02  0.87027885987E+02  0.00000000000E+00 0. -1.
         -2   -1    0    0    0  501 -0.00000000000E+00 -0.00000000000E+00 -0.15658122051E+03  0.15658122051E+03  0.00000000000E+00 0.  1.
         25    2    1    2    0    0  0.61075401391E+01  0.12140407006E+02  0.15500597404E+01  0.12583709822E+03  0.12509149081E+03 0.  0.
         23    2    1    2    0    0 -0.61075401391E+01 -0.12140407006E+02 -0.71103394266E+02  0.11777200828E+03  0.92897049092E+02 0.  0.
          5    1    3    3  502    0  0.38255393050E+02 -0.33851610133E+02  0.33403603972E+02  0.61177444898E+02  0.41800000000E+01 0. -1.
         -5    1    3    3    0  502 -0.32147852911E+02  0.45992017138E+02 -0.31853544231E+02  0.64659653319E+02  0.41800000000E+01 0. -1.
        -11    1    4    4    0    0 -0.43886063254E+02 -0.26250619202E+02 -0.26343322816E+02  0.57524361912E+02  0.00000000000E+00 0. -1.
         11    1    4    4    0    0  0.37778523115E+02  0.14110212197E+02 -0.44760071450E+02  0.60247646371E+02  0.00000000000E+00 0.  1.
</event>
<event>
 8    1  0.6703334E-009  0.1380741E+03  0.7561462E-02  0.1215944E+00
         -4   -1    0    0    0  501 -0.00000000000E+00  0.00000000000E+00  0.21386907388E+03  0.21386907388E+03  0.00000000000E+00 0.  1.
          4   -1    0    0  501    0  0.00000000000E+00 -0.00000000000E+00 -0.16696481790E+03  0.16696481790E+03  0.00000000000E+00 0. -1.
         25    2    1    2    0    0  0.10271457252E+03 -0.70310137798E+02 -0.67207709705E+02  0.18885175313E+03  0.12511718319E+03 0.  0.
         23    2    1    2    0    0 -0.10271457252E+03  0.70310137798E+02  0.11411196569E+03  0.19198213866E+03  0.91333465745E+02 0.  0.
          5    1    3    3  502    0 -0.52259762419E+01 -0.10287192654E+02  0.29487809620E+02  0.31939638015E+02  0.41800000000E+01 0. -1.
         -5    1    3    3    0  502  0.10794054876E+03 -0.60022945144E+02 -0.96695519325E+02  0.15691211511E+03  0.41800000000E+01 0. -1.
        -11    1    4    4    0    0 -0.75641108419E+02  0.12775841245E+02  0.21546277785E+02  0.79680872791E+02  0.00000000000E+00 0. -1.
         11    1    4    4    0    0 -0.27073464103E+02  0.57534296553E+02  0.92565687902E+02  0.11230126587E+03  0.00000000000E+00 0.  1.
</event>
<event>
 8    1  0.6703334E-009  0.1172939E+03  0.7561462E-02  0.1247629E+00
         -2   -1    0    0    0  501 -0.00000000000E+00  0.00000000000E+00  0.10296929881E+03  0.10296929881E+03  0.00000000000E+00 0.  1.
          2   -1    0    0  501    0  0.00000000000E+00 -0.00000000000E+00 -0.22187168867E+03  0.22187168867E+03  0.00000000000E+00 0. -1.
         25    2    1    2    0    0 -0.55195920684E+02 -0.82267594181E+02 -0.10048785733E+03  0.18856912501E+03  0.12508380680E+03 0.  0.
         23    2    1    2    0    0  0.55195920684E+02  0.82267594181E+02 -0.18414532533E+02  0.13627186248E+03  0.91740823965E+02 0.  0.
          5    1    3    3  502    0 -0.19438541349E+02  0.69843841607E+00 -0.95976110598E+02  0.98016482856E+02  0.41800000000E+01 0. -1.
         -5    1    3    3    0  502 -0.35757379335E+02 -0.82966032597E+02 -0.45117467320E+01  0.90552642150E+02  0.41800000000E+01 0. -1.
        -11    1    4    4    0    0  0.17938666643E+00 -0.13663654091E+02  0.15439812678E+02  0.20618327727E+02  0.00000000000E+00 0.  1.
         11    1    4    4    0    0  0.55016534018E+02  0.95931248273E+02 -0.33854345211E+02  0.11565353475E+03  0.00000000000E+00 0. -1.
</event>
<event>
 8    1  0.6703334E-009  0.1050348E+03  0.7561462E-02  0.1270051E+00
         -2   -1    0    0    0  501 -0.00000000000E+00  0.00000000000E+00  0.10042164964E+03  0.10042164964E+03  0.00000000000E+00 0. -1.
          2   -1    0    0  501    0  0.00000000000E+00 -0.00000000000E+00 -0.17745875980E+03  0.17745875980E+03  0.00000000000E+00 0.  1.
         25    2    1    2    0    0  0.21290256886E+02 -0.22469693571E+02 -0.11908834045E+03  0.17545858483E+03  0.12508205304E+03 0.  0.
         23    2    1    2    0    0 -0.21290256886E+02  0.22469693571E+02  0.42051230289E+02  0.10242182462E+03  0.88112212670E+02 0.  0.
          5    1    3    3  502    0 -0.29086699355E+02 -0.56551250181E+02 -0.82883965500E+02  0.10455287712E+03  0.41800000000E+01 0.  1.
         -5    1    3    3    0  502  0.50376956241E+02  0.34081556610E+02 -0.36204374948E+02  0.70905707714E+02  0.41800000000E+01 0.  1.
        -11    1    4    4    0    0 -0.10027364531E+02 -0.30039948996E+02 -0.36832135023E+01  0.31882795310E+02  0.00000000000E+00 0.  1.
         11    1    4    4    0    0 -0.11262892356E+02  0.52509642567E+02  0.45734443791E+02  0.70539029307E+02  0.00000000000E+00 0. -1.
</event>
<event>
 8    1  0.6703334E-009  0.7478117E+02  0.7561462E-02  0.1344550E+00
         -1   -1    0    0    0  501 -0.00000000000E+00  0.00000000000E+00  0.55961421981E+02  0.55961421981E+02  0.00000000000E+00 0.  1.
          1   -1    0    0  501    0  0.00000000000E+00 -0.00000000000E+00 -0.23303710348E+03  0.23303710348E+03  0.00000000000E+00 0. -1.
         25    2    1    2    0    0 -0.13292903111E+02  0.31955661380E+02 -0.98046851273E+02  0.16266255861E+03  0.12509219544E+03 0.  0.
         23    2    1    2    0    0  0.13292903111E+02 -0.31955661380E+02 -0.79028830227E+02  0.12633596685E+03  0.92289516993E+02 0.  0.
          5    1    3    3  502    0 -0.12511534794E+01 -0.14060308154E+02 -0.11196338872E+03  0.11292710243E+03  0.41800000000E+01 0.  1.
         -5    1    3    3    0  502 -0.12041749632E+02  0.46015969533E+02  0.13916537447E+02  0.49735456174E+02  0.41800000000E+01 0.  1.
        -11    1    4    4    0    0  0.34468467645E+02 -0.48999957267E+02 -0.79007903810E+02  0.99153012756E+02  0.00000000000E+00 0. -1.
         11    1    4    4    0    0 -0.21175564534E+02  0.17044295888E+02 -0.20926416339E-01  0.27182954099E+02  0.00000000000E+00 0.  1.
</event>
<event>
 8    1  0.6703334E-009  0.1099171E+03  0.7561462E-02  0.1260723E+00
         -1   -1    0    0    0  501 -0.00000000000E+00  0.00000000000E+00  0.12506820656E+02  0.12506820656E+02  0.00000000000E+00 0.  1.
          1   -1    0    0  501    0  0.00000000000E+00 -0.00000000000E+00 -0.10911271071E+04  0.10911271071E+04  0.00000000000E+00 0. -1.
         25    2    1    2    0    0  0.25666194507E+02  0.13022609202E+02 -0.77361895954E+03  0.78419537126E+03  0.12509094234E+03 0.  0.
         23    2    1    2    0    0 -0.25666194507E+02 -0.13022609202E+02 -0.30500132689E+03  0.31943855648E+03  0.90481158654E+02 0.  0.
          5    1    3    3  502    0  0.30991874920E+01 -0.53894006173E+02 -0.42795613093E+03  0.43136769845E+03  0.41800000000E+01 0.  1.
         -5    1    3    3    0  502  0.22567007015E+02  0.66916615375E+02 -0.34566282861E+03  0.35282767281E+03  0.41800000000E+01 0.  1.
        -11    1    4    4    0    0  0.31001181624E+01  0.37060528070E+02 -0.12042240908E+03  0.12603432104E+03  0.00000000000E+00 0.  1.
         11    1    4    4    0    0 -0.28766312669E+02 -0.50083137272E+02 -0.18457891782E+03  0.19340423544E+03  0.00000000000E+00 0. -1.
</event>
<event>
 8    1  0.6703334E-009  0.1609026E+03  0.7561462E-02  0.1187681E+00
          2   -1    0    0  501    0  0.00000000000E+00  0.00000000000E+00  0.17583709125E+03  0.17583709125E+03  0.00000000000E+00 0. -1.
         -2   -1    0    0    0  501 -0.00000000000E+00 -0.00000000000E+00 -0.24540310972E+03  0.24540310972E+03  0.00000000000E+00 0.  1.
         25    2    1    2    0    0 -0.70942019097E+02 -0.12957891904E+03  0.62512425994E+02  0.20341586417E+03  0.12508694599E+03 0.  0.
         23    2    1    2    0    0  0.70942019097E+02  0.12957891904E+03 -0.13207844446E+03  0.21782433681E+03  0.90439260720E+02 0.  0.
          5    1    3    3  502    0 -0.42337731461E+02 -0.10726051990E+03 -0.16316781971E+02  0.11653760083E+03  0.41800000000E+01 0.  1.
         -5    1    3    3    0  502 -0.28604287636E+02 -0.22318399149E+02  0.78829207965E+02  0.86878263335E+02  0.41800000000E+01 0.  1.
        -11    1    4    4    0    0  0.44696234646E+02  0.13576194182E+03 -0.93645373139E+02  0.17087572721E+03  0.00000000000E+00 0. -1.
         11    1    4    4    0    0  0.26245784452E+02 -0.61830227739E+01 -0.38433071325E+02  0.46948609602E+02  0.00000000000E+00 0.  1.
</event>
<event>
 8    1  0.6703334E-009  0.1707630E+03  0.7561462E-02  0.1177055E+00
         -1   -1    0    0    0  501 -0.00000000000E+00  0.00000000000E+00  0.55750997098E+03  0.55750997098E+03  0.00000000000E+00 0.  1.
          1   -1    0    0  501    0  0.00000000000E+00 -0.00000000000E+00 -0.62659307348E+02  0.62659307348E+02  0.00000000000E+00 0. -1.
         25    2    1    2    0    0  0.12277438681E+03 -0.89408620554E+02  0.28689699870E+03  0.34788820803E+03  0.12509542733E+03 0.  0.
         23    2    1    2    0    0 -0.12277438681E+03  0.89408620554E+02  0.20795366493E+03  0.27228107029E+03  0.88457916531E+02 0.  0.
          5    1    3    3  502    0  0.92458622005E+02 -0.27241007681E+02  0.25295633778E+03  0.27073058657E+03  0.41800000000E+01 0. -1.
         -5    1    3    3    0  502  0.30315764803E+02 -0.62167612874E+02  0.33940660923E+02  0.77157621464E+02  0.41800000000E+01 0. -1.
        -11    1    4    4    0    0 -0.53367391729E+02 -0.10216891902E+02  0.65363439408E+02  0.84999074062E+02  0.00000000000E+00 0.  1.
         11    1    4    4    0    0 -0.69406995078E+02  0.99625512457E+02  0.14259022552E+03  0.18728199623E+03  0.00000000000E+00 0. -1.
</event>
<event>
 8    1  0.6703334E-009  0.6340354E+02  0.7561462E-02  0.1384079E+00
          1   -1    0    0  501    0  0.00000000000E+00  0.00000000000E+00  0.18573257447E+03  0.18573257447E+03  0.00000000000E+00 0. -1.
         -1   -1    0    0    0  501 -0.00000000000E+00 -0.00000000000E+00 -0.64723383188E+02  0.64723383188E+02  0.00000000000E+00 0.  1.
         25    2    1    2    0    0 -0.24771298624E+00 -0.12694264451E+02  0.84852485149E+02  0.15168466235E+03  0.12508831617E+03 0.  0.
         23    2    1    2    0    0  0.24771298624E+00  0.12694264451E+02  0.36156706131E+02  0.98771295310E+02  0.91034365309E+02 0.  0.
          5    1    3    3  502    0  0.29462532331E+02 -0.44579073017E+02 -0.28365159191E+01  0.53673576226E+02  0.41800000000E+01 0.  1.
         -5    1    3    3    0  502 -0.29710245317E+02  0.31884808566E+02  0.87689001068E+02  0.98011086120E+02  0.41800000000E+01 0.  1.
        -11    1    4    4    0    0 -0.12393002897E+02  0.11189638140E+02 -0.28414501170E+02  0.32957220746E+02  0.00000000000E+00 0.  1.
         11    1    4    4    0    0  0.12640715884E+02  0.15046263103E+01  0.64571207301E+02  0.65814074564E+02  0.00000000000E+00 0. -1.
</event>
<event>
 8    1  0.6703334E-009  0.1065135E+03  0.7561462E-02  0.1267166E+00
         -3   -1    0    0    0  501 -0.00000000000E+00  0.00000000000E+00  0.36113811051E+02  0.36113811051E+02  0.00000000000E+00 0.  1.
          3   -1    0    0  501    0  0.00000000000E+00 -0.00000000000E+00 -0.32970892152E+03  0.32970892152E+03  0.00000000000E+00 0. -1.
         25    2    1    2    0    0 -0.22919745499E+02  0.33618992801E+02 -0.18518465701E+03  0.22715042112E+03  0.12509358582E+03 0.  0.
         23    2    1    2    0    0  0.22919745499E+02 -0.33618992801E+02 -0.10841045346E+03  0.13867231145E+03  0.76299620794E+02 0.  0.
          5    1    3    3  502    0 -0.59639653602E+02  0.60825043184E+02 -0.12831722454E+03  0.15407581469E+03  0.41800000000E+01 0.  1.
         -5    1    3    3    0  502  0.36719908103E+02 -0.27206050382E+02 -0.56867432476E+02  0.73074606431E+02  0.41800000000E+01 0.  1.
        -11    1    4    4    0    0  0.25522501909E+02 -0.54829246702E+02 -0.97359424101E+02  0.11461457961E+03  0.00000000000E+00 0. -1.
         11    1    4    4    0    0 -0.26027564105E+01  0.21210253901E+02 -0.11051029354E+02  0.24057731839E+02  0.00000000000E+00 0.  1.
</event>
<event>
 8    1  0.6703334E-009  0.1543985E+03  0.7561462E-02  0.1195170E+00
         -1   -1    0    0    0  501 -0.00000000000E+00  0.00000000000E+00  0.65290783011E+03  0.65290783011E+03  0.00000000000E+00 0.  1.
          1   -1    0    0  501    0  0.00000000000E+00 -0.00000000000E+00 -0.52381544539E+02  0.52381544539E+02  0.00000000000E+00 0. -1.
         25    2    1    2    0    0  0.58643817348E+02 -0.12597263413E+03  0.21166566507E+03  0.28241783904E+03  0.12509708299E+03 0.  0.
         23    2    1    2    0    0 -0.58643817348E+02  0.12597263413E+03  0.38886062050E+03  0.42287153561E+03  0.91101874793E+02 0.  0.
          5    1    3    3  502    0  0.21667359799E+02 -0.99550900065E+02  0.21365125570E+03  0.23673653636E+03  0.41800000000E+01 0.  1.
         -5    1    3    3    0  502  0.36976457549E+02 -0.26421734069E+02 -0.19855906323E+01  0.45681302677E+02  0.41800000000E+01 0.  1.
        -11    1    4    4    0    0  0.31045539742E+01  0.89341128278E+02  0.16339931055E+03  0.18625469161E+03  0.00000000000E+00 0.  1.
         11    1    4    4    0    0 -0.61748371322E+02  0.36631505857E+02  0.22546130995E+03  0.23661684401E+03  0.00000000000E+00 0. -1.
</event>
<event>
 8    1  0.6703334E-009  0.3548942E+03  0.7561462E-02  0.1060624E+00
         -2   -1    0    0    0  501 -0.00000000000E+00  0.00000000000E+00  0.94726077808E+02  0.94726077808E+02  0.00000000000E+00 0.  1.
          2   -1    0    0  501    0  0.00000000000E+00 -0.00000000000E+00 -0.19554218609E+04  0.19554218609E+04  0.00000000000E+00 0. -1.
         25    2    1    2    0    0 -0.29093584273E+03  0.17981601071E+03 -0.15044889019E+04  0.15479378330E+04  0.12508883430E+03 0.  0.
         23    2    1    2    0    0  0.29093584273E+03 -0.17981601071E+03 -0.35620688117E+03  0.50221010573E+03  0.91401235296E+02 0.  0.
          5    1    3    3  502    0 -0.29684033100E+03  0.18338014496E+03 -0.14962851660E+04  0.15364339329E+04  0.41800000000E+01 0.  1.
         -5    1    3    3    0  502  0.59044882683E+01 -0.35641342523E+01 -0.82037359187E+01  0.11503900108E+02  0.41800000000E+01 0.  1.
        -11    1    4    4    0    0  0.24862123774E+03 -0.11162616091E+03 -0.29212531995E+03  0.39951235552E+03  0.00000000000E+00 0.  1.
         11    1    4    4    0    0  0.42314604987E+02 -0.68189849793E+02 -0.64081561221E+02  0.10269775021E+03  0.00000000000E+00 0. -1.
</event>
<event>
 8    1  0.6703334E-009  0.1279631E+03  0.7561462E-02  0.1230510E+00
          1   -1    0    0  501    0  0.00000000000E+00  0.00000000000E+00  0.34851865978E+02  0.34851865978E+02  0.00000000000E+00 0. -1.
         -1   -1    0    0    0  501 -0.00000000000E+00 -0.00000000000E+00 -0.81855929996E+03  0.81855929996E+03  0.00000000000E+00 0.  1.
         25    2    1    2    0    0  0.98028209176E+02  0.19720461346E+02 -0.25816364133E+03  0.30380113276E+03  0.12509291015E+03 0.  0.
         23    2    1    2    0    0 -0.98028209176E+02 -0.19720461346E+02 -0.52554379265E+03  0.54961003318E+03  0.12600192137E+03 0.  0.
          5    1    3    3  502    0  0.77093292385E+02 -0.55479311217E+01 -0.48065594060E+02  0.91114921955E+02  0.41800000000E+01 0. -1.
         -5    1    3    3    0  502  0.20934916791E+02  0.25268392468E+02 -0.21009804727E+03  0.21268621081E+03  0.41800000000E+01 0. -1.
        -11    1    4    4    0    0 -0.66612911611E+02  0.40187062561E+02 -0.39492329548E+03  0.40251296787E+03  0.00000000000E+00 0.  1.
         11    1    4    4    0    0 -0.31415297564E+02 -0.59907523908E+02 -0.13062049717E+03  0.14709706531E+03  0.00000000000E+00 0. -1.
</event>
<event>
 8    1  0.6703334E-009  0.7080533E+02  0.7561462E-02  0.1357376E+00
          2   -1    0    0  501    0  0.00000000000E+00  0.00000000000E+00  0.22184929613E+03  0.22184929613E+03  0.00000000000E+00 0. -1.
         -2   -1    0    0    0  501 -0.00000000000E+00 -0.00000000000E+00 -0.61576855745E+02  0.61576855745E+02  0.00000000000E+00 0.  1.
         25    2    1    2    0    0  0.33913309477E+02  0.22646385815E+02  0.11359673535E+03  0.17382849746E+03  0.12509659027E+03 0.  0.
         23    2    1    2    0    0 -0.33913309477E+02 -0.22646385815E+02  0.46675705040E+02  0.10959765442E+03  0.90388345832E+02 0.  0.
          5    1    3    3  502    0  0.49816433121E+02  0.48594871853E+02  0.12327181654E+03  0.14162115567E+03  0.41800000000E+01 0. -1.
         -5    1    3    3    0  502 -0.15903123645E+02 -0.25948486038E+02 -0.96750811937E+01  0.32207341794E+02  0.41800000000E+01 0. -1.
        -11    1    4    4    0    0 -0.16330468788E+02 -0.14312928056E+02  0.73397444554E+02  0.76542334609E+02  0.00000000000E+00 0. -1.
         11    1    4    4    0    0 -0.17582840689E+02 -0.83334577586E+01 -0.26721739513E+02  0.33055319807E+02  0.00000000000E+00 0.  1.
</event>
<event>
 8    1  0.6703334E-009  0.4254153E+02  0.7561462E-02  0.1490300E+00
         -2   -1    0    0    0  501 -0.00000000000E+00  0.00000000000E+00  0.71566170500E+02  0.71566170500E+02  0.00000000000E+00 0.  1.
          2   -1    0    0  501    0  0.00000000000E+00 -0.00000000000E+00 -0.17308390469E+03  0.17308390469E+03  0.00000000000E+00 0. -1.
         25    2    1    2    0    0 -0.16907444816E+02 -0.11267606584E+02 -0.38034548068E+02  0.13233689154E+03  0.12511436915E+03 0.  0.
         23    2    1    2    0    0  0.16907444816E+02  0.11267606584E+02 -0.63483186122E+02  0.11231318365E+03  0.90395329824E+02 0.  0.
          5    1    3    3  502    0 -0.18369261975E+02 -0.14064252857E+02  0.44132108610E+02  0.50003483922E+02  0.41800000000E+01 0. -1.
         -5    1    3    3    0  502  0.14618171596E+01  0.27966462730E+01 -0.82166656679E+02  0.82333407615E+02  0.41800000000E+01 0. -1.
        -11    1    4    4    0    0  0.35437121760E+02  0.16899908448E+01  0.92374021699E+01  0.36660268228E+02  0.00000000000E+00 0.  1.
         11    1    4    4    0    0 -0.18529676944E+02  0.95776157389E+01 -0.72720588292E+02  0.75652915426E+02  0.00000000000E+00 0. -1.
</event>
<event>
 8    1  0.6703334E-009  0.1630372E+03  0.7561462E-02  0.1185310E+00
          1   -1    0    0  501    0  0.00000000000E+00  0.00000000000E+00  0.14919930097E+03  0.14919930097E+03  0.00000000000E+00 0. -1.
         -1   -1    0    0    0  501 -0.00000000000E+00 -0.00000000000E+00 -0.24930582576E+03  0.24930582576E+03  0.00000000000E+00 0.  1.
         25    2    1    2    0    0 -0.14858655079E+03  0.13232552157E+02 -0.11047623236E+03  0.22384390651E+03  0.12509209829E+03 0.  0.
         23    2    1    2    0    0  0.14858655079E+03 -0.13232552157E+02  0.10369707564E+02  0.17466122022E+03  0.90254902926E+02 0.  0.
          5    1    3    3  502    0 -0.23045416817E+01  0.64093637783E+01 -0.71909021136E+02  0.72351714404E+02  0.41800000000E+01 0. -1.
         -5    1    3    3    0  502 -0.14628200911E+03  0.68231883790E+01 -0.38567211219E+02  0.15149219211E+03  0.41800000000E+01 0. -1.
        -11    1    4    4    0    0  0.60268793000E+02  0.36266444647E+02  0.19542524654E+02  0.73003374489E+02  0.00000000000E+00 0. -1.
         11    1    4    4    0    0  0.88317757793E+02 -0.49498996804E+02 -0.91728170896E+01  0.10165784574E+03  0.00000000000E+00 0.  1.
</event>
<event>
 8    1  0.6703334E-009  0.1341809E+03  0.7561462E-02  0.1221381E+00
         -2   -1    0    0    0  501 -0.00000000000E+00  0.00000000000E+00  0.13946576794E+03  0.13946576794E+03  0.00000000000E+00 0. -1.
          2   -1    0    0  501    0  0.00000000000E+00 -0.00000000000E+00 -0.45534507840E+03  0.45534507840E+03  0.00000000000E+00 0.  1.
         25    2    1    2    0    0  0.11075831576E+03  0.69323641501E+02  0.55998970265E+02  0.18935719508E+03  0.12508833230E+03 0.  0.
         23    2    1    2    0    0 -0.11075831576E+03 -0.69323641501E+02 -0.37187828072E+03  0.40545365127E+03  0.95005451805E+02 0.  0.
          5    1    3    3  502    0  0.10215308818E+03  0.45272935809E+02 -0.15902111348E+02  0.11293910610E+03  0.41800000000E+01 0. -1.
         -5    1    3    3    0  502  0.86052275728E+01  0.24050705692E+02  0.71901081613E+02  0.76418088977E+02  0.41800000000E+01 0. -1.
        -11    1    4    4    0    0 -0.29592981971E+02 -0.18489891602E+02 -0.18839140229E+02  0.39655187277E+02  0.00000000000E+00 0. -1.
         11    1    4    4    0    0 -0.81165333784E+02 -0.50833749899E+02 -0.35303914049E+03  0.36579846399E+03  0.00000000000E+00 0.  1.
</event>
<event>
 8    1  0.6703334E-009  0.1199242E+03  0.7561462E-02  0.1243222E+00
          2   -1    0    0  501    0  0.00000000000E+00  0.00000000000E+00  0.22707432607E+03  0.22707432607E+03  0.00000000000E+00 0.  1.
         -2   -1    0    0    0  501 -0.00000000000E+00 -0.00000000000E+00 -0.87762987541E+02  0.87762987541E+02  0.00000000000E+00 0. -1.
         25    2    1    2    0    0  0.13727341669E+02  0.86403843598E+02  0.10148122912E+03  0.18330620993E+03  0.12509461474E+03 0.  0.
         23    2    1    2    0    0 -0.13727341669E+02 -0.86403843598E+02  0.37830109405E+02  0.13153110368E+03  0.90638016080E+02 0.  0.
          5    1    3    3  502    0 -0.51058715008E+02  0.40040144024E+02  0.74974351657E+02  0.99241278297E+02  0.41800000000E+01 0. -1.
         -5    1    3    3    0  502  0.64786056677E+02  0.46363699574E+02  0.26506877467E+02  0.84064931636E+02  0.41800000000E+01 0. -1.
        -11    1    4    4    0    0 -0.13512043776E+02 -0.62333490508E+01 -0.25392138634E+02  0.29431117407E+02  0.00000000000E+00 0. -1.
         11    1    4    4    0    0 -0.21529789205E+00 -0.80170494548E+02  0.63222248039E+02  0.10209998627E+03  0.00000000000E+00 0.  1.
</event>
<event>
 8    1  0.6703334E-009  0.1622716E+03  0.7561462E-02  0.1186156E+00
          1   -1    0    0  501    0  0.00000000000E+00  0.00000000000E+00  0.32802320627E+03  0.32802320627E+03  0.00000000000E+00 0. -1.
         -1   -1    0    0    0  501 -0.00000000000E+00 -0.00000000000E+00 -0.14879525961E+03  0.14879525961E+03  0.00000000000E+00 0.  1.
         25    2    1    2    0    0 -0.15569696895E+03  0.71700715832E+01 -0.30450293774E+02  0.20215848826E+03  0.12509147820E+03 0.  0.
         23    2    1    2    0    0  0.15569696895E+03 -0.71700715832E+01  0.20967824043E+03  0.27465997763E+03  0.84735958904E+02 0.  0.
          5    1    3    3  502    0 -0.10720326524E+03 -0.22328902260E+02 -0.72499300728E+02  0.13139536126E+03  0.41800000000E+01 0. -1.
         -5    1    3    3    0  502 -0.48493703711E+02  0.29498973843E+02  0.42049006954E+02  0.70763127003E+02  0.41800000000E+01 0. -1.
        -11    1    4    4    0    0  0.11686306061E+03  0.60569048617E+01  0.88475174753E+02  0.14670213897E+03  0.00000000000E+00 0.  1.
         11    1    4    4    0    0  0.38833908344E+02 -0.13226976445E+02  0.12120306568E+03  0.12795783866E+03  0.00000000000E+00 0. -1.
</event>
<event>
 8    1  0.6703334E-009  0.1450191E+03  0.7561462E-02  0.1206731E+00
          2   -1    0    0  501    0  0.00000000000E+00  0.00000000000E+00  0.49972456355E+03  0.49972456355E+03  0.00000000000E+00 0. -1.
         -2   -1    0    0    0  501 -0.00000000000E+00 -0.00000000000E+00 -0.62011016633E+02  0.62011016633E+02  0.00000000000E+00 0.  1.
         25    2    1    2    0    0 -0.10859801410E+03  0.81790966332E+02  0.18503591266E+03  0.26147526567E+03  0.12509090593E+03 0.  0.
         23    2    1    2    0    0  0.10859801410E+03 -0.81790966332E+02  0.25267763426E+03  0.30026031451E+03  0.88470214044E+02 0.  0.
          5    1    3    3  502    0 -0.77503034299E+02  0.32228336004E+02  0.20088721560E+02  0.86408420313E+02  0.41800000000E+01 0.  1.
         -5    1    3    3    0  502 -0.31094979802E+02  0.49562630328E+02  0.16494719110E+03  0.17506684536E+03  0.41800000000E+01 0.  1.
        -11    1    4    4    0    0  0.41010871644E+02 -0.66364381416E+02  0.69791018584E+02  0.10467525490E+03  0.00000000000E+00 0. -1.
         11    1    4    4    0    0  0.67587142457E+02 -0.15426584916E+02  0.18288661568E+03  0.19558505961E+03  0.00000000000E+00 0.  1.
</event>
<event>
 8    1  0.6703334E-009  0.1100051E+03  0.7561462E-02  0.1260561E+00
          3   -1    0    0  501    0  0.00000000000E+00  0.00000000000E+00  0.31925509052E+03  0.31925509052E+03  0.00000000000E+00 0. -1.
         -3   -1    0    0    0  501 -0.00000000000E+00 -0.00000000000E+00 -0.58890785839E+02  0.58890785839E+02  0.00000000000E+00 0.  1.
         25    2    1    2    0    0  0.33401685635E+02 -0.69018876427E+02  0.95303696612E+02  0.17495684567E+03  0.12509126809E+03 0.  0.
         23    2    1    2    0    0 -0.33401685635E+02  0.69018876427E+02  0.16506060807E+03  0.20318903069E+03  0.90341020310E+02 0.  0.
          5    1    3    3  502    0  0.70879163765E+02 -0.55096879436E+02  0.23867419196E+02  0.92987354402E+02  0.41800000000E+01 0.  1.
         -5    1    3    3    0  502 -0.37477478130E+02 -0.13921996992E+02  0.71436277416E+02  0.81969491266E+02  0.41800000000E+01 0.  1.
        -11    1    4    4    0    0  0.55730315120E+01  0.42349056688E+02  0.14624075145E+03  0.15235110327E+03  0.00000000000E+00 0. -1.
         11    1    4    4    0    0 -0.38974717147E+02  0.26669819739E+02  0.18819856622E+02  0.50837927425E+02  0.00000000000E+00 0.  1.
</event>
<event>
 8    1  0.6703334E-009  0.2537066E+03  0.7561462E-02  0.1110984E+00
          2   -1    0    0  501    0  0.00000000000E+00  0.00000000000E+00  0.90248057313E+03  0.90248057313E+03  0.00000000000E+00 0. -1.
         -2   -1    0    0    0  501 -0.00000000000E+00 -0.00000000000E+00 -0.94263994973E+02  0.94263994973E+02  0.00000000000E+00 0.  1.
         25    2    1    2    0    0  0.22963934548E+02  0.24267159677E+03  0.61024310569E+03  0.66892517680E+03  0.12508955969E+03 0.  0.
         23    2    1    2    0    0 -0.22963934548E+02 -0.24267159677E+03  0.19797347247E+03  0.32781939131E+03  0.94102132526E+02 0.  0.
          5    1    3    3  502    0  0.32084012758E+02  0.18790894752E+03  0.31293408716E+03  0.36644832069E+03  0.41800000000E+01 0.  1.
         -5    1    3    3    0  502 -0.91200782105E+01  0.54762649253E+02  0.29730901854E+03  0.30247685611E+03  0.41800000000E+01 0.  1.
        -11    1    4    4    0    0  0.35626794102E+02 -0.11896145520E+03  0.10095788190E+03  0.16004246374E+03  0.00000000000E+00 0. -1.
         11    1    4    4    0    0 -0.58590728649E+02 -0.12371014157E+03  0.97015590565E+02  0.16777692756E+03  0.00000000000E+00 0.  1.
</event>
<event>
 8    1  0.6703334E-009  0.1923045E+03  0.7561462E-02  0.1156399E+00
          1   -1    0    0  501    0  0.00000000000E+00  0.00000000000E+00  0.26281216942E+03  0.26281216942E+03  0.00000000000E+00 0. -1.
         -1   -1    0    0    0  501 -0.00000000000E+00 -0.00000000000E+00 -0.21590047783E+03  0.21590047783E+03  0.00000000000E+00 0.  1.
         25    2    1    2    0    0 -0.14123390810E+03  0.10263359927E+03 -0.96583787049E+02  0.23549131797E+03  0.12508821057E+03 0.  0.
         23    2    1    2    0    0  0.14123390810E+03 -0.10263359927E+03  0.14349547864E+03  0.24322132927E+03  0.89916573146E+02 0.  0.
          5    1    3    3  502    0 -0.13741605592E+02  0.78031119832E+02 -0.11435855208E+02  0.80161952140E+02  0.41800000000E+01 0. -1.
         -5    1    3    3    0  502 -0.12749230251E+03  0.24602479435E+02 -0.85147931841E+02  0.15532936583E+03  0.41800000000E+01 0. -1.
        -11    1    4    4    0    0  0.57482059170E+02 -0.31962492306E+02  0.11082235336E+03  0.12886963198E+03  0.00000000000E+00 0. -1.
         11    1    4    4    0    0  0.83751848931E+02 -0.70671106962E+02  0.32673125274E+02  0.11435169729E+03  0.00000000000E+00 0.  1.
</event>
<event>
 8    1  0.6703334E-009  0.1581394E+03  0.7561462E-02  0.1190813E+00
         -3   -1    0    0    0  501 -0.00000000000E+00  0.00000000000E+00  0.30008707028E+03  0.30008707028E+03  0.00000000000E+00 0.  1.
          3   -1    0    0  501    0  0.00000000000E+00 -0.00000000000E+00 -0.15705701342E+03  0.15705701342E+03  0.00000000000E+00 0. -1.
         25    2    1    2    0    0  0.42351816837E+02 -0.12692927318E+03 -0.68921802661E+02  0.19571119315E+03  0.12509172420E+03 0.  0.
         23    2    1    2    0    0 -0.42351816837E+02  0.12692927318E+03  0.21195185952E+03  0.26143289055E+03  0.74288954272E+02 0.  0.
          5    1    3    3  502    0  0.81530052783E+02 -0.50631935706E+02 -0.25016075673E+02  0.99267410877E+02  0.41800000000E+01 0.  1.
         -5    1    3    3    0  502 -0.39178235946E+02 -0.76297337472E+02 -0.43905726988E+02  0.96443782275E+02  0.41800000000E+01 0.  1.
        -11    1    4    4    0    0 -0.28075499150E+02  0.65225663396E+02  0.17318076308E+03  0.18717424374E+03  0.00000000000E+00 0.  1.
         11    1    4    4    0    0 -0.14276317687E+02  0.61703609782E+02  0.38771096443E+02  0.74258646812E+02  0.00000000000E+00 0. -1.
</event>
<event>
 8    1  0.6703334E-009  0.1245289E+03  0.7561462E-02  0.1235807E+00
         -2   -1    0    0    0  501 -0.00000000000E+00  0.00000000000E+00  0.14597710797E+03  0.14597710797E+03  0.00000000000E+00 0.  1.
          2   -1    0    0  501    0  0.00000000000E+00 -0.00000000000E+00 -0.10778060196E+03  0.10778060196E+03  0.00000000000E+00 0. -1.
         25    2    1    2    0    0  0.11926694277E+02  0.61551772183E+02  0.30116011353E+02  0.14313309230E+03  0.12509692752E+03 0.  0.
         23    2    1    2    0    0 -0.11926694277E+02 -0.61551772183E+02  0.80804946573E+01  0.11062461763E+03  0.90783505868E+02 0.  0.
          5    1    3    3  502    0  0.44946534492E+02 -0.21097016014E+02  0.26528473269E+01  0.49897745906E+02  0.41800000000E+01 0. -1.
         -5    1    3    3    0  502 -0.33019840215E+02  0.82648788196E+02  0.27463164026E+02  0.93235346390E+02  0.41800000000E+01 0. -1.
        -11    1    4    4    0    0  0.30310166807E+02 -0.60745014149E+02  0.81943651717E+01  0.68379898921E+02  0.00000000000E+00 0. -1.
         11    1    4    4    0    0 -0.42236861084E+02 -0.80675803373E+00 -0.11387051441E+00  0.42244718714E+02  0.00000000000E+00 0.  1.
</event>
<event>
 8    1  0.6703334E-009  0.1124680E+03  0.7561462E-02  0.1256067E+00
          4   -1    0    0  501    0  0.00000000000E+00  0.00000000000E+00  0.71511131591E+02  0.71511131591E+02  0.00000000000E+00 0. -1.
         -4   -1    0    0    0  501 -0.00000000000E+00 -0.00000000000E+00 -0.19195865690E+03  0.19195865690E+03  0.00000000000E+00 0.  1.
         25    2    1    2    0    0  0.13532959452E+02  0.29489489013E+02 -0.10412481946E+03  0.16596060697E+03  0.12509266199E+03 0.  0.
         23    2    1    2    0    0 -0.13532959452E+02 -0.29489489013E+02 -0.16322705846E+02  0.97509181517E+02  0.90492202980E+02 0.  0.
          5    1    3    3  502    0 -0.27491219764E+02  0.67581206942E+02 -0.60182852429E+02  0.94670136909E+02  0.41800000000E+01 0. -1.
         -5    1    3    3    0  502  0.41024179216E+02 -0.38091717929E+02 -0.43941967035E+02  0.71290470065E+02  0.41800000000E+01 0. -1.
        -11    1    4    4    0    0  0.22810506217E+02 -0.49304687913E+02 -0.47790765848E+01  0.54535410671E+02  0.00000000000E+00 0. -1.
         11    1    4    4    0    0 -0.36343465669E+02  0.19815198899E+02 -0.11543629261E+02  0.42973770846E+02  0.00000000000E+00 0.  1.
</event>
<event>
 8    1  0.6703334E-009  0.1093172E+03  0.7561462E-02  0.1261840E+00
         -2   -1    0    0    0  501 -0.00000000000E+00  0.00000000000E+00  0.59740144210E+02  0.59740144210E+02  0.00000000000E+00 0.  1.
          2   -1    0    0  501    0  0.00000000000E+00 -0.00000000000E+00 -0.23373391101E+03  0.23373391101E+03  0.00000000000E+00 0. -1.
         25    2    1    2    0    0  0.90314252538E+01  0.45818764003E+02 -0.86332761933E+02  0.15900172174E+03  0.12508907209E+03 0.  0.
         23    2    1    2    0    0 -0.90314252538E+01 -0.45818764003E+02 -0.87661004862E+02  0.13447233348E+03  0.90650046447E+02 0.  0.
          5    1    3    3  502    0 -0.20361906659E+02  0.83212909126E+02 -0.56154847155E+02  0.10251748508E+03  0.41800000000E+01 0.  1.
         -5    1    3    3    0  502  0.29393331913E+02 -0.37394145123E+02 -0.30177914778E+02  0.56484236658E+02  0.41800000000E+01 0.  1.
        -11    1    4    4    0    0  0.14399533004E+01  0.19203610156E+02 -0.60043380742E+02  0.63056004309E+02  0.00000000000E+00 0. -1.
         11    1    4    4    0    0 -0.10471378554E+02 -0.65022374158E+02 -0.27617624120E+02  0.71416329170E+02  0.00000000000E+00 0.  1.
</event>
<event>
 8    1  0.6703334E-009  0.1347951E+03  0.7561462E-02  0.1220509E+00
          2   -1    0    0  501    0  0.00000000000E+00  0.00000000000E+00  0.15229644665E+03  0.15229644665E+03  0.00000000000E+00 0. -1.
         -2   -1    0    0    0  501 -0.00000000000E+00 -0.00000000000E+00 -0.25961297018E+03  0.25961297018E+03  0.00000000000E+00 0.  1.
         25    2    1    2    0    0 -0.58226533968E+02  0.91922914005E+02 -0.18769084248E+03  0.25043127511E+03  0.12509124599E+03 0.  0.
         23    2    1    2    0    0  0.58226533968E+02 -0.91922914005E+02  0.80374318940E+02  0.16147814173E+03  0.88176004293E+02 0.  0.
          5    1    3    3  502    0 -0.56980283497E+02 -0.10822699668E+01 -0.23722687821E+02  0.61872145050E+02  0.41800000000E+01 0.  1.
         -5    1    3    3    0  502 -0.12462504715E+01  0.93005183972E+02 -0.16396815466E+03  0.18855913006E+03  0.41800000000E+01 0.  1.
        -11    1    4    4    0    0  0.18961543451E+02 -0.73611171590E+02  0.89270510366E+02  0.11724917370E+03  0.00000000000E+00 0. -1.
         11    1    4    4    0    0  0.39264990517E+02 -0.18311742416E+02 -0.88961914258E+01  0.44228968024E+02  0.00000000000E+00 0.  1.
</event>
<event>
 8    1  0.6703334E-009  0.8940139E+02  0.7561462E-02  0.1304308E+00
          1   -1    0    0  501    0  0.00000000000E+00  0.00000000000E+00  0.17551293620E+03  0.17551293620E+03  0.00000000000E+00 0. -1.
         -1   -1    0    0    0  501 -0.00000000000E+00 -0.00000000000E+00 -0.69780516152E+02  0.69780516152E+02  0.00000000000E+00 0.  1.
         25    2    1    2    0    0  0.72007082444E+01 -0.18723013920E+02  0.70147345774E+02  0.14481072996E+03  0.12508835255E+03 0.  0.
         23    2    1    2    0    0 -0.72007082444E+01  0.18723013920E+02  0.35585074273E+02  0.10048272239E+03  0.91804567093E+02 0.  0.
          5    1    3    3  502    0 -0.24890100895E+02 -0.46356917571E+02  0.84730890261E+02  0.99826234496E+02  0.41800000000E+01 0.  1.
         -5    1    3    3    0  502  0.32090809139E+02  0.27633903652E+02 -0.14583544487E+02  0.44984495463E+02  0.41800000000E+01 0.  1.
        -11    1    4    4    0    0  0.36330907584E+02  0.66440362949E+00  0.38907660975E+02  0.53237039367E+02  0.00000000000E+00 0. -1.
         11    1    4    4    0    0 -0.43531615828E+02  0.18058610290E+02 -0.33225867017E+01  0.47245683026E+02  0.00000000000E+00 0.  1.
</event>
<event>
 8    1  0.6703334E-009  0.2062610E+03  0.7561462E-02  0.1144562E+00
          1   -1    0    0  501    0  0.00000000000E+00  0.00000000000E+00  0.36552604787E+03  0.36552604787E+03  0.00000000000E+00 0. -1.
         -1   -1    0    0    0  501 -0.00000000000E+00 -0.00000000000E+00 -0.13739513941E+03  0.13739513941E+03  0.00000000000E+00 0.  1.
         25    2    1    2    0    0  0.17647124924E+03 -0.81032598950E+02  0.15221086257E+03  0.27662936525E+03  0.12508906879E+03 0.  0.
         23    2    1    2    0    0 -0.17647124924E+03  0.81032598950E+02  0.75920045888E+02  0.22629182203E+03  0.87953120728E+02 0.  0.
          5    1    3    3  502    0  0.15949807062E+03 -0.50495906625E+02  0.59749024187E+02  0.17769887284E+03  0.41800000000E+01 0. -1.
         -5    1    3    3    0  502  0.16973178622E+02 -0.30536692326E+02  0.92461838384E+02  0.98930492408E+02  0.41800000000E+01 0. -1.
        -11    1    4    4    0    0 -0.13317772896E+03  0.96004430490E+02  0.74947202753E+02  0.18047227312E+03  0.00000000000E+00 0.  1.
         11    1    4    4    0    0 -0.43293520280E+02 -0.14971831540E+02  0.97284313519E+00  0.45819548902E+02  0.00000000000E+00 0. -1.
</event>
<event>
 8    1  0.6703334E-009  0.3439509E+03  0.7561462E-02  0.1065126E+00
          1   -1    0    0  501    0  0.00000000000E+00  0.00000000000E+00  0.50610324950E+03  0.50610324950E+03  0.00000000000E+00 0. -1.
         -1   -1    0    0    0  501 -0.00000000000E+00 -0.00000000000E+00 -0.23828144391E+03  0.23828144391E+03  0.00000000000E+00 0.  1.
         25    2    1    2    0    0 -0.32875606600E+03  0.13265541012E+02  0.11942598360E+03  0.37170680643E+03  0.12508740496E+03 0.  0.
         23    2    1    2    0    0  0.32875606600E+03 -0.13265541012E+02  0.14839582200E+03  0.37267788697E+03  0.92795268988E+02 0.  0.
          5    1    3    3  502    0 -0.18821335180E+03 -0.51644632186E+02  0.47265899746E+02  0.20085559865E+03  0.41800000000E+01 0.  1.
         -5    1    3    3    0  502 -0.14054271419E+03  0.64910173198E+02  0.72160083850E+02  0.17085120778E+03  0.41800000000E+01 0.  1.
        -11    1    4    4    0    0  0.18006239902E+03  0.30929751823E+02  0.51654510245E+02  0.18986127967E+03  0.00000000000E+00 0. -1.
         11    1    4    4    0    0  0.14869366698E+03 -0.44195292835E+02  0.96741311751E+02  0.18281660731E+03  0.00000000000E+00 0.  1.
</event>
<event>
 8    1  0.6703334E-009  0.9132867E+02  0.7561462E-02  0.1299666E+00
         -1   -1    0    0    0  501 -0.00000000000E+00  0.00000000000E+00  0.78793910455E+02  0.78793910455E+02  0.00000000000E+00 0.  1.
          1   -1    0    0  501    0  0.00000000000E+00 -0.00000000000E+00 -0.18368773482E+03  0.18368773482E+03  0.00000000000E+00 0. -1.
         25    2    1    2    0    0 -0.49111518018E+01 -0.38486699980E+02 -0.20182027677E+02  0.13251854881E+03  0.12509398886E+03 0.  0.
         23    2    1    2    0    0  0.49111518018E+01  0.38486699980E+02 -0.84711796685E+02  0.12996309646E+03  0.90603379943E+02 0.  0.
          5    1    3    3  502    0  0.19481043107E+01 -0.60738568199E+02  0.36559697782E+02  0.71042611714E+02  0.41800000000E+01 0. -1.
         -5    1    3    3    0  502 -0.68592561125E+01  0.22251868219E+02 -0.56741725459E+02  0.61475937095E+02  0.41800000000E+01 0. -1.
        -11    1    4    4    0    0  0.11459549064E+02 -0.28532779702E+02 -0.20793089098E+02  0.37118638668E+02  0.00000000000E+00 0.  1.
         11    1    4    4    0    0 -0.65483972625E+01  0.67019479682E+02 -0.63918707587E+02  0.92844457794E+02  0.00000000000E+00 0. -1.
</event>
<event>
 8    1  0.6703334E-009  0.2909274E+03  0.7561462E-02  0.1089866E+00
         -1   -1    0    0    0  501 -0.00000000000E+00  0.00000000000E+00  0.84287781229E+02  0.84287781229E+02  0.00000000000E+00 0.  1.
          1   -1    0    0  501    0  0.00000000000E+00 -0.00000000000E+00 -0.14466737709E+04  0.14466737709E+04  0.00000000000E+00 0. -1.
         25    2    1    2    0    0  0.16489897187E+03 -0.22276459603E+03 -0.10960888557E+04  0.11374855852E+04  0.12508773202E+03 0.  0.
         23    2    1    2    0    0 -0.16489897187E+03  0.22276459603E+03 -0.26629713398E+03  0.39347596698E+03  0.84222543624E+02 0.  0.
          5    1    3    3  502    0  0.44546141419E+02 -0.47707260064E+01 -0.29985841857E+03  0.30321553741E+03  0.41800000000E+01 0. -1.
         -5    1    3    3    0  502  0.12035283045E+03 -0.21799387002E+03 -0.79623043717E+03  0.83427004779E+03  0.41800000000E+01 0. -1.
        -11    1    4    4    0    0 -0.10056992444E+03  0.71374416285E+02 -0.92332603290E+02  0.15405819236E+03  0.00000000000E+00 0.  1.
         11    1    4    4    0    0 -0.64329047432E+02  0.15139017974E+03 -0.17396453069E+03  0.23941777462E+03  0.00000000000E+00 0. -1.
</event>
<event>
 8    1  0.6703334E-009  0.2463194E+03  0.7561462E-02  0.1115653E+00
         -1   -1    0    0    0  501 -0.00000000000E+00  0.00000000000E+00  0.51529549874E+03  0.51529549874E+03  0.00000000000E+00 0.  1.
          1   -1    0    0  501    0  0.00000000000E+00 -0.00000000000E+00 -0.15095880260E+03  0.15095880260E+03  0.00000000000E+00 0. -1.
         25    2    1    2    0    0 -0.77355775840E+02  0.22849091963E+03  0.82000158798E+02  0.28383143807E+03  0.12507694745E+03 0.  0.
         23    2    1    2    0    0  0.77355775840E+02 -0.22849091963E+03  0.28233653734E+03  0.38242286328E+03  0.91330770445E+02 0.  0.
          5    1    3    3  502    0 -0.12810195878E+02  0.38577251727E+02 -0.33052333775E+02  0.52556965639E+02  0.41800000000E+01 0.  1.
         -5    1    3    3    0  502 -0.64545579962E+02  0.18991366791E+03  0.11505249257E+03  0.23127447243E+03  0.41800000000E+01 0.  1.
        -11    1    4    4    0    0 -0.13127001177E+02 -0.39312277131E+02  0.18470608545E+02  0.45375507414E+02  0.00000000000E+00 0.  1.
         11    1    4    4    0    0  0.90482777017E+02 -0.18917864250E+03  0.26386592880E+03  0.33704735587E+03  0.00000000000E+00 0. -1.
</event>
<event>
 8    1  0.6703334E-009  0.1914001E+03  0.7561462E-02  0.1157205E+00
          2   -1    0    0  501    0  0.00000000000E+00  0.00000000000E+00  0.10800206458E+04  0.10800206458E+04  0.00000000000E+00 0. -1.
         -2   -1    0    0    0  501 -0.00000000000E+00 -0.00000000000E+00 -0.39430879862E+02  0.39430879862E+02  0.00000000000E+00 0.  1.
         25    2    1    2    0    0  0.34115509417E+02 -0.16201440577E+03  0.38103966641E+03  0.43387927141E+03  0.12508980421E+03 0.  0.
         23    2    1    2    0    0 -0.34115509417E+02  0.16201440577E+03  0.65955009957E+03  0.68557225430E+03  0.87123167784E+02 0.  0.
          5    1    3    3  502    0  0.75182756094E+02 -0.56637721980E+02  0.16597797685E+03  0.19085711819E+03  0.41800000000E+01 0. -1.
         -5    1    3    3    0  502 -0.41067246677E+02 -0.10537668379E+03  0.21506168956E+03  0.24302215321E+03  0.41800000000E+01 0. -1.
        -11    1    4    4    0    0 -0.45358811312E+02  0.74870085860E+02  0.44848098322E+03  0.45694435529E+03  0.00000000000E+00 0. -1.
         11    1    4    4    0    0  0.11243301895E+02  0.87144319908E+02  0.21106911635E+03  0.22862789901E+03  0.00000000000E+00 0.  1.
</event>
<event>
 8    1  0.6703334E-009  0.1792936E+03  0.7561462E-02  0.1168488E+00
         -1   -1    0    0    0  501 -0.00000000000E+00  0.00000000000E+00  0.35650913969E+03  0.35650913969E+03  0.00000000000E+00 0. -1.
          1   -1    0    0  501    0  0.00000000000E+00 -0.00000000000E+00 -0.99716244245E+02  0.99716244245E+02  0.00000000000E+00 0.  1.
         25    2    1    2    0    0  0.98829522974E+00 -0.15020049355E+03  0.97673885074E+02  0.21851504758E+03  0.12508986051E+03 0.  0.
         23    2    1    2    0    0 -0.98829522974E+00  0.15020049355E+03  0.15911901037E+03  0.23771033636E+03  0.92877228431E+02 0.  0.
          5    1    3    3  502    0  0.58401469492E+02 -0.10065249014E+03  0.39911622839E+02  0.12309372627E+03  0.41800000000E+01 0.  1.
         -5    1    3    3    0  502 -0.57413174262E+02 -0.49548003405E+02  0.57762262235E+02  0.95421321301E+02  0.41800000000E+01 0.  1.
        -11    1    4    4    0    0  0.25811491953E+02  0.13024460971E+03  0.15491908657E+03  0.20403385713E+03  0.00000000000E+00 0. -1.
         11    1    4    4    0    0 -0.26799787183E+02  0.19955883840E+02  0.41999238027E+01  0.33676479223E+02  0.00000000000E+00 0.  1.
</event>
<event>
 8    1  0.6703334E-009  0.1285689E+03  0.7561462E-02  0.1229595E+00
          1   -1    0    0  501    0  0.00000000000E+00  0.00000000000E+00  0.96775428977E+03  0.96775428977E+03  0.00000000000E+00 0. -1.
         -1   -1    0    0    0  501 -0.00000000000E+00 -0.00000000000E+00 -0.24078495039E+02  0.24078495039E+02  0.00000000000E+00 0.  1.
         25    2    1    2    0    0  0.63725453584E+02 -0.84188364209E+02  0.46139331260E+03  0.48957059089E+03  0.12508781094E+03 0.  0.
         23    2    1    2    0    0 -0.63725453584E+02  0.84188364209E+02  0.48228248213E+03  0.50226219392E+03  0.92316329931E+02 0.  0.
          5    1    3    3  502    0  0.91588622193E+02 -0.42439965216E+02  0.38524741405E+03  0.39827461480E+03  0.41800000000E+01 0.  1.
         -5    1    3    3    0  502 -0.27863168608E+02 -0.41748398993E+02  0.76145898554E+02  0.91295976089E+02  0.41800000000E+01 0.  1.
        -11    1    4    4    0    0 -0.12851435493E+02  0.20974135185E+02  0.16865708575E+02  0.29824920230E+02  0.00000000000E+00 0.  1.
         11    1    4    4    0    0 -0.50874018091E+02  0.63214229024E+02  0.46541677356E+03  0.47243727369E+03  0.00000000000E+00 0. -1.
</event>
<event>
 8    1  0.6703334E-009  0.2225307E+03  0.7561462E-02  0.1132010E+00
         -2   -1    0    0    0  501 -0.00000000000E+00  0.00000000000E+00  0.14843953419E+03  0.14843953419E+03  0.00000000000E+00 0.  1.
          2   -1    0    0  501    0  0.00000000000E+00 -0.00000000000E+00 -0.34393258574E+03  0.34393258574E+03  0.00000000000E+00 0. -1.
         25    2    1    2    0    0  0.13121854380E+03 -0.14605858356E+03 -0.13264837830E+03  0.26794637898E+03  0.12509298012E+03 0.  0.
         23    2    1    2    0    0 -0.13121854380E+03  0.14605858356E+03 -0.62844673249E+02  0.22442574094E+03  0.88690722023E+02 0.  0.
          5    1    3    3  502    0  0.75580192152E+02 -0.19711209791E+01 -0.62819453104E+02  0.98387025831E+02  0.41800000000E+01 0.  1.
         -5    1    3    3    0  502  0.55638351649E+02 -0.14408746258E+03 -0.69828925196E+02  0.16955935315E+03  0.41800000000E+01 0.  1.
        -11    1    4    4    0    0  0.11667261225E+02  0.18401086324E+01  0.30462176113E+00  0.11815404296E+02  0.00000000000E+00 0.  1.
         11    1    4    4    0    0 -0.14288580503E+03  0.14421847493E+03 -0.63149295010E+02  0.21261033665E+03  0.00000000000E+00 0. -1.
</event>
<event>
 8    1  0.6703334E-009  0.1139825E+03  0.7561462E-02  0.1253368E+00
         -3   -1    0    0    0  501 -0.00000000000E+00  0.00000000000E+00  0.93251124652E+02  0.93251124652E+02  0.00000000000E+00 0.  1.
          3   -1    0    0  501    0  0.00000000000E+00 -0.00000000000E+00 -0.22973117356E+03  0.22973117356E+03  0.00000000000E+00 0. -1.
         25    2    1    2    0    0  0.56803109209E+02  0.18775147983E+02 -0.16022738623E+03  0.21189318672E+03  0.12508720111E+03 0.  0.
         23    2    1    2    0    0 -0.56803109209E+02 -0.18775147983E+02  0.23747337326E+02  0.11108911149E+03  0.90541456053E+02 0.  0.
          5    1    3    3  502    0 -0.26996167255E+02 -0.12854768376E+02 -0.22912783451E+01  0.30278052661E+02  0.41800000000E+01 0.  1.
         -5    1    3    3    0  502  0.83799276465E+02  0.31629916359E+02 -0.15793610789E+03  0.18161513406E+03  0.41800000000E+01 0.  1.
        -11    1    4    4    0    0  0.15206362638E+02 -0.31502621235E+02  0.12258999567E+02  0.37066584409E+02  0.00000000000E+00 0.  1.
         11    1    4    4    0    0 -0.72009471847E+02  0.12727473253E+02  0.11488337758E+02  0.74022527082E+02  0.00000000000E+00 0. -1.
</event>
<event>
 8    1  0.6703334E-009  0.1386019E+03  0.7561462E-02  0.1215223E+00
          1   -1    0    0  501    0  0.00000000000E+00  0.00000000000E+00  0.10240794768E+03  0.10240794768E+03  0.00000000000E+00 0. -1.
         -1   -1    0    0    0  501 -0.00000000000E+00 -0.00000000000E+00 -0.23173068160E+03  0.23173068160E+03  0.00000000000E+00 0.  1.
         25    2    1    2    0    0  0.79224803061E+02  0.82091832300E+02 -0.31735726742E+02  0.17225172773E+03  0.12509141858E+03 0.  0.
         23    2    1    2    0    0 -0.79224803061E+02 -0.82091832300E+02 -0.97587007185E+02  0.16188690155E+03  0.60568197692E+02 0.  0.
          5    1    3    3  502    0  0.98881276054E+02  0.38137501536E+02  0.12419246464E+02  0.10678804175E+03  0.41800000000E+01 0. -1.
         -5    1    3    3    0  502 -0.19656472993E+02  0.43954330764E+02 -0.44154973206E+02  0.65463685981E+02  0.41800000000E+01 0. -1.
        -11    1    4    4    0    0 -0.40292557891E+02 -0.11018491916E+02 -0.10796604620E+02  0.43144687470E+02  0.00000000000E+00 0. -1.
         11    1    4    4    0    0 -0.38932245170E+02 -0.71073340384E+02 -0.86790402565E+02  0.11874221408E+03  0.00000000000E+00 0.  1.
</event>
<event>
 8    1  0.6703334E-009  0.1579790E+03  0.7561462E-02  0.1190998E+00
          2   -1    0    0  501    0  0.00000000000E+00  0.00000000000E+00  0.67499263713E+03  0.67499263713E+03  0.00000000000E+00 0. -1.
         -2   -1    0    0    0  501 -0.00000000000E+00 -0.00000000000E+00 -0.55218228856E+02  0.55218228856E+02  0.00000000000E+00 0.  1.
         25    2    1    2    0    0 -0.60762990553E+02 -0.10065957801E+03  0.52783854887E+03  0.55505425530E+03  0.12508877241E+03 0.  0.
         23    2    1    2    0    0  0.60762990553E+02  0.10065957801E+03  0.91935859401E+02  0.17515661069E+03  0.91668666168E+02 0.  0.
          5    1    3    3  502    0 -0.64785283791E+02 -0.12605440494E+03  0.48095677661E+03  0.50142171808E+03  0.41800000000E+01 0. -1.
         -5    1    3    3    0  502  0.40222932381E+01  0.25394826925E+02  0.46881772263E+02  0.53632537214E+02  0.41800000000E+01 0. -1.
        -11    1    4    4    0    0 -0.16163761088E+02  0.57886380177E+02  0.47213780037E+02  0.76428013241E+02  0.00000000000E+00 0. -1.
         11    1    4    4    0    0  0.76926751641E+02  0.42773197836E+02  0.44722079364E+02  0.98728597447E+02  0.00000000000E+00 0.  1.
</event>
<event>
 8    1  0.6703334E-009  0.1604312E+03  0.7561462E-02  0.1188211E+00
          2   -1    0    0  501    0  0.00000000000E+00  0.00000000000E+00  0.16806861042E+04  0.16806861042E+04  0.00000000000E+00 0.  1.
         -2   -1    0    0    0  501 -0.00000000000E+00 -0.00000000000E+00 -0.23655267840E+02  0.23655267840E+02  0.00000000000E+00 0. -1.
         25    2    1    2    0    0  0.11656945440E+03  0.77201249587E+02  0.12534628808E+04  0.12674246105E+04  0.12508988399E+03 0.  0.
         23    2    1    2    0    0 -0.11656945440E+03 -0.77201249587E+02  0.40356795547E+03  0.43691676147E+03  0.92090667995E+02 0.  0.
          5    1    3    3  502    0  0.28572975350E+02  0.67001015471E+02  0.90198906637E+03  0.90493496962E+03  0.41800000000E+01 0. -1.
         -5    1    3    3    0  502  0.87996479052E+02  0.10200234116E+02  0.35147381448E+03  0.36248964091E+03  0.41800000000E+01 0. -1.
        -11    1    4    4    0    0 -0.10546131692E+03 -0.28468310884E+02  0.33286229725E+03  0.35032819330E+03  0.00000000000E+00 0.  1.
         11    1    4    4    0    0 -0.11108137484E+02 -0.48732938703E+02  0.70705658225E+02  0.86588568172E+02  0.00000000000E+00 0. -1.
</event>
<event>
 8    1  0.6703334E-009  0.1019134E+03  0.7561462E-02  0.1276323E+00
          1   -1    0    0  501    0  0.00000000000E+00  0.00000000000E+00  0.71072304545E+03  0.71072304545E+03  0.00000000000E+00 0. -1.
         -1   -1    0    0    0  501 -0.00000000000E+00 -0.00000000000E+00 -0.17231259615E+02  0.17231259615E+02  0.00000000000E+00 0.  1.
         25    2    1    2    0    0  0.12691798802E+01 -0.31478713762E+02  0.46281820680E+03  0.48045883928E+03  0.12508990150E+03 0.  0.
         23    2    1    2    0    0 -0.12691798802E+01  0.31478713762E+02  0.23067357904E+03  0.24749546579E+03  0.83971336079E+02 0.  0.
          5    1    3    3  502    0  0.61003903722E+02 -0.15353767866E+02  0.29209901720E+03  0.29882523773E+03  0.41800000000E+01 0. -1.
         -5    1    3    3    0  502 -0.59734723841E+02 -0.16124945896E+02  0.17071918960E+03  0.18163360155E+03  0.41800000000E+01 0. -1.
        -11    1    4    4    0    0  0.30977370388E+02  0.34516297808E+02  0.72685984506E+02  0.86221949840E+02  0.00000000000E+00 0.  1.
         11    1    4    4    0    0 -0.32246550269E+02 -0.30375840463E+01  0.15798759453E+03  0.16127351595E+03  0.00000000000E+00 0. -1.
</event>
<event>
 8    1  0.6703334E-009  0.1135650E+03  0.7561462E-02  0.1254107E+00
         -1   -1    0    0    0  501 -0.00000000000E+00  0.00000000000E+00  0.58686680035E+03  0.58686680035E+03  0.00000000000E+00 0.  1.
          1   -1    0    0  501    0  0.00000000000E+00 -0.00000000000E+00 -0.24420444840E+02  0.24420444840E+02  0.00000000000E+00 0. -1.
         25    2    1    2    0    0 -0.19433232707E+02  0.46825082335E+02  0.31209629825E+03  0.34003068064E+03  0.12508607247E+03 0.  0.
         23    2    1    2    0    0  0.19433232707E+02 -0.46825082335E+02  0.25035005726E+03  0.27125656454E+03  0.91294763112E+02 0.  0.
          5    1    3    3  502    0 -0.52728267692E+02 -0.13624399276E+02  0.20810296145E+03  0.21515159640E+03  0.41800000000E+01 0.  1.
         -5    1    3    3    0  502  0.33295034985E+02  0.60449481612E+02  0.10399333680E+03  0.12487908424E+03  0.41800000000E+01 0.  1.
        -11    1    4    4    0    0  0.43070530225E+02 -0.61845238173E+02  0.19851617811E+03  0.21234070978E+03  0.00000000000E+00 0. -1.
         11    1    4    4    0    0 -0.23637297518E+02  0.15020155838E+02  0.51833879144E+02  0.58915854764E+02  0.00000000000E+00 0.  1.
</event>
<event>
 8    1  0.6703334E-009  0.6697108E+02  0.7561462E-02  0.1370707E+00
          2   -1    0    0  501    0  0.00000000000E+00  0.00000000000E+00  0.23914742973E+03  0.23914742973E+03  0.00000000000E+00 0. -1.
         -2   -1    0    0    0  501 -0.00000000000E+00 -0.00000000000E+00 -0.57312670682E+02  0.57312670682E+02  0.00000000000E+00 0.  1.
         25    2    1    2    0    0  0.24514243840E+02 -0.34674436270E+02  0.11605511211E+03  0.17584125968E+03  0.12509234540E+03 0.  0.
         23    2    1    2    0    0 -0.24514243840E+02  0.34674436270E+02  0.65779646942E+02  0.12061884074E+03  0.91753354747E+02 0.  0.
          5    1    3    3  502    0  0.20110318355E+02 -0.46555276275E+02  0.13970709817E+03  0.14868545434E+03  0.41800000000E+01 0.  1.
         -5    1    3    3    0  502  0.44039254855E+01  0.11880840005E+02 -0.23651986061E+02  0.27155805338E+02  0.41800000000E+01 0.  1.
        -11    1    4    4    0    0 -0.15824455988E+01  0.44670739555E+02 -0.55385096566E+01  0.45040583873E+02  0.00000000000E+00 0.  1.
         11    1    4    4    0    0 -0.22931798241E+02 -0.99963032849E+01  0.71318156599E+02  0.75578256864E+02  0.00000000000E+00 0. -1.
</event>
<event>
 8    1  0.6703334E-009  0.1059762E+03  0.7561462E-02  0.1268208E+00
         -2   -1    0    0    0  501 -0.00000000000E+00  0.00000000000E+00  0.36199483000E+02  0.36199483000E+02  0.00000000000E+00 0.  1.
          2   -1    0    0  501    0  0.00000000000E+00 -0.00000000000E+00 -0.34129498623E+03  0.34129498623E+03  0.00000000000E+00 0. -1.
         25    2    1    2    0    0 -0.17564500369E+02 -0.17455502712E+02 -0.16127227459E+03  0.20559706617E+03  0.12509276883E+03 0.  0.
         23    2    1    2    0    0  0.17564500369E+02  0.17455502712E+02 -0.14382322864E+03  0.17189740307E+03  0.90831656580E+02 0.  0.
          5    1    3    3  502    0  0.27833864216E+02 -0.53018407179E+02 -0.42656681128E+02  0.73639258157E+02  0.41800000000E+01 0.  1.
         -5    1    3    3    0  502 -0.45398364585E+02  0.35562904466E+02 -0.11861559347E+03  0.13195780801E+03  0.41800000000E+01 0.  1.
        -11    1    4    4    0    0 -0.84525755425E+01  0.50976718465E+02 -0.76444287676E+02  0.92270260523E+02  0.00000000000E+00 0. -1.
         11    1    4    4    0    0  0.26017075912E+02 -0.33521215752E+02 -0.67378940960E+02  0.79627142542E+02  0.00000000000E+00 0.  1.
</event>
<event>
 8    1  0.6703334E-009  0.1075797E+03  0.7561462E-02  0.1265119E+00
         -3   -1    0    0    0  501 -0.00000000000E+00  0.00000000000E+00  0.69970383856E+03  0.69970383856E+03  0.00000000000E+00 0.  1.
          3   -1    0    0  501    0  0.00000000000E+00 -0.00000000000E+00 -0.27357112707E+02  0.27357112707E+02  0.00000000000E+00 0. -1.
         25    2    1    2    0    0  0.16503506280E+01  0.81729796562E+02  0.42520503490E+03  0.45069930428E+03  0.12509219749E+03 0.  0.
         23    2    1    2    0    0 -0.16503506280E+01 -0.81729796562E+02  0.24714169095E+03  0.27636164699E+03  0.92813044419E+02 0.  0.
          5    1    3    3  502    0 -0.27337074727E+02  0.85250111052E+01  0.30851177731E+03  0.30986606883E+03  0.41800000000E+01 0. -1.
         -5    1    3    3    0  502  0.28987425355E+02  0.73204785456E+02  0.11669325758E+03  0.14083323545E+03  0.41800000000E+01 0. -1.
        -11    1    4    4    0    0  0.25438128126E+02 -0.75373280805E+02  0.23072848646E+03  0.24405709227E+03  0.00000000000E+00 0.  1.
         11    1    4    4    0    0 -0.27088478754E+02 -0.63565157568E+01  0.16413204492E+02  0.32304554717E+02  0.00000000000E+00 0. -1.
</event>
<event>
 8    1  0.6703334E-009  0.1049678E+03  0.7561462E-02  0.1270183E+00
          1   -1    0    0  501    0  0.00000000000E+00  0.00000000000E+00  0.86938965270E+02  0.86938965270E+02  0.00000000000E+00 0. -1.
         -1   -1    0    0    0  501 -0.00000000000E+00 -0.00000000000E+00 -0.20248225578E+03  0.20248225578E+03  0.00000000000E+00 0.  1.
         25    2    1    2    0    0 -0.11203174853E+02  0.76948891219E+02 -0.75125327286E+02  0.16534608548E+03  0.12509544435E+03 0.  0.
         23    2    1    2    0    0  0.11203174853E+02 -0.76948891219E+02 -0.40417963221E+02  0.12407513557E+03  0.87831569091E+02 0.  0.
          5    1    3    3  502    0 -0.29145227177E+02  0.62958505807E+02  0.16007859955E+02  0.71322799307E+02  0.41800000000E+01 0. -1.
         -5    1    3    3    0  502  0.17942052324E+02  0.13990385413E+02 -0.91133187241E+02  0.94023286170E+02  0.41800000000E+01 0. -1.
        -11    1    4    4    0    0  0.44700574687E+02 -0.15496206349E+02 -0.15606507931E+02  0.49818037681E+02  0.00000000000E+00 0.  1.
         11    1    4    4    0    0 -0.33497399833E+02 -0.61452684870E+02 -0.24811455290E+02  0.74257097889E+02  0.00000000000E+00 0. -1.
</event>
<event>
 8    1  0.6703334E-009  0.1216298E+03  0.7561462E-02  0.1240432E+00
          2   -1    0    0  501    0  0.00000000000E+00  0.00000000000E+00  0.18223515225E+03  0.18223515225E+03  0.00000000000E+00 0. -1.
         -2   -1    0    0    0  501 -0.00000000000E+00 -0.00000000000E+00 -0.14380624968E+03  0.14380624968E+03  0.00000000000E+00 0.  1.
         25    2    1    2    0    0 -0.77477135261E+02 -0.23862163816E+02 -0.68297828811E+02  0.16396481612E+03  0.12509099949E+03 0.  0.
         23    2    1    2    0    0  0.77477135261E+02  0.23862163816E+02  0.10672673138E+03  0.16207658582E+03  0.91137890735E+02 0.  0.
          5    1    3    3  502    0  0.20344448404E+02  0.18960709382E+02  0.11714254481E+02  0.30464754047E+02  0.41800000000E+01 0.  1.
         -5    1    3    3    0  502 -0.97821583665E+02 -0.42822873198E+02 -0.80012083292E+02  0.13350006207E+03  0.41800000000E+01 0.  1.
        -11    1    4    4    0    0  0.88129684947E+02  0.71063735815E+01  0.11085541557E+03  0.14179656229E+03  0.00000000000E+00 0. -1.
         11    1    4    4    0    0 -0.10652549686E+02  0.16755790235E+02 -0.41286841901E+01  0.20280023529E+02  0.00000000000E+00 0.  1.
</event>
<event>
 8    1  0.6703334E-009  0.1466725E+03  0.7561462E-02  0.1204622E+00
         -1   -1    0    0    0  501 -0.00000000000E+00  0.00000000000E+00  0.43130979232E+02  0.43130979232E+02  0.00000000000E+00 0.  1.
          1   -1    0    0  501    0  0.00000000000E+00 -0.00000000000E+00 -0.54517009466E+03  0.54517009466E+03  0.00000000000E+00 0. -1.
         25    2    1    2    0    0 -0.16288715755E+02 -0.10649816090E+03 -0.28329716778E+03  0.32789047538E+03  0.12509075918E+03 0.  0.
         23    2    1    2    0    0  0.16288715755E+02  0.10649816090E+03 -0.21874194765E+03  0.26041059852E+03  0.91424611690E+02 0.  0.
          5    1    3    3  502    0 -0.55793228134E+02 -0.24129586451E+02 -0.17948008252E+03  0.18954074409E+03  0.41800000000E+01 0. -1.
         -5    1    3    3    0  502  0.39504512378E+02 -0.82368574451E+02 -0.10381708526E+03  0.13834973129E+03  0.41800000000E+01 0. -1.
        -11    1    4    4    0    0  0.24573904538E+02 -0.82482270980E+01 -0.33611177208E+02  0.42445509395E+02  0.00000000000E+00 0. -1.
         11    1    4    4    0    0 -0.82851887822E+01  0.11474638800E+03 -0.18513077044E+03  0.21796508912E+03  0.00000000000E+00 0.  1.
</event>
<event>
 7    1  0.6703334E-009  0.1735928E+03  0.7561462E-02  0.1174152E+00
         -2   -1    0    0    0  501 -0.00000000000E+00  0.00000000000E+00  0.48038623765E+03  0.48038623765E+03  0.00000000000E+00 0.  1.
          2   -1    0    0  501    0  0.00000000000E+00 -0.00000000000E+00 -0.80754849421E+02  0.80754849421E+02  0.00000000000E+00 0. -1.
         23    2    1    2    0    0 -0.15705600594E+03  0.21886345039E+01  0.25397133201E+03  0.31311036955E+03  0.94155652610E+02 0.  0.
          5    1    1    2  502    0  0.88550832649E+02  0.22147295227E+02  0.72841546772E+01  0.91663973065E+02  0.41800000000E+01 0. -1.
         -5    1    1    2    0  502  0.68505173288E+02 -0.24335929731E+02  0.13837590155E+03  0.15636674446E+03  0.41800000000E+01 0. -1.
        -11    1    3    3    0    0 -0.11972441044E+03  0.43435280656E+02  0.18227868925E+03  0.22236474230E+03  0.00000000000E+00 0.  1.
         11    1    3    3    0    0 -0.37331595500E+02 -0.41246646152E+02  0.71692642752E+02  0.90745627256E+02  0.00000000000E+00 0. -1.
</event>
<event>
 8    1  0.6703334E-009  0.3792214E+03  0.7561462E-02  0.1051222E+00
          2   -1    0    0  501    0  0.00000000000E+00  0.00000000000E+00  0.88342704910E+03  0.88342704910E+03  0.00000000000E+00 0. -1.
         -2   -1    0    0    0  501 -0.00000000000E+00 -0.00000000000E+00 -0.17654619196E+03  0.17654619196E+03  0.00000000000E+00 0.  1.
         25    2    1    2    0    0  0.71057188339E+02 -0.36673921929E+03  0.44716424354E+03  0.59594532468E+03  0.12509272692E+03 0.  0.
         23    2    1    2    0    0 -0.71057188339E+02  0.36673921929E+03  0.25971661359E+03  0.46402791638E+03  0.91227237318E+02 0.  0.
          5    1    3    3  502    0  0.57691448526E+02 -0.36622805447E+03  0.39423799609E+03  0.54119530770E+03  0.41800000000E+01 0.  1.
         -5    1    3    3    0  502  0.13365739814E+02 -0.51116481716E+00  0.52926247452E+02  0.54750016983E+02  0.41800000000E+01 0.  1.
        -11    1    4    4    0    0 -0.28967333174E+02  0.17240048604E+03  0.17665695150E+03  0.24853312152E+03  0.00000000000E+00 0. -1.
         11    1    4    4    0    0 -0.42089855166E+02  0.19433873324E+03  0.83059662096E+02  0.21549479486E+03  0.00000000000E+00 0.  1.
</event>
<event>
 8    1  0.6703334E-009  0.1160269E+03  0.7561462E-02  0.1249799E+00
          2   -1    0    0  501    0  0.00000000000E+00  0.00000000000E+00  0.34559884393E+03  0.34559884393E+03  0.00000000000E+00 0. -1.
         -2   -1    0    0    0  501 -0.00000000000E+00 -0.00000000000E+00 -0.94896637511E+02  0.94896637511E+02  0.00000000000E+00 0.  1.
         25    2    1    2    0    0  0.58421593950E+02  0.91623527515E+02  0.24773108615E+03  0.29803704962E+03  0.12508972167E+03 0.  0.
         23    2    1    2    0    0 -0.58421593950E+02 -0.91623527515E+02  0.29711202733E+01  0.14245843182E+03  0.92074012666E+02 0.  0.
          5    1    3    3  502    0  0.24599879624E+02  0.79706924052E+02  0.50655939302E+02  0.97682364866E+02  0.41800000000E+01 0. -1.
         -5    1    3    3    0  502  0.33821714326E+02  0.11916603463E+02  0.19707514685E+03  0.20035468475E+03  0.41800000000E+01 0. -1.
        -11    1    4    4    0    0 -0.43640319951E+02 -0.41685128971E+02 -0.42100088760E+02  0.73583591760E+02  0.00000000000E+00 0.  1.
         11    1    4    4    0    0 -0.14781273999E+02 -0.49938398544E+02  0.45071209033E+02  0.68874840064E+02  0.00000000000E+00 0. -1.
</event>
<event>
 8    1  0.6703334E-009  0.1459827E+03  0.7561462E-02  0.1205498E+00
          1   -1    0    0  501    0  0.00000000000E+00  0.00000000000E+00  0.11674812991E+03  0.11674812991E+03  0.00000000000E+00 0. -1.
         -1   -1    0    0    0  501 -0.00000000000E+00 -0.00000000000E+00 -0.19284565197E+03  0.19284565197E+03  0.00000000000E+00 0.  1.
         25    2    1    2    0    0 -0.61382881279E+02  0.84532281671E+02 -0.27378959915E+02  0.16525850308E+03  0.12508877102E+03 0.  0.
         23    2    1    2    0    0  0.61382881279E+02 -0.84532281671E+02 -0.48718562153E+02  0.14433527880E+03  0.86865468683E+02 0.  0.
          5    1    3    3  502    0 -0.44002825476E+02  0.11682572319E+03 -0.29298027806E+02  0.12829787637E+03  0.41800000000E+01 0. -1.
         -5    1    3    3    0  502 -0.17380055803E+02 -0.32293441519E+02  0.19190678907E+01  0.36960626705E+02  0.41800000000E+01 0. -1.
        -11    1    4    4    0    0  0.75788256921E+02 -0.45162285384E+02 -0.51786974303E+02  0.10230045267E+03  0.00000000000E+00 0.  1.
         11    1    4    4    0    0 -0.14405375642E+02 -0.39369996287E+02  0.30684121505E+01  0.42034826134E+02  0.00000000000E+00 0. -1.
</event>
<event>
 8    1  0.6703334E-009  0.6948969E+02  0.7561462E-02  0.1361837E+00
         -1   -1    0    0    0  501 -0.00000000000E+00  0.00000000000E+00  0.10219874998E+03  0.10219874998E+03  0.00000000000E+00 0.  1.
          1   -1    0    0  501    0  0.00000000000E+00 -0.00000000000E+00 -0.14532319525E+03  0.14532319525E+03  0.00000000000E+00 0. -1.
         25    2    1    2    0    0 -0.33191266364E+01 -0.17100646903E+02 -0.73889957455E+02  0.14632250642E+03  0.12508837415E+03 0.  0.
         23    2    1    2    0    0  0.33191266364E+01  0.17100646903E+02  0.30765512186E+02  0.10119943881E+03  0.94822787084E+02 0.  0.
          5    1    3    3  502    0  0.25896891437E+02 -0.62892562219E+01  0.28485068200E+02  0.39231049442E+02  0.41800000000E+01 0.  1.
         -5    1    3    3    0  502 -0.29216018074E+02 -0.10811390681E+02 -0.10237502565E+03  0.10709145698E+03  0.41800000000E+01 0.  1.
        -11    1    4    4    0    0  0.22791639454E+02  0.42704049306E+02  0.44937414115E+02  0.66048965499E+02  0.00000000000E+00 0.  1.
         11    1    4    4    0    0 -0.19472512817E+02 -0.25603402404E+02 -0.14171901929E+02  0.35150473316E+02  0.00000000000E+00 0. -1.
</event>
<event>
 8    1  0.6703334E-009  0.1499641E+03  0.7561462E-02  0.1200517E+00
         -2   -1    0    0    0  501 -0.00000000000E+00  0.00000000000E+00  0.46298920152E+02  0.46298920152E+02  0.00000000000E+00 0.  1.
          2   -1    0    0  501    0  0.00000000000E+00 -0.00000000000E+00 -0.54245655317E+03  0.54245655317E+03  0.00000000000E+00 0. -1.
         25    2    1    2    0    0  0.34566178671E+02  0.11583305961E+03 -0.27710296599E+03  0.32717783610E+03  0.12508862565E+03 0.  0.
         23    2    1    2    0    0 -0.34566178671E+02 -0.11583305961E+03 -0.21905466703E+03  0.26157763722E+03  0.76326893958E+02 0.  0.
          5    1    3    3  502    0  0.53250659125E+02  0.13460522678E+03 -0.25085868398E+03  0.28965799058E+03  0.41800000000E+01 0.  1.
         -5    1    3    3    0  502 -0.18684480454E+02 -0.18772167170E+02 -0.26244282010E+02  0.37519845526E+02  0.41800000000E+01 0.  1.
        -11    1    4    4    0    0 -0.25935677261E+02 -0.21829933965E+02 -0.12020739568E+03  0.12489605017E+03  0.00000000000E+00 0. -1.
         11    1    4    4    0    0 -0.86305014100E+01 -0.94003125648E+02 -0.98847271344E+02  0.13668158705E+03  0.00000000000E+00 0.  1.
</event>
<event>
 8    1  0.6703334E-009  0.2014976E+03  0.7561462E-02  0.1148482E+00
          2   -1    0    0  501    0  0.00000000000E+00  0.00000000000E+00  0.10733089132E+04  0.10733089132E+04  0.00000000000E+00 0. -1.
         -2   -1    0    0    0  501 -0.00000000000E+00 -0.00000000000E+00 -0.99370408162E+02  0.99370408162E+02  0.00000000000E+00 0.  1.
         25    2    1    2    0    0  0.83390146229E+02  0.17269885674E+03  0.63167418593E+02  0.23751913011E+03  0.12508558187E+03 0.  0.
         23    2    1    2    0    0 -0.83390146229E+02 -0.17269885674E+03  0.91077108649E+03  0.93516019129E+03  0.90784358715E+02 0.  0.
          5    1    3    3  502    0  0.60565936820E+02  0.47716817971E+02 -0.26853836091E+02  0.81754072271E+02  0.41800000000E+01 0. -1.
         -5    1    3    3    0  502  0.22824209409E+02  0.12498203877E+03  0.90021254683E+02  0.15576505784E+03  0.41800000000E+01 0. -1.
        -11    1    4    4    0    0 -0.10007298589E+02 -0.79066090465E+02  0.21507510730E+03  0.22936628886E+03  0.00000000000E+00 0.  1.
         11    1    4    4    0    0 -0.73382847640E+02 -0.93632766275E+02  0.69569597919E+03  0.70579390243E+03  0.00000000000E+00 0. -1.
</event>
<event>
 8    1  0.6703334E-009  0.1112401E+03  0.7561462E-02  0.1258290E+00
          2   -1    0    0  501    0  0.00000000000E+00  0.00000000000E+00  0.91002754820E+02  0.91002754820E+02  0.00000000000E+00 0. -1.
         -2   -1    0    0    0  501 -0.00000000000E+00 -0.00000000000E+00 -0.35700201856E+03  0.35700201856E+03  0.00000000000E+00 0.  1.
         25    2    1    2    0    0 -0.50245873953E+02  0.66556253602E+02 -0.28577693866E+03  0.32291700970E+03  0.12511016643E+03 0.  0.
         23    2    1    2    0    0  0.50245873953E+02 -0.66556253602E+02  0.19777674923E+02  0.12508776367E+03  0.91112070838E+02 0.  0.
          5    1    3    3  502    0 -0.66617986708E+02  0.78981172628E+02 -0.13183439963E+03  0.16755226978E+03  0.41800000000E+01 0.  1.
         -5    1    3    3    0  502  0.16372112755E+02 -0.12424919026E+02 -0.15394253903E+03  0.15536473992E+03  0.41800000000E+01 0.  1.
        -11    1    4    4    0    0  0.12873714307E+02 -0.58456866551E+02 -0.26153599582E+02  0.65321884068E+02  0.00000000000E+00 0.  1.
         11    1    4    4    0    0  0.37372159647E+02 -0.80993870511E+01  0.45931274505E+02  0.59765879605E+02  0.00000000000E+00 0. -1.
</event>
<event>
 8    1  0.6703334E-009  0.4014669E+03  0.7561462E-02  0.1043273E+00
         -2   -1    0    0    0  501 -0.00000000000E+00  0.00000000000E+00  0.19416382228E+03  0.19416382228E+03  0.00000000000E+00 0.  1.
          2   -1    0    0  501    0  0.00000000000E+00 -0.00000000000E+00 -0.11567221482E+04  0.11567221482E+04  0.00000000000E+00 0. -1.
         25    2    1    2    0    0 -0.39003140742E+03  0.56829840146E+02 -0.82431473267E+03  0.92222357494E+03  0.12508962451E+03 0.  0.
         23    2    1    2    0    0  0.39003140742E+03 -0.56829840146E+02 -0.13824359324E+03  0.42866239552E+03  0.96364042872E+02 0.  0.
          5    1    3    3  502    0 -0.21836788675E+03 -0.21736760786E+02 -0.36961655746E+03  0.42987311231E+03  0.41800000000E+01 0.  1.
         -5    1    3    3    0  502 -0.17166352067E+03  0.78566600932E+02 -0.45469817521E+03  0.49235046263E+03  0.41800000000E+01 0.  1.
        -11    1    4    4    0    0  0.35025279037E+03 -0.45127692296E+02 -0.15270363013E+03  0.38474917079E+03  0.00000000000E+00 0. -1.
         11    1    4    4    0    0  0.39778617056E+02 -0.11702147850E+02  0.14460036895E+02  0.43913224730E+02  0.00000000000E+00 0.  1.
</event>
<event>
 8    1  0.6703334E-009  0.1267631E+03  0.7561462E-02  0.1232339E+00
          2   -1    0    0  501    0  0.00000000000E+00  0.00000000000E+00  0.36456456528E+03  0.36456456528E+03  0.00000000000E+00 0. -1.
         -2   -1    0    0    0  501 -0.00000000000E+00 -0.00000000000E+00 -0.94310022194E+02  0.94310022194E+02  0.00000000000E+00 0.  1.
         25    2    1    2    0    0 -0.18162291239E+02 -0.10274000555E+03  0.85110086181E+01  0.16311334192E+03  0.12509255565E+03 0.  0.
         23    2    1    2    0    0  0.18162291239E+02  0.10274000555E+03  0.26174353447E+03  0.29576124556E+03  0.89886923265E+02 0.  0.
          5    1    3    3  502    0 -0.60810709230E+02 -0.78316390669E+02 -0.26389871385E+02  0.10269029709E+03  0.41800000000E+01 0. -1.
         -5    1    3    3    0  502  0.42648417991E+02 -0.24423614884E+02  0.34900880003E+02  0.60423044827E+02  0.41800000000E+01 0. -1.
        -11    1    4    4    0    0  0.18706895361E+02  0.77899432230E+02  0.25858946233E+03  0.27071531080E+03  0.00000000000E+00 0. -1.
         11    1    4    4    0    0 -0.54460412194E+00  0.24840573323E+02  0.31540721386E+01  0.25045934754E+02  0.00000000000E+00 0.  1.
</event>
<event>
 8    1  0.6703334E-009  0.1952685E+03  0.7561462E-02  0.1153794E+00
          1   -1    0    0  501    0  0.00000000000E+00  0.00000000000E+00  0.39161092510E+03  0.39161092510E+03  0.00000000000E+00 0. -1.
         -1   -1    0    0    0  501 -0.00000000000E+00 -0.00000000000E+00 -0.11878692639E+03  0.11878692639E+03  0.00000000000E+00 0.  1.
         25    2    1    2    0    0  0.98183853946E+01 -0.17011158771E+03  0.53650746728E+02  0.21808197599E+03  0.12508793971E+03 0.  0.
         23    2    1    2    0    0 -0.98183853946E+01  0.17011158771E+03  0.21917325198E+03  0.29231587550E+03  0.91527611796E+02 0.  0.
          5    1    3    3  502    0  0.55700458892E+02 -0.34977921060E+02  0.33387326046E+02  0.73879510170E+02  0.41800000000E+01 0.  1.
         -5    1    3    3    0  502 -0.45882073497E+02 -0.13513366665E+03  0.20263420682E+02  0.14420246582E+03  0.41800000000E+01 0.  1.
        -11    1    4    4    0    0  0.22791439720E+02  0.28242914032E+02  0.10306531530E+02  0.37727132276E+02  0.00000000000E+00 0.  1.
         11    1    4    4    0    0 -0.32609825115E+02  0.14186867367E+03  0.20886672045E+03  0.25458874322E+03  0.00000000000E+00 0. -1.
</event>
<event>
 8    1  0.6703334E-009  0.1026203E+03  0.7561462E-02  0.1274880E+00
          1   -1    0    0  501    0  0.00000000000E+00  0.00000000000E+00  0.73325475239E+03  0.73325475239E+03  0.00000000000E+00 0. -1.
         -1   -1    0    0    0  501 -0.00000000000E+00 -0.00000000000E+00 -0.25013381198E+02  0.25013381198E+02  0.00000000000E+00 0.  1.
         25    2    1    2    0    0 -0.80008441636E+02  0.79669022034E+01  0.34961707313E+03  0.37992671357E+03  0.12508951835E+03 0.  0.
         23    2    1    2    0    0  0.80008441636E+02 -0.79669022034E+01  0.35862429807E+03  0.37834142002E+03  0.89811027561E+02 0.  0.
          5    1    3    3  502    0  0.11034377934E+02 -0.47128075806E+01 -0.49335524632E+01  0.13630128084E+02  0.41800000000E+01 0. -1.
         -5    1    3    3    0  502 -0.91042819570E+02  0.12679709784E+02  0.35455062559E+03  0.36629658549E+03  0.41800000000E+01 0. -1.
        -11    1    4    4    0    0  0.33708281652E+02 -0.33601411480E+02  0.27701618268E+03  0.28107520092E+03  0.00000000000E+00 0. -1.
         11    1    4    4    0    0  0.46300159984E+02  0.25634509276E+02  0.81608115394E+02  0.97266219103E+02  0.00000000000E+00 0.  1.
</event>
<event>
 8    1  0.6703334E-009  0.6837347E+02  0.7561462E-02  0.1365713E+00
         -1   -1    0    0    0  501 -0.00000000000E+00  0.00000000000E+00  0.23902083355E+03  0.23902083355E+03  0.00000000000E+00 0.  1.
          1   -1    0    0  501    0  0.00000000000E+00 -0.00000000000E+00 -0.53990902068E+02  0.53990902068E+02  0.00000000000E+00 0. -1.
         25    2    1    2    0    0 -0.16528721484E+02  0.29664374523E+02  0.11659035844E+03  0.17433394647E+03  0.12508333007E+03 0.  0.
         23    2    1    2    0    0  0.16528721484E+02 -0.29664374523E+02  0.68439573050E+02  0.11867778915E+03  0.90814474230E+02 0.  0.
          5    1    3    3  502    0 -0.48755529728E+02  0.45292302617E+02  0.12084970799E+03  0.13802397863E+03  0.41800000000E+01 0. -1.
         -5    1    3    3    0  502  0.32226808243E+02 -0.15627928094E+02 -0.42593495502E+01  0.36309967842E+02  0.41800000000E+01 0. -1.
        -11    1    4    4    0    0  0.61049380453E+01 -0.91642203342E+01 -0.22406404284E+02  0.24965979969E+02  0.00000000000E+00 0. -1.
         11    1    4    4    0    0  0.10423783439E+02 -0.20500154189E+02  0.90845977334E+02  0.93711809185E+02  0.00000000000E+00 0.  1.
</event>
<event>
 8    1  0.6703334E-009  0.1086227E+03  0.7561462E-02  0.1263142E+00
          1   -1    0    0  501    0  0.00000000000E+00  0.00000000000E+00  0.10978644495E+03  0.10978644495E+03  0.00000000000E+00 0. -1.
         -1   -1    0    0    0  501 -0.00000000000E+00 -0.00000000000E+00 -0.17787802626E+03  0.17787802626E+03  0.00000000000E+00 0.  1.
         25    2    1    2    0    0 -0.26696443082E+02 -0.59233195877E+02  0.25117257358E+02  0.14317840551E+03  0.12509159692E+03 0.  0.
         23    2    1    2    0    0  0.26696443082E+02  0.59233195877E+02 -0.93208838662E+02  0.14448606570E+03  0.89258411428E+02 0.  0.
          5    1    3    3  502    0 -0.10657194030E+02 -0.87542928654E+02  0.50490402904E+02  0.10170591589E+03  0.41800000000E+01 0. -1.
         -5    1    3    3    0  502 -0.16039249052E+02  0.28309732777E+02 -0.25373145547E+02  0.41472489616E+02  0.41800000000E+01 0. -1.
        -11    1    4    4    0    0 -0.12109766546E+02 -0.10709049659E+02 -0.52107340621E+02  0.54557356396E+02  0.00000000000E+00 0.  1.
         11    1    4    4    0    0  0.38806209628E+02  0.69942245536E+02 -0.41101498041E+02  0.89928709307E+02  0.00000000000E+00 0. -1.
</event>
<event>
 8    1  0.6703334E-009  0.9968794E+02  0.7561462E-02  0.1280954E+00
          2   -1    0    0  501    0  0.00000000000E+00  0.00000000000E+00  0.27160426281E+03  0.27160426281E+03  0.00000000000E+00 0. -1.
         -2   -1    0    0    0  501 -0.00000000000E+00 -0.00000000000E+00 -0.53851442671E+02  0.53851442671E+02  0.00000000000E+00 0.  1.
         25    2    1    2    0    0  0.32057797931E+02  0.14658189685E+02  0.17785998481E+03  0.22028163611E+03  0.12508900863E+03 0.  0.
         23    2    1    2    0    0 -0.32057797931E+02 -0.14658189685E+02  0.39892835333E+02  0.10517406937E+03  0.90706017572E+02 0.  0.
          5    1    3    3  502    0  0.66288924852E+02  0.74819066837E+01  0.17205516344E+03  0.18458237227E+03  0.41800000000E+01 0. -1.
         -5    1    3    3    0  502 -0.34231126922E+02  0.71762830008E+01  0.58048213685E+01  0.35699263846E+02  0.41800000000E+01 0. -1.
        -11    1    4    4    0    0 -0.25463655449E+01  0.37390998925E+02  0.15805583935E+02  0.40674159631E+02  0.00000000000E+00 0. -1.
         11    1    4    4    0    0 -0.29511432386E+02 -0.52049188610E+02  0.24087251397E+02  0.64499909739E+02  0.00000000000E+00 0.  1.
</event>
<event>
 8    1  0.6703334E-009  0.1558621E+03  0.7561462E-02  0.1193449E+00
         -1   -1    0    0    0  501 -0.00000000000E+00  0.00000000000E+00  0.40391816759E+02  0.40391816759E+02  0.00000000000E+00 0.  1.
          1   -1    0    0  501    0  0.00000000000E+00 -0.00000000000E+00 -0.85493798274E+03  0.85493798274E+03  0.00000000000E+00 0. -1.
         25    2    1    2    0    0 -0.14045512477E+03  0.54840267506E+02 -0.41731276202E+03  0.46101262536E+03  0.12509037686E+03 0.  0.
         23    2    1    2    0    0  0.14045512477E+03 -0.54840267506E+02 -0.39723340396E+03  0.43431717414E+03  0.90010741100E+02 0.  0.
          5    1    3    3  502    0  0.29733152593E+01  0.86524031442E+01  0.59652463121E+01  0.11694496456E+02  0.41800000000E+01 0. -1.
         -5    1    3    3    0  502 -0.14342844003E+03  0.46187864362E+02 -0.42327800833E+03  0.44931812891E+03  0.41800000000E+01 0. -1.
        -11    1    4    4    0    0  0.36924983549E+02 -0.17562452989E+02 -0.23344088012E+03  0.23699480728E+03  0.00000000000E+00 0. -1.
         11    1    4    4    0    0  0.10353014123E+03 -0.37277814517E+02 -0.16379252384E+03  0.19732236686E+03  0.00000000000E+00 0.  1.
</event>
<event>
 8    1  0.6703334E-009  0.7819998E+02  0.7561462E-02  0.1334239E+00
          1   -1    0    0  501    0  0.00000000000E+00  0.00000000000E+00  0.64497194015E+02  0.64497194015E+02  0.00000000000E+00 0. -1.
         -1   -1    0    0    0  501 -0.00000000000E+00 -0.00000000000E+00 -0.20702469313E+03  0.20702469313E+03  0.00000000000E+00 0.  1.
         25    2    1    2    0    0  0.15442223695E+02 -0.22465700319E+02 -0.47148913133E+02  0.13643162801E+03  0.12508956451E+03 0.  0.
         23    2    1    2    0    0 -0.15442223695E+02  0.22465700319E+02 -0.95378585986E+02  0.13509025914E+03  0.91701327609E+02 0.  0.
          5    1    3    3  502    0  0.35378925744E+02 -0.90599723087E+01  0.34989813480E+02  0.50749491943E+02  0.41800000000E+01 0.  1.
         -5    1    3    3    0  502 -0.19936702050E+02 -0.13405728010E+02 -0.82138726613E+02  0.85682136071E+02  0.41800000000E+01 0.  1.
        -11    1    4    4    0    0 -0.46406594577E+02  0.38579978484E+02 -0.54278655313E+02  0.81167476138E+02  0.00000000000E+00 0. -1.
         11    1    4    4    0    0  0.30964370882E+02 -0.16114278165E+02 -0.41099930673E+02  0.53922782998E+02  0.00000000000E+00 0.  1.
</event>
<event>
 8    1  0.6703334E-009  0.1102096E+03  0.7561462E-02  0.1260182E+00
          1   -1    0    0  501    0  0.00000000000E+00  0.00000000000E+00  0.29493692761E+03  0.29493692761E+03  0.00000000000E+00 0. -1.
         -1   -1    0    0    0  501 -0.00000000000E+00 -0.00000000000E+00 -0.97128792486E+02  0.97128792486E+02  0.00000000000E+00 0.  1.
         25    2    1    2    0    0 -0.48577043282E+02  0.49102755953E+01 -0.33734882246E+02  0.13845504023E+03  0.12509163019E+03 0.  0.
         23    2    1    2    0    0  0.48577043282E+02 -0.49102755953E+01  0.23154301737E+03  0.25361067987E+03  0.91227014146E+02 0.  0.
          5    1    3    3  502    0  0.30760550134E+02 -0.30193510024E+02 -0.27661274697E+02  0.51385581733E+02  0.41800000000E+01 0.  1.
         -5    1    3    3    0  502 -0.79337593416E+02  0.35103785620E+02 -0.60736075494E+01  0.87069458494E+02  0.41800000000E+01 0.  1.
        -11    1    4    4    0    0 -0.29711826596E+01  0.28612868013E+02  0.25010400478E+02  0.38118817852E+02  0.00000000000E+00 0.  1.
         11    1    4    4    0    0  0.51548225941E+02 -0.33523143609E+02  0.20653261690E+03  0.21549186202E+03  0.00000000000E+00 0. -1.
</event>
<event>
 8    1  0.6703334E-009  0.7623003E+02  0.7561462E-02  0.1340104E+00
         -1   -1    0    0    0  501 -0.00000000000E+00  0.00000000000E+00  0.49866739299E+03  0.49866739299E+03  0.00000000000E+00 0.  1.
          1   -1    0    0  501    0  0.00000000000E+00 -0.00000000000E+00 -0.27655517665E+02  0.27655517665E+02  0.00000000000E+00 0. -1.
         25    2    1    2    0    0 -0.32713700479E+02 -0.10354333856E+02  0.33816102496E+03  0.36218773228E+03  0.12509866581E+03 0.  0.
         23    2    1    2    0    0  0.32713700479E+02  0.10354333856E+02  0.13285085036E+03  0.16413517837E+03  0.90075578862E+02 0.  0.
          5    1    3    3  502    0 -0.40639631157E+02 -0.47347088607E+02  0.30609646717E+03  0.31241934325E+03  0.41800000000E+01 0. -1.
         -5    1    3    3    0  502  0.79259306783E+01  0.36992754752E+02  0.32064557788E+02  0.49768389038E+02  0.41800000000E+01 0. -1.
        -11    1    4    4    0    0  0.61296715774E+01 -0.14328818147E+02 -0.88104549582E+01  0.17902849485E+02  0.00000000000E+00 0. -1.
         11    1    4    4    0    0  0.26584028901E+02  0.24683152002E+02  0.14166130532E+03  0.14623232888E+03  0.00000000000E+00 0.  1.
</event>
<event>
 8    1  0.6703334E-009  0.1053130E+03  0.7561462E-02  0.1269504E+00
          2   -1    0    0  501    0  0.00000000000E+00  0.00000000000E+00  0.16063227396E+04  0.16063227396E+04  0.00000000000E+00 0. -1.
         -2   -1    0    0    0  501 -0.00000000000E+00 -0.00000000000E+00 -0.17203567168E+02  0.17203567168E+02  0.00000000000E+00 0.  1.
         25    2    1    2    0    0 -0.34301981367E+02  0.60704499889E+02  0.13791766653E+04  0.13865932342E+04  0.12510340078E+03 0.  0.
         23    2    1    2    0    0  0.34301981367E+02 -0.60704499889E+02  0.20994250715E+03  0.23693307255E+03  0.84851413233E+02 0.  0.
          5    1    3    3  502    0 -0.64031857888E+02  0.34656740858E+02  0.39894801389E+03  0.40555906931E+03  0.41800000000E+01 0. -1.
         -5    1    3    3    0  502  0.29729876521E+02  0.26047759030E+02  0.98022865139E+03  0.98103416490E+03  0.41800000000E+01 0. -1.
        -11    1    4    4    0    0  0.43470611703E+02 -0.76863241139E+01  0.15010825179E+03  0.15646488717E+03  0.00000000000E+00 0. -1.
         11    1    4    4    0    0 -0.91686303364E+01 -0.53018175775E+02  0.59834255361E+02  0.80468185386E+02  0.00000000000E+00 0.  1.
</event>
<event>
 8    1  0.6703334E-009  0.9011852E+02  0.7561462E-02  0.1302565E+00
          2   -1    0    0  501    0  0.00000000000E+00  0.00000000000E+00  0.47763798330E+03  0.47763798330E+03  0.00000000000E+00 0. -1.
         -2   -1    0    0    0  501 -0.00000000000E+00 -0.00000000000E+00 -0.36342488759E+02  0.36342488759E+02  0.00000000000E+00 0.  1.
         25    2    1    2    0    0  0.43049536201E+02  0.30880799382E+02  0.33449780029E+03  0.36103436901E+03  0.12510056302E+03 0.  0.
         23    2    1    2    0    0 -0.43049536201E+02 -0.30880799382E+02  0.10679769425E+03  0.15294610305E+03  0.95811672588E+02 0.  0.
          5    1    3    3  502    0  0.37553941833E+02  0.55830434460E+02  0.32729180648E+03  0.33416273722E+03  0.41800000000E+01 0.  1.
         -5    1    3    3    0  502  0.54955943671E+01 -0.24949635079E+02  0.72059938129E+01  0.26871631786E+02  0.41800000000E+01 0.  1.
        -11    1    4    4    0    0 -0.61815260663E+02 -0.18778340857E+02  0.11265133551E+03  0.12986175699E+03  0.00000000000E+00 0. -1.
         11    1    4    4    0    0  0.18765724463E+02 -0.12102458525E+02 -0.58536412632E+01  0.23084346060E+02  0.00000000000E+00 0.  1.
</event>
<event>
 8    1  0.6703334E-009  0.1116903E+03  0.7561462E-02  0.1257471E+00
         -2   -1    0    0    0  501 -0.00000000000E+00  0.00000000000E+00  0.14271293149E+02  0.14271293149E+02  0.00000000000E+00 0.  1.
          2   -1    0    0  501    0  0.00000000000E+00 -0.00000000000E+00 -0.13294644122E+04  0.13294644122E+04  0.00000000000E+00 0. -1.
         25    2    1    2    0    0 -0.81007503392E+02  0.81375954539E+01 -0.80552590433E+03  0.81923575066E+03  0.12508715583E+03 0.  0.
         23    2    1    2    0    0  0.81007503392E+02 -0.81375954539E+01 -0.50966721473E+03  0.52449995469E+03  0.93333255804E+02 0.  0.
          5    1    3    3  502    0 -0.90267041654E+02  0.66185008646E+01 -0.80371384879E+03  0.80880490015E+03  0.41800000000E+01 0.  1.
         -5    1    3    3    0  502  0.92595382623E+01  0.15190945893E+01 -0.18120555373E+01  0.10430850515E+02  0.41800000000E+01 0.  1.
        -11    1    4    4    0    0  0.48666626495E+02 -0.49886207829E+02 -0.32745141162E+03  0.33478575423E+03  0.00000000000E+00 0.  1.
         11    1    4    4    0    0  0.32340876897E+02  0.41748612375E+02 -0.18221580311E+03  0.18971420046E+03  0.00000000000E+00 0. -1.
</event>
<event>
 8    1  0.6703334E-009  0.7614262E+02  0.7561462E-02  0.1340369E+00
          2   -1    0    0  501    0  0.00000000000E+00  0.00000000000E+00  0.49765850389E+03  0.49765850389E+03  0.00000000000E+00 0.  1.
         -2   -1    0    0    0  501 -0.00000000000E+00 -0.00000000000E+00 -0.33177722917E+02  0.33177722917E+02  0.00000000000E+00 0. -1.
         25    2    1    2    0    0 -0.26494482500E+02  0.11477828205E+02  0.13039190688E+03  0.18298541132E+03  0.12509161936E+03 0.  0.
         23    2    1    2    0    0  0.26494482500E+02 -0.11477828205E+02  0.33408887410E+03  0.34785081549E+03  0.92472243928E+02 0.  0.
          5    1    3    3  502    0 -0.36364463999E+02 -0.48798643421E+01 -0.12328470846E+02  0.38931361540E+02  0.41800000000E+01 0.  1.
         -5    1    3    3    0  502  0.98699814993E+01  0.16357692547E+02  0.14272037772E+03  0.14405404978E+03  0.41800000000E+01 0.  1.
        -11    1    4    4    0    0 -0.31924318671E+02  0.10162254453E+02  0.14260691726E+03  0.14648947535E+03  0.00000000000E+00 0.  1.
         11    1    4    4    0    0  0.58418801171E+02 -0.21640082658E+02  0.19148195684E+03  0.20136134014E+03  0.00000000000E+00 0. -1.
</event>
<event>
 8    1  0.6703334E-009  0.1073386E+03  0.7561462E-02  0.1265579E+00
         -1   -1    0    0    0  501 -0.00000000000E+00  0.00000000000E+00  0.70080354000E+02  0.70080354000E+02  0.00000000000E+00 0.  1.
          1   -1    0    0  501    0  0.00000000000E+00 -0.00000000000E+00 -0.22945684093E+03  0.22945684093E+03  0.00000000000E+00 0. -1.
         25    2    1    2    0    0  0.52773195438E+02 -0.27593663282E+02 -0.53414610020E+02  0.14848075945E+03  0.12508794887E+03 0.  0.
         23    2    1    2    0    0 -0.52773195438E+02  0.27593663282E+02 -0.10596187691E+03  0.15105643548E+03  0.89686715471E+02 0.  0.
          5    1    3    3  502    0  0.28751672898E+02  0.34063751460E+02  0.20451933969E+02  0.49221457323E+02  0.41800000000E+01 0.  1.
         -5    1    3    3    0  502  0.24021522540E+02 -0.61657414742E+02 -0.73866543989E+02  0.99259302127E+02  0.41800000000E+01 0.  1.
        -11    1    4    4    0    0 -0.37975460618E+02 -0.27286608470E+02 -0.27764242567E+02  0.54383340981E+02  0.00000000000E+00 0. -1.
         11    1    4    4    0    0 -0.14797734819E+02  0.54880271751E+02 -0.78197634348E+02  0.96673094503E+02  0.00000000000E+00 0.  1.
</event>
<event>
 8    1  0.6703334E-009  0.9291255E+02  0.7561462E-02  0.1295948E+00
         -1   -1    0    0    0  501 -0.00000000000E+00  0.00000000000E+00  0.50215004994E+02  0.50215004994E+02  0.00000000000E+00 0.  1.
          1   -1    0    0  501    0  0.00000000000E+00 -0.00000000000E+00 -0.26654628718E+03  0.26654628718E+03  0.00000000000E+00 0. -1.
         25    2    1    2    0    0 -0.19546181198E+02  0.23896644640E+02 -0.14610350220E+03  0.19480110314E+03  0.12509250020E+03 0.  0.
         23    2    1    2    0    0  0.19546181198E+02 -0.23896644640E+02 -0.70227779987E+02  0.12196018903E+03  0.94811622718E+02 0.  0.
          5    1    3    3  502    0  0.48241776363E+01 -0.45076397716E+02 -0.95373082196E+02  0.10568184105E+03  0.41800000000E+01 0.  1.
         -5    1    3    3    0  502 -0.24370358835E+02  0.68973042356E+02 -0.50730420004E+02  0.89119262089E+02  0.41800000000E+01 0.  1.
        -11    1    4    4    0    0  0.22652337441E+01 -0.41964865174E+02  0.53399660431E+01  0.42363857595E+02  0.00000000000E+00 0.  1.
         11    1    4    4    0    0  0.17280947454E+02  0.18068220534E+02 -0.75567746030E+02  0.79596331437E+02  0.00000000000E+00 0. -1.
</event>
<event>
 8    1  0.6703334E-009  0.9671347E+02  0.7561462E-02  0.1287363E+00
         -3   -1    0    0    0  501 -0.00000000000E+00  0.00000000000E+00  0.84124193362E+02  0.84124193362E+02  0.00000000000E+00 0.  1.
          3   -1    0    0  501    0  0.00000000000E+00 -0.00000000000E+00 -0.16287385643E+03  0.16287385643E+03  0.00000000000E+00 0. -1.
         25    2    1    2    0    0  0.24404586295E+02 -0.18184902735E+02 -0.89608155175E+02  0.15685446692E+03  0.12508967903E+03 0.  0.
         23    2    1    2    0    0 -0.24404586295E+02  0.18184902735E+02  0.10858492111E+02  0.90143582869E+02  0.84152743044E+02 0.  0.
          5    1    3    3  502    0 -0.43027066698E+02 -0.11446880686E+02 -0.36681610475E+00  0.44720985008E+02  0.41800000000E+01 0. -1.
         -5    1    3    3    0  502  0.67431652992E+02 -0.67380220490E+01 -0.89241339070E+02  0.11213348191E+03  0.41800000000E+01 0. -1.
        -11    1    4    4    0    0  0.18796269093E+02 -0.16808649584E+02 -0.14445579896E+02  0.29060371835E+02  0.00000000000E+00 0. -1.
         11    1    4    4    0    0 -0.43200855388E+02  0.34993552319E+02  0.25304072007E+02  0.61083211035E+02  0.00000000000E+00 0.  1.
</event>
<event>
 8    1  0.6703334E-009  0.7500657E+02  0.7561462E-02  0.1343851E+00
          2   -1    0    0  501    0  0.00000000000E+00  0.00000000000E+00  0.78431262461E+03  0.78431262461E+03  0.00000000000E+00 0.  1.
         -2   -1    0    0    0  501 -0.00000000000E+00 -0.00000000000E+00 -0.27386215533E+02  0.27386215533E+02  0.00000000000E+00 0. -1.
         25    2    1    2    0    0 -0.33026024127E+02 -0.20052464258E+02  0.65867563939E+03  0.67156116515E+03  0.12509189028E+03 0.  0.
         23    2    1    2    0    0  0.33026024127E+02  0.20052464258E+02  0.98250769682E+02  0.14013767499E+03  0.92154948954E+02 0.  0.
          5    1    3    3  502    0 -0.68962392823E+01 -0.43817371289E+02  0.78233873724E+02  0.90030725537E+02  0.41800000000E+01 0.  1.
         -5    1    3    3    0  502 -0.26129784845E+02  0.23764907031E+02  0.58044176567E+03  0.58153043961E+03  0.41800000000E+01 0.  1.
        -11    1    4    4    0    0  0.57586542801E+01  0.37225546070E+02  0.99413062907E+00  0.37681450012E+02  0.00000000000E+00 0. -1.
         11    1    4    4    0    0  0.27267369847E+02 -0.17173081812E+02  0.97256639053E+02  0.10245622498E+03  0.00000000000E+00 0.  1.
</event>
<event>
 7    1  0.6703334E-009  0.2789278E+03  0.7561462E-02  0.1096276E+00
         -2   -1    0    0    0  501 -0.00000000000E+00  0.00000000000E+00  0.89995133493E+02  0.89995133493E+02  0.00000000000E+00 0. -1.
          2   -1    0    0  501    0  0.00000000000E+00 -0.00000000000E+00 -0.14432231078E+04  0.14432231078E+04  0.00000000000E+00 0.  1.
         23    2    1    2    0    0 -0.21985785558E+03 -0.14724179080E+03 -0.20135574570E+03  0.34472570682E+03  0.90961832645E+02 0.  0.
          5    1    1    2  502    0  0.20817093814E+03  0.16242640876E+03 -0.96122549480E+03  0.99683970728E+03  0.41800000000E+01 0.  1.
         -5    1    1    2    0  502  0.11686917440E+02 -0.15184617964E+02 -0.19064673375E+03  0.19165282714E+03  0.41800000000E+01 0.  1.
        -11    1    3    3    0    0 -0.16756331861E+03 -0.71619982551E+02 -0.99927887461E+02  0.20782798256E+03  0.00000000000E+00 0.  1.
         11    1    3    3    0    0 -0.52294536972E+02 -0.75621808246E+02 -0.10142785824E+03  0.13689772426E+03  0.00000000000E+00 0. -1.
</event>
<event>
 8    1  0.6703334E-009  0.9801307E+02  0.7561462E-02  0.1284531E+00
          2   -1    0    0  501    0  0.00000000000E+00  0.00000000000E+00  0.78117380538E+03  0.78117380538E+03  0.00000000000E+00 0. -1.
         -2   -1    0    0    0  501 -0.00000000000E+00 -0.00000000000E+00 -0.25193176785E+02  0.25193176785E+02  0.00000000000E+00 0.  1.
         25    2    1    2    0    0  0.68334660609E+02  0.35356131265E+02  0.54549155404E+03  0.56491425310E+03  0.12508955179E+03 0.  0.
         23    2    1    2    0    0 -0.68334660609E+02 -0.35356131265E+02  0.21048907455E+03  0.24145272906E+03  0.89855929171E+02 0.  0.
          5    1    3    3  502    0  0.49598721176E+02  0.57956057634E+02  0.15020354971E+03  0.16851562688E+03  0.41800000000E+01 0. -1.
         -5    1    3    3    0  502  0.18735939433E+02 -0.22599926369E+02  0.39528800433E+03  0.39639862622E+03  0.41800000000E+01 0. -1.
        -11    1    4    4    0    0 -0.17066013606E+02 -0.34739425285E+02  0.17467233426E+03  0.17890919720E+03  0.00000000000E+00 0. -1.
         11    1    4    4    0    0 -0.51268647004E+02 -0.61670597954E+00  0.35816740294E+02  0.62543531857E+02  0.00000000000E+00 0.  1.
</event>
<event>
 8    1  0.6703334E-009  0.1028605E+03  0.7561462E-02  0.1274393E+00
          1   -1    0    0  501    0  0.00000000000E+00  0.00000000000E+00  0.18634195675E+03  0.18634195675E+03  0.00000000000E+00 0. -1.
         -1   -1    0    0    0  501 -0.00000000000E+00 -0.00000000000E+00 -0.97018790968E+02  0.97018790968E+02  0.00000000000E+00 0.  1.
         25    2    1    2    0    0 -0.14224852117E+01 -0.77302235033E+02  0.30479367134E+02  0.15017882243E+03  0.12508808049E+03 0.  0.
         23    2    1    2    0    0  0.14224852117E+01  0.77302235033E+02  0.58843798649E+02  0.13318192529E+03  0.91088822467E+02 0.  0.
          5    1    3    3  502    0  0.46341081131E+02 -0.13493790479E+02 -0.23479455044E+02  0.53836190347E+02  0.41800000000E+01 0. -1.
         -5    1    3    3    0  502 -0.47763566343E+02 -0.63808444554E+02  0.53958822178E+02  0.96342632084E+02  0.41800000000E+01 0. -1.
        -11    1    4    4    0    0  0.31823395943E+01  0.48795899969E+02  0.82628989253E+02  0.96014150020E+02  0.00000000000E+00 0. -1.
         11    1    4    4    0    0 -0.17598543827E+01  0.28506335064E+02 -0.23785190604E+02  0.37167775267E+02  0.00000000000E+00 0.  1.
</event>
<event>
 8    1  0.6703334E-009  0.1029485E+03  0.7561462E-02  0.1274215E+00
         -2   -1    0    0    0  501 -0.00000000000E+00  0.00000000000E+00  0.59245020598E+02  0.59245020598E+02  0.00000000000E+00 0.  1.
          2   -1    0    0  501    0  0.00000000000E+00 -0.00000000000E+00 -0.20400995846E+03  0.20400995846E+03  0.00000000000E+00 0. -1.
         25    2    1    2    0    0 -0.31276333274E+01 -0.21876076860E+02 -0.82215049847E+02  0.15135800376E+03  0.12514625864E+03 0.  0.
         23    2    1    2    0    0  0.31276333274E+01  0.21876076860E+02 -0.62549888012E+02  0.11189697529E+03  0.90111596146E+02 0.  0.
          5    1    3    3  502    0 -0.56615941485E+02  0.14812423844E+02 -0.21710530141E+02  0.62558710420E+02  0.41800000000E+01 0. -1.
         -5    1    3    3    0  502  0.53488308158E+02 -0.36688500704E+02 -0.60504519706E+02  0.88799293343E+02  0.41800000000E+01 0. -1.
        -11    1    4    4    0    0  0.21449793660E+02 -0.24382814651E+02 -0.51572134228E+02  0.60945059908E+02  0.00000000000E+00 0. -1.
         11    1    4    4    0    0 -0.18322160332E+02  0.46258891511E+02 -0.10977753784E+02  0.50951915383E+02  0.00000000000E+00 0.  1.
</event>
<event>
 8    1  0.6703334E-009  0.1056026E+03  0.7561462E-02  0.1268937E+00
          2   -1    0    0  501    0  0.00000000000E+00  0.00000000000E+00  0.88620391948E+02  0.88620391948E+02  0.00000000000E+00 0. -1.
         -2   -1    0    0    0  501 -0.00000000000E+00 -0.00000000000E+00 -0.25244037188E+03  0.25244037188E+03  0.00000000000E+00 0.  1.
         25    2    1    2    0    0 -0.37512912440E+02  0.65692108407E+02 -0.16615536476E+03  0.22130758316E+03  0.12508704737E+03 0.  0.
         23    2    1    2    0    0  0.37512912440E+02 -0.65692108407E+02  0.23353848244E+01  0.11975318067E+03  0.92804625704E+02 0.  0.
          5    1    3    3  502    0  0.72979994380E+01 -0.17493620061E+02 -0.10918054587E+03  0.11089252245E+03  0.41800000000E+01 0.  1.
         -5    1    3    3    0  502 -0.44810911878E+02  0.83185728468E+02 -0.56974818891E+02  0.11041506071E+03  0.41800000000E+01 0.  1.
        -11    1    4    4    0    0  0.42180689494E+02 -0.12747112744E+02 -0.33755075295E+02  0.55507698184E+02  0.00000000000E+00 0.  1.
         11    1    4    4    0    0 -0.46677770540E+01 -0.52944995663E+02  0.36090460120E+02  0.64245482488E+02  0.00000000000E+00 0. -1.
</event>
<event>
 8    1  0.6703334E-009  0.1335023E+03  0.7561462E-02  0.1222350E+00
         -2   -1    0    0    0  501 -0.00000000000E+00  0.00000000000E+00  0.43623503195E+02  0.43623503195E+02  0.00000000000E+00 0.  1.
          2   -1    0    0  501    0  0.00000000000E+00 -0.00000000000E+00 -0.77617661591E+03  0.77617661591E+03  0.00000000000E+00 0. -1.
         25    2    1    2    0    0  0.90504504301E+02  0.65377650473E+02 -0.60186747570E+03  0.62478552994E+03  0.12508875904E+03 0.  0.
         23    2    1    2    0    0 -0.90504504301E+02 -0.65377650473E+02 -0.13068563701E+03  0.19501458916E+03  0.92123025267E+02 0.  0.
          5    1    3    3  502    0  0.92386923330E+02  0.47824537539E+02 -0.22990938526E+03  0.25238527656E+03  0.41800000000E+01 0.  1.
         -5    1    3    3    0  502 -0.18824190297E+01  0.17553112934E+02 -0.37195809045E+03  0.37240025339E+03  0.41800000000E+01 0.  1.
        -11    1    4    4    0    0  0.12490733270E+02 -0.35308350071E+02 -0.34028088628E+02  0.50602458616E+02  0.00000000000E+00 0.  1.
         11    1    4    4    0    0 -0.10299523757E+03 -0.30069300402E+02 -0.96657548387E+02  0.14441213055E+03  0.00000000000E+00 0. -1.
</event>
<event>
 8    1  0.6703334E-009  0.1478730E+03  0.7561462E-02  0.1203111E+00
          1   -1    0    0  501    0  0.00000000000E+00  0.00000000000E+00  0.17360842367E+03  0.17360842367E+03  0.00000000000E+00 0. -1.
         -1   -1    0    0    0  501 -0.00000000000E+00 -0.00000000000E+00 -0.18020689369E+03  0.18020689369E+03  0.00000000000E+00 0.  1.
         25    2    1    2    0    0  0.98427423828E+02 -0.97816927727E+02  0.61021719670E+01  0.18692413186E+03  0.12508911007E+03 0.  0.
         23    2    1    2    0    0 -0.98427423828E+02  0.97816927727E+02 -0.12700641988E+02  0.16689118550E+03  0.91843630041E+02 0.  0.
          5    1    3    3  502    0 -0.84699190957E+00 -0.27490533678E+02  0.50247663346E+02  0.57434718672E+02  0.41800000000E+01 0. -1.
         -5    1    3    3    0  502  0.99274415737E+02 -0.70326394050E+02 -0.44145491379E+02  0.12948941319E+03  0.41800000000E+01 0. -1.
        -11    1    4    4    0    0 -0.13912318094E+02  0.43643956239E+02  0.33134692257E+02  0.56535434392E+02  0.00000000000E+00 0.  1.
         11    1    4    4    0    0 -0.84515105734E+02  0.54172971488E+02 -0.45835334245E+02  0.11035575111E+03  0.00000000000E+00 0. -1.
</event>
<event>
 8    1  0.6703334E-009  0.1118002E+03  0.7561462E-02  0.1257272E+00
         -1   -1    0    0    0  501 -0.00000000000E+00  0.00000000000E+00  0.29822794735E+02  0.29822794735E+02  0.00000000000E+00 0.  1.
          1   -1    0    0  501    0  0.00000000000E+00 -0.00000000000E+00 -0.57486524178E+03  0.57486524178E+03  0.00000000000E+00 0. -1.
         25    2    1    2    0    0 -0.47634338492E+02 -0.30029179344E+02 -0.40591179524E+03  0.42846680978E+03  0.12509452326E+03 0.  0.
         23    2    1    2    0    0  0.47634338492E+02  0.30029179344E+02 -0.13913065181E+03  0.17622122674E+03  0.92335262308E+02 0.  0.
          5    1    3    3  502    0  0.39232917126E+02 -0.89945087838E+01 -0.70127423752E+02  0.80965739276E+02  0.41800000000E+01 0.  1.
         -5    1    3    3    0  502 -0.86867255618E+02 -0.21034670560E+02 -0.33578437149E+03  0.34750107050E+03  0.41800000000E+01 0.  1.
        -11    1    4    4    0    0  0.28793438137E+02 -0.23337117105E+02 -0.15349995748E+02  0.40116149915E+02  0.00000000000E+00 0.  1.
         11    1    4    4    0    0  0.18840900355E+02  0.53366296449E+02 -0.12378065606E+03  0.13610507682E+03  0.00000000000E+00 0. -1.
</event>
<event>
 8    1  0.6703334E-009  0.1155334E+03  0.7561462E-02  0.1250653E+00
          1   -1    0    0  501    0  0.00000000000E+00  0.00000000000E+00  0.11740685153E+04  0.11740685153E+04  0.00000000000E+00 0. -1.
         -1   -1    0    0    0  501 -0.00000000000E+00 -0.00000000000E+00 -0.12102466564E+02  0.12102466564E+02  0.00000000000E+00 0.  1.
         25    2    1    2    0    0 -0.44509517083E+02  0.43463204768E+01  0.76758806063E+03  0.77899855888E+03  0.12508931326E+03 0.  0.
         23    2    1    2    0    0  0.44509517083E+02 -0.43463204768E+01  0.39437798813E+03  0.40717242301E+03  0.90859214884E+02 0.  0.
          5    1    3    3  502    0  0.32050387111E+02 -0.33598368035E+02  0.30932262640E+03  0.31281629952E+03  0.41800000000E+01 0. -1.
         -5    1    3    3    0  502 -0.76559904195E+02  0.37944688512E+02  0.45826543424E+03  0.46618225935E+03  0.41800000000E+01 0. -1.
        -11    1    4    4    0    0  0.41524387826E+02  0.38093979833E+02  0.18003812070E+03  0.18865087063E+03  0.00000000000E+00 0.  1.
         11    1    4    4    0    0  0.29851292573E+01 -0.42440300310E+02  0.21433986743E+03  0.21852155238E+03  0.00000000000E+00 0. -1.
</event>
<event>
 8    1  0.6703334E-009  0.2255235E+03  0.7561462E-02  0.1129831E+00
         -2   -1    0    0    0  501 -0.00000000000E+00  0.00000000000E+00  0.49357835432E+02  0.49357835432E+02  0.00000000000E+00 0.  1.
          2   -1    0    0  501    0  0.00000000000E+00 -0.00000000000E+00 -0.15308705263E+04  0.15308705263E+04  0.00000000000E+00 0. -1.
         25    2    1    2    0    0  0.36499772709E+02 -0.21494980696E+03 -0.11296831659E+04  0.11573125059E+04  0.12511006385E+03 0.  0.
         23    2    1    2    0    0 -0.36499772709E+02  0.21494980696E+03 -0.35182952490E+03  0.42291585576E+03  0.86822540517E+02 0.  0.
          5    1    3    3  502    0  0.44546240318E+02 -0.19266324431E+03 -0.71272349309E+03  0.73965920750E+03  0.41800000000E+01 0. -1.
         -5    1    3    3    0  502 -0.80464676091E+01 -0.22286562651E+02 -0.41695967286E+03  0.41765329845E+03  0.41800000000E+01 0. -1.
        -11    1    4    4    0    0  0.17913178876E+02  0.10502076544E+03 -0.11878236692E+03  0.15956031413E+03  0.00000000000E+00 0. -1.
         11    1    4    4    0    0 -0.54412951585E+02  0.10992904152E+03 -0.23304715797E+03  0.26335554164E+03  0.00000000000E+00 0.  1.
</event>
<event>
 8    1  0.6703334E-009  0.1159598E+03  0.7561462E-02  0.1249915E+00
         -2   -1    0    0    0  501 -0.00000000000E+00  0.00000000000E+00  0.77873226873E+02  0.77873226873E+02  0.00000000000E+00 0. -1.
          2   -1    0    0  501    0  0.00000000000E+00 -0.00000000000E+00 -0.18709477103E+03  0.18709477103E+03  0.00000000000E+00 0.  1.
         25    2    1    2    0    0  0.41250143487E+02 -0.24242244186E+02 -0.86110456765E+02  0.15922404591E+03  0.12509206726E+03 0.  0.
         23    2    1    2    0    0 -0.41250143487E+02  0.24242244186E+02 -0.23111087395E+02  0.10574395199E+03  0.91424287152E+02 0.  0.
          5    1    3    3  502    0  0.21484364961E+02  0.50967500031E+02 -0.28549729061E+02  0.62384480655E+02  0.41800000000E+01 0. -1.
         -5    1    3    3    0  502  0.19765778527E+02 -0.75209744217E+02 -0.57560727704E+02  0.96839565260E+02  0.41800000000E+01 0. -1.
        -11    1    4    4    0    0 -0.68279126220E+02  0.20488577519E+02 -0.30400945480E+02  0.77498634647E+02  0.00000000000E+00 0.  1.
         11    1    4    4    0    0  0.27028982732E+02  0.37536666672E+01  0.72898580846E+01  0.28245317344E+02  0.00000000000E+00 0. -1.
</event>
<event>
 8    1  0.6703334E-009  0.2535337E+03  0.7561462E-02  0.1111092E+00
         -2   -1    0    0    0  501 -0.00000000000E+00  0.00000000000E+00  0.28071192750E+02  0.28071192750E+02  0.00000000000E+00 0.  1.
          2   -1    0    0  501    0  0.00000000000E+00 -0.00000000000E+00 -0.23972232319E+04  0.23972232319E+04  0.00000000000E+00 0. -1.
         25    2    1    2    0    0 -0.17757258923E+03 -0.14147580931E+03 -0.11543035845E+04  0.11830518191E+04  0.12508961787E+03 0.  0.
         23    2    1    2    0    0  0.17757258923E+03  0.14147580931E+03 -0.12148484547E+04  0.12422426055E+04  0.12554877192E+03 0.  0.
          5    1    3    3  502    0 -0.15803550323E+03 -0.15824316743E+03 -0.89859831642E+03  0.92601972279E+03  0.41800000000E+01 0. -1.
         -5    1    3    3    0  502 -0.19537085995E+02  0.16767358121E+02 -0.25570526806E+03  0.25703209632E+03  0.41800000000E+01 0. -1.
        -11    1    4    4    0    0  0.12736804477E+03  0.24082694120E+02 -0.53235585687E+03  0.54790998652E+03  0.00000000000E+00 0.  1.
         11    1    4    4    0    0  0.50204544456E+02  0.11739311519E+03 -0.68249259779E+03  0.69433261901E+03  0.00000000000E+00 0. -1.
</event>
<event>
 8    1  0.6703334E-009  0.1343281E+03  0.7561462E-02  0.1221171E+00
          2   -1    0    0  501    0  0.00000000000E+00  0.00000000000E+00  0.40897356819E+03  0.40897356819E+03  0.00000000000E+00 0.  1.
         -2   -1    0    0    0  501 -0.00000000000E+00 -0.00000000000E+00 -0.45684758290E+02  0.45684758290E+02  0.00000000000E+00 0. -1.
         25    2    1    2    0    0  0.74092791565E+02 -0.34694303468E+02  0.21738102000E+03  0.26381233669E+03  0.12509598186E+03 0.  0.
         23    2    1    2    0    0 -0.74092791565E+02  0.34694303468E+02  0.14590778990E+03  0.19084598980E+03  0.91867688612E+02 0.  0.
          5    1    3    3  502    0  0.99163631281E+02 -0.57598979541E+02  0.15793127919E+03  0.19521995175E+03  0.41800000000E+01 0. -1.
         -5    1    3    3    0  502 -0.25070839716E+02  0.22904676073E+02  0.59449740805E+02  0.68592384941E+02  0.41800000000E+01 0. -1.
        -11    1    4    4    0    0 -0.33605467709E+02  0.62229609170E+02  0.10721212665E+03  0.12843789090E+03  0.00000000000E+00 0.  1.
         11    1    4    4    0    0 -0.40487323857E+02 -0.27535305702E+02  0.38695663251E+02  0.62408098895E+02  0.00000000000E+00 0. -1.
</event>
<event>
 8    1  0.6703334E-009  0.1162834E+03  0.7561462E-02  0.1249357E+00
         -1   -1    0    0    0  501 -0.00000000000E+00  0.00000000000E+00  0.46321854873E+02  0.46321854873E+02  0.00000000000E+00 0.  1.
          1   -1    0    0  501    0  0.00000000000E+00 -0.00000000000E+00 -0.64323516943E+03  0.64323516943E+03  0.00000000000E+00 0. -1.
         25    2    1    2    0    0 -0.56329692405E+02  0.86354657194E+02 -0.14299685327E+03  0.21616284519E+03  0.12509242395E+03 0.  0.
         23    2    1    2    0    0  0.56329692405E+02 -0.86354657194E+02 -0.45391646129E+03  0.47339417911E+03  0.86207505036E+02 0.  0.
          5    1    3    3  502    0 -0.47569072273E+01  0.58725419798E+02 -0.14593256098E+03  0.15743280424E+03  0.41800000000E+01 0. -1.
         -5    1    3    3    0  502 -0.51572785177E+02  0.27629237395E+02  0.29357077117E+01  0.58730040948E+02  0.41800000000E+01 0. -1.
        -11    1    4    4    0    0  0.78417731139E+01  0.64385889447E+01 -0.31434872572E+01  0.10622162930E+02  0.00000000000E+00 0.  1.
         11    1    4    4    0    0  0.48487919291E+02 -0.92793246138E+02 -0.45077297403E+03  0.46277201618E+03  0.00000000000E+00 0. -1.
</event>
<event>
 8    1  0.6703334E-009  0.1516046E+03  0.7561462E-02  0.1198515E+00
         -2   -1    0    0    0  501 -0.00000000000E+00  0.00000000000E+00  0.20117812389E+02  0.20117812389E+02  0.00000000000E+00 0.  1.
          2   -1    0    0  501    0  0.00000000000E+00 -0.00000000000E+00 -0.15249221295E+04  0.15249221295E+04  0.00000000000E+00 0. -1.
         25    2    1    2    0    0  0.10629361126E+03  0.43183001850E+02 -0.11249741654E+04  0.11377070446E+04  0.12508934015E+03 0.  0.
         23    2    1    2    0    0 -0.10629361126E+03 -0.43183001850E+02 -0.37983015163E+03  0.40733289723E+03  0.92119713608E+02 0.  0.
          5    1    3    3  502    0 -0.40297312693E+00  0.56456457359E+02 -0.53630987380E+03  0.53928957629E+03  0.41800000000E+01 0.  1.
         -5    1    3    3    0  502  0.10669658439E+03 -0.13273455509E+02 -0.58866429163E+03  0.59841746832E+03  0.41800000000E+01 0.  1.
        -11    1    4    4    0    0 -0.98480076792E+02 -0.34902055369E+01 -0.19936605531E+03  0.22239004265E+03  0.00000000000E+00 0.  1.
         11    1    4    4    0    0 -0.78135344683E+01 -0.39692796313E+02 -0.18046409632E+03  0.18494285458E+03  0.00000000000E+00 0. -1.
</event>
<event>
 7    1  0.6703334E-009  0.1506061E+03  0.7561462E-02  0.1199730E+00
          2   -1    0    0  501    0  0.00000000000E+00  0.00000000000E+00  0.58354834796E+02  0.58354834796E+02  0.00000000000E+00 0. -1.
         -2   -1    0    0    0  501 -0.00000000000E+00 -0.00000000000E+00 -0.47321738729E+03  0.47321738729E+03  0.00000000000E+00 0.  1.
         23    2    1    2    0    0  0.64982956148E+02  0.98373255705E+02 -0.25976996141E+03  0.29980735914E+03  0.92216797360E+02 0.  0.
          5    1    1    2  502    0 -0.91692209019E+02 -0.88180815100E+02 -0.15781262641E+03  0.20274519674E+03  0.41800000000E+01 0.  1.
         -5    1    1    2    0  502  0.26709252871E+02 -0.10192440606E+02  0.27200353288E+01  0.29019666204E+02  0.41800000000E+01 0.  1.
        -11    1    3    3    0    0 -0.17596729835E+02  0.40617290283E+02 -0.48070306883E+02  0.65346488617E+02  0.00000000000E+00 0. -1.
         11    1    3    3    0    0  0.82579685983E+02  0.57755965422E+02 -0.21169965453E+03  0.23446087052E+03  0.00000000000E+00 0.  1.
</event>
<event>
 8    1  0.6703334E-009  0.9809225E+02  0.7561462E-02  0.1284360E+00
          1   -1    0    0  501    0  0.00000000000E+00  0.00000000000E+00  0.87200560725E+02  0.87200560725E+02  0.00000000000E+00 0. -1.
         -1   -1    0    0    0  501 -0.00000000000E+00 -0.00000000000E+00 -0.13707257470E+03  0.13707257470E+03  0.00000000000E+00 0.  1.
         25    2    1    2    0    0  0.82912821374E+01 -0.19050352885E+02 -0.50620342956E+02  0.13653796742E+03  0.12509410906E+03 0.  0.
         23    2    1    2    0    0 -0.82912821374E+01  0.19050352885E+02  0.74832898391E+00  0.87735167999E+02  0.85236367842E+02 0.  0.
          5    1    3    3  502    0  0.48687189967E+02 -0.53806505735E+02 -0.36052964308E+02  0.81134894846E+02  0.41800000000E+01 0. -1.
         -5    1    3    3    0  502 -0.40395907829E+02  0.34756152850E+02 -0.14567378648E+02  0.55403072577E+02  0.41800000000E+01 0. -1.
        -11    1    4    4    0    0  0.18780544178E+01 -0.24881736498E+02  0.26013295772E+02  0.36046074078E+02  0.00000000000E+00 0. -1.
         11    1    4    4    0    0 -0.10169336555E+02  0.43932089382E+02 -0.25264966788E+02  0.51689093920E+02  0.00000000000E+00 0.  1.
</event>
<event>
 8    1  0.6703334E-009  0.1087537E+03  0.7561462E-02  0.1262895E+00
          1   -1    0    0  501    0  0.00000000000E+00  0.00000000000E+00  0.21189768608E+03  0.21189768608E+03  0.00000000000E+00 0. -1.
         -1   -1    0    0    0  501 -0.00000000000E+00 -0.00000000000E+00 -0.64525350108E+02  0.64525350108E+02  0.00000000000E+00 0.  1.
         25    2    1    2    0    0  0.18773835535E+02  0.10961368048E+02  0.39641933760E+02  0.13300633769E+03  0.12508634803E+03 0.  0.
         23    2    1    2    0    0 -0.18773835535E+02 -0.10961368048E+02  0.10773040222E+03  0.14341669850E+03  0.92140660713E+02 0.  0.
          5    1    3    3  502    0  0.39725989566E+02  0.58431903463E+02  0.60211353155E+01  0.71036385463E+02  0.41800000000E+01 0.  1.
         -5    1    3    3    0  502 -0.20952154030E+02 -0.47470535415E+02  0.33620798444E+02  0.61969952228E+02  0.41800000000E+01 0.  1.
        -11    1    4    4    0    0  0.16410238440E+01 -0.50311971920E+02  0.56986005956E+02  0.76035467727E+02  0.00000000000E+00 0. -1.
         11    1    4    4    0    0 -0.20414859379E+02  0.39350603872E+02  0.50744396260E+02  0.67381230772E+02  0.00000000000E+00 0.  1.
</event>
<event>
 8    1  0.6703334E-009  0.8300685E+02  0.7561462E-02  0.1320729E+00
          2   -1    0    0  501    0  0.00000000000E+00  0.00000000000E+00  0.97278784158E+03  0.97278784158E+03  0.00000000000E+00 0. -1.
         -2   -1    0    0    0  501 -0.00000000000E+00 -0.00000000000E+00 -0.19965562974E+02  0.19965562974E+02  0.00000000000E+00 0.  1.
         25    2    1    2    0    0 -0.18051634803E+02  0.70033569968E+01  0.83150356192E+03  0.84108264896E+03  0.12508773065E+03 0.  0.
         23    2    1    2    0    0  0.18051634803E+02 -0.70033569968E+01  0.12131871668E+03  0.15167075560E+03  0.88943119785E+02 0.  0.
          5    1    3    3  502    0 -0.21669951712E+02 -0.52234558538E+02  0.24062226200E+03  0.24721363490E+03  0.41800000000E+01 0.  1.
         -5    1    3    3    0  502  0.36183169095E+01  0.59237915535E+02  0.59088129992E+03  0.59386901405E+03  0.41800000000E+01 0.  1.
        -11    1    4    4    0    0  0.22279632525E+02  0.15354925991E+02  0.12563042182E+03  0.12851131726E+03  0.00000000000E+00 0. -1.
         11    1    4    4    0    0 -0.42279977225E+01 -0.22358282988E+02 -0.43117051342E+01  0.23159438337E+02  0.00000000000E+00 0.  1.
</event>
<event>
 8    1  0.6703334E-009  0.9962402E+02  0.7561462E-02  0.1281089E+00
         -4   -1    0    0    0  501 -0.00000000000E+00  0.00000000000E+00  0.11034941057E+03  0.11034941057E+03  0.00000000000E+00 0. -1.
          4   -1    0    0  501    0  0.00000000000E+00 -0.00000000000E+00 -0.13009574550E+03  0.13009574550E+03  0.00000000000E+00 0.  1.
         25    2    1    2    0    0  0.22753541310E+02 -0.69537449400E+02 -0.18715870404E+02  0.14612223288E+03  0.12509293595E+03 0.  0.
         23    2    1    2    0    0 -0.22753541310E+02  0.69537449400E+02 -0.10304645232E+01  0.94322923196E+02  0.59519504970E+02 0.  0.
          5    1    3    3  502    0  0.15475933920E+02 -0.94793323359E+02  0.20911593979E+02  0.98387224003E+02  0.41800000000E+01 0. -1.
         -5    1    3    3    0  502  0.72776073903E+01  0.25255873959E+02 -0.39627464382E+02  0.47735008873E+02  0.41800000000E+01 0. -1.
        -11    1    4    4    0    0 -0.22470867840E+02  0.32814673611E+02  0.27045953178E+02  0.48096011155E+02  0.00000000000E+00 0. -1.
         11    1    4    4    0    0 -0.28267346999E+00  0.36722775789E+02 -0.28076417701E+02  0.46226912041E+02  0.00000000000E+00 0.  1.
</event>
<event>
 8    1  0.6703334E-009  0.1237719E+03  0.7561462E-02  0.1237001E+00
         -2   -1    0    0    0  501 -0.00000000000E+00  0.00000000000E+00  0.52215481799E+02  0.52215481799E+02  0.00000000000E+00 0.  1.
          2   -1    0    0  501    0  0.00000000000E+00 -0.00000000000E+00 -0.37067204633E+03  0.37067204633E+03  0.00000000000E+00 0. -1.
         25    2    1    2    0    0 -0.15153706906E+02 -0.52006196728E+02 -0.79798156562E+02  0.15795448677E+03  0.12509034643E+03 0.  0.
         23    2    1    2    0    0  0.15153706906E+02  0.52006196728E+02 -0.23865840796E+03  0.26493304135E+03  0.10147611235E+03 0.  0.
          5    1    3    3  502    0  0.32470000759E+02 -0.75705246280E+02 -0.41950200011E+02  0.92535814388E+02  0.41800000000E+01 0.  1.
         -5    1    3    3    0  502 -0.47623707665E+02  0.23699049552E+02 -0.37847956551E+02  0.65418672384E+02  0.41800000000E+01 0.  1.
        -11    1    4    4    0    0 -0.17233859416E+02  0.71738419535E+02 -0.12540721989E+03  0.14550043831E+03  0.00000000000E+00 0.  1.
         11    1    4    4    0    0  0.32387566323E+02 -0.19732222807E+02 -0.11325118807E+03  0.11943260304E+03  0.00000000000E+00 0. -1.
</event>
<event>
 8    1  0.6703334E-009  0.9812713E+02  0.7561462E-02  0.1284284E+00
         -2   -1    0    0    0  501 -0.00000000000E+00  0.00000000000E+00  0.23009415706E+03  0.23009415706E+03  0.00000000000E+00 0.  1.
          2   -1    0    0  501    0  0.00000000000E+00 -0.00000000000E+00 -0.53490033725E+02  0.53490033725E+02  0.00000000000E+00 0. -1.
         25    2    1    2    0    0  0.75495128381E+01 -0.13654975954E+02  0.92677528171E+02  0.15646517026E+03  0.12509505092E+03 0.  0.
         23    2    1    2    0    0 -0.75495128381E+01  0.13654975954E+02  0.83926595168E+02  0.12711902053E+03  0.94191923704E+02 0.  0.
          5    1    3    3  502    0  0.53986304339E+02 -0.58328946477E+01  0.94592619162E+02  0.10915026210E+03  0.41800000000E+01 0.  1.
         -5    1    3    3    0  502 -0.46436791501E+02 -0.78220813064E+01 -0.19150909911E+01  0.47314908162E+02  0.41800000000E+01 0.  1.
        -11    1    4    4    0    0  0.20681637899E+02 -0.33609558165E+02  0.44042823028E+02  0.59136307008E+02  0.00000000000E+00 0.  1.
         11    1    4    4    0    0 -0.28231150737E+02  0.47264534119E+02  0.39883772139E+02  0.67982713520E+02  0.00000000000E+00 0. -1.
</event>
<event>
 8    1  0.6703334E-009  0.1695873E+03  0.7561462E-02  0.1178279E+00
         -1   -1    0    0    0  501 -0.00000000000E+00  0.00000000000E+00  0.62749329592E+03  0.62749329592E+03  0.00000000000E+00 0.  1.
          1   -1    0    0  501    0  0.00000000000E+00 -0.00000000000E+00 -0.68657252581E+02  0.68657252581E+02  0.00000000000E+00 0. -1.
         25    2    1    2    0    0 -0.13395120964E+03 -0.63204005170E+02  0.45313373877E+03  0.49286487466E+03  0.12509167292E+03 0.  0.
         23    2    1    2    0    0  0.13395120964E+03  0.63204005170E+02  0.10570230457E+03  0.20328567383E+03  0.90633410846E+02 0.  0.
          5    1    3    3  502    0 -0.46461260826E+01 -0.31979359411E+02  0.16748981588E+02  0.36636958118E+02  0.41800000000E+01 0.  1.
         -5    1    3    3    0  502 -0.12930508356E+03 -0.31224645759E+02  0.43638475718E+03  0.45622791654E+03  0.41800000000E+01 0.  1.
        -11    1    4    4    0    0  0.88567792297E+02  0.85354220934E+02  0.78618688531E+02  0.14598114621E+03  0.00000000000E+00 0.  1.
         11    1    4    4    0    0  0.45383417343E+02 -0.22150215764E+02  0.27083616037E+02  0.57304527620E+02  0.00000000000E+00 0. -1.
</event>
<event>
 8    1  0.6703334E-009  0.5114826E+02  0.7561462E-02  0.1439245E+00
         -2   -1    0    0    0  501 -0.00000000000E+00  0.00000000000E+00  0.16557753012E+02  0.16557753012E+02  0.00000000000E+00 0.  1.
          2   -1    0    0  501    0  0.00000000000E+00 -0.00000000000E+00 -0.88308307146E+03  0.88308307146E+03  0.00000000000E+00 0. -1.
         25    2    1    2    0    0 -0.16821971933E+02  0.32545536263E+02 -0.62473113363E+03  0.63818386913E+03  0.12508985101E+03 0.  0.
         23    2    1    2    0    0  0.16821971933E+02 -0.32545536263E+02 -0.24179418482E+03  0.26145695534E+03  0.92483085010E+02 0.  0.
          5    1    3    3  502    0 -0.29231527773E+01  0.13598867226E+01  0.51437072152E+01  0.73704978104E+01  0.41800000000E+01 0. -1.
         -5    1    3    3    0  502 -0.13898819156E+02  0.31185649541E+02 -0.62987484084E+03  0.63081337132E+03  0.41800000000E+01 0. -1.
        -11    1    4    4    0    0  0.34785623724E+02 -0.26273846009E+02 -0.23812126499E+03  0.24207868854E+03  0.00000000000E+00 0. -1.
         11    1    4    4    0    0 -0.17963651791E+02 -0.62716902545E+01 -0.36729198286E+01  0.19378266805E+02  0.00000000000E+00 0.  1.
</event>
<event>
 8    1  0.6703334E-009  0.7377124E+02  0.7561462E-02  0.1347719E+00
          1   -1    0    0  501    0  0.00000000000E+00  0.00000000000E+00  0.66311317951E+03  0.66311317951E+03  0.00000000000E+00 0. -1.
         -1   -1    0    0    0  501 -0.00000000000E+00 -0.00000000000E+00 -0.36526728576E+02  0.36526728576E+02  0.00000000000E+00 0.  1.
         25    2    1    2    0    0 -0.15941078993E+02  0.66293091677E+02  0.52947834140E+03  0.54830944382E+03  0.12508812961E+03 0.  0.
         23    2    1    2    0    0  0.15941078993E+02 -0.66293091677E+02  0.97108109534E+02  0.15133046426E+03  0.93925675264E+02 0.  0.
          5    1    3    3  502    0  0.79298171184E+01  0.91398813172E+01  0.43544222369E+03  0.43563037314E+03  0.41800000000E+01 0. -1.
         -5    1    3    3    0  502 -0.23870896112E+02  0.57153210360E+02  0.94036117711E+02  0.11267907068E+03  0.41800000000E+01 0. -1.
        -11    1    4    4    0    0 -0.53529476864E+01 -0.30871628925E+02 -0.12847568129E+02  0.33864015242E+02  0.00000000000E+00 0.  1.
         11    1    4    4    0    0  0.21294026679E+02 -0.35421462752E+02  0.10995567766E+03  0.11746644902E+03  0.00000000000E+00 0. -1.
</event>
<event>
 8    1  0.6703334E-009  0.8587380E+02  0.7561462E-02  0.1313163E+00
         -1   -1    0    0    0  501 -0.00000000000E+00  0.00000000000E+00  0.29905988908E+03  0.29905988908E+03  0.00000000000E+00 0.  1.
          1   -1    0    0  501    0  0.00000000000E+00 -0.00000000000E+00 -0.40619134467E+02  0.40619134467E+02  0.00000000000E+00 0. -1.
         25    2    1    2    0    0 -0.16808376822E+01  0.17397942738E+02  0.17792408342E+03  0.21819468183E+03  0.12508567501E+03 0.  0.
         23    2    1    2    0    0  0.16808376822E+01 -0.17397942738E+02  0.80516671194E+02  0.12148434172E+03  0.89274841445E+02 0.  0.
          5    1    3    3  502    0  0.26201393185E+02  0.55676756354E+02  0.43123482665E+02  0.75256370894E+02  0.41800000000E+01 0.  1.
         -5    1    3    3    0  502 -0.27882230867E+02 -0.38278813616E+02  0.13480060075E+03  0.14293831093E+03  0.41800000000E+01 0.  1.
        -11    1    4    4    0    0 -0.13444934826E+02  0.18907537429E+02  0.78769568805E+02  0.82115200870E+02  0.00000000000E+00 0.  1.
         11    1    4    4    0    0  0.15125772509E+02 -0.36305480167E+02  0.17471023884E+01  0.39369140845E+02  0.00000000000E+00 0. -1.
</event>
<event>
 8    1  0.6703334E-009  0.1149714E+03  0.7561462E-02  0.1251631E+00
         -3   -1    0    0    0  501 -0.00000000000E+00  0.00000000000E+00  0.11275686654E+03  0.11275686654E+03  0.00000000000E+00 0.  1.
          3   -1    0    0  501    0  0.00000000000E+00 -0.00000000000E+00 -0.12995790542E+03  0.12995790542E+03  0.00000000000E+00 0. -1.
         25    2    1    2    0    0  0.49790266263E+02 -0.16712104890E+02 -0.15051197201E+02  0.13650160069E+03  0.12509110036E+03 0.  0.
         23    2    1    2    0    0 -0.49790266263E+02  0.16712104890E+02 -0.21498416774E+01  0.10621317128E+03  0.92294370732E+02 0.  0.
          5    1    3    3  502    0  0.68740128778E+02 -0.53658616769E+02  0.99249790090E+01  0.87865977866E+02  0.41800000000E+01 0. -1.
         -5    1    3    3    0  502 -0.18949862514E+02  0.36946511879E+02 -0.24976176210E+02  0.48635622823E+02  0.41800000000E+01 0. -1.
        -11    1    4    4    0    0 -0.63432593334E+02  0.39226382397E+02 -0.16277020197E+02  0.76337044477E+02  0.00000000000E+00 0. -1.
         11    1    4    4    0    0  0.13642327071E+02 -0.22514277507E+02  0.14127178520E+02  0.29876126799E+02  0.00000000000E+00 0.  1.
</event>
<event>
 8    1  0.6703334E-009  0.1556629E+03  0.7561462E-02  0.1193682E+00
          1   -1    0    0  501    0  0.00000000000E+00  0.00000000000E+00  0.34628934193E+02  0.34628934193E+02  0.00000000000E+00 0. -1.
         -1   -1    0    0    0  501 -0.00000000000E+00 -0.00000000000E+00 -0.73204465865E+03  0.73204465865E+03  0.00000000000E+00 0.  1.
         25    2    1    2    0    0 -0.11434362115E+03 -0.10938573300E+02 -0.40900668075E+03  0.44286464014E+03  0.12509399868E+03 0.  0.
         23    2    1    2    0    0  0.11434362115E+03  0.10938573300E+02 -0.28840904371E+03  0.32380895270E+03  0.92077930451E+02 0.  0.
          5    1    3    3  502    0 -0.12979149635E+03 -0.35659908681E+02 -0.28222109080E+03  0.31270381850E+03  0.41800000000E+01 0.  1.
         -5    1    3    3    0  502  0.15447875201E+02  0.24721335381E+02 -0.12678558994E+03  0.13016082163E+03  0.41800000000E+01 0.  1.
        -11    1    4    4    0    0  0.81852250143E+02  0.50376452027E+02 -0.18701495893E+03  0.21026690809E+03  0.00000000000E+00 0.  1.
         11    1    4    4    0    0  0.32491371004E+02 -0.39437878727E+02 -0.10139408477E+03  0.11354204461E+03  0.00000000000E+00 0. -1.
</event>
<event>
 8    1  0.6703334E-009  0.1323638E+03  0.7561462E-02  0.1223990E+00
          1   -1    0    0  501    0  0.00000000000E+00  0.00000000000E+00  0.56026927673E+03  0.56026927673E+03  0.00000000000E+00 0. -1.
         -1   -1    0    0    0  501 -0.00000000000E+00 -0.00000000000E+00 -0.41887257905E+02  0.41887257905E+02  0.00000000000E+00 0.  1.
         25    2    1    2    0    0 -0.17973315057E+02 -0.10344832917E+03  0.22190022339E+03  0.27552103954E+03  0.12509011641E+03 0.  0.
         23    2    1    2    0    0  0.17973315057E+02  0.10344832917E+03  0.29648179544E+03  0.32663549510E+03  0.88117505475E+02 0.  0.
          5    1    3    3  502    0 -0.18624832863E+01 -0.11027895641E+03  0.90046839115E+02  0.14244585886E+03  0.41800000000E+01 0. -1.
         -5    1    3    3    0  502 -0.16110831771E+02  0.68306272342E+01  0.13185338427E+03  0.13307518068E+03  0.41800000000E+01 0. -1.
        -11    1    4    4    0    0  0.53373975349E+02  0.64806180054E+02  0.19835775996E+03  0.21539364697E+03  0.00000000000E+00 0.  1.
         11    1    4    4    0    0 -0.35400660292E+02  0.38642149120E+02  0.98124035478E+02  0.11124184813E+03  0.00000000000E+00 0. -1.
</event>
<event>
 8    1  0.6703334E-009  0.1124139E+03  0.7561462E-02  0.1256164E+00
          1   -1    0    0  501    0  0.00000000000E+00  0.00000000000E+00  0.77168878301E+02  0.77168878301E+02  0.00000000000E+00 0. -1.
         -1   -1    0    0    0  501 -0.00000000000E+00 -0.00000000000E+00 -0.22433081160E+03  0.22433081160E+03  0.00000000000E+00 0.  1.
         25    2    1    2    0    0 -0.45947448719E+02  0.30742191018E+02 -0.24563953108E+02  0.13895119348E+03  0.12509115087E+03 0.  0.
         23    2    1    2    0    0  0.45947448719E+02 -0.30742191018E+02 -0.12259798019E+03  0.16254849642E+03  0.91298951743E+02 0.  0.
          5    1    3    3  502    0  0.39153657685E+02 -0.23507243777E+01 -0.26508478970E+02  0.47525852675E+02  0.41800000000E+01 0. -1.
         -5    1    3    3    0  502 -0.85101106404E+02  0.33092915395E+02  0.19445258615E+01  0.91425340805E+02  0.41800000000E+01 0. -1.
        -11    1    4    4    0    0  0.42483254456E+01 -0.48477196122E+02 -0.10150247585E+03  0.11256482317E+03  0.00000000000E+00 0.  1.
         11    1    4    4    0    0  0.41699123273E+02  0.17735005104E+02 -0.21095504345E+02  0.49983673248E+02  0.00000000000E+00 0. -1.
</event>
<event>
 8    1  0.6703334E-009  0.1026917E+03  0.7561462E-02  0.1274735E+00
         -2   -1    0    0    0  501 -0.00000000000E+00  0.00000000000E+00  0.30930793019E+02  0.30930793019E+02  0.00000000000E+00 0.  1.
          2   -1    0    0  501    0  0.00000000000E+00 -0.00000000000E+00 -0.63889307838E+03  0.63889307838E+03  0.00000000000E+00 0. -1.
         25    2    1    2    0    0  0.44664764644E+02  0.77129712439E+02 -0.32270727557E+03  0.35739302692E+03  0.12508339714E+03 0.  0.
         23    2    1    2    0    0 -0.44664764644E+02 -0.77129712439E+02 -0.28525500978E+03  0.31243084448E+03  0.91097081358E+02 0.  0.
          5    1    3    3  502    0  0.50234934953E+01 -0.14584970004E+02 -0.19275860657E+03  0.19342003423E+03  0.41800000000E+01 0. -1.
         -5    1    3    3    0  502  0.39641271149E+02  0.91714682443E+02 -0.12994866901E+03  0.16397299269E+03  0.41800000000E+01 0. -1.
        -11    1    4    4    0    0 -0.33145443780E+02 -0.50766353434E+02 -0.27543817390E+03  0.28203196756E+03  0.00000000000E+00 0. -1.
         11    1    4    4    0    0 -0.11519320864E+02 -0.26363359005E+02 -0.98168358881E+01  0.30398876921E+02  0.00000000000E+00 0.  1.
</event>
<event>
 8    1  0.6703334E-009  0.8730431E+02  0.7561462E-02  0.1309514E+00
          1   -1    0    0  501    0  0.00000000000E+00  0.00000000000E+00  0.36748431825E+03  0.36748431825E+03  0.00000000000E+00 0. -1.
         -1   -1    0    0    0  501 -0.00000000000E+00 -0.00000000000E+00 -0.44442038252E+02  0.44442038252E+02  0.00000000000E+00 0.  1.
         25    2    1    2    0    0  0.32354341415E+02  0.47868210588E+02  0.23741069063E+03  0.27450943440E+03  0.12511364656E+03 0.  0.
         23    2    1    2    0    0 -0.32354341415E+02 -0.47868210588E+02  0.85631589364E+02  0.13741692210E+03  0.90622692457E+02 0.  0.
          5    1    3    3  502    0 -0.17904878613E+02  0.61721915813E+02  0.20024892945E+03  0.21035038796E+03  0.41800000000E+01 0. -1.
         -5    1    3    3    0  502  0.50259220028E+02 -0.13853705225E+02  0.37161761186E+02  0.64159046445E+02  0.41800000000E+01 0. -1.
        -11    1    4    4    0    0 -0.11154842249E+02 -0.19867175778E+02  0.97668242661E+02  0.10029068154E+03  0.00000000000E+00 0. -1.
         11    1    4    4    0    0 -0.21199499166E+02 -0.28001034811E+02 -0.12036653297E+02  0.37126240558E+02  0.00000000000E+00 0.  1.
</event>
<event>
 8    1  0.6703334E-009  0.1636767E+03  0.7561462E-02  0.1184607E+00
         -2   -1    0    0    0  501 -0.00000000000E+00  0.00000000000E+00  0.71761542101E+03  0.71761542101E+03  0.00000000000E+00 0.  1.
          2   -1    0    0  501    0  0.00000000000E+00 -0.00000000000E+00 -0.58468585089E+02  0.58468585089E+02  0.00000000000E+00 0. -1.
         25    2    1    2    0    0 -0.64158996890E+02  0.11369481232E+03  0.12723144106E+03  0.22108333075E+03  0.12508841797E+03 0.  0.
         23    2    1    2    0    0  0.64158996890E+02 -0.11369481232E+03  0.53191539487E+03  0.55500067536E+03  0.89715523281E+02 0.  0.
          5    1    3    3  502    0 -0.66117932751E+02  0.13436572387E+03  0.81173350466E+02  0.17038871444E+03  0.41800000000E+01 0.  1.
         -5    1    3    3    0  502  0.19589358614E+01 -0.20670911545E+02  0.46058090593E+02  0.50694616311E+02  0.41800000000E+01 0.  1.
        -11    1    4    4    0    0 -0.13173220298E+02 -0.61903439131E+02  0.17298414716E+03  0.18419849261E+03  0.00000000000E+00 0.  1.
         11    1    4    4    0    0  0.77332217187E+02 -0.51791373192E+02  0.35893124770E+03  0.37080218275E+03  0.00000000000E+00 0. -1.
</event>
<event>
 8    1  0.6703334E-009  0.1251130E+03  0.7561462E-02  0.1234893E+00
          2   -1    0    0  501    0  0.00000000000E+00  0.00000000000E+00  0.11795879098E+04  0.11795879098E+04  0.00000000000E+00 0. -1.
         -2   -1    0    0    0  501 -0.00000000000E+00 -0.00000000000E+00 -0.22355508908E+02  0.22355508908E+02  0.00000000000E+00 0.  1.
         25    2    1    2    0    0 -0.86094132100E+02  0.59683827146E+02  0.85145276677E+03  0.86694498759E+03  0.12508972242E+03 0.  0.
         23    2    1    2    0    0  0.86094132100E+02 -0.59683827146E+02  0.30577963415E+03  0.33499843115E+03  0.88025027159E+02 0.  0.
          5    1    3    3  502    0 -0.58611666166E+02  0.84597065513E+02  0.77554697583E+03  0.78235706364E+03  0.41800000000E+01 0.  1.
         -5    1    3    3    0  502 -0.27482465934E+02 -0.24913238367E+02  0.75905790939E+02  0.84587923947E+02  0.41800000000E+01 0.  1.
        -11    1    4    4    0    0  0.14927546967E+02 -0.28548405591E+02  0.17966397926E+02  0.36886780487E+02  0.00000000000E+00 0.  1.
         11    1    4    4    0    0  0.71166585133E+02 -0.31135421555E+02  0.28781323622E+03  0.29811165066E+03  0.00000000000E+00 0. -1.
</event>
<event>
 8    1  0.6703334E-009  0.8153688E+02  0.7561462E-02  0.1324746E+00
          2   -1    0    0  501    0  0.00000000000E+00  0.00000000000E+00  0.45093738592E+03  0.45093738592E+03  0.00000000000E+00 0. -1.
         -2   -1    0    0    0  501 -0.00000000000E+00 -0.00000000000E+00 -0.31124335369E+02  0.31124335369E+02  0.00000000000E+00 0.  1.
         25    2    1    2    0    0 -0.29269487222E+02 -0.37970524041E+01  0.32271580147E+03  0.34737011877E+03  0.12509752358E+03 0.  0.
         23    2    1    2    0    0  0.29269487222E+02  0.37970524041E+01  0.97097249085E+02  0.13469160253E+03  0.88559762431E+02 0.  0.
          5    1    3    3  502    0  0.35072979538E+02 -0.48783582718E-01  0.23920001762E+03  0.24179379045E+03  0.41800000000E+01 0.  1.
         -5    1    3    3    0  502 -0.64342466760E+02 -0.37482688214E+01  0.83515783853E+02  0.10557632832E+03  0.41800000000E+01 0.  1.
        -11    1    4    4    0    0 -0.98622378644E+01 -0.16394003328E+02  0.87574474763E+02  0.89639922528E+02  0.00000000000E+00 0. -1.
         11    1    4    4    0    0  0.39131725087E+02  0.20191055732E+02  0.95227743222E+01  0.45051679998E+02  0.00000000000E+00 0.  1.
</event>
<event>
 8    1  0.6703334E-009  0.1015870E+03  0.7561462E-02  0.1276994E+00
          4   -1    0    0  501    0  0.00000000000E+00  0.00000000000E+00  0.43056344417E+02  0.43056344417E+02  0.00000000000E+00 0. -1.
         -4   -1    0    0    0  501 -0.00000000000E+00 -0.00000000000E+00 -0.30655481284E+03  0.30655481284E+03  0.00000000000E+00 0.  1.
         25    2    1    2    0    0  0.19140509389E+02 -0.20438766152E+02 -0.10800234311E+03  0.16761869137E+03  0.12508963713E+03 0.  0.
         23    2    1    2    0    0 -0.19140509389E+02  0.20438766152E+02 -0.15549612531E+03  0.18199246588E+03  0.90322258552E+02 0.  0.
          5    1    3    3  502    0  0.64897768545E+02  0.18589548573E+02 -0.62442874126E+02  0.92053661564E+02  0.41800000000E+01 0. -1.
         -5    1    3    3    0  502 -0.45757259156E+02 -0.39028314725E+02 -0.45559468987E+02  0.75565029809E+02  0.41800000000E+01 0. -1.
        -11    1    4    4    0    0 -0.33877319138E+02  0.38929481249E+02 -0.43399321045E+02  0.67429061460E+02  0.00000000000E+00 0. -1.
         11    1    4    4    0    0  0.14736809748E+02 -0.18490715096E+02 -0.11209680426E+03  0.11456340442E+03  0.00000000000E+00 0.  1.
</event>
<event>
 8    1  0.6703334E-009  0.1106339E+03  0.7561462E-02  0.1259400E+00
         -1   -1    0    0    0  501 -0.00000000000E+00  0.00000000000E+00  0.60698447503E+02  0.60698447503E+02  0.00000000000E+00 0.  1.
          1   -1    0    0  501    0  0.00000000000E+00 -0.00000000000E+00 -0.36176856617E+03  0.36176856617E+03  0.00000000000E+00 0. -1.
         25    2    1    2    0    0  0.65924742217E+02  0.53070345761E+02 -0.23938533574E+03  0.28304660232E+03  0.12508999514E+03 0.  0.
         23    2    1    2    0    0 -0.65924742217E+02 -0.53070345761E+02 -0.61684782925E+02  0.13942041135E+03  0.92035348754E+02 0.  0.
          5    1    3    3  502    0  0.39094183255E+02  0.83771742683E+02 -0.21797385017E+03  0.23680399447E+03  0.41800000000E+01 0. -1.
         -5    1    3    3    0  502  0.26830558961E+02 -0.30701396922E+02 -0.21411485565E+02  0.46242607855E+02  0.41800000000E+01 0. -1.
        -11    1    4    4    0    0 -0.32118536858E+02 -0.11397733371E+02  0.21597275464E+02  0.40347875326E+02  0.00000000000E+00 0.  1.
         11    1    4    4    0    0 -0.33806205359E+02 -0.41672612390E+02 -0.83282058389E+02  0.99072536021E+02  0.00000000000E+00 0. -1.
</event>
<event>
 8    1  0.6703334E-009  0.8439733E+02  0.7561462E-02  0.1317016E+00
          2   -1    0    0  501    0  0.00000000000E+00  0.00000000000E+00  0.33400979280E+03  0.33400979280E+03  0.00000000000E+00 0. -1.
         -2   -1    0    0    0  501 -0.00000000000E+00 -0.00000000000E+00 -0.36668773803E+02  0.36668773803E+02  0.00000000000E+00 0.  1.
         25    2    1    2    0    0  0.59140064923E+01 -0.50834687078E+01  0.13406135242E+03  0.18352018242E+03  0.12508554679E+03 0.  0.
         23    2    1    2    0    0 -0.59140064923E+01  0.50834687078E+01  0.16327966657E+03  0.18715838418E+03  0.91143810140E+02 0.  0.
          5    1    3    3  502    0 -0.35851988633E+02  0.28068659590E+02  0.11970333961E+03  0.12813889595E+03  0.41800000000E+01 0.  1.
         -5    1    3    3    0  502  0.41765995125E+02 -0.33152128298E+02  0.14358012810E+02  0.55381286472E+02  0.41800000000E+01 0.  1.
        -11    1    4    4    0    0 -0.36243416490E+02 -0.70389706754E+01  0.14521157179E+03  0.14983168199E+03  0.00000000000E+00 0. -1.
         11    1    4    4    0    0  0.30329409998E+02  0.12122439383E+02  0.18068094787E+02  0.37326702194E+02  0.00000000000E+00 0.  1.
</event>
<event>
 8    1  0.6703334E-009  0.1050560E+03  0.7561462E-02  0.1270009E+00
          1   -1    0    0  501    0  0.00000000000E+00  0.00000000000E+00  0.97722757723E+03  0.97722757723E+03  0.00000000000E+00 0. -1.
         -1   -1    0    0    0  501 -0.00000000000E+00 -0.00000000000E+00 -0.19437049152E+02  0.19437049152E+02  0.00000000000E+00 0.  1.
         25    2    1    2    0    0  0.47531555047E+01 -0.84546851936E+02  0.48670654233E+03  0.50960974958E+03  0.12509226939E+03 0.  0.
         23    2    1    2    0    0 -0.47531555047E+01  0.84546851936E+02  0.47108398575E+03  0.48705487680E+03  0.90175211275E+02 0.  0.
          5    1    3    3  502    0 -0.10956366794E+01 -0.82622988995E+02  0.13854712453E+03  0.16137080543E+03  0.41800000000E+01 0.  1.
         -5    1    3    3    0  502  0.58487921841E+01 -0.19238629414E+01  0.34815941780E+03  0.34823894415E+03  0.41800000000E+01 0.  1.
        -11    1    4    4    0    0  0.37702631356E+02  0.60087836845E+02  0.21733872355E+03  0.22862230273E+03  0.00000000000E+00 0.  1.
         11    1    4    4    0    0 -0.42455786861E+02  0.24459015091E+02  0.25374526219E+03  0.25843257408E+03  0.00000000000E+00 0. -1.
</event>
<event>
 8    1  0.6703334E-009  0.1009138E+03  0.7561462E-02  0.1278386E+00
         -1   -1    0    0    0  501 -0.00000000000E+00  0.00000000000E+00  0.26804936450E+02  0.26804936450E+02  0.00000000000E+00 0.  1.
          1   -1    0    0  501    0  0.00000000000E+00 -0.00000000000E+00 -0.70167814664E+03  0.70167814664E+03  0.00000000000E+00 0. -1.
         25    2    1    2    0    0  0.22465651941E+02 -0.76777668447E+02 -0.38423044306E+03  0.41192631438E+03  0.12510291450E+03 0.  0.
         23    2    1    2    0    0 -0.22465651941E+02  0.76777668447E+02 -0.29064276713E+03  0.31655676871E+03  0.96620152357E+02 0.  0.
          5    1    3    3  502    0  0.92584821812E+01 -0.12472461507E+02  0.52570339889E+01  0.16923078759E+02  0.41800000000E+01 0. -1.
         -5    1    3    3    0  502  0.13207169759E+02 -0.64305206940E+02 -0.38948747705E+03  0.39500323562E+03  0.41800000000E+01 0. -1.
        -11    1    4    4    0    0 -0.55246894848E+02  0.64573429342E+02 -0.15829209740E+03  0.17966172454E+03  0.00000000000E+00 0. -1.
         11    1    4    4    0    0  0.32781242907E+02  0.12204239105E+02 -0.13235066973E+03  0.13689504416E+03  0.00000000000E+00 0.  1.
</event>
<event>
 8    1  0.6703334E-009  0.9785422E+02  0.7561462E-02  0.1284874E+00
         -1   -1    0    0    0  501 -0.00000000000E+00  0.00000000000E+00  0.16022150042E+03  0.16022150042E+03  0.00000000000E+00 0.  1.
          1   -1    0    0  501    0  0.00000000000E+00 -0.00000000000E+00 -0.93000352735E+02  0.93000352735E+02  0.00000000000E+00 0. -1.
         25    2    1    2    0    0 -0.50425757893E+02 -0.11026869942E+02  0.63618381798E+02  0.14952930722E+03  0.12508943319E+03 0.  0.
         23    2    1    2    0    0  0.50425757893E+02  0.11026869942E+02  0.36027658840E+01  0.10369254593E+03  0.89859975741E+02 0.  0.
          5    1    3    3  502    0  0.17235893214E+02 -0.22431120370E+02 -0.24578327755E+02  0.37706733765E+02  0.41800000000E+01 0. -1.
         -5    1    3    3    0  502 -0.67661651107E+02  0.11404250428E+02  0.88196709554E+02  0.11182257346E+03  0.41800000000E+01 0. -1.
        -11    1    4    4    0    0  0.17439988587E+01  0.41107326015E+02  0.17646825568E+02  0.44769009781E+02  0.00000000000E+00 0.  1.
         11    1    4    4    0    0  0.48681759034E+02 -0.30080456073E+02 -0.14044059684E+02  0.58923536152E+02  0.00000000000E+00 0. -1.
</event>
<event>
 8    1  0.6703334E-009  0.3749102E+03  0.7561462E-02  0.1052831E+00
          2   -1    0    0  501    0  0.00000000000E+00  0.00000000000E+00  0.23588897710E+04  0.23588897710E+04  0.00000000000E+00 0. -1.
         -2   -1    0    0    0  501 -0.00000000000E+00 -0.00000000000E+00 -0.64817776104E+02  0.64817776104E+02  0.00000000000E+00 0.  1.
         25    2    1    2    0    0  0.31818557180E+03  0.19727356889E+03  0.12533157255E+04  0.13140042420E+04  0.12509165037E+03 0.  0.
         23    2    1    2    0    0 -0.31818557180E+03 -0.19727356889E+03  0.10407562694E+04  0.11097033051E+04  0.90049398063E+02 0.  0.
          5    1    3    3  502    0  0.24870034460E+03  0.16627317325E+03  0.11309068738E+04  0.11698147114E+04  0.41800000000E+01 0. -1.
         -5    1    3    3    0  502  0.69485227207E+02  0.31000395636E+02  0.12240885175E+03  0.14418953054E+03  0.41800000000E+01 0. -1.
        -11    1    4    4    0    0 -0.14570640749E+03 -0.93861738827E+02  0.35473613941E+03  0.39481402179E+03  0.00000000000E+00 0. -1.
         11    1    4    4    0    0 -0.17247916431E+03 -0.10341183006E+03  0.68602012996E+03  0.71488928333E+03  0.00000000000E+00 0.  1.
</event>
<event>
 8    1  0.6703334E-009  0.9154517E+02  0.7561462E-02  0.1299152E+00
          1   -1    0    0  501    0  0.00000000000E+00  0.00000000000E+00  0.86880004326E+03  0.86880004326E+03  0.00000000000E+00 0. -1.
         -1   -1    0    0    0  501 -0.00000000000E+00 -0.00000000000E+00 -0.33185985438E+02  0.33185985438E+02  0.00000000000E+00 0.  1.
         25    2    1    2    0    0  0.17623614348E+01  0.84015617961E+02  0.70298296731E+03  0.71895334785E+03  0.12508850499E+03 0.  0.
         23    2    1    2    0    0 -0.17623614348E+01 -0.84015617961E+02  0.13263109052E+03  0.18303268085E+03  0.94065010011E+02 0.  0.
          5    1    3    3  502    0 -0.38193610169E+01  0.35326098831E+00  0.48983784727E+03  0.48987069858E+03  0.41800000000E+01 0. -1.
         -5    1    3    3    0  502  0.55817224518E+01  0.83662356973E+02  0.21314512004E+03  0.22908264927E+03  0.41800000000E+01 0. -1.
        -11    1    4    4    0    0 -0.20292882351E+02 -0.58576850953E+02  0.18576978350E+02  0.64715938271E+02  0.00000000000E+00 0.  1.
         11    1    4    4    0    0  0.18530520916E+02 -0.25438767008E+02  0.11405411217E+03  0.11831674258E+03  0.00000000000E+00 0. -1.
</event>
<event>
 8    1  0.6703334E-009  0.7873343E+02  0.7561462E-02  0.1332685E+00
          1   -1    0    0  501    0  0.00000000000E+00  0.00000000000E+00  0.62226505997E+02  0.62226505997E+02  0.00000000000E+00 0. -1.
         -1   -1    0    0    0  501 -0.00000000000E+00 -0.00000000000E+00 -0.19011768503E+03  0.19011768503E+03  0.00000000000E+00 0.  1.
         25    2    1    2    0    0  0.90856144596E+01 -0.18104923471E+02 -0.64995771703E+02  0.14243909076E+03  0.12511637620E+03 0.  0.
         23    2    1    2    0    0 -0.90856144596E+01  0.18104923471E+02 -0.62895407335E+02  0.10990510027E+03  0.87823471565E+02 0.  0.
          5    1    3    3  502    0 -0.78571258503E+01  0.49430802728E+02 -0.50737763904E+01  0.50481227123E+02  0.41800000000E+01 0.  1.
         -5    1    3    3    0  502  0.16942740310E+02 -0.67535726200E+02 -0.59921995312E+02  0.91957863637E+02  0.41800000000E+01 0.  1.
        -11    1    4    4    0    0  0.10990264212E+02  0.12498716903E+02  0.19081288791E+02  0.25319941027E+02  0.00000000000E+00 0. -1.
         11    1    4    4    0    0 -0.20075878671E+02  0.56062065686E+01 -0.81976696127E+02  0.84585159244E+02  0.00000000000E+00 0.  1.
</event>
<event>
 8    1  0.6703334E-009  0.7375606E+02  0.7561462E-02  0.1347767E+00
         -1   -1    0    0    0  501 -0.00000000000E+00  0.00000000000E+00  0.25888006397E+02  0.25888006397E+02  0.00000000000E+00 0.  1.
          1   -1    0    0  501    0  0.00000000000E+00 -0.00000000000E+00 -0.70144142847E+03  0.70144142847E+03  0.00000000000E+00 0. -1.
         25    2    1    2    0    0  0.34635763177E+02 -0.16119725048E+02 -0.55588974775E+03  0.57106950864E+03  0.12508992932E+03 0.  0.
         23    2    1    2    0    0 -0.34635763177E+02  0.16119725048E+02 -0.11966367433E+03  0.15625992623E+03  0.92942390577E+02 0.  0.
          5    1    3    3  502    0  0.41234175912E+02 -0.80859796724E+01 -0.51691257581E+02  0.66746526807E+02  0.41800000000E+01 0.  1.
         -5    1    3    3    0  502 -0.65984127351E+01 -0.80337453757E+01 -0.50419849017E+03  0.50432298183E+03  0.41800000000E+01 0.  1.
        -11    1    4    4    0    0 -0.16605223855E+02 -0.35613733146E+02 -0.24072007362E+02  0.46081807541E+02  0.00000000000E+00 0.  1.
         11    1    4    4    0    0 -0.18030539322E+02  0.51733458194E+02 -0.95591666967E+02  0.11017811869E+03  0.00000000000E+00 0. -1.
</event>
<event>
 8    1  0.6703334E-009  0.1077190E+03  0.7561462E-02  0.1264853E+00
          2   -1    0    0  501    0  0.00000000000E+00  0.00000000000E+00  0.10073677074E+04  0.10073677074E+04  0.00000000000E+00 0.  1.
         -2   -1    0    0    0  501 -0.00000000000E+00 -0.00000000000E+00 -0.11822625719E+02  0.11822625719E+02  0.00000000000E+00 0. -1.
         25    2    1    2    0    0 -0.24469071896E+02  0.23979092282E+02  0.56317412504E+03  0.57791477714E+03  0.12508661872E+03 0.  0.
         23    2    1    2    0    0  0.24469071896E+02 -0.23979092282E+02  0.43237095660E+03  0.44127555594E+03  0.81275702439E+02 0.  0.
          5    1    3    3  502    0  0.45804951248E+02 -0.13073452066E+02  0.16113048657E+03  0.16807591978E+03  0.41800000000E+01 0.  1.
         -5    1    3    3    0  502 -0.70274023145E+02  0.37052544348E+02  0.40204363847E+03  0.40983885736E+03  0.41800000000E+01 0.  1.
        -11    1    4    4    0    0  0.54604322552E+02 -0.15402737054E+02  0.26670046442E+03  0.27266832246E+03  0.00000000000E+00 0.  1.
         11    1    4    4    0    0 -0.30135250656E+02 -0.85763552274E+01  0.16567049218E+03  0.16860723347E+03  0.00000000000E+00 0. -1.
</event>
<event>
 8    1  0.6703334E-009  0.1150534E+03  0.7561462E-02  0.1251488E+00
          1   -1    0    0  501    0  0.00000000000E+00  0.00000000000E+00  0.18333509067E+03  0.18333509067E+03  0.00000000000E+00 0.  1.
         -1   -1    0    0    0  501 -0.00000000000E+00 -0.00000000000E+00 -0.14303820443E+03  0.14303820443E+03  0.00000000000E+00 0. -1.
         25    2    1    2    0    0  0.71067716878E+02 -0.22637618894E+02  0.11542061258E+03  0.18583422353E+03  0.12509739668E+03 0.  0.
         23    2    1    2    0    0 -0.71067716878E+02  0.22637618894E+02 -0.75123726340E+02  0.14053907157E+03  0.92436866059E+02 0.  0.
          5    1    3    3  502    0  0.39653687936E+01  0.43146806199E+02  0.10219189954E+02  0.44713256179E+02  0.41800000000E+01 0. -1.
         -5    1    3    3    0  502  0.67102348084E+02 -0.65784425093E+02  0.10520142263E+03  0.14112096735E+03  0.41800000000E+01 0. -1.
        -11    1    4    4    0    0 -0.79864843968E+02  0.15896660470E+02 -0.19382186232E+02  0.83706429020E+02  0.00000000000E+00 0.  1.
         11    1    4    4    0    0  0.87971270899E+01  0.67409584243E+01 -0.55741540108E+02  0.56832642549E+02  0.00000000000E+00 0. -1.
</event>
<event>
 8    1  0.6703334E-009  0.1900590E+03  0.7561462E-02  0.1158408E+00
         -1   -1    0    0    0  501 -0.00000000000E+00  0.00000000000E+00  0.83221396419E+03  0.83221396419E+03  0.00000000000E+00 0.  1.
          1   -1    0    0  501    0  0.00000000000E+00 -0.00000000000E+00 -0.45943895571E+02  0.45943895571E+02  0.00000000000E+00 0. -1.
         25    2    1    2    0    0  0.15938418207E+03 -0.26375301153E+02  0.45065794280E+03  0.49481225115E+03  0.12509040123E+03 0.  0.
         23    2    1    2    0    0 -0.15938418207E+03  0.26375301153E+02  0.33561212582E+03  0.38334560860E+03  0.90660810900E+02 0.  0.
          5    1    3    3  502    0  0.94096995541E+02  0.47596987496E+02  0.22817985477E+03  0.25140253839E+03  0.41800000000E+01 0.  1.
         -5    1    3    3    0  502  0.65287186532E+02 -0.73972288649E+02  0.22247808803E+03  0.24340971276E+03  0.41800000000E+01 0.  1.
        -11    1    4    4    0    0 -0.55924088416E+02 -0.23885933767E+02  0.17889263747E+03  0.18894606966E+03  0.00000000000E+00 0.  1.
         11    1    4    4    0    0 -0.10346009366E+03  0.50261234919E+02  0.15671948835E+03  0.19439953895E+03  0.00000000000E+00 0. -1.
</event>
<event>
 8    1  0.6703334E-009  0.7693641E+02  0.7561462E-02  0.1337977E+00
          1   -1    0    0  501    0  0.00000000000E+00  0.00000000000E+00  0.26793862339E+03  0.26793862339E+03  0.00000000000E+00 0. -1.
         -1   -1    0    0    0  501 -0.00000000000E+00 -0.00000000000E+00 -0.54300054189E+02  0.54300054189E+02  0.00000000000E+00 0.  1.
         25    2    1    2    0    0 -0.37076135552E+02 -0.69516771963E+01  0.69440459845E+02  0.14796418500E+03  0.12509379255E+03 0.  0.
         23    2    1    2    0    0  0.37076135552E+02  0.69516771963E+01  0.14419810936E+03  0.17427449259E+03  0.90308019467E+02 0.  0.
          5    1    3    3  502    0 -0.44847331837E+02 -0.29559043822E+00 -0.25918089537E+02  0.51967204195E+02  0.41800000000E+01 0. -1.
         -5    1    3    3    0  502  0.77711962842E+01 -0.66560867581E+01  0.95358549382E+02  0.95996980801E+02  0.41800000000E+01 0. -1.
        -11    1    4    4    0    0  0.65953520388E+02  0.15324524042E+02  0.96305530896E+02  0.11772622125E+03  0.00000000000E+00 0. -1.
         11    1    4    4    0    0 -0.28877384835E+02 -0.83728468460E+01  0.47892578463E+02  0.56548271336E+02  0.00000000000E+00 0.  1.
</event>
<event>
 8    1  0.6703334E-009  0.9928573E+02  0.7561462E-02  0.1281805E+00
         -2   -1    0    0    0  501 -0.00000000000E+00  0.00000000000E+00  0.32932831822E+03  0.32932831822E+03  0.00000000000E+00 0.  1.
          2   -1    0    0  501    0  0.00000000000E+00 -0.00000000000E+00 -0.57079423561E+02  0.57079423561E+02  0.00000000000E+00 0. -1.
         25    2    1    2    0    0 -0.27660752121E+02  0.44054389339E+02  0.50766224604E+02  0.14467816394E+03  0.12509458474E+03 0.  0.
         23    2    1    2    0    0  0.27660752121E+02 -0.44054389339E+02  0.22148267006E+03  0.24172957785E+03  0.81686652780E+02 0.  0.
          5    1    3    3  502    0 -0.36944649915E+01  0.76601953371E+02  0.66014615713E+02  0.10127640505E+03  0.41800000000E+01 0. -1.
         -5    1    3    3    0  502 -0.23966287129E+02 -0.32547564032E+02 -0.15248391110E+02  0.43401758889E+02  0.41800000000E+01 0. -1.
        -11    1    4    4    0    0  0.44764973680E+02 -0.45671164762E+02  0.21333672120E+03  0.22271577126E+03  0.00000000000E+00 0.  1.
         11    1    4    4    0    0 -0.17104221560E+02  0.16167754231E+01  0.81459488631E+01  0.19013806584E+02  0.00000000000E+00 0. -1.
</event>
<event>
 8    1  0.6703334E-009  0.1553014E+03  0.7561462E-02  0.1194106E+00
         -1   -1    0    0    0  501 -0.00000000000E+00  0.00000000000E+00  0.47882383591E+03  0.47882383591E+03  0.00000000000E+00 0.  1.
          1   -1    0    0  501    0  0.00000000000E+00 -0.00000000000E+00 -0.72957391617E+02  0.72957391617E+02  0.00000000000E+00 0. -1.
         25    2    1    2    0    0  0.38931106032E+02  0.12511759499E+03  0.10043581578E+03  0.20713549303E+03  0.12509083015E+03 0.  0.
         23    2    1    2    0    0 -0.38931106032E+02 -0.12511759499E+03  0.30543062851E+03  0.34464573450E+03  0.91229216174E+02 0.  0.
          5    1    3    3  502    0  0.60791499925E+01  0.14129124203E+03  0.93624535552E+02  0.16965611453E+03  0.41800000000E+01 0.  1.
         -5    1    3    3    0  502  0.32851956039E+02 -0.16173647044E+02  0.68112802310E+01  0.37479378499E+02  0.41800000000E+01 0.  1.
        -11    1    4    4    0    0 -0.15655195876E+02 -0.25168008554E+02  0.90344080384E+01  0.30986034614E+02  0.00000000000E+00 0. -1.
         11    1    4    4    0    0 -0.23275910155E+02 -0.99949586435E+02  0.29639622047E+03  0.31365969989E+03  0.00000000000E+00 0.  1.
</event>
<event>
 8    1  0.6703334E-009  0.1345238E+03  0.7561462E-02  0.1220894E+00
         -1   -1    0    0    0  501 -0.00000000000E+00  0.00000000000E+00  0.85033474399E+02  0.85033474399E+02  0.00000000000E+00 0.  1.
          1   -1    0    0  501    0  0.00000000000E+00 -0.00000000000E+00 -0.23618576436E+03  0.23618576436E+03  0.00000000000E+00 0. -1.
         25    2    1    2    0    0  0.51853774762E+02  0.68466028651E+02 -0.11565714988E+03  0.19080045646E+03  0.12510726129E+03 0.  0.
         23    2    1    2    0    0 -0.51853774762E+02 -0.68466028651E+02 -0.35495140081E+02  0.13041878231E+03  0.91502692708E+02 0.  0.
          5    1    3    3  502    0 -0.27358113049E+02 -0.14034644065E+02 -0.46797190636E+01  0.31381678639E+02  0.41800000000E+01 0.  1.
         -5    1    3    3    0  502  0.79211887811E+02  0.82500672716E+02 -0.11097743082E+03  0.15941877782E+03  0.41800000000E+01 0.  1.
        -11    1    4    4    0    0 -0.53505674717E+01 -0.76233683257E+02 -0.10754558680E+02  0.77174241606E+02  0.00000000000E+00 0.  1.
         11    1    4    4    0    0 -0.46503207290E+02  0.77676546058E+01 -0.24740581401E+02  0.53244540700E+02  0.00000000000E+00 0. -1.
</event>
<event>
 8    1  0.6703334E-009  0.1114794E+03  0.7561462E-02  0.1257854E+00
         -2   -1    0    0    0  501 -0.00000000000E+00  0.00000000000E+00  0.16604120504E+03  0.16604120504E+03  0.00000000000E+00 0. -1.
          2   -1    0    0  501    0  0.00000000000E+00 -0.00000000000E+00 -0.13171533556E+03  0.13171533556E+03  0.00000000000E+00 0.  1.
         25    2    1    2    0    0 -0.40299441244E+02  0.37902640413E+02  0.10235260585E+03  0.17083436133E+03  0.12509063902E+03 0.  0.
         23    2    1    2    0    0  0.40299441244E+02 -0.37902640413E+02 -0.68026736373E+02  0.12692217927E+03  0.91765721340E+02 0.  0.
          5    1    3    3  502    0  0.37289316610E+02  0.18821678859E+02  0.13755056791E+01  0.42001346933E+02  0.41800000000E+01 0. -1.
         -5    1    3    3    0  502 -0.77588757854E+02  0.19080961554E+02  0.10097710018E+03  0.12883301440E+03  0.41800000000E+01 0. -1.
        -11    1    4    4    0    0  0.52734393061E+02  0.80675503509E+01 -0.14512667721E+02  0.55286699165E+02  0.00000000000E+00 0. -1.
         11    1    4    4    0    0 -0.12434951817E+02 -0.45970190764E+02 -0.53514068653E+02  0.71635480101E+02  0.00000000000E+00 0.  1.
</event>
<event>
 8    1  0.6703334E-009  0.8766287E+02  0.7561462E-02  0.1308612E+00
         -2   -1    0    0    0  501 -0.00000000000E+00  0.00000000000E+00  0.78535032622E+02  0.78535032622E+02  0.00000000000E+00 0.  1.
          2   -1    0    0  501    0  0.00000000000E+00 -0.00000000000E+00 -0.17362652723E+03  0.17362652723E+03  0.00000000000E+00 0. -1.
         25    2    1    2    0    0 -0.26654417696E+02 -0.35083397313E+02 -0.71947704803E+02  0.15088155291E+03  0.12508983984E+03 0.  0.
         23    2    1    2    0    0  0.26654417696E+02  0.35083397313E+02 -0.23143789809E+02  0.10128000695E+03  0.88208287879E+02 0.  0.
          5    1    3    3  502    0  0.87269644471E+01 -0.76171929559E+02 -0.30999485167E+02  0.82805574944E+02  0.41800000000E+01 0. -1.
         -5    1    3    3    0  502 -0.35381382143E+02  0.41088532247E+02 -0.40948219636E+02  0.68075977965E+02  0.41800000000E+01 0. -1.
        -11    1    4    4    0    0  0.17215725171E+02  0.24912719658E+02 -0.57080714023E+02  0.64616040635E+02  0.00000000000E+00 0. -1.
         11    1    4    4    0    0  0.94386925251E+01  0.10170677654E+02  0.33936924214E+02  0.36663966311E+02  0.00000000000E+00 0.  1.
</event>
<event>
 8    1  0.6703334E-009  0.1515092E+03  0.7561462E-02  0.1198631E+00
         -1   -1    0    0    0  501 -0.00000000000E+00  0.00000000000E+00  0.59041492689E+02  0.59041492689E+02  0.00000000000E+00 0.  1.
          1   -1    0    0  501    0  0.00000000000E+00 -0.00000000000E+00 -0.47315202000E+03  0.47315202000E+03  0.00000000000E+00 0. -1.
         25    2    1    2    0    0 -0.12317476268E+03  0.19303596816E+02 -0.26071253437E+03  0.31490027770E+03  0.12508600364E+03 0.  0.
         23    2    1    2    0    0  0.12317476268E+03 -0.19303596816E+02 -0.15339799294E+03  0.21729323499E+03  0.90226131035E+02 0.  0.
          5    1    3    3  502    0 -0.14455327218E+03 -0.20116985405E+01 -0.19823980253E+03  0.24538986763E+03  0.41800000000E+01 0. -1.
         -5    1    3    3    0  502  0.21378509499E+02  0.21315295356E+02 -0.62472731846E+02  0.69510410075E+02  0.41800000000E+01 0. -1.
        -11    1    4    4    0    0  0.11370064429E+03 -0.92143404007E+01 -0.72373144676E+02  0.13509482837E+03  0.00000000000E+00 0.  1.
         11    1    4    4    0    0  0.94741183864E+01 -0.10089256415E+02 -0.81024848263E+02  0.82198406616E+02  0.00000000000E+00 0. -1.
</event>
<event>
 8    1  0.6703334E-009  0.1254212E+03  0.7561462E-02  0.1234412E+00
          1   -1    0    0  501    0  0.00000000000E+00  0.00000000000E+00  0.27886057470E+02  0.27886057470E+02  0.00000000000E+00 0. -1.
         -1   -1    0    0    0  501 -0.00000000000E+00 -0.00000000000E+00 -0.79599077119E+03  0.79599077119E+03  0.00000000000E+00 0.  1.
         25    2    1    2    0    0 -0.99678946664E+02  0.10978538651E+02 -0.45870831754E+03  0.48591909929E+03  0.12509048625E+03 0.  0.
         23    2    1    2    0    0  0.99678946664E+02 -0.10978538651E+02 -0.30939639617E+03  0.33795772937E+03  0.91830692885E+02 0.  0.
          5    1    3    3  502    0 -0.10555342421E+02  0.32394695464E+02 -0.24628801831E+02  0.42247861809E+02  0.41800000000E+01 0. -1.
         -5    1    3    3    0  502 -0.89123604243E+02 -0.21416156813E+02 -0.43407951571E+03  0.44367123748E+03  0.41800000000E+01 0. -1.
        -11    1    4    4    0    0  0.10617936682E+03 -0.25195296416E+02 -0.30108852512E+03  0.32025483737E+03  0.00000000000E+00 0. -1.
         11    1    4    4    0    0 -0.65004201561E+01  0.14216757766E+02 -0.83078710478E+01  0.17702891993E+02  0.00000000000E+00 0.  1.
</event>
<event>
 8    1  0.6703334E-009  0.3363006E+03  0.7561462E-02  0.1068383E+00
         -2   -1    0    0    0  501 -0.00000000000E+00  0.00000000000E+00  0.20536521683E+03  0.20536521683E+03  0.00000000000E+00 0. -1.
          2   -1    0    0  501    0  0.00000000000E+00 -0.00000000000E+00 -0.68288646160E+03  0.68288646160E+03  0.00000000000E+00 0.  1.
         25    2    1    2    0    0  0.29742136121E+03 -0.12837186031E+03 -0.60558361185E+02  0.35249661320E+03  0.12509095326E+03 0.  0.
         23    2    1    2    0    0 -0.29742136121E+03  0.12837186031E+03 -0.41696288358E+03  0.53575506523E+03  0.90755953083E+02 0.  0.
          5    1    3    3  502    0  0.21963647420E+02  0.14825792351E+02  0.17903766600E+02  0.32252491149E+02  0.41800000000E+01 0.  1.
         -5    1    3    3    0  502  0.27545771379E+03 -0.14319765266E+03 -0.78462127786E+02  0.32024412205E+03  0.41800000000E+01 0.  1.
        -11    1    4    4    0    0 -0.13239036933E+03  0.11137629592E+02 -0.18692115930E+03  0.22932678971E+03  0.00000000000E+00 0.  1.
         11    1    4    4    0    0 -0.16503099188E+03  0.11723423072E+03 -0.23004172427E+03  0.30642827552E+03  0.00000000000E+00 0. -1.
</event>
<event>
 8    1  0.6703334E-009  0.1184916E+03  0.7561462E-02  0.1245606E+00
         -1   -1    0    0    0  501 -0.00000000000E+00  0.00000000000E+00  0.80187149562E+02  0.80187149562E+02  0.00000000000E+00 0.  1.
          1   -1    0    0  501    0  0.00000000000E+00 -0.00000000000E+00 -0.24360788704E+03  0.24360788704E+03  0.00000000000E+00 0. -1.
         25    2    1    2    0    0  0.56179093393E+02 -0.20816592525E+01 -0.48896138290E+02  0.14559957334E+03  0.12509188453E+03 0.  0.
         23    2    1    2    0    0 -0.56179093393E+02  0.20816592525E+01 -0.11452459919E+03  0.17819546327E+03  0.12440785936E+03 0.  0.
          5    1    3    3  502    0  0.72442981451E-01  0.54960294159E+02 -0.31941329437E+02  0.63705259659E+02  0.41800000000E+01 0.  1.
         -5    1    3    3    0  502  0.56106650412E+02 -0.57041953411E+02 -0.16954808853E+02  0.81894313677E+02  0.41800000000E+01 0.  1.
        -11    1    4    4    0    0  0.21706139973E+02 -0.81584252809E+01  0.14347459388E+02  0.27268406747E+02  0.00000000000E+00 0.  1.
         11    1    4    4    0    0 -0.77885233366E+02  0.10240084533E+02 -0.12887205858E+03  0.15092705652E+03  0.00000000000E+00 0. -1.
</event>
<event>
 8    1  0.6703334E-009  0.1034258E+03  0.7561462E-02  0.1273253E+00
         -2   -1    0    0    0  501 -0.00000000000E+00  0.00000000000E+00  0.41653334560E+02  0.41653334560E+02  0.00000000000E+00 0.  1.
          2   -1    0    0  501    0  0.00000000000E+00 -0.00000000000E+00 -0.69524835161E+03  0.69524835161E+03  0.00000000000E+00 0. -1.
         25    2    1    2    0    0 -0.44177083400E+02 -0.25868265521E+02 -0.86838439869E+02  0.16064889318E+03  0.12508545232E+03 0.  0.
         23    2    1    2    0    0  0.44177083400E+02  0.25868265521E+02 -0.56675657718E+03  0.57625279299E+03  0.90738535344E+02 0.  0.
          5    1    3    3  502    0 -0.57919579029E+02 -0.48660183128E+02 -0.10402710358E+03  0.12869188683E+03  0.41800000000E+01 0.  1.
         -5    1    3    3    0  502  0.13742495630E+02  0.22791917607E+02  0.17188663711E+02  0.31957006344E+02  0.41800000000E+01 0.  1.
        -11    1    4    4    0    0  0.31255803680E+02  0.59999873319E+02 -0.36093324594E+03  0.36721889669E+03  0.00000000000E+00 0. -1.
         11    1    4    4    0    0  0.12921279720E+02 -0.34131607798E+02 -0.20582333124E+03  0.20903389630E+03  0.00000000000E+00 0.  1.
</event>
<event>
 8    1  0.6703334E-009  0.1821649E+03  0.7561462E-02  0.1165724E+00
         -3   -1    0    0    0  501 -0.00000000000E+00  0.00000000000E+00  0.43006251674E+03  0.43006251674E+03  0.00000000000E+00 0.  1.
          3   -1    0    0  501    0  0.00000000000E+00 -0.00000000000E+00 -0.88420663541E+02  0.88420663541E+02  0.00000000000E+00 0. -1.
         25    2    1    2    0    0  0.14224557267E+03  0.72329868708E+02  0.20912956673E+03  0.29129027795E+03  0.12509771179E+03 0.  0.
         23    2    1    2    0    0 -0.14224557267E+03 -0.72329868708E+02  0.13251228647E+03  0.22719290234E+03  0.92691401732E+02 0.  0.
          5    1    3    3  502    0  0.87982624151E+02  0.10256985969E+03  0.17208294191E+03  0.21884133423E+03  0.41800000000E+01 0.  1.
         -5    1    3    3    0  502  0.54262948516E+02 -0.30239990980E+02  0.37046624817E+02  0.72448943722E+02  0.41800000000E+01 0.  1.
        -11    1    4    4    0    0 -0.95102736981E+02 -0.72728830498E+02  0.13442274157E+03  0.18000968534E+03  0.00000000000E+00 0.  1.
         11    1    4    4    0    0 -0.47142835686E+02  0.39896179058E+00 -0.19104550959E+01  0.47183216992E+02  0.00000000000E+00 0. -1.
</event>
<event>
 8    1  0.6703334E-009  0.8111393E+02  0.7561462E-02  0.1325920E+00
          3   -1    0    0  501    0  0.00000000000E+00  0.00000000000E+00  0.94398592405E+02  0.94398592405E+02  0.00000000000E+00 0. -1.
         -3   -1    0    0    0  501 -0.00000000000E+00 -0.00000000000E+00 -0.14646005525E+03  0.14646005525E+03  0.00000000000E+00 0.  1.
         25    2    1    2    0    0 -0.12329084695E+02  0.14418153107E+02  0.15162458690E+02  0.12741355243E+03  0.12507767076E+03 0.  0.
         23    2    1    2    0    0  0.12329084695E+02 -0.14418153107E+02 -0.67223921539E+02  0.11344509523E+03  0.89391523845E+02 0.  0.
          5    1    3    3  502    0  0.36713976752E+02 -0.35549712845E+02 -0.11199045335E+02  0.52484180366E+02  0.41800000000E+01 0. -1.
         -5    1    3    3    0  502 -0.49043061447E+02  0.49967865952E+02  0.26361504025E+02  0.74929372067E+02  0.41800000000E+01 0. -1.
        -11    1    4    4    0    0  0.24840605910E+02 -0.13490679051E+02 -0.86188864610E+02  0.90705978337E+02  0.00000000000E+00 0.  1.
         11    1    4    4    0    0 -0.12511521215E+02 -0.92747405525E+00  0.18964943071E+02  0.22739116890E+02  0.00000000000E+00 0. -1.
</event>
<event>
 8    1  0.6703334E-009  0.1830238E+03  0.7561462E-02  0.1164908E+00
         -1   -1    0    0    0  501 -0.00000000000E+00  0.00000000000E+00  0.13458736308E+03  0.13458736308E+03  0.00000000000E+00 0.  1.
          1   -1    0    0  501    0  0.00000000000E+00 -0.00000000000E+00 -0.34601139181E+03  0.34601139181E+03  0.00000000000E+00 0. -1.
         25    2    1    2    0    0  0.15773736158E+03 -0.13363791736E+01  0.70693440915E+00  0.20132267759E+03  0.12508980616E+03 0.  0.
         23    2    1    2    0    0 -0.15773736158E+03  0.13363791736E+01 -0.21213096313E+03  0.27927607731E+03  0.90070642766E+02 0.  0.
          5    1    3    3  502    0  0.27823354894E+02 -0.43517252452E+02 -0.31873806059E+02  0.60838328800E+02  0.41800000000E+01 0. -1.
         -5    1    3    3    0  502  0.12991400669E+03  0.42180873278E+02  0.32580740468E+02  0.14048434878E+03  0.41800000000E+01 0. -1.
        -11    1    4    4    0    0 -0.11503764161E+03 -0.36326149132E+02 -0.11488693343E+03  0.16659008245E+03  0.00000000000E+00 0.  1.
         11    1    4    4    0    0 -0.42699719971E+02  0.37662528305E+02 -0.97244029699E+02  0.11268599485E+03  0.00000000000E+00 0. -1.
</event>
<event>
 8    1  0.6703334E-009  0.6934685E+02  0.7561462E-02  0.1362328E+00
         -1   -1    0    0    0  501 -0.00000000000E+00  0.00000000000E+00  0.11401858595E+03  0.11401858595E+03  0.00000000000E+00 0.  1.
          1   -1    0    0  501    0  0.00000000000E+00 -0.00000000000E+00 -0.12364704945E+03  0.12364704945E+03  0.00000000000E+00 0. -1.
         25    2    1    2    0    0  0.36427527459E+02  0.11761974644E+01  0.28950020375E+02  0.13346852413E+03  0.12508954815E+03 0.  0.
         23    2    1    2    0    0 -0.36427527459E+02 -0.11761974644E+01 -0.38578483872E+02  0.10419711128E+03  0.89668223931E+02 0.  0.
          5    1    3    3  502    0 -0.14552448940E+02 -0.28214503645E+02  0.59100056682E+02  0.67216970223E+02  0.41800000000E+01 0. -1.
         -5    1    3    3    0  502  0.50979976399E+02  0.29390701109E+02 -0.30150036308E+02  0.66251553904E+02  0.41800000000E+01 0. -1.
        -11    1    4    4    0    0 -0.14070706645E+02 -0.15651045704E+02  0.26522768826E+02  0.33858489088E+02  0.00000000000E+00 0.  1.
         11    1    4    4    0    0 -0.22356820813E+02  0.14474848239E+02 -0.65101252698E+02  0.70338622187E+02  0.00000000000E+00 0. -1.
</event>
<event>
 8    1  0.6703334E-009  0.1153927E+03  0.7561462E-02  0.1250897E+00
         -2   -1    0    0    0  501 -0.00000000000E+00  0.00000000000E+00  0.19240006256E+02  0.19240006256E+02  0.00000000000E+00 0.  1.
          2   -1    0    0  501    0  0.00000000000E+00 -0.00000000000E+00 -0.93234098345E+03  0.93234098345E+03  0.00000000000E+00 0. -1.
         25    2    1    2    0    0 -0.17121924809E+02 -0.73239464900E+02 -0.43751722321E+03  0.46122253013E+03  0.12509085564E+03 0.  0.
         23    2    1    2    0    0  0.17121924809E+02  0.73239464900E+02 -0.47558375398E+03  0.49035845957E+03  0.92813427360E+02 0.  0.
          5    1    3    3  502    0 -0.43775720785E+02 -0.75799987988E+02 -0.16035008805E+03  0.18273361773E+03  0.41800000000E+01 0.  1.
         -5    1    3    3    0  502  0.26653795976E+02  0.25605230888E+01 -0.27716713516E+03  0.27848891240E+03  0.41800000000E+01 0.  1.
        -11    1    4    4    0    0  0.25378535340E+02 -0.13619317149E+02 -0.74039371104E+02  0.79444221495E+02  0.00000000000E+00 0.  1.
         11    1    4    4    0    0 -0.82566105302E+01  0.86858782048E+02 -0.40154438287E+03  0.41091423808E+03  0.00000000000E+00 0. -1.
</event>
<event>
 8    1  0.6703334E-009  0.1170190E+03  0.7561462E-02  0.1248097E+00
         -2   -1    0    0    0  501 -0.00000000000E+00  0.00000000000E+00  0.83263121177E+02  0.83263121177E+02  0.00000000000E+00 0.  1.
          2   -1    0    0  501    0  0.00000000000E+00 -0.00000000000E+00 -0.30912507401E+03  0.30912507401E+03  0.00000000000E+00 0. -1.
         25    2    1    2    0    0 -0.74335971873E+01  0.10694166287E+03 -0.18151669383E+03  0.24511368544E+03  0.12506250848E+03 0.  0.
         23    2    1    2    0    0  0.74335971873E+01 -0.10694166287E+03 -0.44345259005E+02  0.14727450974E+03  0.90727623131E+02 0.  0.
          5    1    3    3  502    0  0.16791106400E+02  0.43823097676E+00 -0.11682573243E+03  0.11810104766E+03  0.41800000000E+01 0.  1.
         -5    1    3    3    0  502 -0.24224703588E+02  0.10650343190E+03 -0.64690961398E+02  0.12701263778E+03  0.41800000000E+01 0.  1.
        -11    1    4    4    0    0  0.42790994490E+00 -0.56264828836E+02 -0.70189584922E+02  0.89958278676E+02  0.00000000000E+00 0.  1.
         11    1    4    4    0    0  0.70056872424E+01 -0.50676834038E+02  0.25844325917E+02  0.57316231069E+02  0.00000000000E+00 0. -1.
</event>
<event>
 8    1  0.6703334E-009  0.1127459E+03  0.7561462E-02  0.1255568E+00
          1   -1    0    0  501    0  0.00000000000E+00  0.00000000000E+00  0.12170881935E+03  0.12170881935E+03  0.00000000000E+00 0. -1.
         -1   -1    0    0    0  501 -0.00000000000E+00 -0.00000000000E+00 -0.14396143813E+03  0.14396143813E+03  0.00000000000E+00 0.  1.
         25    2    1    2    0    0  0.34411054173E+02  0.19009197596E+02 -0.77784269232E+02  0.15249473454E+03  0.12513505216E+03 0.  0.
         23    2    1    2    0    0 -0.34411054173E+02 -0.19009197596E+02  0.55531650447E+02  0.11317552294E+03  0.90440392241E+02 0.  0.
          5    1    3    3  502    0  0.77516592785E+02  0.34785178758E+02 -0.51192181157E+02  0.99282136509E+02  0.41800000000E+01 0. -1.
         -5    1    3    3    0  502 -0.43105538612E+02 -0.15775981162E+02 -0.26592088075E+02  0.53212598028E+02  0.41800000000E+01 0. -1.
        -11    1    4    4    0    0 -0.37759420706E+02  0.28123687318E+02  0.11227397890E+02  0.48402170445E+02  0.00000000000E+00 0. -1.
         11    1    4    4    0    0  0.33483665335E+01 -0.47132884913E+02  0.44304252557E+02  0.64773352494E+02  0.00000000000E+00 0.  1.
</event>
<event>
 8    1  0.6703334E-009  0.1908575E+03  0.7561462E-02  0.1157690E+00
          2   -1    0    0  501    0  0.00000000000E+00  0.00000000000E+00  0.90033272314E+03  0.90033272314E+03  0.00000000000E+00 0.  1.
         -2   -1    0    0    0  501 -0.00000000000E+00 -0.00000000000E+00 -0.56968828281E+02  0.56968828281E+02  0.00000000000E+00 0. -1.
         25    2    1    2    0    0 -0.12997438016E+03 -0.13110371211E+03  0.58987307287E+03  0.63061900693E+03  0.12509423237E+03 0.  0.
         23    2    1    2    0    0  0.12997438016E+03  0.13110371211E+03  0.25349082199E+03  0.32668254450E+03  0.91555257738E+02 0.  0.
          5    1    3    3  502    0 -0.24248543271E+02 -0.27346062008E+02  0.20162405175E+02  0.41949897980E+02  0.41800000000E+01 0. -1.
         -5    1    3    3    0  502 -0.10572583688E+03 -0.10375765010E+03  0.56971066770E+03  0.58866910894E+03  0.41800000000E+01 0. -1.
        -11    1    4    4    0    0  0.79867632081E+02  0.32687154763E+02  0.16083414343E+03  0.18252372567E+03  0.00000000000E+00 0.  1.
         11    1    4    4    0    0  0.50106748075E+02  0.98416557349E+02  0.92656678562E+02  0.14415881883E+03  0.00000000000E+00 0. -1.
</event>
<event>
 8    1  0.6703334E-009  0.2101902E+03  0.7561462E-02  0.1141415E+00
          1   -1    0    0  501    0  0.00000000000E+00  0.00000000000E+00  0.34449419896E+03  0.34449419896E+03  0.00000000000E+00 0. -1.
         -1   -1    0    0    0  501 -0.00000000000E+00 -0.00000000000E+00 -0.15976527358E+03  0.15976527358E+03  0.00000000000E+00 0.  1.
         25    2    1    2    0    0 -0.12452645486E+03  0.14913529452E+03  0.16631381745E+02  0.23168662313E+03  0.12511560433E+03 0.  0.
         23    2    1    2    0    0  0.12452645486E+03 -0.14913529452E+03  0.16809754363E+03  0.27257284941E+03  0.91054928662E+02 0.  0.
          5    1    3    3  502    0 -0.20993753774E+02 -0.94108519400E+01  0.34244925949E+02  0.41466723828E+02  0.41800000000E+01 0.  1.
         -5    1    3    3    0  502 -0.10353270108E+03  0.15854614646E+03 -0.17613544204E+02  0.19021989930E+03  0.41800000000E+01 0.  1.
        -11    1    4    4    0    0 -0.85583956526E+01 -0.21737521521E+02  0.45885268771E+02  0.51490036592E+02  0.00000000000E+00 0.  1.
         11    1    4    4    0    0  0.13308485051E+03 -0.12739777300E+03  0.12221227486E+03  0.22108281282E+03  0.00000000000E+00 0. -1.
</event>
<event>
 8    1  0.6703334E-009  0.1023164E+03  0.7561462E-02  0.1275499E+00
          1   -1    0    0  501    0  0.00000000000E+00  0.00000000000E+00  0.13887075625E+03  0.13887075625E+03  0.00000000000E+00 0. -1.
         -1   -1    0    0    0  501 -0.00000000000E+00 -0.00000000000E+00 -0.92433673265E+02  0.92433673265E+02  0.00000000000E+00 0.  1.
         25    2    1    2    0    0  0.18531743061E+02  0.95111335181E+01  0.48604073436E+02  0.13580993726E+03  0.12509234966E+03 0.  0.
         23    2    1    2    0    0 -0.18531743061E+02 -0.95111335181E+01 -0.21669904503E+01  0.95494492256E+02  0.93169818299E+02 0.  0.
          5    1    3    3  502    0  0.47953515558E+02 -0.36090190225E+02  0.54351346942E+02  0.81077634396E+02  0.41800000000E+01 0.  1.
         -5    1    3    3    0  502 -0.29421772497E+02  0.45601323743E+02 -0.57472735058E+01  0.54732302864E+02  0.41800000000E+01 0.  1.
        -11    1    4    4    0    0  0.35428209134E+02 -0.12340888760E+01 -0.16428308695E+02  0.39071348893E+02  0.00000000000E+00 0.  1.
         11    1    4    4    0    0 -0.53959952194E+02 -0.82770446421E+01  0.14261318244E+02  0.56423143362E+02  0.00000000000E+00 0. -1.
</event>
<event>
 8    1  0.6703334E-009  0.1439161E+03  0.7561462E-02  0.1208155E+00
          2   -1    0    0  501    0  0.00000000000E+00  0.00000000000E+00  0.10897281853E+03  0.10897281853E+03  0.00000000000E+00 0.  1.
         -2   -1    0    0    0  501 -0.00000000000E+00 -0.00000000000E+00 -0.29682036474E+03  0.29682036474E+03  0.00000000000E+00 0. -1.
         25    2    1    2    0    0 -0.10938151612E+03 -0.86978970790E+02 -0.13505100780E+03  0.23112069664E+03  0.12509334226E+03 0.  0.
         23    2    1    2    0    0  0.10938151612E+03  0.86978970790E+02 -0.52796538410E+02  0.17467248663E+03  0.90517101646E+02 0.  0.
          5    1    3    3  502    0 -0.11203306251E+03 -0.88154471802E+02 -0.58095722870E+02  0.15399741365E+03  0.41800000000E+01 0.  1.
         -5    1    3    3    0  502  0.26515463874E+01  0.11755010121E+01 -0.76955284931E+02  0.77123282993E+02  0.41800000000E+01 0.  1.
        -11    1    4    4    0    0  0.10229889272E+03  0.77746742809E+02 -0.83862990625E+01  0.12876315265E+03  0.00000000000E+00 0.  1.
         11    1    4    4    0    0  0.70826234011E+01  0.92322279803E+01 -0.44410239347E+02  0.45909333981E+02  0.00000000000E+00 0. -1.
</event>
<event>
 8    1  0.6703334E-009  0.1594530E+03  0.7561462E-02  0.1189316E+00
         -2   -1    0    0    0  501 -0.00000000000E+00  0.00000000000E+00  0.44838786992E+02  0.44838786992E+02  0.00000000000E+00 0.  1.
          2   -1    0    0  501    0  0.00000000000E+00 -0.00000000000E+00 -0.68060701013E+03  0.68060701013E+03  0.00000000000E+00 0. -1.
         25    2    1    2    0    0 -0.67111854738E+02  0.11666005888E+03 -0.28831773991E+03  0.34188817996E+03  0.12508732174E+03 0.  0.
         23    2    1    2    0    0  0.67111854738E+02 -0.11666005888E+03 -0.34745048323E+03  0.38355761717E+03  0.91000203330E+02 0.  0.
          5    1    3    3  502    0 -0.19533062270E+01  0.11632890140E+03 -0.20814764274E+03  0.23849348478E+03  0.41800000000E+01 0. -1.
         -5    1    3    3    0  502 -0.65158548511E+02  0.33115748609E+00 -0.80170097172E+02  0.10339469517E+03  0.41800000000E+01 0. -1.
        -11    1    4    4    0    0  0.60092706976E+02 -0.81050577761E+02 -0.32631402078E+03  0.34155697876E+03  0.00000000000E+00 0.  1.
         11    1    4    4    0    0  0.70191477621E+01 -0.35609481124E+02 -0.21136462449E+02  0.42000638401E+02  0.00000000000E+00 0. -1.
</event>
<event>
 8    1  0.6703334E-009  0.1304703E+03  0.7561462E-02  0.1226760E+00
          1   -1    0    0  501    0  0.00000000000E+00  0.00000000000E+00  0.55531405659E+03  0.55531405659E+03  0.00000000000E+00 0. -1.
         -1   -1    0    0    0  501 -0.00000000000E+00 -0.00000000000E+00 -0.38321380046E+02  0.38321380046E+02  0.00000000000E+00 0.  1.
         25    2    1    2    0    0 -0.32285284683E+02 -0.69664824034E+02  0.40460907905E+03  0.43040829658E+03  0.12508903870E+03 0.  0.
         23    2    1    2    0    0  0.32285284683E+02  0.69664824034E+02  0.11238359750E+03  0.16322714006E+03  0.90097163940E+02 0.  0.
          5    1    3    3  502    0  0.36152520908E+02 -0.69224188901E+02  0.21577102689E+03  0.22950730172E+03  0.41800000000E+01 0. -1.
         -5    1    3    3    0  502 -0.68437805591E+02 -0.44063513322E+00  0.18883805216E+03  0.20090099486E+03  0.41800000000E+01 0. -1.
        -11    1    4    4    0    0 -0.16780519407E+02  0.62336978100E+02  0.84434924487E+02  0.10628612865E+03  0.00000000000E+00 0. -1.
         11    1    4    4    0    0  0.49065804090E+02  0.73278459341E+01  0.27948673010E+02  0.56941011407E+02  0.00000000000E+00 0.  1.
</event>
<event>
 8    1  0.6703334E-009  0.1104520E+03  0.7561462E-02  0.1259735E+00
         -2   -1    0    0    0  501 -0.00000000000E+00  0.00000000000E+00  0.19449631172E+02  0.19449631172E+02  0.00000000000E+00 0.  1.
          2   -1    0    0  501    0  0.00000000000E+00 -0.00000000000E+00 -0.11597843554E+04  0.11597843554E+04  0.00000000000E+00 0. -1.
         25    2    1    2    0    0  0.52449718738E+02 -0.19162081885E+02 -0.95800777904E+03  0.96775268367E+03  0.12509274030E+03 0.  0.
         23    2    1    2    0    0 -0.52449718738E+02  0.19162081885E+02 -0.18232694518E+03  0.21148130289E+03  0.91449812229E+02 0.  0.
          5    1    3    3  502    0  0.74619197290E+02  0.30000885494E+02 -0.48201506832E+03  0.48869630265E+03  0.41800000000E+01 0. -1.
         -5    1    3    3    0  502 -0.22169478552E+02 -0.49162967379E+02 -0.47599271072E+03  0.47905638102E+03  0.41800000000E+01 0. -1.
        -11    1    4    4    0    0  0.15724264364E+02  0.11528080154E+01  0.24233602246E+00  0.15768328473E+02  0.00000000000E+00 0.  1.
         11    1    4    4    0    0 -0.68173983102E+02  0.18009273870E+02 -0.18256928120E+03  0.19571297442E+03  0.00000000000E+00 0. -1.
</event>
<event>
 8    1  0.6703334E-009  0.3669372E+03  0.7561462E-02  0.1055870E+00
         -2   -1    0    0    0  501 -0.00000000000E+00  0.00000000000E+00  0.19093651124E+03  0.19093651124E+03  0.00000000000E+00 0.  1.
          2   -1    0    0  501    0  0.00000000000E+00 -0.00000000000E+00 -0.93528794852E+03  0.93528794852E+03  0.00000000000E+00 0. -1.
         25    2    1    2    0    0  0.76980496379E+02  0.35130901954E+03 -0.63227020999E+03  0.73807663218E+03  0.12508985765E+03 0.  0.
         23    2    1    2    0    0 -0.76980496379E+02 -0.35130901954E+03 -0.11208122730E+03  0.38814782758E+03  0.93554852956E+02 0.  0.
          5    1    3    3  502    0  0.16328133175E+02  0.27971934117E+03 -0.40832439372E+03  0.49523307711E+03  0.41800000000E+01 0. -1.
         -5    1    3    3    0  502  0.60652363204E+02  0.71589678373E+02 -0.22394581627E+03  0.24284355507E+03  0.41800000000E+01 0. -1.
        -11    1    4    4    0    0 -0.18063549507E+02 -0.68209820321E+02  0.15248914480E+02  0.72190032566E+02  0.00000000000E+00 0.  1.
         11    1    4    4    0    0 -0.58916946872E+02 -0.28309919922E+03 -0.12733014177E+03  0.31595779502E+03  0.00000000000E+00 0. -1.
</event>
<event>
 8    1  0.6703334E-009  0.8721114E+02  0.7561462E-02  0.1309749E+00
          1   -1    0    0  501    0  0.00000000000E+00  0.00000000000E+00  0.15513482386E+02  0.15513482386E+02  0.00000000000E+00 0. -1.
         -1   -1    0    0    0  501 -0.00000000000E+00 -0.00000000000E+00 -0.83448554880E+03  0.83448554880E+03  0.00000000000E+00 0.  1.
         25    2    1    2    0    0  0.10206330662E+02 -0.76838561123E+01 -0.58402865207E+03  0.59741154126E+03  0.12509145600E+03 0.  0.
         23    2    1    2    0    0 -0.10206330662E+02  0.76838561123E+01 -0.23494341434E+03  0.25258748992E+03  0.91863057276E+02 0.  0.
          5    1    3    3  502    0  0.10848510264E+02 -0.53985256283E+02 -0.48359773692E+03  0.48674052803E+03  0.41800000000E+01 0. -1.
         -5    1    3    3    0  502 -0.64217960207E+00  0.46301400170E+02 -0.10043091515E+03  0.11067101323E+03  0.41800000000E+01 0. -1.
        -11    1    4    4    0    0 -0.39452634996E+02 -0.68561972369E+01 -0.46637770326E+02  0.61470313726E+02  0.00000000000E+00 0. -1.
         11    1    4    4    0    0  0.29246304334E+02  0.14540053349E+02 -0.18830564402E+03  0.19111717620E+03  0.00000000000E+00 0.  1.
</event>
<event>
 8    1  0.6703334E-009  0.1204171E+03  0.7561462E-02  0.1242411E+00
          1   -1    0    0  501    0  0.00000000000E+00  0.00000000000E+00  0.46557458153E+03  0.46557458153E+03  0.00000000000E+00 0. -1.
         -1   -1    0    0    0  501 -0.00000000000E+00 -0.00000000000E+00 -0.33384551941E+02  0.33384551941E+02  0.00000000000E+00 0.  1.
         25    2    1    2    0    0  0.23936845988E+02  0.54004686531E+02  0.27390094994E+03  0.30685607110E+03  0.12509771872E+03 0.  0.
         23    2    1    2    0    0 -0.23936845988E+02 -0.54004686531E+02  0.15828907966E+03  0.19210306238E+03  0.91425789981E+02 0.  0.
          5    1    3    3  502    0 -0.35510465666E+02 -0.16762787546E+02  0.44466251522E+02  0.59470195414E+02  0.41800000000E+01 0.  1.
         -5    1    3    3    0  502  0.59447311654E+02  0.70767474077E+02  0.22943469841E+03  0.24738587568E+03  0.41800000000E+01 0.  1.
        -11    1    4    4    0    0  0.23590408484E+02 -0.56507010945E+02  0.87119764162E+02  0.10648663280E+03  0.00000000000E+00 0.  1.
         11    1    4    4    0    0 -0.47527254472E+02  0.25023244141E+01  0.71169315494E+02  0.85616429574E+02  0.00000000000E+00 0. -1.
</event>
<event>
 8    1  0.6703334E-009  0.1411929E+03  0.7561462E-02  0.1211733E+00
         -2   -1    0    0    0  501 -0.00000000000E+00  0.00000000000E+00  0.28817805831E+02  0.28817805831E+02  0.00000000000E+00 0. -1.
          2   -1    0    0  501    0  0.00000000000E+00 -0.00000000000E+00 -0.13520167853E+04  0.13520167853E+04  0.00000000000E+00 0.  1.
         25    2    1    2    0    0  0.47324654327E+02  0.95586380732E+02 -0.11306216717E+04  0.11425100222E+04  0.12508959686E+03 0.  0.
         23    2    1    2    0    0 -0.47324654327E+02 -0.95586380732E+02 -0.19257730783E+03  0.23832456898E+03  0.91302801715E+02 0.  0.
          5    1    3    3  502    0 -0.29176415041E+02  0.10539268027E+02 -0.83918463341E+02  0.89566289723E+02  0.41800000000E+01 0. -1.
         -5    1    3    3    0  502  0.76501069369E+02  0.85047112706E+02 -0.10467032083E+04  0.10529437325E+04  0.41800000000E+01 0. -1.
        -11    1    4    4    0    0 -0.67046371530E+02 -0.95754344678E+02 -0.18097096310E+03  0.21544047889E+03  0.00000000000E+00 0.  1.
         11    1    4    4    0    0  0.19721717203E+02  0.16796394602E+00 -0.11606344734E+02  0.22884090093E+02  0.00000000000E+00 0. -1.
</event>
<event>
 8    1  0.6703334E-009  0.1025890E+03  0.7561462E-02  0.1274944E+00
         -2   -1    0    0    0  501 -0.00000000000E+00  0.00000000000E+00  0.34930960718E+02  0.34930960718E+02  0.00000000000E+00 0.  1.
          2   -1    0    0  501    0  0.00000000000E+00 -0.00000000000E+00 -0.37688463838E+03  0.37688463838E+03  0.00000000000E+00 0. -1.
         25    2    1    2    0    0  0.16174566308E+01  0.18861340934E+02 -0.25577853702E+03  0.28535390436E+03  0.12508326982E+03 0.  0.
         23    2    1    2    0    0 -0.16174566308E+01 -0.18861340934E+02 -0.86175140646E+02  0.12646169474E+03  0.90598228586E+02 0.  0.
          5    1    3    3  502    0  0.54591288675E+02  0.40353155516E+02 -0.15791092656E+03  0.17193579931E+03  0.41800000000E+01 0.  1.
         -5    1    3    3    0  502 -0.52973832045E+02 -0.21491814581E+02 -0.97867610459E+02  0.11341810505E+03  0.41800000000E+01 0.  1.
        -11    1    4    4    0    0  0.28384322956E+02  0.17000550380E+02 -0.69228730453E+02  0.76728779627E+02  0.00000000000E+00 0. -1.
         11    1    4    4    0    0 -0.30001779587E+02 -0.35861891315E+02 -0.16946410193E+02  0.49732915111E+02  0.00000000000E+00 0.  1.
</event>
<event>
 8    1  0.6703334E-009  0.1078451E+03  0.7561462E-02  0.1264613E+00
         -2   -1    0    0    0  501 -0.00000000000E+00  0.00000000000E+00  0.18797107122E+02  0.18797107122E+02  0.00000000000E+00 0. -1.
          2   -1    0    0  501    0  0.00000000000E+00 -0.00000000000E+00 -0.69858405563E+03  0.69858405563E+03  0.00000000000E+00 0.  1.
         25    2    1    2    0    0  0.27025862937E+02  0.23473961063E+02 -0.40761078087E+03  0.42787579965E+03  0.12509886941E+03 0.  0.
         23    2    1    2    0    0 -0.27025862937E+02 -0.23473961063E+02 -0.27217616764E+03  0.28950536311E+03  0.91935112553E+02 0.  0.
          5    1    3    3  502    0  0.63843456236E+02 -0.12875008606E+02 -0.13008948232E+03  0.14554208519E+03  0.41800000000E+01 0. -1.
         -5    1    3    3    0  502 -0.36817593300E+02  0.36348969669E+02 -0.27752129855E+03  0.28233371446E+03  0.41800000000E+01 0. -1.
        -11    1    4    4    0    0 -0.61295123942E+02 -0.12687001830E+02 -0.16547387300E+03  0.17691708476E+03  0.00000000000E+00 0.  1.
         11    1    4    4    0    0  0.34269261005E+02 -0.10786959233E+02 -0.10670229465E+03  0.11258827835E+03  0.00000000000E+00 0. -1.
</event>
<event>
 8    1  0.6703334E-009  0.1507328E+03  0.7561462E-02  0.1199575E+00
         -1   -1    0    0    0  501 -0.00000000000E+00  0.00000000000E+00  0.35734024792E+02  0.35734024792E+02  0.00000000000E+00 0.  1.
          1   -1    0    0  501    0  0.00000000000E+00 -0.00000000000E+00 -0.72324879450E+03  0.72324879450E+03  0.00000000000E+00 0. -1.
         25    2    1    2    0    0 -0.10773093347E+03 -0.30825337649E+02 -0.28110445470E+03  0.32745267692E+03  0.12509750478E+03 0.  0.
         23    2    1    2    0    0  0.10773093347E+03  0.30825337649E+02 -0.40641031501E+03  0.43153014237E+03  0.92156194370E+02 0.  0.
          5    1    3    3  502    0 -0.93173443465E+02 -0.73697118087E+02 -0.17030677180E+03  0.20768828735E+03  0.41800000000E+01 0.  1.
         -5    1    3    3    0  502 -0.14557490007E+02  0.42871780438E+02 -0.11079768290E+03  0.11976438957E+03  0.41800000000E+01 0.  1.
        -11    1    4    4    0    0 -0.23821486630E+01  0.26836584486E+02 -0.35293776241E+02  0.44401886677E+02  0.00000000000E+00 0.  1.
         11    1    4    4    0    0  0.11011308213E+03  0.39887531626E+01 -0.37111653876E+03  0.38712825569E+03  0.00000000000E+00 0. -1.
</event>
<event>
 8    1  0.6703334E-009  0.2500273E+03  0.7561462E-02  0.1113288E+00
          2   -1    0    0  501    0  0.00000000000E+00  0.00000000000E+00  0.91185696778E+03  0.91185696778E+03  0.00000000000E+00 0. -1.
         -2   -1    0    0    0  501 -0.00000000000E+00 -0.00000000000E+00 -0.10807565896E+03  0.10807565896E+03  0.00000000000E+00 0.  1.
         25    2    1    2    0    0  0.22066550304E+02 -0.22609076329E+03  0.71609640836E+03  0.76160799388E+03  0.12509478164E+03 0.  0.
         23    2    1    2    0    0 -0.22066550304E+02  0.22609076329E+03  0.87684900464E+02  0.25832463286E+03  0.86249685690E+02 0.  0.
          5    1    3    3  502    0  0.53789187651E+01 -0.23819742138E+03  0.65774142161E+03  0.69957715401E+03  0.41800000000E+01 0.  1.
         -5    1    3    3    0  502  0.16687631539E+02  0.12106658083E+02  0.58354986752E+02  0.62030839872E+02  0.41800000000E+01 0.  1.
        -11    1    4    4    0    0 -0.46810781374E+02  0.81128888132E+02  0.51458994290E+02  0.10686989209E+03  0.00000000000E+00 0.  1.
         11    1    4    4    0    0  0.24744231071E+02  0.14496187516E+03  0.36225906174E+02  0.15145474076E+03  0.00000000000E+00 0. -1.
</event>
<event>
 8    1  0.6703334E-009  0.1173556E+03  0.7561462E-02  0.1247524E+00
         -1   -1    0    0    0  501 -0.00000000000E+00  0.00000000000E+00  0.11708114106E+03  0.11708114106E+03  0.00000000000E+00 0. -1.
          1   -1    0    0  501    0  0.00000000000E+00 -0.00000000000E+00 -0.47285624514E+03  0.47285624514E+03  0.00000000000E+00 0.  1.
         25    2    1    2    0    0 -0.95573643964E+02  0.43793416566E+02  0.42260096977E+02  0.16877552201E+03  0.12508827394E+03 0.  0.
         23    2    1    2    0    0  0.95573643964E+02 -0.43793416566E+02 -0.39803520106E+03  0.42116186419E+03  0.88843175354E+02 0.  0.
          5    1    3    3  502    0 -0.93203208037E+02  0.82482112122E+01  0.75171206028E+02  0.12009601822E+03  0.41800000000E+01 0. -1.
         -5    1    3    3    0  502 -0.23704359268E+01  0.35545205354E+02 -0.32911109051E+02  0.48679503788E+02  0.41800000000E+01 0. -1.
        -11    1    4    4    0    0  0.33066268744E+02 -0.16896646719E+02 -0.32501185361E+02  0.49347764375E+02  0.00000000000E+00 0.  1.
         11    1    4    4    0    0  0.62507375220E+02 -0.26896769848E+02 -0.36553401570E+03  0.37181409981E+03  0.00000000000E+00 0. -1.
</event>
<event>
 8    1  0.6703334E-009  0.1644868E+03  0.7561462E-02  0.1183722E+00
         -1   -1    0    0    0  501 -0.00000000000E+00  0.00000000000E+00  0.33118665984E+02  0.33118665984E+02  0.00000000000E+00 0.  1.
          1   -1    0    0  501    0  0.00000000000E+00 -0.00000000000E+00 -0.11388114478E+04  0.11388114478E+04  0.00000000000E+00 0. -1.
         25    2    1    2    0    0 -0.64246534297E+02  0.13829540211E+03 -0.72807102209E+03  0.75431290334E+03  0.12508919831E+03 0.  0.
         23    2    1    2    0    0  0.64246534297E+02 -0.13829540211E+03 -0.37762175974E+03  0.41761721045E+03  0.92480839216E+02 0.  0.
          5    1    3    3  502    0 -0.32941457726E+02  0.13339187910E+03 -0.36816347689E+03  0.39298899623E+03  0.41800000000E+01 0. -1.
         -5    1    3    3    0  502 -0.31305076572E+02  0.49035230062E+01 -0.35990754520E+03  0.36132390711E+03  0.41800000000E+01 0. -1.
        -11    1    4    4    0    0  0.47714655413E+02 -0.47736971188E+02 -0.25795864571E+03  0.26664240034E+03  0.00000000000E+00 0. -1.
         11    1    4    4    0    0  0.16531878885E+02 -0.90558430921E+02 -0.11966311403E+03  0.15097481011E+03  0.00000000000E+00 0.  1.
</event>
<event>
 8    1  0.6703334E-009  0.1117429E+03  0.7561462E-02  0.1257376E+00
         -1   -1    0    0    0  501 -0.00000000000E+00  0.00000000000E+00  0.23266687633E+03  0.23266687633E+03  0.00000000000E+00 0.  1.
          1   -1    0    0  501    0  0.00000000000E+00 -0.00000000000E+00 -0.87835515768E+02  0.87835515768E+02  0.00000000000E+00 0. -1.
         25    2    1    2    0    0 -0.86719456789E+02 -0.12366470838E+02  0.44748410358E+02  0.15912756072E+03  0.12508383814E+03 0.  0.
         23    2    1    2    0    0  0.86719456789E+02  0.12366470838E+02  0.10008295020E+03  0.16137483137E+03  0.91389526169E+02 0.  0.
          5    1    3    3  502    0 -0.18098281365E+02  0.38068766286E+02  0.59050329305E+02  0.72671813971E+02  0.41800000000E+01 0.  1.
         -5    1    3    3    0  502 -0.68621175424E+02 -0.50435237124E+02 -0.14301918947E+02  0.86455746749E+02  0.41800000000E+01 0.  1.
        -11    1    4    4    0    0  0.62779990609E+02  0.26409133631E+02  0.11206983106E+03  0.13114273367E+03  0.00000000000E+00 0.  1.
         11    1    4    4    0    0  0.23939466180E+02 -0.14042662792E+02 -0.11986880855E+02  0.30232097710E+02  0.00000000000E+00 0. -1.
</event>
<event>
 8    1  0.6703334E-009  0.1032394E+03  0.7561462E-02  0.1273628E+00
         -1   -1    0    0    0  501 -0.00000000000E+00  0.00000000000E+00  0.10367663665E+03  0.10367663665E+03  0.00000000000E+00 0.  1.
          1   -1    0    0  501    0  0.00000000000E+00 -0.00000000000E+00 -0.19574433930E+03  0.19574433930E+03  0.00000000000E+00 0. -1.
         25    2    1    2    0    0 -0.63435878442E+02  0.41083934179E+02 -0.10534525970E+03  0.18016862088E+03  0.12510438796E+03 0.  0.
         23    2    1    2    0    0  0.63435878442E+02 -0.41083934179E+02  0.13277557057E+02  0.11925235507E+03  0.91284337913E+02 0.  0.
          5    1    3    3  502    0 -0.23503096065E+01  0.63288324320E+02 -0.94955983486E+02  0.11421491650E+03  0.41800000000E+01 0.  1.
         -5    1    3    3    0  502 -0.61085568835E+02 -0.22204390141E+02 -0.10389276216E+02  0.65953704382E+02  0.41800000000E+01 0.  1.
        -11    1    4    4    0    0  0.40931988475E+02 -0.36650122404E+02  0.51091011217E+02  0.75026332577E+02  0.00000000000E+00 0.  1.
         11    1    4    4    0    0  0.22503889966E+02 -0.44338117751E+01 -0.37813454160E+02  0.44226022498E+02  0.00000000000E+00 0. -1.
</event>
<event>
 8    1  0.6703334E-009  0.2352758E+03  0.7561462E-02  0.1122981E+00
          2   -1    0    0  501    0  0.00000000000E+00  0.00000000000E+00  0.19329322452E+04  0.19329322452E+04  0.00000000000E+00 0. -1.
         -2   -1    0    0    0  501 -0.00000000000E+00 -0.00000000000E+00 -0.30333244010E+02  0.30333244010E+02  0.00000000000E+00 0.  1.
         25    2    1    2    0    0  0.18108023603E+03 -0.10989452886E+03  0.11548999791E+04  0.11808082089E+04  0.12508878929E+03 0.  0.
         23    2    1    2    0    0 -0.18108023603E+03  0.10989452886E+03  0.74769902206E+03  0.78245728025E+03  0.91206954058E+02 0.  0.
          5    1    3    3  502    0 -0.51518755664E+01 -0.40744710450E+02  0.31667703714E+03  0.31935637070E+03  0.41800000000E+01 0.  1.
         -5    1    3    3    0  502  0.18623211160E+03 -0.69149818405E+02  0.83822294194E+03  0.86145183822E+03  0.41800000000E+01 0.  1.
        -11    1    4    4    0    0 -0.11691700638E+03  0.17704350540E+02  0.37536780261E+03  0.39355306840E+03  0.00000000000E+00 0. -1.
         11    1    4    4    0    0 -0.64163229652E+02  0.92190178315E+02  0.37233121945E+03  0.38890421185E+03  0.00000000000E+00 0.  1.
</event>
<event>
 8    1  0.6703334E-009  0.1594189E+03  0.7561462E-02  0.1189354E+00
         -1   -1    0    0    0  501 -0.00000000000E+00  0.00000000000E+00  0.13655954328E+03  0.13655954328E+03  0.00000000000E+00 0.  1.
          1   -1    0    0  501    0  0.00000000000E+00 -0.00000000000E+00 -0.37259941907E+03  0.37259941907E+03  0.00000000000E+00 0. -1.
         25    2    1    2    0    0 -0.68229264357E+02 -0.11613350418E+03 -0.28442348972E+03  0.33865395416E+03  0.12509019089E+03 0.  0.
         23    2    1    2    0    0  0.68229264357E+02  0.11613350418E+03  0.48383613929E+02  0.17050500819E+03  0.92675565360E+02 0.  0.
          5    1    3    3  502    0  0.34418860103E+02 -0.12280783570E+02 -0.44219281135E+02  0.57517760735E+02  0.41800000000E+01 0.  1.
         -5    1    3    3    0  502 -0.10264812446E+03 -0.10385272061E+03 -0.24020420858E+03  0.28113619343E+03  0.41800000000E+01 0.  1.
        -11    1    4    4    0    0  0.35063609160E+02  0.41670581463E+02  0.67547897453E+02  0.86767577453E+02  0.00000000000E+00 0.  1.
         11    1    4    4    0    0  0.33165655196E+02  0.74462922714E+02 -0.19164283524E+02  0.83737430739E+02  0.00000000000E+00 0. -1.
</event>
<event>
 8    1  0.6703334E-009  0.9952098E+02  0.7561462E-02  0.1281306E+00
          1   -1    0    0  501    0  0.00000000000E+00  0.00000000000E+00  0.32991691309E+03  0.32991691309E+03  0.00000000000E+00 0. -1.
         -1   -1    0    0    0  501 -0.00000000000E+00 -0.00000000000E+00 -0.56381166474E+02  0.56381166474E+02  0.00000000000E+00 0.  1.
         25    2    1    2    0    0 -0.44692649973E+02  0.37850981125E+02  0.68390054462E+02  0.15411579346E+03  0.12507737010E+03 0.  0.
         23    2    1    2    0    0  0.44692649973E+02 -0.37850981125E+02  0.20514569216E+03  0.23218228611E+03  0.91617297700E+02 0.  0.
          5    1    3    3  502    0 -0.31534143229E+02 -0.21026498443E+02 -0.22998520460E+02  0.44529991796E+02  0.41800000000E+01 0. -1.
         -5    1    3    3    0  502 -0.13158506744E+02  0.58877479568E+02  0.91388574922E+02  0.10958580166E+03  0.41800000000E+01 0. -1.
        -11    1    4    4    0    0 -0.24070043720E+02 -0.69805787094E+01  0.19296116629E+02  0.31629663305E+02  0.00000000000E+00 0. -1.
         11    1    4    4    0    0  0.68762693693E+02 -0.30870402416E+02  0.18584957553E+03  0.20055262280E+03  0.00000000000E+00 0.  1.
</event>
<event>
 8    1  0.6703334E-009  0.3002053E+03  0.7561462E-02  0.1085138E+00
         -1   -1    0    0    0  501 -0.00000000000E+00  0.00000000000E+00  0.35353965366E+03  0.35353965366E+03  0.00000000000E+00 0.  1.
          1   -1    0    0  501    0  0.00000000000E+00 -0.00000000000E+00 -0.32041538581E+03  0.32041538581E+03  0.00000000000E+00 0. -1.
         25    2    1    2    0    0  0.25568737923E+03 -0.15106073204E+03  0.13135248517E+03  0.34798817094E+03  0.12508761367E+03 0.  0.
         23    2    1    2    0    0 -0.25568737923E+03  0.15106073204E+03 -0.98228217320E+02  0.32596686854E+03  0.91707339106E+02 0.  0.
          5    1    3    3  502    0  0.72043553372E+02 -0.48165086352E+02 -0.19563972168E+02  0.88940263845E+02  0.41800000000E+01 0.  1.
         -5    1    3    3    0  502  0.18364382586E+03 -0.10289564569E+03  0.15091645733E+03  0.25904790710E+03  0.41800000000E+01 0.  1.
        -11    1    4    4    0    0 -0.52646621641E+02  0.62139644299E+02  0.46949842695E+01  0.81578459419E+02  0.00000000000E+00 0.  1.
         11    1    4    4    0    0 -0.20304075759E+03  0.88921087739E+02 -0.10292320159E+03  0.24438840912E+03  0.00000000000E+00 0. -1.
</event>
<event>
 8    1  0.6703334E-009  0.1861802E+03  0.7561462E-02  0.1161952E+00
         -2   -1    0    0    0  501 -0.00000000000E+00  0.00000000000E+00  0.21425956199E+03  0.21425956199E+03  0.00000000000E+00 0.  1.
          2   -1    0    0  501    0  0.00000000000E+00 -0.00000000000E+00 -0.20465492691E+03  0.20465492691E+03  0.00000000000E+00 0. -1.
         25    2    1    2    0    0 -0.58733813466E+02  0.15192989088E+03 -0.67966004659E+02  0.21633187330E+03  0.12509096303E+03 0.  0.
         23    2    1    2    0    0  0.58733813466E+02 -0.15192989088E+03  0.77570639739E+02  0.20258261559E+03  0.92142060997E+02 0.  0.
          5    1    3    3  502    0 -0.89093076384E+02  0.10796748185E+03 -0.80174650677E+02  0.16136914330E+03  0.41800000000E+01 0. -1.
         -5    1    3    3    0  502  0.30359262918E+02  0.43962409026E+02  0.12208646018E+02  0.54962730008E+02  0.41800000000E+01 0. -1.
        -11    1    4    4    0    0  0.41032810364E+02 -0.15536876382E+03  0.86459873600E+02  0.18247863995E+03  0.00000000000E+00 0.  1.
         11    1    4    4    0    0  0.17701003102E+02  0.34388729387E+01 -0.88892338610E+01  0.20103975640E+02  0.00000000000E+00 0. -1.
</event>
<event>
 8    1  0.6703334E-009  0.1433402E+03  0.7561462E-02  0.1208904E+00
         -2   -1    0    0    0  501 -0.00000000000E+00  0.00000000000E+00  0.61275418760E+02  0.61275418760E+02  0.00000000000E+00 0.  1.
          2   -1    0    0  501    0  0.00000000000E+00 -0.00000000000E+00 -0.56695127567E+03  0.56695127567E+03  0.00000000000E+00 0. -1.
         25    2    1    2    0    0 -0.21418791574E+02 -0.12319960508E+03 -0.12324956455E+03  0.21557923270E+03  0.12508814125E+03 0.  0.
         23    2    1    2    0    0  0.21418791574E+02  0.12319960508E+03 -0.38242629236E+03  0.41264746174E+03  0.91603227369E+02 0.  0.
          5    1    3    3  502    0 -0.39596870556E+02 -0.12859155173E+03 -0.56374601642E+02  0.14594268548E+03  0.41800000000E+01 0.  1.
         -5    1    3    3    0  502  0.18178078982E+02  0.53919466468E+01 -0.66874962912E+02  0.69636547219E+02  0.41800000000E+01 0.  1.
        -11    1    4    4    0    0  0.33355395412E+02  0.63077575014E+02 -0.95305148695E+02  0.11905643301E+03  0.00000000000E+00 0.  1.
         11    1    4    4    0    0 -0.11936603838E+02  0.60122030069E+02 -0.28712114366E+03  0.29359102873E+03  0.00000000000E+00 0. -1.
</event>
<event>
 8    1  0.6703334E-009  0.1187534E+03  0.7561462E-02  0.1245168E+00
         -2   -1    0    0    0  501 -0.00000000000E+00  0.00000000000E+00  0.85958905922E+02  0.85958905922E+02  0.00000000000E+00 0.  1.
          2   -1    0    0  501    0  0.00000000000E+00 -0.00000000000E+00 -0.18564303651E+03  0.18564303651E+03  0.00000000000E+00 0. -1.
         25    2    1    2    0    0 -0.70193311105E+01 -0.63119663819E+02 -0.46373160424E+02  0.14775282611E+03  0.12508822745E+03 0.  0.
         23    2    1    2    0    0  0.70193311105E+01  0.63119663819E+02 -0.53310970161E+02  0.12384911632E+03  0.91995549367E+02 0.  0.
          5    1    3    3  502    0 -0.54830501980E+02 -0.11506167617E+02  0.10543403881E+02  0.57161277155E+02  0.41800000000E+01 0.  1.
         -5    1    3    3    0  502  0.47811170870E+02 -0.51613496202E+02 -0.56916564305E+02  0.90591548957E+02  0.41800000000E+01 0.  1.
        -11    1    4    4    0    0 -0.65650236216E+01  0.84913106221E+02 -0.33932233225E+02  0.91677323231E+02  0.00000000000E+00 0.  1.
         11    1    4    4    0    0  0.13584354732E+02 -0.21793442402E+02 -0.19378736935E+02  0.32171793087E+02  0.00000000000E+00 0. -1.
</event>
<event>
 8    1  0.6703334E-009  0.1983606E+03  0.7561462E-02  0.1151130E+00
          1   -1    0    0  501    0  0.00000000000E+00  0.00000000000E+00  0.18967979253E+04  0.18967979253E+04  0.00000000000E+00 0. -1.
         -1   -1    0    0    0  501 -0.00000000000E+00 -0.00000000000E+00 -0.26546286633E+02  0.26546286633E+02  0.00000000000E+00 0.  1.
         25    2    1    2    0    0  0.14816942991E+03  0.11723471671E+03  0.10358501374E+04  0.10603447746E+04  0.12508946880E+03 0.  0.
         23    2    1    2    0    0 -0.14816942991E+03 -0.11723471671E+03  0.83440150125E+03  0.86299943727E+03  0.11333139317E+03 0.  0.
          5    1    3    3  502    0  0.28476847409E+02  0.26677648509E+02  0.55987910612E+03  0.56125280724E+03  0.41800000000E+01 0.  1.
         -5    1    3    3    0  502  0.11969258250E+03  0.90557068204E+02  0.47597103126E+03  0.49909196739E+03  0.41800000000E+01 0.  1.
        -11    1    4    4    0    0 -0.49751039863E+02 -0.93772448367E+02  0.28011311864E+03  0.29955266193E+03  0.00000000000E+00 0.  1.
         11    1    4    4    0    0 -0.98418390048E+02 -0.23462268346E+02  0.55428838261E+03  0.56344677533E+03  0.00000000000E+00 0. -1.
</event>
<event>
 8    1  0.6703334E-009  0.1576625E+03  0.7561462E-02  0.1191361E+00
         -1   -1    0    0    0  501 -0.00000000000E+00  0.00000000000E+00  0.11721994213E+03  0.11721994213E+03  0.00000000000E+00 0.  1.
          1   -1    0    0  501    0  0.00000000000E+00 -0.00000000000E+00 -0.24317789574E+03  0.24317789574E+03  0.00000000000E+00 0. -1.
         25    2    1    2    0    0 -0.11643539090E+03  0.37908725818E+02 -0.11154218468E+03  0.20756586893E+03  0.12509060410E+03 0.  0.
         23    2    1    2    0    0  0.11643539090E+03 -0.37908725818E+02 -0.14415768925E+02  0.15283196894E+03  0.90307943101E+02 0.  0.
          5    1    3    3  502    0  0.57907301704E+01  0.40860717988E+02 -0.64110172537E+02  0.76359134707E+02  0.41800000000E+01 0.  1.
         -5    1    3    3    0  502 -0.12222612107E+03 -0.29519921697E+01 -0.47432012145E+02  0.13120673423E+03  0.41800000000E+01 0.  1.
        -11    1    4    4    0    0  0.46050652874E+02  0.28982199146E+02  0.15205435798E+01  0.54432917892E+02  0.00000000000E+00 0. -1.
         11    1    4    4    0    0  0.70384738029E+02 -0.66890924965E+02 -0.15936312504E+02  0.98399051043E+02  0.00000000000E+00 0.  1.
</event>
<event>
 8    1  0.6703334E-009  0.1032680E+03  0.7561462E-02  0.1273570E+00
         -1   -1    0    0    0  501 -0.00000000000E+00  0.00000000000E+00  0.26542660403E+02  0.26542660403E+02  0.00000000000E+00 0.  1.
          1   -1    0    0  501    0  0.00000000000E+00 -0.00000000000E+00 -0.51373879003E+03  0.51373879003E+03  0.00000000000E+00 0. -1.
         25    2    1    2    0    0  0.82296169464E+01 -0.43227786459E+02 -0.26642582037E+03  0.29760129149E+03  0.12508973906E+03 0.  0.
         23    2    1    2    0    0 -0.82296169464E+01  0.43227786459E+02 -0.22077030925E+03  0.24268015894E+03  0.90651872452E+02 0.  0.
          5    1    3    3  502    0  0.82428101017E+01 -0.85783834963E+02 -0.14339387261E+03  0.16735018781E+03  0.41800000000E+01 0. -1.
         -5    1    3    3    0  502 -0.13193155286E-01  0.42556048504E+02 -0.12303194776E+03  0.13025110367E+03  0.41800000000E+01 0. -1.
        -11    1    4    4    0    0 -0.13855894527E+02  0.59075199111E+02 -0.21716325273E+03  0.22548113734E+03  0.00000000000E+00 0. -1.
         11    1    4    4    0    0  0.56262775809E+01 -0.15847412652E+02 -0.36070565286E+01  0.17199021600E+02  0.00000000000E+00 0.  1.
</event>
<event>
 8    1  0.6703334E-009  0.1024956E+03  0.7561462E-02  0.1275134E+00
         -4   -1    0    0    0  501 -0.00000000000E+00  0.00000000000E+00  0.98908877689E+02  0.98908877689E+02  0.00000000000E+00 0.  1.
          4   -1    0    0  501    0  0.00000000000E+00 -0.00000000000E+00 -0.16213373612E+03  0.16213373612E+03  0.00000000000E+00 0. -1.
         25    2    1    2    0    0 -0.59709083914E+02 -0.27648639317E+02 -0.46356508917E+02  0.14874402778E+03  0.12508492284E+03 0.  0.
         23    2    1    2    0    0  0.59709083914E+02  0.27648639317E+02 -0.16868349515E+02  0.11229858603E+03  0.89424880495E+02 0.  0.
          5    1    3    3  502    0  0.18837169246E+00  0.44644960266E+02 -0.28370955339E+02  0.53062147223E+02  0.41800000000E+01 0. -1.
         -5    1    3    3    0  502 -0.59897455607E+02 -0.72293599584E+02 -0.17985553578E+02  0.95681880555E+02  0.41800000000E+01 0. -1.
        -11    1    4    4    0    0  0.50599898431E+02  0.20499829973E+02 -0.51946068819E+02  0.75359052647E+02  0.00000000000E+00 0. -1.
         11    1    4    4    0    0  0.91091854836E+01  0.71488093443E+01  0.35077719304E+02  0.36939533386E+02  0.00000000000E+00 0.  1.
</event>
<event>
 8    1  0.6703334E-009  0.1211788E+03  0.7561462E-02  0.1241165E+00
         -1   -1    0    0    0  501 -0.00000000000E+00  0.00000000000E+00  0.13447947202E+02  0.13447947202E+02  0.00000000000E+00 0.  1.
          1   -1    0    0  501    0  0.00000000000E+00 -0.00000000000E+00 -0.15018114901E+04  0.15018114901E+04  0.00000000000E+00 0. -1.
         25    2    1    2    0    0  0.38204306527E+02 -0.41007041839E+02 -0.11530227740E+04  0.11611418424E+04  0.12509082413E+03 0.  0.
         23    2    1    2    0    0 -0.38204306527E+02  0.41007041839E+02 -0.33534076898E+03  0.35411759499E+03  0.99018650881E+02 0.  0.
          5    1    3    3  502    0 -0.26673406348E+01  0.41696991162E+02 -0.26161843383E+03  0.26496684905E+03  0.41800000000E+01 0.  1.
         -5    1    3    3    0  502  0.40871647162E+02 -0.82704033001E+02 -0.89140434013E+03  0.89617499330E+03  0.41800000000E+01 0.  1.
        -11    1    4    4    0    0 -0.66705770631E+02  0.43138287495E+02 -0.28857731224E+03  0.29931160489E+03  0.00000000000E+00 0.  1.
         11    1    4    4    0    0  0.28501464104E+02 -0.21312456555E+01 -0.46763456740E+02  0.54805990096E+02  0.00000000000E+00 0. -1.
</event>
