<event>
 8    1  0.3541538E-009  0.1206172E+03  0.7561462E-02  0.1242082E+00
         -1   -1    0    0    0  501 -0.00000000000E+00  0.00000000000E+00  0.34366131979E+03  0.34366131979E+03  0.00000000000E+00 0.  1.
          1   -1    0    0  501    0  0.00000000000E+00 -0.00000000000E+00 -0.65529862357E+02  0.65529862357E+02  0.00000000000E+00 0. -1.
         25    2    1    2    0    0  0.20744769963E+01 -0.89080995411E+02  0.22158463458E+03  0.26960085559E+03  0.12508054947E+03 0.  0.
         23    2    1    2    0    0 -0.20744769963E+01  0.89080995411E+02  0.56546822845E+02  0.13959032655E+03  0.91368423942E+02 0.  0.
          5    1    3    3  502    0 -0.27108084292E+02 -0.11118210182E+03  0.18569011881E+03  0.21816186794E+03  0.41800000000E+01 0. -1.
         -5    1    3    3    0  502  0.29182561289E+02  0.22101106413E+02  0.35894515773E+02  0.51438987652E+02  0.41800000000E+01 0. -1.
        -11    1    4    4    0    0 -0.68256036969E+01  0.41639852387E+02 -0.22090284892E+02  0.47628214950E+02  0.00000000000E+00 0. -1.
         11    1    4    4    0    0  0.47511267006E+01  0.47441143024E+02  0.78637107737E+02  0.91962111598E+02  0.00000000000E+00 0.  1.
</event>
<event>
 8    1  0.3541538E-009  0.1643950E+03  0.7561462E-02  0.1183822E+00
         -1   -1    0    0    0  501 -0.00000000000E+00  0.00000000000E+00  0.66235162019E+03  0.66235162019E+03  0.00000000000E+00 0.  1.
          1   -1    0    0  501    0  0.00000000000E+00 -0.00000000000E+00 -0.15760927996E+03  0.15760927996E+03  0.00000000000E+00 0. -1.
         25    2    1    2    0    0 -0.29061419182E+02  0.13821740746E+03 -0.84463902599E+02  0.20671367140E+03  0.12509105999E+03 0.  0.
         23    2    1    2    0    0  0.29061419182E+02 -0.13821740746E+03  0.58920624283E+03  0.61324722874E+03  0.94654895080E+02 0.  0.
          5    1    3    3  502    0 -0.74372837376E+02  0.56471934821E+02 -0.55797521678E+02  0.10886337395E+03  0.41800000000E+01 0. -1.
         -5    1    3    3    0  502  0.45311418194E+02  0.81745472641E+02 -0.28666380921E+02  0.97850297451E+02  0.41800000000E+01 0. -1.
        -11    1    4    4    0    0  0.21936161710E+02 -0.12315865821E+03  0.58165687630E+03  0.59495711780E+03  0.00000000000E+00 0.  1.
         11    1    4    4    0    0  0.71252574714E+01 -0.15058749256E+02  0.75493665337E+01  0.18290110942E+02  0.00000000000E+00 0. -1.
</event>
<event>
 8    1  0.3541538E-009  0.1168271E+03  0.7561462E-02  0.1248425E+00
          2   -1    0    0  501    0  0.00000000000E+00  0.00000000000E+00  0.15947965572E+03  0.15947965572E+03  0.00000000000E+00 0. -1.
         -2   -1    0    0    0  501 -0.00000000000E+00 -0.00000000000E+00 -0.10801276892E+03  0.10801276892E+03  0.00000000000E+00 0.  1.
         25    2    1    2    0    0 -0.40157263950E+01 -0.69463695539E+02  0.10120804418E+01  0.14314126968E+03  0.12508823974E+03 0.  0.
         23    2    1    2    0    0  0.40157263950E+01  0.69463695539E+02  0.50454806361E+02  0.12435115496E+03  0.89867631537E+02 0.  0.
          5    1    3    3  502    0 -0.58018093557E+02 -0.89091805926E+01 -0.14079203561E+02  0.60507594992E+02  0.41800000000E+01 0. -1.
         -5    1    3    3    0  502  0.54002367162E+02 -0.60554514947E+02  0.15091284002E+02  0.82633674688E+02  0.41800000000E+01 0. -1.
        -11    1    4    4    0    0  0.30033892991E+02  0.15825832616E+02  0.54923854952E+02  0.64568735074E+02  0.00000000000E+00 0. -1.
         11    1    4    4    0    0 -0.26018166596E+02  0.53637862923E+02 -0.44690485919E+01  0.59782419885E+02  0.00000000000E+00 0.  1.
</event>
<event>
 8    1  0.3541538E-009  0.7955123E+02  0.7561462E-02  0.1330330E+00
         -3   -1    0    0    0  501 -0.00000000000E+00  0.00000000000E+00  0.78819335349E+02  0.78819335349E+02  0.00000000000E+00 0.  1.
          3   -1    0    0  501    0  0.00000000000E+00 -0.00000000000E+00 -0.14863093256E+03  0.14863093256E+03  0.00000000000E+00 0. -1.
         25    2    1    2    0    0 -0.57145905325E+01 -0.29326902827E+02 -0.33770949872E+02  0.13296888101E+03  0.12509005751E+03 0.  0.
         23    2    1    2    0    0  0.57145905325E+01  0.29326902827E+02 -0.36040647339E+02  0.94481386898E+02  0.82067535818E+02 0.  0.
          5    1    3    3  502    0  0.28668139722E+02 -0.26657965811E+02 -0.71537492183E+02  0.81655340083E+02  0.41800000000E+01 0. -1.
         -5    1    3    3    0  502 -0.34382730254E+02 -0.26689370167E+01  0.37766542310E+02  0.51313540929E+02  0.41800000000E+01 0. -1.
        -11    1    4    4    0    0 -0.36334708148E+02  0.57524281704E+01 -0.49512636425E+01  0.37118950116E+02  0.00000000000E+00 0. -1.
         11    1    4    4    0    0  0.42049298681E+02  0.23574474657E+02 -0.31089383697E+02  0.57362436782E+02  0.00000000000E+00 0.  1.
</event>
<event>
 8    1  0.3541538E-009  0.1223341E+03  0.7561462E-02  0.1239295E+00
         -2   -1    0    0    0  501 -0.00000000000E+00  0.00000000000E+00  0.46248439337E+03  0.46248439337E+03  0.00000000000E+00 0.  1.
          2   -1    0    0  501    0  0.00000000000E+00 -0.00000000000E+00 -0.45131313777E+02  0.45131313777E+02  0.00000000000E+00 0. -1.
         25    2    1    2    0    0 -0.42479197250E+02 -0.86660973328E+02  0.27550204002E+03  0.31759351106E+03  0.12509859197E+03 0.  0.
         23    2    1    2    0    0  0.42479197250E+02  0.86660973328E+02  0.14185103958E+03  0.19002219609E+03  0.81682991383E+02 0.  0.
          5    1    3    3  502    0  0.37540762857E+02 -0.20709160284E+02  0.34477404660E+02  0.55175556433E+02  0.41800000000E+01 0.  1.
         -5    1    3    3    0  502 -0.80019960108E+02 -0.65951813044E+02  0.24102463536E+03  0.26241795463E+03  0.41800000000E+01 0.  1.
        -11    1    4    4    0    0  0.24370869745E+02  0.31968601430E+02  0.12300328226E+03  0.12940532530E+03  0.00000000000E+00 0.  1.
         11    1    4    4    0    0  0.18108327505E+02  0.54692371898E+02  0.18847757320E+02  0.60616870794E+02  0.00000000000E+00 0. -1.
</event>
<event>
 8    1  0.3541538E-009  0.9548379E+02  0.7561462E-02  0.1290090E+00
          1   -1    0    0  501    0  0.00000000000E+00  0.00000000000E+00  0.33447301366E+03  0.33447301366E+03  0.00000000000E+00 0. -1.
         -1   -1    0    0    0  501 -0.00000000000E+00 -0.00000000000E+00 -0.40419230888E+02  0.40419230888E+02  0.00000000000E+00 0.  1.
         25    2    1    2    0    0  0.38327495902E+02  0.63348461212E+01  0.12805429875E+03  0.18316648955E+03  0.12507170843E+03 0.  0.
         23    2    1    2    0    0 -0.38327495902E+02 -0.63348461212E+01  0.16599948402E+03  0.19172575500E+03  0.87714361512E+02 0.  0.
          5    1    3    3  502    0  0.65708553344E+02  0.11755046385E+02  0.13790928035E+03  0.15327177530E+03  0.41800000000E+01 0. -1.
         -5    1    3    3    0  502 -0.27381057442E+02 -0.54202002638E+01 -0.98549816023E+01  0.29894714247E+02  0.41800000000E+01 0. -1.
        -11    1    4    4    0    0 -0.37105657600E+02 -0.44350843791E+02  0.96514730493E+02  0.11251186770E+03  0.00000000000E+00 0. -1.
         11    1    4    4    0    0 -0.12218383025E+01  0.38015997670E+02  0.69484753531E+02  0.79213887298E+02  0.00000000000E+00 0.  1.
</event>
<event>
 8    1  0.3541538E-009  0.2631899E+03  0.7561462E-02  0.1105242E+00
         -2   -1    0    0    0  501 -0.00000000000E+00  0.00000000000E+00  0.42768682240E+02  0.42768682240E+02  0.00000000000E+00 0.  1.
          2   -1    0    0  501    0  0.00000000000E+00 -0.00000000000E+00 -0.17531920827E+04  0.17531920827E+04  0.00000000000E+00 0. -1.
         25    2    1    2    0    0 -0.10895564593E+03 -0.22392851139E+03 -0.93078656582E+03  0.97160890260E+03  0.12507964462E+03 0.  0.
         23    2    1    2    0    0  0.10895564593E+03  0.22392851139E+03 -0.77963683468E+03  0.82435186238E+03  0.98524555493E+02 0.  0.
          5    1    3    3  502    0 -0.10671667163E+02 -0.14297636865E+03 -0.60566699150E+03  0.62241955582E+03  0.41800000000E+01 0.  1.
         -5    1    3    3    0  502 -0.98283978770E+02 -0.80952142732E+02 -0.32511957432E+03  0.34918934677E+03  0.41800000000E+01 0.  1.
        -11    1    4    4    0    0  0.25659412442E+02  0.11816986617E+03 -0.49393517323E+03  0.50852185604E+03  0.00000000000E+00 0. -1.
         11    1    4    4    0    0  0.83296233491E+02  0.10575864522E+03 -0.28570166145E+03  0.31583000634E+03  0.00000000000E+00 0.  1.
</event>
<event>
 8    1  0.3541538E-009  0.1751325E+03  0.7561462E-02  0.1172599E+00
          2   -1    0    0  501    0  0.00000000000E+00  0.00000000000E+00  0.50851857821E+03  0.50851857821E+03  0.00000000000E+00 0. -1.
         -2   -1    0    0    0  501 -0.00000000000E+00 -0.00000000000E+00 -0.94244757606E+02  0.94244757606E+02  0.00000000000E+00 0.  1.
         25    2    1    2    0    0  0.81914157276E+01 -0.17453480829E+03  0.31718857478E+03  0.38312586477E+03  0.12508931885E+03 0.  0.
         23    2    1    2    0    0 -0.81914157276E+01  0.17453480829E+03  0.97085245822E+02  0.21963747104E+03  0.91025134617E+02 0.  0.
          5    1    3    3  502    0  0.98798566494E+01 -0.68807081894E+02  0.24579910324E+03  0.25547347737E+03  0.41800000000E+01 0. -1.
         -5    1    3    3    0  502 -0.16884409218E+01 -0.10572772640E+03  0.71389471534E+02  0.12765238740E+03  0.41800000000E+01 0. -1.
        -11    1    4    4    0    0 -0.36737224200E+01  0.12719565364E+03  0.11229232500E+03  0.16971092126E+03  0.00000000000E+00 0. -1.
         11    1    4    4    0    0 -0.45176933076E+01  0.47339154653E+02 -0.15207079177E+02  0.49926549783E+02  0.00000000000E+00 0.  1.
</event>
<event>
 8    1  0.3541538E-009  0.9873205E+02  0.7561462E-02  0.1282985E+00
         -2   -1    0    0    0  501 -0.00000000000E+00  0.00000000000E+00  0.15073014936E+03  0.15073014936E+03  0.00000000000E+00 0.  1.
          2   -1    0    0  501    0  0.00000000000E+00 -0.00000000000E+00 -0.97568989562E+02  0.97568989562E+02  0.00000000000E+00 0. -1.
         25    2    1    2    0    0 -0.28516275493E+02 -0.25458293164E+02  0.70652005108E+02  0.14866073472E+03  0.12508799128E+03 0.  0.
         23    2    1    2    0    0  0.28516275493E+02  0.25458293164E+02 -0.17490845305E+02  0.99638404210E+02  0.90335924555E+02 0.  0.
          5    1    3    3  502    0  0.21827549794E+02 -0.63682244259E+02  0.36768346574E+02  0.76819619068E+02  0.41800000000E+01 0. -1.
         -5    1    3    3    0  502 -0.50343825287E+02  0.38223951096E+02  0.33883658534E+02  0.71841115648E+02  0.41800000000E+01 0. -1.
        -11    1    4    4    0    0 -0.47358316501E+00  0.35863057835E+02  0.27443535261E+02  0.45161165020E+02  0.00000000000E+00 0.  1.
         11    1    4    4    0    0  0.28989858658E+02 -0.10404764672E+02 -0.44934380566E+02  0.54477239190E+02  0.00000000000E+00 0. -1.
</event>
<event>
 8    1  0.3541538E-009  0.1907643E+03  0.7561462E-02  0.1157774E+00
         -1   -1    0    0    0  501 -0.00000000000E+00  0.00000000000E+00  0.79095068566E+02  0.79095068566E+02  0.00000000000E+00 0.  1.
          1   -1    0    0  501    0  0.00000000000E+00 -0.00000000000E+00 -0.57920822879E+03  0.57920822879E+03  0.00000000000E+00 0. -1.
         25    2    1    2    0    0  0.12774468844E+03 -0.11928489743E+03 -0.34835807420E+03  0.40932698965E+03  0.12509054488E+03 0.  0.
         23    2    1    2    0    0 -0.12774468844E+03  0.11928489743E+03 -0.15175508603E+03  0.24897630771E+03  0.91716974882E+02 0.  0.
          5    1    3    3  502    0  0.14531902404E+03 -0.86088965098E+02 -0.23212053337E+03  0.28709988344E+03  0.41800000000E+01 0. -1.
         -5    1    3    3    0  502 -0.17574335597E+02 -0.33195932337E+02 -0.11623754083E+03  0.12222710621E+03  0.41800000000E+01 0. -1.
        -11    1    4    4    0    0 -0.50109035837E+02  0.46997191317E+02 -0.63550386222E+01  0.68993028489E+02  0.00000000000E+00 0.  1.
         11    1    4    4    0    0 -0.77635652607E+02  0.72287706117E+02 -0.14540004741E+03  0.17998327922E+03  0.00000000000E+00 0. -1.
</event>
<event>
 8    1  0.3541538E-009  0.9525425E+02  0.7561462E-02  0.1290604E+00
          1   -1    0    0  501    0  0.00000000000E+00  0.00000000000E+00  0.11619730728E+03  0.11619730728E+03  0.00000000000E+00 0. -1.
         -1   -1    0    0    0  501 -0.00000000000E+00 -0.00000000000E+00 -0.12595080312E+03  0.12595080312E+03  0.00000000000E+00 0.  1.
         25    2    1    2    0    0 -0.23398014895E+02  0.31008060508E+02 -0.42489199772E+02  0.13770186264E+03  0.12508998345E+03 0.  0.
         23    2    1    2    0    0  0.23398014895E+02 -0.31008060508E+02  0.32735703934E+02  0.10444624777E+03  0.91260207338E+02 0.  0.
          5    1    3    3  502    0  0.10629131086E+02  0.51533770815E+02  0.25668776501E+02  0.58694688424E+02  0.41800000000E+01 0.  1.
         -5    1    3    3    0  502 -0.34027145982E+02 -0.20525710307E+02 -0.68157976273E+02  0.79007174212E+02  0.41800000000E+01 0.  1.
        -11    1    4    4    0    0 -0.13353192777E+02 -0.53189563139E+02  0.95729394795E+01  0.55669368189E+02  0.00000000000E+00 0.  1.
         11    1    4    4    0    0  0.36751207672E+02  0.22181502632E+02  0.23162764454E+02  0.48776879580E+02  0.00000000000E+00 0. -1.
</event>
<event>
 8    1  0.3541538E-009  0.1002340E+03  0.7561462E-02  0.1279805E+00
          4   -1    0    0  501    0  0.00000000000E+00  0.00000000000E+00  0.48245746683E+03  0.48245746683E+03  0.00000000000E+00 0. -1.
         -4   -1    0    0    0  501 -0.00000000000E+00 -0.00000000000E+00 -0.26909152695E+02  0.26909152695E+02  0.00000000000E+00 0.  1.
         25    2    1    2    0    0  0.26288695730E+02  0.10887132957E+02  0.30928883875E+03  0.33483869995E+03  0.12509094298E+03 0.  0.
         23    2    1    2    0    0 -0.26288695730E+02 -0.10887132957E+02  0.14625947538E+03  0.17452791958E+03  0.90876484233E+02 0.  0.
          5    1    3    3  502    0 -0.45060896189E+02  0.16145764143E+02  0.18722380673E+03  0.19329096273E+03  0.41800000000E+01 0. -1.
         -5    1    3    3    0  502  0.71349591919E+02 -0.52586311865E+01  0.12206503202E+03  0.14154773722E+03  0.41800000000E+01 0. -1.
        -11    1    4    4    0    0 -0.45859772307E+02  0.15046365300E+02  0.12901069134E+03  0.13774349460E+03  0.00000000000E+00 0. -1.
         11    1    4    4    0    0  0.19571076577E+02 -0.25933498257E+02  0.17248784045E+02  0.36784424982E+02  0.00000000000E+00 0.  1.
</event>
<event>
 8    1  0.3541538E-009  0.9884671E+02  0.7561462E-02  0.1282740E+00
         -1   -1    0    0    0  501 -0.00000000000E+00  0.00000000000E+00  0.16790412411E+03  0.16790412411E+03  0.00000000000E+00 0.  1.
          1   -1    0    0  501    0  0.00000000000E+00 -0.00000000000E+00 -0.77032143431E+02  0.77032143431E+02  0.00000000000E+00 0. -1.
         25    2    1    2    0    0  0.21523305601E+02  0.28351256377E+02  0.46321682971E+02  0.13805986011E+03  0.12509108777E+03 0.  0.
         23    2    1    2    0    0 -0.21523305601E+02 -0.28351256377E+02  0.44550297712E+02  0.10687640743E+03  0.90392427876E+02 0.  0.
          5    1    3    3  502    0 -0.25349764243E+02 -0.21035370528E+02 -0.23318369130E+02  0.40574821002E+02  0.41800000000E+01 0.  1.
         -5    1    3    3    0  502  0.46873069844E+02  0.49386626905E+02  0.69640052101E+02  0.97485039110E+02  0.41800000000E+01 0.  1.
        -11    1    4    4    0    0  0.32014221562E+02  0.61227630840E+01  0.22001634384E+02  0.39325189454E+02  0.00000000000E+00 0.  1.
         11    1    4    4    0    0 -0.53537527163E+02 -0.34474019461E+02  0.22548663329E+02  0.67551217979E+02  0.00000000000E+00 0. -1.
</event>
<event>
 8    1  0.3541538E-009  0.1094318E+03  0.7561462E-02  0.1261626E+00
          4   -1    0    0  501    0  0.00000000000E+00  0.00000000000E+00  0.23070306646E+03  0.23070306646E+03  0.00000000000E+00 0. -1.
         -4   -1    0    0    0  501 -0.00000000000E+00 -0.00000000000E+00 -0.67483639475E+02  0.67483639475E+02  0.00000000000E+00 0.  1.
         25    2    1    2    0    0 -0.99915547237E+00  0.48754688551E+02  0.13665719827E+03  0.19157371579E+03  0.12508909135E+03 0.  0.
         23    2    1    2    0    0  0.99915547237E+00 -0.48754688551E+02  0.26562228720E+02  0.10661299015E+03  0.91009668206E+02 0.  0.
          5    1    3    3  502    0 -0.34052628425E+02  0.73605924607E+02  0.49743815891E+02  0.95233047097E+02  0.41800000000E+01 0. -1.
         -5    1    3    3    0  502  0.33053472952E+02 -0.24851236056E+02  0.86913382375E+02  0.96340668690E+02  0.41800000000E+01 0. -1.
        -11    1    4    4    0    0 -0.62395238293E+01  0.23071570080E+02  0.24741183345E+02  0.34399929606E+02  0.00000000000E+00 0. -1.
         11    1    4    4    0    0  0.72386793017E+01 -0.71826258631E+02  0.18210453753E+01  0.72213060545E+02  0.00000000000E+00 0.  1.
</event>
<event>
 8    1  0.3541538E-009  0.1188862E+03  0.7561462E-02  0.1244946E+00
          1   -1    0    0  501    0  0.00000000000E+00  0.00000000000E+00  0.12159067798E+04  0.12159067798E+04  0.00000000000E+00 0. -1.
         -1   -1    0    0    0  501 -0.00000000000E+00 -0.00000000000E+00 -0.19584266803E+02  0.19584266803E+02  0.00000000000E+00 0.  1.
         25    2    1    2    0    0 -0.90869864983E+02  0.47193957432E+02  0.48479235398E+03  0.51103366881E+03  0.12508869733E+03 0.  0.
         23    2    1    2    0    0  0.90869864983E+02 -0.47193957432E+02  0.71153015905E+03  0.72445737782E+03  0.89881717099E+02 0.  0.
          5    1    3    3  502    0 -0.21345684075E+02  0.27682240652E+02  0.19683837477E+02  0.40334483187E+02  0.41800000000E+01 0. -1.
         -5    1    3    3    0  502 -0.69524180908E+02  0.19511716780E+02  0.46510851650E+03  0.47069918562E+03  0.41800000000E+01 0. -1.
        -11    1    4    4    0    0 -0.14861786887E+02 -0.10967173100E+02  0.45355082852E+02  0.48971778973E+02  0.00000000000E+00 0.  1.
         11    1    4    4    0    0  0.10573165187E+03 -0.36226784332E+02  0.66617507619E+03  0.67548559885E+03  0.00000000000E+00 0. -1.
</event>
<event>
 8    1  0.3541538E-009  0.1237422E+03  0.7561462E-02  0.1237048E+00
         -1   -1    0    0    0  501 -0.00000000000E+00  0.00000000000E+00  0.61359890243E+02  0.61359890243E+02  0.00000000000E+00 0.  1.
          1   -1    0    0  501    0  0.00000000000E+00 -0.00000000000E+00 -0.31143709546E+03  0.31143709546E+03  0.00000000000E+00 0. -1.
         25    2    1    2    0    0  0.10570781818E+02 -0.68430012028E+02 -0.72846775200E+02  0.16046292778E+03  0.12508913047E+03 0.  0.
         23    2    1    2    0    0 -0.10570781818E+02  0.68430012028E+02 -0.17723043002E+03  0.21233405792E+03  0.94237566044E+02 0.  0.
          5    1    3    3  502    0  0.42980899462E+02  0.13700874496E+02  0.94814530034E+00  0.45314931976E+02  0.41800000000E+01 0. -1.
         -5    1    3    3    0  502 -0.32410117644E+02 -0.82130886525E+02 -0.73794920500E+02  0.11514799581E+03  0.41800000000E+01 0. -1.
        -11    1    4    4    0    0 -0.49922234326E+02  0.48794508598E+02 -0.83772152536E+02  0.10904543590E+03  0.00000000000E+00 0.  1.
         11    1    4    4    0    0  0.39351452508E+02  0.19635503431E+02 -0.93458277486E+02  0.10328862203E+03  0.00000000000E+00 0. -1.
</event>
<event>
 8    1  0.3541538E-009  0.1052986E+03  0.7561462E-02  0.1269532E+00
         -3   -1    0    0    0  501 -0.00000000000E+00  0.00000000000E+00  0.13261941916E+03  0.13261941916E+03  0.00000000000E+00 0.  1.
          3   -1    0    0  501    0  0.00000000000E+00 -0.00000000000E+00 -0.12617401645E+03  0.12617401645E+03  0.00000000000E+00 0. -1.
         25    2    1    2    0    0  0.51339110229E+02  0.27093244697E+02  0.40563054464E+02  0.14374352687E+03  0.12508833672E+03 0.  0.
         23    2    1    2    0    0 -0.51339110229E+02 -0.27093244697E+02 -0.34117651757E+02  0.11504990873E+03  0.93288365782E+02 0.  0.
          5    1    3    3  502    0  0.57748835845E+02  0.62615435512E+02 -0.50430842694E+01  0.85431410528E+02  0.41800000000E+01 0.  1.
         -5    1    3    3    0  502 -0.64097256166E+01 -0.35522190814E+02  0.45606138733E+02  0.58312116347E+02  0.41800000000E+01 0.  1.
        -11    1    4    4    0    0 -0.62518010697E+02 -0.38162865585E+02 -0.53046401449E+02  0.90436865701E+02  0.00000000000E+00 0. -1.
         11    1    4    4    0    0  0.11178900468E+02  0.11069620888E+02  0.18928749692E+02  0.24613043030E+02  0.00000000000E+00 0.  1.
</event>
<event>
 8    1  0.3541538E-009  0.1058500E+03  0.7561462E-02  0.1268454E+00
          2   -1    0    0  501    0  0.00000000000E+00  0.00000000000E+00  0.32376542563E+02  0.32376542563E+02  0.00000000000E+00 0. -1.
         -2   -1    0    0    0  501 -0.00000000000E+00 -0.00000000000E+00 -0.64279435189E+03  0.64279435189E+03  0.00000000000E+00 0.  1.
         25    2    1    2    0    0  0.26886394571E+02 -0.89255643727E+02 -0.31026366853E+03  0.34727460548E+03  0.12508660781E+03 0.  0.
         23    2    1    2    0    0 -0.26886394571E+02  0.89255643727E+02 -0.30015414080E+03  0.32789628897E+03  0.93455978577E+02 0.  0.
          5    1    3    3  502    0  0.30933887387E+02 -0.91078010815E+02 -0.10707809409E+03  0.14399756969E+03  0.41800000000E+01 0.  1.
         -5    1    3    3    0  502 -0.40474928155E+01  0.18223670875E+01 -0.20318557444E+03  0.20327703579E+03  0.41800000000E+01 0.  1.
        -11    1    4    4    0    0 -0.33513968943E+02  0.18543350086E+02 -0.20827370237E+03  0.21176632652E+03  0.00000000000E+00 0.  1.
         11    1    4    4    0    0  0.66275743713E+01  0.70712293641E+02 -0.91880438426E+02  0.11612996245E+03  0.00000000000E+00 0. -1.
</event>
<event>
 8    1  0.3541538E-009  0.1719907E+03  0.7561462E-02  0.1175788E+00
         -3   -1    0    0    0  501 -0.00000000000E+00  0.00000000000E+00  0.17975309866E+03  0.17975309866E+03  0.00000000000E+00 0.  1.
          3   -1    0    0  501    0  0.00000000000E+00 -0.00000000000E+00 -0.23132177624E+03  0.23132177624E+03  0.00000000000E+00 0. -1.
         25    2    1    2    0    0 -0.10895239205E+03 -0.10787537051E+03 -0.10995455428E+03  0.22637538924E+03  0.12509234009E+03 0.  0.
         23    2    1    2    0    0  0.10895239205E+03  0.10787537051E+03  0.58385876696E+02  0.18469948567E+03  0.84836726192E+02 0.  0.
          5    1    3    3  502    0  0.18027240169E+02  0.59981397960E+01 -0.34961009765E+02  0.40008794945E+02  0.41800000000E+01 0.  1.
         -5    1    3    3    0  502 -0.12697963222E+03 -0.11387351031E+03 -0.74993544512E+02  0.18636659429E+03  0.41800000000E+01 0.  1.
        -11    1    4    4    0    0  0.46319305228E+02  0.36621073922E+02  0.67159588137E+02  0.89425898769E+02  0.00000000000E+00 0.  1.
         11    1    4    4    0    0  0.62633086825E+02  0.71254296592E+02 -0.87737114410E+01  0.95273586899E+02  0.00000000000E+00 0. -1.
</event>
<event>
 8    1  0.3541538E-009  0.1633129E+03  0.7561462E-02  0.1185006E+00
          4   -1    0    0  501    0  0.00000000000E+00  0.00000000000E+00  0.16166561858E+03  0.16166561858E+03  0.00000000000E+00 0. -1.
         -4   -1    0    0    0  501 -0.00000000000E+00 -0.00000000000E+00 -0.19011535806E+03  0.19011535806E+03  0.00000000000E+00 0.  1.
         25    2    1    2    0    0  0.55383291322E+02 -0.12540335523E+03 -0.80055832510E+01  0.18575512228E+03  0.12509022995E+03 0.  0.
         23    2    1    2    0    0 -0.55383291322E+02  0.12540335523E+03 -0.20444156229E+02  0.16602585436E+03  0.91396445947E+02 0.  0.
          5    1    3    3  502    0 -0.12465049153E+02  0.20349246691E+02 -0.58159059742E+01  0.24915185201E+02  0.41800000000E+01 0.  1.
         -5    1    3    3    0  502  0.67848340475E+02 -0.14575260192E+03 -0.21896772768E+01  0.16083993708E+03  0.41800000000E+01 0.  1.
        -11    1    4    4    0    0 -0.41998602049E+02  0.12000439471E+03  0.14743480335E+02  0.12799338864E+03  0.00000000000E+00 0. -1.
         11    1    4    4    0    0 -0.13384689273E+02  0.53989605195E+01 -0.35187636564E+02  0.38032465718E+02  0.00000000000E+00 0.  1.
</event>
<event>
 8    1  0.3541538E-009  0.7367551E+02  0.7561462E-02  0.1348022E+00
         -2   -1    0    0    0  501 -0.00000000000E+00  0.00000000000E+00  0.17768391918E+02  0.17768391918E+02  0.00000000000E+00 0.  1.
          2   -1    0    0  501    0  0.00000000000E+00 -0.00000000000E+00 -0.77987445484E+03  0.77987445484E+03  0.00000000000E+00 0. -1.
         25    2    1    2    0    0 -0.44652933424E+02  0.45231173850E+01 -0.39013429104E+03  0.41214844394E+03  0.12508889534E+03 0.  0.
         23    2    1    2    0    0  0.44652933424E+02 -0.45231173850E+01 -0.37197177188E+03  0.38549440282E+03  0.90711589545E+02 0.  0.
          5    1    3    3  502    0 -0.32491282715E+02 -0.15556643245E+02 -0.20327485025E+02  0.41573689384E+02  0.41800000000E+01 0.  1.
         -5    1    3    3    0  502 -0.12161650709E+02  0.20079760630E+02 -0.36980680602E+03  0.37057475455E+03  0.41800000000E+01 0.  1.
        -11    1    4    4    0    0  0.33192103006E+02 -0.38822558944E+02 -0.30624839493E+03  0.31047864046E+03  0.00000000000E+00 0.  1.
         11    1    4    4    0    0  0.11460830418E+02  0.34299441559E+02 -0.65723376953E+02  0.75015762365E+02  0.00000000000E+00 0. -1.
</event>
<event>
 8    1  0.3541538E-009  0.1168643E+03  0.7561462E-02  0.1248362E+00
          2   -1    0    0  501    0  0.00000000000E+00  0.00000000000E+00  0.19453580299E+03  0.19453580299E+03  0.00000000000E+00 0. -1.
         -2   -1    0    0    0  501 -0.00000000000E+00 -0.00000000000E+00 -0.88198658567E+02  0.88198658567E+02  0.00000000000E+00 0.  1.
         25    2    1    2    0    0  0.34900341614E+02  0.34846566328E+02  0.84481560750E+00  0.13446118205E+03  0.12508708461E+03 0.  0.
         23    2    1    2    0    0 -0.34900341614E+02 -0.34846566328E+02  0.10549232881E+03  0.14827327950E+03  0.91782443560E+02 0.  0.
          5    1    3    3  502    0  0.75649457659E+02  0.48890484100E+02 -0.70457281844E+01  0.90444649180E+02  0.41800000000E+01 0. -1.
         -5    1    3    3    0  502 -0.40749116045E+02 -0.14043917772E+02  0.78905437919E+01  0.44016532873E+02  0.41800000000E+01 0. -1.
        -11    1    4    4    0    0 -0.38330279971E+02  0.21403098030E+02  0.66726270951E+02  0.79873012983E+02  0.00000000000E+00 0. -1.
         11    1    4    4    0    0  0.34299383574E+01 -0.56249664358E+02  0.38766057861E+02  0.68400266517E+02  0.00000000000E+00 0.  1.
</event>
<event>
 8    1  0.3541538E-009  0.9752426E+02  0.7561462E-02  0.1285590E+00
          2   -1    0    0  501    0  0.00000000000E+00  0.00000000000E+00  0.13224797985E+03  0.13224797985E+03  0.00000000000E+00 0. -1.
         -2   -1    0    0    0  501 -0.00000000000E+00 -0.00000000000E+00 -0.12843580755E+03  0.12843580755E+03  0.00000000000E+00 0.  1.
         25    2    1    2    0    0  0.64874142725E+02  0.20694635520E+02 -0.16975487428E+02  0.14342415564E+03  0.12508156904E+03 0.  0.
         23    2    1    2    0    0 -0.64874142725E+02 -0.20694635520E+02  0.20787659721E+02  0.11725963176E+03  0.93170661209E+02 0.  0.
          5    1    3    3  502    0  0.13105845437E+02 -0.15169065822E+02  0.48399473530E+02  0.52553260418E+02  0.41800000000E+01 0.  1.
         -5    1    3    3    0  502  0.51768297288E+02  0.35863701342E+02 -0.65374960959E+02  0.90870895222E+02  0.41800000000E+01 0.  1.
        -11    1    4    4    0    0 -0.73818909550E+02 -0.44382857434E+02  0.28604910479E+02  0.90759629487E+02  0.00000000000E+00 0. -1.
         11    1    4    4    0    0  0.89447668251E+01  0.23688221914E+02 -0.78172507581E+01  0.26500002272E+02  0.00000000000E+00 0.  1.
</event>
<event>
 8    1  0.3541538E-009  0.1032702E+03  0.7561462E-02  0.1273566E+00
         -4   -1    0    0    0  501 -0.00000000000E+00  0.00000000000E+00  0.14513906741E+03  0.14513906741E+03  0.00000000000E+00 0.  1.
          4   -1    0    0  501    0  0.00000000000E+00 -0.00000000000E+00 -0.11541713200E+03  0.11541713200E+03  0.00000000000E+00 0. -1.
         25    2    1    2    0    0 -0.62592309961E+02  0.22844233476E+02  0.39680678841E+02  0.14717815533E+03  0.12508875595E+03 0.  0.
         23    2    1    2    0    0  0.62592309961E+02 -0.22844233476E+02 -0.99587434239E+01  0.11337804408E+03  0.91190723425E+02 0.  0.
          5    1    3    3  502    0  0.26429825156E+02  0.19039678560E+02 -0.21283185318E+02  0.39134273913E+02  0.41800000000E+01 0.  1.
         -5    1    3    3    0  502 -0.89022135117E+02  0.38045549155E+01  0.60963864160E+02  0.10804388142E+03  0.41800000000E+01 0.  1.
        -11    1    4    4    0    0 -0.83928761786E+01 -0.87555044718E+01  0.28823798094E+02  0.31271561612E+02  0.00000000000E+00 0.  1.
         11    1    4    4    0    0  0.70985186140E+02 -0.14088729004E+02 -0.38782541517E+02  0.82106482465E+02  0.00000000000E+00 0. -1.
</event>
<event>
 8    1  0.3541538E-009  0.1835148E+03  0.7561462E-02  0.1164444E+00
         -1   -1    0    0    0  501 -0.00000000000E+00  0.00000000000E+00  0.37455132066E+02  0.37455132066E+02  0.00000000000E+00 0.  1.
          1   -1    0    0  501    0  0.00000000000E+00 -0.00000000000E+00 -0.12324388807E+04  0.12324388807E+04  0.00000000000E+00 0. -1.
         25    2    1    2    0    0 -0.15103413963E+03  0.10277647813E+03 -0.71682135726E+03  0.75023653904E+03  0.12509072905E+03 0.  0.
         23    2    1    2    0    0  0.15103413963E+03 -0.10277647813E+03 -0.47816239142E+03  0.51965747378E+03  0.89611950608E+02 0.  0.
          5    1    3    3  502    0 -0.36421690302E+02  0.14939708595E+02 -0.40094046838E+03  0.40289014135E+03  0.41800000000E+01 0.  1.
         -5    1    3    3    0  502 -0.11461244933E+03  0.87836769530E+02 -0.31588088888E+03  0.34734639768E+03  0.41800000000E+01 0.  1.
        -11    1    4    4    0    0  0.97936628279E+02 -0.60577788065E+02 -0.39963125866E+03  0.41589228709E+03  0.00000000000E+00 0. -1.
         11    1    4    4    0    0  0.53097511352E+02 -0.42198690060E+02 -0.78531132762E+02  0.10376518668E+03  0.00000000000E+00 0.  1.
</event>
<event>
 8    1  0.3541538E-009  0.1019535E+03  0.7561462E-02  0.1276241E+00
          1   -1    0    0  501    0  0.00000000000E+00  0.00000000000E+00  0.14713900168E+03  0.14713900168E+03  0.00000000000E+00 0. -1.
         -1   -1    0    0    0  501 -0.00000000000E+00 -0.00000000000E+00 -0.91778859657E+02  0.91778859657E+02  0.00000000000E+00 0.  1.
         25    2    1    2    0    0  0.17726085487E+02  0.33230802731E+02  0.22287816287E+02  0.13251865209E+03  0.12508375610E+03 0.  0.
         23    2    1    2    0    0 -0.17726085487E+02 -0.33230802731E+02  0.33072325741E+02  0.10639920925E+03  0.93853676769E+02 0.  0.
          5    1    3    3  502    0  0.43833964845E+02  0.69913724048E+02  0.12215116044E+01  0.82633587450E+02  0.41800000000E+01 0.  1.
         -5    1    3    3    0  502 -0.26107879358E+02 -0.36682921317E+02  0.21066304682E+02  0.49885064638E+02  0.41800000000E+01 0.  1.
        -11    1    4    4    0    0 -0.41692656945E+02 -0.31077109683E+02 -0.13721747112E+02  0.53780579517E+02  0.00000000000E+00 0.  1.
         11    1    4    4    0    0  0.23966571458E+02 -0.21536930482E+01  0.46794072853E+02  0.52618629737E+02  0.00000000000E+00 0. -1.
</event>
<event>
 8    1  0.3541538E-009  0.1580536E+03  0.7561462E-02  0.1190912E+00
         -2   -1    0    0    0  501 -0.00000000000E+00  0.00000000000E+00  0.94789142677E+02  0.94789142677E+02  0.00000000000E+00 0. -1.
          2   -1    0    0  501    0  0.00000000000E+00 -0.00000000000E+00 -0.34060344207E+03  0.34060344207E+03  0.00000000000E+00 0.  1.
         25    2    1    2    0    0  0.12538313691E+03 -0.51284829826E+02 -0.18003926120E+03  0.25770435957E+03  0.12508531719E+03 0.  0.
         23    2    1    2    0    0 -0.12538313691E+03  0.51284829826E+02 -0.65775038196E+02  0.17768822518E+03  0.94316938717E+02 0.  0.
          5    1    3    3  502    0  0.88196565851E+02 -0.87805528088E+02 -0.15746414183E+03  0.20075077423E+03  0.41800000000E+01 0.  1.
         -5    1    3    3    0  502  0.37186571054E+02  0.36520698262E+02 -0.22575119369E+02  0.56953585338E+02  0.41800000000E+01 0.  1.
        -11    1    4    4    0    0 -0.67436621024E+02  0.10063311055E+02 -0.80055022962E+02  0.10515595459E+03  0.00000000000E+00 0.  1.
         11    1    4    4    0    0 -0.57946515881E+02  0.41221518771E+02  0.14279984765E+02  0.72532270594E+02  0.00000000000E+00 0. -1.
</event>
<event>
 8    1  0.3541538E-009  0.8801861E+02  0.7561462E-02  0.1307722E+00
          2   -1    0    0  501    0  0.00000000000E+00  0.00000000000E+00  0.23963643175E+03  0.23963643175E+03  0.00000000000E+00 0. -1.
         -2   -1    0    0    0  501 -0.00000000000E+00 -0.00000000000E+00 -0.55806307742E+02  0.55806307742E+02  0.00000000000E+00 0.  1.
         25    2    1    2    0    0  0.14056803651E+02 -0.33096556753E+02  0.85103666064E+02  0.15552180158E+03  0.12510563933E+03 0.  0.
         23    2    1    2    0    0 -0.14056803651E+02  0.33096556753E+02  0.98726457942E+02  0.13992093791E+03  0.92401188142E+02 0.  0.
          5    1    3    3  502    0 -0.11001109333E+02  0.22092618322E+02 -0.21383676180E+02  0.32921758730E+02  0.41800000000E+01 0. -1.
         -5    1    3    3    0  502  0.25057912984E+02 -0.55189175074E+02  0.10648734224E+03  0.12260004285E+03  0.41800000000E+01 0. -1.
        -11    1    4    4    0    0 -0.21231279726E+01 -0.27958937794E+02  0.66818302675E+01  0.28824585525E+02  0.00000000000E+00 0.  1.
         11    1    4    4    0    0 -0.11933675678E+02  0.61055494547E+02  0.92044627675E+02  0.11109635239E+03  0.00000000000E+00 0. -1.
</event>
<event>
 8    1  0.3541538E-009  0.9899637E+02  0.7561462E-02  0.1282421E+00
         -3   -1    0    0    0  501 -0.00000000000E+00  0.00000000000E+00  0.34141771211E+02  0.34141771211E+02  0.00000000000E+00 0.  1.
          3   -1    0    0  501    0  0.00000000000E+00 -0.00000000000E+00 -0.59185058315E+03  0.59185058315E+03  0.00000000000E+00 0. -1.
         25    2    1    2    0    0 -0.25068817746E+02  0.30678776903E+02 -0.47097677350E+03  0.48891334376E+03  0.12508998183E+03 0.  0.
         23    2    1    2    0    0  0.25068817746E+02 -0.30678776903E+02 -0.86732038443E+02  0.13707901060E+03  0.98481346864E+02 0.  0.
          5    1    3    3  502    0  0.21722633358E+02 -0.39297890735E+02 -0.12726556383E+03  0.13501923253E+03  0.41800000000E+01 0. -1.
         -5    1    3    3    0  502 -0.46791451104E+02  0.69976667638E+02 -0.34371120967E+03  0.35389411123E+03  0.41800000000E+01 0. -1.
        -11    1    4    4    0    0  0.28177706764E+02  0.84062553211E+01  0.11296490296E+02  0.31500142540E+02  0.00000000000E+00 0.  1.
         11    1    4    4    0    0 -0.31088890179E+01 -0.39085032224E+02 -0.98028528739E+02  0.10557886806E+03  0.00000000000E+00 0. -1.
</event>
<event>
 8    1  0.3541538E-009  0.1071741E+03  0.7561462E-02  0.1265894E+00
          1   -1    0    0  501    0  0.00000000000E+00  0.00000000000E+00  0.27857534942E+02  0.27857534942E+02  0.00000000000E+00 0. -1.
         -1   -1    0    0    0  501 -0.00000000000E+00 -0.00000000000E+00 -0.80101350026E+03  0.80101350026E+03  0.00000000000E+00 0.  1.
         25    2    1    2    0    0  0.39145409974E+02 -0.72960604111E+02 -0.56814467855E+03  0.58761465510E+03  0.12508794605E+03 0.  0.
         23    2    1    2    0    0 -0.39145409974E+02  0.72960604111E+02 -0.20501128677E+03  0.24125638011E+03  0.96537041408E+02 0.  0.
          5    1    3    3  502    0  0.82315152101E+01 -0.44861647778E+02 -0.50136230483E+02  0.67907579040E+02  0.41800000000E+01 0. -1.
         -5    1    3    3    0  502  0.30913894764E+02 -0.28098956333E+02 -0.51800844807E+03  0.51970707606E+03  0.41800000000E+01 0. -1.
        -11    1    4    4    0    0  0.29469895220E+02  0.41944342857E+02 -0.94899265587E+02  0.10785950691E+03  0.00000000000E+00 0.  1.
         11    1    4    4    0    0 -0.68615305194E+02  0.31016261254E+02 -0.11011202118E+03  0.13339687320E+03  0.00000000000E+00 0. -1.
</event>
<event>
 8    1  0.3541538E-009  0.1683007E+03  0.7561462E-02  0.1179632E+00
         -2   -1    0    0    0  501 -0.00000000000E+00  0.00000000000E+00  0.66849297033E+02  0.66849297033E+02  0.00000000000E+00 0. -1.
          2   -1    0    0  501    0  0.00000000000E+00 -0.00000000000E+00 -0.45688724567E+03  0.45688724567E+03  0.00000000000E+00 0.  1.
         25    2    1    2    0    0  0.13267527612E+03  0.32075470003E+02 -0.18286780835E+03  0.26022960503E+03  0.12508895768E+03 0.  0.
         23    2    1    2    0    0 -0.13267527612E+03 -0.32075470003E+02 -0.20717014029E+03  0.26350693768E+03  0.88796815869E+02 0.  0.
          5    1    3    3  502    0  0.82693428908E+02  0.72498180414E+02 -0.70472782671E+02  0.13068310849E+03  0.41800000000E+01 0. -1.
         -5    1    3    3    0  502  0.49981847208E+02 -0.40422710411E+02 -0.11239502568E+03  0.12954649654E+03  0.41800000000E+01 0. -1.
        -11    1    4    4    0    0 -0.90083235016E+02  0.22550137477E+02 -0.13067245134E+03  0.16030841360E+03  0.00000000000E+00 0.  1.
         11    1    4    4    0    0 -0.42592041100E+02 -0.54625607480E+02 -0.76497688953E+02  0.10319852408E+03  0.00000000000E+00 0. -1.
</event>
<event>
 8    1  0.3541538E-009  0.1124372E+03  0.7561462E-02  0.1256122E+00
          2   -1    0    0  501    0  0.00000000000E+00  0.00000000000E+00  0.21987773813E+04  0.21987773813E+04  0.00000000000E+00 0. -1.
         -2   -1    0    0    0  501 -0.00000000000E+00 -0.00000000000E+00 -0.10017566358E+02  0.10017566358E+02  0.00000000000E+00 0.  1.
         25    2    1    2    0    0  0.26367801964E+02  0.19996295806E+02  0.18933738153E+04  0.18977900518E+04  0.12509022165E+03 0.  0.
         23    2    1    2    0    0 -0.26367801964E+02 -0.19996295806E+02  0.29538599964E+03  0.31100489583E+03  0.91520727791E+02 0.  0.
          5    1    3    3  502    0  0.59833601890E+02 -0.30858898386E+02  0.11061674749E+04  0.11082221286E+04  0.41800000000E+01 0. -1.
         -5    1    3    3    0  502 -0.33465799926E+02  0.50855194192E+02  0.78720634041E+03  0.78956792318E+03  0.41800000000E+01 0. -1.
        -11    1    4    4    0    0  0.91514831946E+01  0.32082366423E+02  0.12339364983E+03  0.12782417885E+03  0.00000000000E+00 0.  1.
         11    1    4    4    0    0 -0.35519285158E+02 -0.52078662228E+02  0.17199234981E+03  0.18318071697E+03  0.00000000000E+00 0. -1.
</event>
<event>
 8    1  0.3541538E-009  0.1227225E+03  0.7561462E-02  0.1238672E+00
          2   -1    0    0  501    0  0.00000000000E+00  0.00000000000E+00  0.77113491172E+03  0.77113491172E+03  0.00000000000E+00 0. -1.
         -2   -1    0    0    0  501 -0.00000000000E+00 -0.00000000000E+00 -0.21242748125E+02  0.21242748125E+02  0.00000000000E+00 0.  1.
         25    2    1    2    0    0 -0.13688317509E+02  0.63403380609E+02  0.46792918756E+03  0.48868503146E+03  0.12509187304E+03 0.  0.
         23    2    1    2    0    0  0.13688317509E+02 -0.63403380609E+02  0.28196297604E+03  0.30369262838E+03  0.92296987860E+02 0.  0.
          5    1    3    3  502    0 -0.67829018624E+02  0.37786719681E+02  0.21207041441E+03  0.22587595051E+03  0.41800000000E+01 0. -1.
         -5    1    3    3    0  502  0.54140701115E+02  0.25616660928E+02  0.25585877315E+03  0.26280908095E+03  0.41800000000E+01 0. -1.
        -11    1    4    4    0    0 -0.29372754075E+02  0.18897104501E+01  0.12375342158E+03  0.12720549925E+03  0.00000000000E+00 0. -1.
         11    1    4    4    0    0  0.43061071584E+02 -0.65293091059E+02  0.15820955445E+03  0.17648712912E+03  0.00000000000E+00 0.  1.
</event>
<event>
 8    1  0.3541538E-009  0.1135088E+03  0.7561462E-02  0.1254207E+00
         -1   -1    0    0    0  501 -0.00000000000E+00  0.00000000000E+00  0.39115280560E+02  0.39115280560E+02  0.00000000000E+00 0.  1.
          1   -1    0    0  501    0  0.00000000000E+00 -0.00000000000E+00 -0.48035929497E+03  0.48035929497E+03  0.00000000000E+00 0. -1.
         25    2    1    2    0    0 -0.44091559721E+02  0.91395876989E+01 -0.37169971951E+03  0.39476120429E+03  0.12509248271E+03 0.  0.
         23    2    1    2    0    0  0.44091559721E+02 -0.91395876989E+01 -0.69544294907E+02  0.12471337124E+03  0.93217049463E+02 0.  0.
          5    1    3    3  502    0  0.33840815906E+02 -0.23821023609E+02 -0.18682755294E+03  0.19140179969E+03  0.41800000000E+01 0. -1.
         -5    1    3    3    0  502 -0.77932375627E+02  0.32960611308E+02 -0.18487216657E+03  0.20335940460E+03  0.41800000000E+01 0. -1.
        -11    1    4    4    0    0  0.30650643116E+02  0.39639131983E+02 -0.20158975851E+02  0.54010249167E+02  0.00000000000E+00 0.  1.
         11    1    4    4    0    0  0.13440916605E+02 -0.48778719682E+02 -0.49385319055E+02  0.70703122075E+02  0.00000000000E+00 0. -1.
</event>
<event>
 8    1  0.3541538E-009  0.1249848E+03  0.7561462E-02  0.1235093E+00
         -2   -1    0    0    0  501 -0.00000000000E+00  0.00000000000E+00  0.35302753423E+02  0.35302753423E+02  0.00000000000E+00 0. -1.
          2   -1    0    0  501    0  0.00000000000E+00 -0.00000000000E+00 -0.59873833534E+03  0.59873833534E+03  0.00000000000E+00 0.  1.
         25    2    1    2    0    0 -0.57059940568E+02 -0.41494897807E+02 -0.15760652937E+03  0.21322555291E+03  0.12509058699E+03 0.  0.
         23    2    1    2    0    0  0.57059940568E+02  0.41494897807E+02 -0.40582905254E+03  0.42081553585E+03  0.86086189152E+02 0.  0.
          5    1    3    3  502    0 -0.28149254697E+02  0.44343820276E+02 -0.64089921119E+02  0.82968339297E+02  0.41800000000E+01 0.  1.
         -5    1    3    3    0  502 -0.28910685870E+02 -0.85838718083E+02 -0.93516608253E+02  0.13025721362E+03  0.41800000000E+01 0.  1.
        -11    1    4    4    0    0  0.52006442320E+02 -0.11589672271E+02 -0.14236273850E+03  0.15200703885E+03  0.00000000000E+00 0.  1.
         11    1    4    4    0    0  0.50534982482E+01  0.53084570078E+02 -0.26346631404E+03  0.26880849700E+03  0.00000000000E+00 0. -1.
</event>
<event>
 8    1  0.3541538E-009  0.2675214E+03  0.7561462E-02  0.1102707E+00
          1   -1    0    0  501    0  0.00000000000E+00  0.00000000000E+00  0.72788031205E+03  0.72788031205E+03  0.00000000000E+00 0. -1.
         -1   -1    0    0    0  501 -0.00000000000E+00 -0.00000000000E+00 -0.14109511622E+03  0.14109511622E+03  0.00000000000E+00 0.  1.
         25    2    1    2    0    0 -0.36024470423E+02 -0.25260939367E+03  0.51661050314E+03  0.58961182301E+03  0.12508565718E+03 0.  0.
         23    2    1    2    0    0  0.36024470423E+02  0.25260939367E+03  0.70174692682E+02  0.27936360526E+03  0.89500101739E+02 0.  0.
          5    1    3    3  502    0  0.22889729848E+02 -0.39965635340E+02  0.18917152643E+03  0.19474221564E+03  0.41800000000E+01 0.  1.
         -5    1    3    3    0  502 -0.58914200271E+02 -0.21264375834E+03  0.32743897672E+03  0.39486960737E+03  0.41800000000E+01 0.  1.
        -11    1    4    4    0    0 -0.14333170000E+02  0.17501259490E+03  0.28467059664E+02  0.17789103862E+03  0.00000000000E+00 0. -1.
         11    1    4    4    0    0  0.50357640423E+02  0.77596798771E+02  0.41707633018E+02  0.10147256664E+03  0.00000000000E+00 0.  1.
</event>
<event>
 8    1  0.3541538E-009  0.1288195E+03  0.7561462E-02  0.1229218E+00
         -1   -1    0    0    0  501 -0.00000000000E+00  0.00000000000E+00  0.18591739232E+02  0.18591739232E+02  0.00000000000E+00 0.  1.
          1   -1    0    0  501    0  0.00000000000E+00 -0.00000000000E+00 -0.12886723512E+04  0.12886723512E+04  0.00000000000E+00 0. -1.
         25    2    1    2    0    0  0.67596470508E+02  0.80190464797E+02 -0.69856675899E+03  0.71738620550E+03  0.12509059762E+03 0.  0.
         23    2    1    2    0    0 -0.67596470508E+02 -0.80190464797E+02 -0.57151385296E+03  0.58987788491E+03  0.10162697235E+03 0.  0.
          5    1    3    3  502    0  0.56080098415E+02  0.20583972308E+02 -0.58915372535E+03  0.59218938005E+03  0.41800000000E+01 0.  1.
         -5    1    3    3    0  502  0.11516372093E+02  0.59606492488E+02 -0.10941303364E+03  0.12519682545E+03  0.41800000000E+01 0.  1.
        -11    1    4    4    0    0 -0.89267130156E+02 -0.65551664406E+02 -0.52464105774E+03  0.53620320841E+03  0.00000000000E+00 0.  1.
         11    1    4    4    0    0  0.21670659649E+02 -0.14638800390E+02 -0.46872795220E+02  0.53674676508E+02  0.00000000000E+00 0. -1.
</event>
<event>
 8    1  0.3541538E-009  0.1361958E+03  0.7561462E-02  0.1218541E+00
         -2   -1    0    0    0  501 -0.00000000000E+00  0.00000000000E+00  0.34529284884E+02  0.34529284884E+02  0.00000000000E+00 0.  1.
          2   -1    0    0  501    0  0.00000000000E+00 -0.00000000000E+00 -0.73988101791E+03  0.73988101791E+03  0.00000000000E+00 0. -1.
         25    2    1    2    0    0 -0.10287545667E+03 -0.26136561142E+02 -0.25920702979E+03  0.30676058092E+03  0.12508912941E+03 0.  0.
         23    2    1    2    0    0  0.10287545667E+03  0.26136561142E+02 -0.44614470323E+03  0.46764972188E+03  0.91567935095E+02 0.  0.
          5    1    3    3  502    0 -0.11815273165E+03  0.13917248098E+01 -0.13927075988E+03  0.18269050838E+03  0.41800000000E+01 0. -1.
         -5    1    3    3    0  502  0.15277274980E+02 -0.27528285952E+02 -0.11993626991E+03  0.12407007254E+03  0.41800000000E+01 0. -1.
        -11    1    4    4    0    0  0.35376336730E+02  0.40094410882E+02 -0.31488910199E+03  0.31939660852E+03  0.00000000000E+00 0. -1.
         11    1    4    4    0    0  0.67499119941E+02 -0.13957849740E+02 -0.13125560125E+03  0.14825311336E+03  0.00000000000E+00 0.  1.
</event>
<event>
 8    1  0.3541538E-009  0.1376725E+03  0.7561462E-02  0.1216496E+00
          4   -1    0    0  501    0  0.00000000000E+00  0.00000000000E+00  0.20913647942E+03  0.20913647942E+03  0.00000000000E+00 0. -1.
         -4   -1    0    0    0  501 -0.00000000000E+00 -0.00000000000E+00 -0.98039784321E+02  0.98039784321E+02  0.00000000000E+00 0.  1.
         25    2    1    2    0    0 -0.59571886929E+02 -0.72244249611E+02  0.74165180857E+02  0.17296050649E+03  0.12508725530E+03 0.  0.
         23    2    1    2    0    0  0.59571886929E+02  0.72244249611E+02  0.36931514240E+02  0.13421575725E+03  0.88780017099E+02 0.  0.
          5    1    3    3  502    0 -0.56630904076E+02 -0.10650816711E+03  0.65163658531E+02  0.13716713801E+03  0.41800000000E+01 0. -1.
         -5    1    3    3    0  502 -0.29409828531E+01  0.34263917500E+02  0.90015223259E+01  0.35793368475E+02  0.41800000000E+01 0. -1.
        -11    1    4    4    0    0  0.68489851762E+02  0.81962708635E+02  0.13951068332E+02  0.10771897562E+03  0.00000000000E+00 0.  1.
         11    1    4    4    0    0 -0.89179648330E+01 -0.97184590247E+01  0.22980445908E+02  0.26496781629E+02  0.00000000000E+00 0. -1.
</event>
<event>
 8    1  0.3541538E-009  0.1112982E+03  0.7561462E-02  0.1258185E+00
         -1   -1    0    0    0  501 -0.00000000000E+00  0.00000000000E+00  0.33070342734E+03  0.33070342734E+03  0.00000000000E+00 0.  1.
          1   -1    0    0  501    0  0.00000000000E+00 -0.00000000000E+00 -0.39016699160E+02  0.39016699160E+02  0.00000000000E+00 0. -1.
         25    2    1    2    0    0  0.12399808232E+02  0.29786398738E+02  0.14424077712E+03  0.19362950999E+03  0.12508397403E+03 0.  0.
         23    2    1    2    0    0 -0.12399808232E+02 -0.29786398738E+02  0.14744595105E+03  0.17609061650E+03  0.90700672245E+02 0.  0.
          5    1    3    3  502    0 -0.14761064950E+02 -0.44686734605E+02  0.35994875641E+02  0.59396100550E+02  0.41800000000E+01 0. -1.
         -5    1    3    3    0  502  0.27160873182E+02  0.74473133343E+02  0.10824590148E+03  0.13423340944E+03  0.41800000000E+01 0. -1.
        -11    1    4    4    0    0  0.29598007494E+02  0.16157666513E+02  0.45308086063E+02  0.56479508651E+02  0.00000000000E+00 0. -1.
         11    1    4    4    0    0 -0.41997815727E+02 -0.45944065252E+02  0.10213786499E+03  0.11961110785E+03  0.00000000000E+00 0.  1.
</event>
<event>
 8    1  0.3541538E-009  0.2122307E+03  0.7561462E-02  0.1139812E+00
          3   -1    0    0  501    0  0.00000000000E+00  0.00000000000E+00  0.22765572674E+03  0.22765572674E+03  0.00000000000E+00 0. -1.
         -3   -1    0    0    0  501 -0.00000000000E+00 -0.00000000000E+00 -0.22451522881E+03  0.22451522881E+03  0.00000000000E+00 0.  1.
         25    2    1    2    0    0 -0.19175775023E+03 -0.31406079484E+02 -0.33553833187E+02  0.23351812309E+03  0.12508987764E+03 0.  0.
         23    2    1    2    0    0  0.19175775023E+03  0.31406079484E+02  0.36694331113E+02  0.21865283247E+03  0.93301718145E+02 0.  0.
          5    1    3    3  502    0 -0.12206752799E+02 -0.46044048370E+02 -0.22873043301E+02  0.53006676127E+02  0.41800000000E+01 0.  1.
         -5    1    3    3    0  502 -0.17955099743E+03  0.14637968886E+02 -0.10680789886E+02  0.18051144696E+03  0.41800000000E+01 0.  1.
        -11    1    4    4    0    0  0.12168484476E+03  0.57299158734E+01  0.65912506457E+02  0.13850809322E+03  0.00000000000E+00 0. -1.
         11    1    4    4    0    0  0.70072905466E+02  0.25676163610E+02 -0.29218175343E+02  0.80144739245E+02  0.00000000000E+00 0.  1.
</event>
<event>
 8    1  0.3541538E-009  0.1542996E+03  0.7561462E-02  0.1195287E+00
          1   -1    0    0  501    0  0.00000000000E+00  0.00000000000E+00  0.75151496344E+03  0.75151496344E+03  0.00000000000E+00 0. -1.
         -1   -1    0    0    0  501 -0.00000000000E+00 -0.00000000000E+00 -0.38306753681E+02  0.38306753681E+02  0.00000000000E+00 0.  1.
         25    2    1    2    0    0 -0.64193536478E+02  0.10301684116E+03  0.48860383571E+03  0.51875973482E+03  0.12507867329E+03 0.  0.
         23    2    1    2    0    0  0.64193536478E+02 -0.10301684116E+03  0.22460437405E+03  0.27106198230E+03  0.91072464111E+02 0.  0.
          5    1    3    3  502    0 -0.99053953473E+02  0.74947953887E+02  0.29703545131E+03  0.32198821908E+03  0.41800000000E+01 0. -1.
         -5    1    3    3    0  502  0.34860416995E+02  0.28068887269E+02  0.19156838439E+03  0.19677151574E+03  0.41800000000E+01 0. -1.
        -11    1    4    4    0    0  0.46694146935E+02 -0.14149200702E+02  0.32352168797E+02  0.58542344200E+02  0.00000000000E+00 0.  1.
         11    1    4    4    0    0  0.17499389542E+02 -0.88867640454E+02  0.19225220525E+03  0.21251963810E+03  0.00000000000E+00 0. -1.
</event>
<event>
 8    1  0.3541538E-009  0.1015787E+03  0.7561462E-02  0.1277011E+00
         -2   -1    0    0    0  501 -0.00000000000E+00  0.00000000000E+00  0.44511754747E+02  0.44511754747E+02  0.00000000000E+00 0.  1.
          2   -1    0    0  501    0  0.00000000000E+00 -0.00000000000E+00 -0.38487783819E+03  0.38487783819E+03  0.00000000000E+00 0. -1.
         25    2    1    2    0    0 -0.71453036511E+02  0.12036991241E+02 -0.16121637079E+03  0.21653355758E+03  0.12508252380E+03 0.  0.
         23    2    1    2    0    0  0.71453036511E+02 -0.12036991241E+02 -0.17914971265E+03  0.21285603535E+03  0.89233663273E+02 0.  0.
          5    1    3    3  502    0 -0.91354278138E+02  0.36800188229E+02 -0.72958073288E+02  0.12263853736E+03  0.41800000000E+01 0.  1.
         -5    1    3    3    0  502  0.19901241628E+02 -0.24763196989E+02 -0.88258297506E+02  0.93895020219E+02  0.41800000000E+01 0.  1.
        -11    1    4    4    0    0  0.38516342152E+02 -0.47854349587E+01 -0.95965692217E+01  0.39981284889E+02  0.00000000000E+00 0.  1.
         11    1    4    4    0    0  0.32936694359E+02 -0.72515562822E+01 -0.16955314342E+03  0.17287475047E+03  0.00000000000E+00 0. -1.
</event>
<event>
 8    1  0.3541538E-009  0.1400168E+03  0.7561462E-02  0.1213306E+00
         -1   -1    0    0    0  501 -0.00000000000E+00  0.00000000000E+00  0.14075973084E+03  0.14075973084E+03  0.00000000000E+00 0.  1.
          1   -1    0    0  501    0  0.00000000000E+00 -0.00000000000E+00 -0.17297969576E+03  0.17297969576E+03  0.00000000000E+00 0. -1.
         25    2    1    2    0    0  0.72018398646E+02  0.55129201841E+02 -0.83400410861E+02  0.17558219866E+03  0.12509037260E+03 0.  0.
         23    2    1    2    0    0 -0.72018398646E+02 -0.55129201841E+02  0.51180445934E+02  0.13815722794E+03  0.90786028361E+02 0.  0.
          5    1    3    3  502    0  0.23703844393E+02 -0.40599874114E+02 -0.25351345419E+02  0.53575975321E+02  0.41800000000E+01 0. -1.
         -5    1    3    3    0  502  0.48314554253E+02  0.95729075955E+02 -0.58049065442E+02  0.12200622334E+03  0.41800000000E+01 0. -1.
        -11    1    4    4    0    0  0.26767398614E+01 -0.50621599940E+02  0.67759018734E+01  0.51143173181E+02  0.00000000000E+00 0.  1.
         11    1    4    4    0    0 -0.74695138508E+02 -0.45076019008E+01  0.44404544061E+02  0.87014054754E+02  0.00000000000E+00 0. -1.
</event>
<event>
 8    1  0.3541538E-009  0.1112694E+03  0.7561462E-02  0.1258237E+00
          1   -1    0    0  501    0  0.00000000000E+00  0.00000000000E+00  0.34712087436E+03  0.34712087436E+03  0.00000000000E+00 0. -1.
         -1   -1    0    0    0  501 -0.00000000000E+00 -0.00000000000E+00 -0.45833619293E+02  0.45833619293E+02  0.00000000000E+00 0.  1.
         25    2    1    2    0    0  0.50563791406E+02 -0.38506887854E+02  0.15603893180E+03  0.20984068645E+03  0.12508192531E+03 0.  0.
         23    2    1    2    0    0 -0.50563791406E+02  0.38506887854E+02  0.14524832327E+03  0.18311380721E+03  0.91619395128E+02 0.  0.
          5    1    3    3  502    0  0.51283853071E+02 -0.65741650790E+02  0.43817414376E+02  0.94283807926E+02  0.41800000000E+01 0. -1.
         -5    1    3    3    0  502 -0.72006166550E+00  0.27234762936E+02  0.11222151742E+03  0.11555687852E+03  0.41800000000E+01 0. -1.
        -11    1    4    4    0    0  0.26886463683E+02  0.13637180369E+02  0.40552190720E+02  0.50530533245E+02  0.00000000000E+00 0.  1.
         11    1    4    4    0    0 -0.77450255089E+02  0.24869707486E+02  0.10469613255E+03  0.13258327396E+03  0.00000000000E+00 0. -1.
</event>
<event>
 8    1  0.3541538E-009  0.1761230E+03  0.7561462E-02  0.1171609E+00
         -2   -1    0    0    0  501 -0.00000000000E+00  0.00000000000E+00  0.31609101291E+02  0.31609101291E+02  0.00000000000E+00 0.  1.
          2   -1    0    0  501    0  0.00000000000E+00 -0.00000000000E+00 -0.12204658049E+04  0.12204658049E+04  0.00000000000E+00 0. -1.
         25    2    1    2    0    0 -0.15207353055E+03 -0.22685752520E+02 -0.80395657532E+03  0.82803037197E+03  0.12508844812E+03 0.  0.
         23    2    1    2    0    0  0.15207353055E+03  0.22685752520E+02 -0.38490012833E+03  0.42404453426E+03  0.89580445316E+02 0.  0.
          5    1    3    3  502    0 -0.11206191872E+03 -0.72974436881E+02 -0.53729913355E+03  0.55370657697E+03  0.41800000000E+01 0. -1.
         -5    1    3    3    0  502 -0.40011611833E+02  0.50288684361E+02 -0.26665744176E+03  0.27432379500E+03  0.41800000000E+01 0. -1.
        -11    1    4    4    0    0  0.10963138992E+03  0.20670071191E+02 -0.15931744490E+03  0.19449509441E+03  0.00000000000E+00 0.  1.
         11    1    4    4    0    0  0.42442140632E+02  0.20156813293E+01 -0.22558268343E+03  0.22954943985E+03  0.00000000000E+00 0. -1.
</event>
<event>
 8    1  0.3541538E-009  0.2698936E+03  0.7561462E-02  0.1101340E+00
          2   -1    0    0  501    0  0.00000000000E+00  0.00000000000E+00  0.96359889943E+03  0.96359889943E+03  0.00000000000E+00 0. -1.
         -2   -1    0    0    0  501 -0.00000000000E+00 -0.00000000000E+00 -0.88296770248E+02  0.88296770248E+02  0.00000000000E+00 0.  1.
         25    2    1    2    0    0  0.13023250424E+03  0.22006841945E+03  0.29012554902E+03  0.40646135273E+03  0.12508949863E+03 0.  0.
         23    2    1    2    0    0 -0.13023250424E+03 -0.22006841945E+03  0.58517658016E+03  0.64543431695E+03  0.93612035142E+02 0.  0.
          5    1    3    3  502    0  0.12180489564E+03  0.22618020246E+03  0.29746087012E+03  0.39305770345E+03  0.41800000000E+01 0. -1.
         -5    1    3    3    0  502  0.84276086016E+01 -0.61117830074E+01 -0.73353211052E+01  0.13403649279E+02  0.41800000000E+01 0. -1.
        -11    1    4    4    0    0  0.43737710067E+01 -0.69658543444E+02  0.17083818052E+03  0.18454573002E+03  0.00000000000E+00 0. -1.
         11    1    4    4    0    0 -0.13460627525E+03 -0.15040987601E+03  0.41433839965E+03  0.46088858693E+03  0.00000000000E+00 0.  1.
</event>
<event>
 8    1  0.3541538E-009  0.5135323E+02  0.7561462E-02  0.1438176E+00
          2   -1    0    0  501    0  0.00000000000E+00  0.00000000000E+00  0.84650376927E+02  0.84650376927E+02  0.00000000000E+00 0. -1.
         -2   -1    0    0    0  501 -0.00000000000E+00 -0.00000000000E+00 -0.14450737595E+03  0.14450737595E+03  0.00000000000E+00 0.  1.
         25    2    1    2    0    0  0.17880443122E+02 -0.59686894180E+00 -0.18326896901E+02  0.12768925431E+03  0.12509438044E+03 0.  0.
         23    2    1    2    0    0 -0.17880443122E+02  0.59686894180E+00 -0.41530102121E+02  0.10146849857E+03  0.90835237216E+02 0.  0.
          5    1    3    3  502    0 -0.14178898541E+02 -0.52474974900E+01  0.49759476478E+02  0.52173319744E+02  0.41800000000E+01 0. -1.
         -5    1    3    3    0  502  0.32059341663E+02  0.46506285482E+01 -0.68086373379E+02  0.75515934568E+02  0.41800000000E+01 0. -1.
        -11    1    4    4    0    0 -0.25717336064E+02 -0.19832356438E+02 -0.62959370312E+02  0.70841979407E+02  0.00000000000E+00 0.  1.
         11    1    4    4    0    0  0.78368929423E+01  0.20429225380E+02  0.21429268191E+02  0.30626519159E+02  0.00000000000E+00 0. -1.
</event>
<event>
 8    1  0.3541538E-009  0.7650585E+02  0.7561462E-02  0.1339270E+00
          2   -1    0    0  501    0  0.00000000000E+00  0.00000000000E+00  0.53013562698E+03  0.53013562698E+03  0.00000000000E+00 0. -1.
         -2   -1    0    0    0  501 -0.00000000000E+00 -0.00000000000E+00 -0.28267013862E+02  0.28267013862E+02  0.00000000000E+00 0.  1.
         25    2    1    2    0    0 -0.98979798882E+00  0.66177595310E+01  0.41062332479E+03  0.42930661854E+03  0.12509150017E+03 0.  0.
         23    2    1    2    0    0  0.98979798882E+00 -0.66177595310E+01  0.91245288323E+02  0.12909602230E+03  0.91078569881E+02 0.  0.
          5    1    3    3  502    0  0.22779142538E+02  0.23580051531E+02  0.39412413934E+03  0.39550754452E+03  0.41800000000E+01 0. -1.
         -5    1    3    3    0  502 -0.23768940527E+02 -0.16962292000E+02  0.16499185453E+02  0.33799074015E+02  0.41800000000E+01 0. -1.
        -11    1    4    4    0    0  0.41673168221E+02 -0.21809165072E+02  0.56248318761E+02  0.73322343076E+02  0.00000000000E+00 0. -1.
         11    1    4    4    0    0 -0.40683370233E+02  0.15191405541E+02  0.34996969562E+02  0.55773679225E+02  0.00000000000E+00 0.  1.
</event>
<event>
 8    1  0.3541538E-009  0.2116612E+03  0.7561462E-02  0.1140257E+00
         -1   -1    0    0    0  501 -0.00000000000E+00  0.00000000000E+00  0.17271883373E+03  0.17271883373E+03  0.00000000000E+00 0.  1.
          1   -1    0    0  501    0  0.00000000000E+00 -0.00000000000E+00 -0.36796779520E+03  0.36796779520E+03  0.00000000000E+00 0. -1.
         25    2    1    2    0    0 -0.17361700332E+03  0.82181699629E+02 -0.23167631118E+03  0.32591121360E+03  0.12509000916E+03 0.  0.
         23    2    1    2    0    0  0.17361700332E+03 -0.82181699629E+02  0.36427349713E+02  0.21477541532E+03  0.88909120011E+02 0.  0.
          5    1    3    3  502    0  0.18935731856E+02  0.10235783531E+02 -0.35564271144E+02  0.41780653267E+02  0.41800000000E+01 0.  1.
         -5    1    3    3    0  502 -0.19255273518E+03  0.71945916099E+02 -0.19611204004E+03  0.28413056034E+03  0.41800000000E+01 0.  1.
        -11    1    4    4    0    0  0.76334956232E+02 -0.15600013838E+02 -0.25026871919E+02  0.81833552365E+02  0.00000000000E+00 0. -1.
         11    1    4    4    0    0  0.97282047092E+02 -0.66581685792E+02  0.61454221631E+02  0.13294186295E+03  0.00000000000E+00 0.  1.
</event>
<event>
 8    1  0.3541538E-009  0.3662400E+03  0.7561462E-02  0.1056140E+00
          2   -1    0    0  501    0  0.00000000000E+00  0.00000000000E+00  0.12886599124E+04  0.12886599124E+04  0.00000000000E+00 0. -1.
         -2   -1    0    0    0  501 -0.00000000000E+00 -0.00000000000E+00 -0.11868549893E+03  0.11868549893E+03  0.00000000000E+00 0.  1.
         25    2    1    2    0    0 -0.13464611595E+03 -0.33085669747E+03  0.80076107628E+03  0.88569821245E+03  0.12508913403E+03 0.  0.
         23    2    1    2    0    0  0.13464611595E+03  0.33085669747E+03  0.36921333724E+03  0.52164719893E+03  0.90562580288E+02 0.  0.
          5    1    3    3  502    0 -0.14638030512E+03 -0.29656810881E+03  0.63507015645E+03  0.71603869512E+03  0.41800000000E+01 0.  1.
         -5    1    3    3    0  502  0.11734189178E+02 -0.34288588666E+02  0.16569091983E+03  0.16965951733E+03  0.41800000000E+01 0.  1.
        -11    1    4    4    0    0  0.43859297065E+02  0.20748817834E+03  0.17967730233E+03  0.27795487954E+03  0.00000000000E+00 0.  1.
         11    1    4    4    0    0  0.90786818881E+02  0.12336851913E+03  0.18953603492E+03  0.24369231939E+03  0.00000000000E+00 0. -1.
</event>
<event>
 8    1  0.3541538E-009  0.9456779E+02  0.7561462E-02  0.1292153E+00
          1   -1    0    0  501    0  0.00000000000E+00  0.00000000000E+00  0.52638422127E+02  0.52638422127E+02  0.00000000000E+00 0. -1.
         -1   -1    0    0    0  501 -0.00000000000E+00 -0.00000000000E+00 -0.30558553327E+03  0.30558553327E+03  0.00000000000E+00 0.  1.
         25    2    1    2    0    0 -0.36472646743E+01 -0.58271066621E+02 -0.18306571964E+03  0.22927951180E+03  0.12508883675E+03 0.  0.
         23    2    1    2    0    0  0.36472646743E+01  0.58271066621E+02 -0.69881391506E+02  0.12894444360E+03  0.91293159170E+02 0.  0.
          5    1    3    3  502    0  0.44345436273E+02 -0.38118063664E+02 -0.16319662881E+03  0.17340737167E+03  0.41800000000E+01 0.  1.
         -5    1    3    3    0  502 -0.47992700947E+02 -0.20153002957E+02 -0.19869090835E+02  0.55872140133E+02  0.41800000000E+01 0.  1.
        -11    1    4    4    0    0 -0.17678876732E+02  0.53624471692E+02 -0.85247879564E+02  0.10225129641E+03  0.00000000000E+00 0.  1.
         11    1    4    4    0    0  0.21326141407E+02  0.46465949293E+01  0.15366488058E+02  0.26693147191E+02  0.00000000000E+00 0. -1.
</event>
<event>
 8    1  0.3541538E-009  0.9732950E+02  0.7561462E-02  0.1286014E+00
          1   -1    0    0  501    0  0.00000000000E+00  0.00000000000E+00  0.27809848312E+03  0.27809848312E+03  0.00000000000E+00 0. -1.
         -1   -1    0    0    0  501 -0.00000000000E+00 -0.00000000000E+00 -0.48707806574E+02  0.48707806574E+02  0.00000000000E+00 0.  1.
         25    2    1    2    0    0 -0.38619263468E+02  0.14349457533E+02  0.13491191108E+03  0.18853722516E+03  0.12509079534E+03 0.  0.
         23    2    1    2    0    0  0.38619263468E+02 -0.14349457533E+02  0.94478765460E+02  0.13826906453E+03  0.92166928126E+02 0.  0.
          5    1    3    3  502    0 -0.38871234911E+02  0.66699373841E+02  0.95525258126E+02  0.12289152418E+03  0.41800000000E+01 0.  1.
         -5    1    3    3    0  502  0.25197144342E+00 -0.52349916308E+02  0.39386652958E+02  0.65645700989E+02  0.41800000000E+01 0.  1.
        -11    1    4    4    0    0  0.33872112570E+02  0.13584565213E+02  0.10251479708E+03  0.10881702092E+03  0.00000000000E+00 0. -1.
         11    1    4    4    0    0  0.47471508978E+01 -0.27934022746E+02 -0.80360316183E+01  0.29452043607E+02  0.00000000000E+00 0.  1.
</event>
<event>
 8    1  0.3541538E-009  0.1385025E+03  0.7561462E-02  0.1215358E+00
          1   -1    0    0  501    0  0.00000000000E+00  0.00000000000E+00  0.18680881352E+03  0.18680881352E+03  0.00000000000E+00 0. -1.
         -1   -1    0    0    0  501 -0.00000000000E+00 -0.00000000000E+00 -0.19213689329E+03  0.19213689329E+03  0.00000000000E+00 0.  1.
         25    2    1    2    0    0 -0.58857118074E+02  0.81445306153E+02  0.11600982725E+03  0.19799718898E+03  0.12508840307E+03 0.  0.
         23    2    1    2    0    0  0.58857118074E+02 -0.81445306153E+02 -0.12133790701E+03  0.18094851783E+03  0.89005506473E+02 0.  0.
          5    1    3    3  502    0  0.16382937803E+02 -0.16633675766E+02  0.55391975945E+02  0.60256312696E+02  0.41800000000E+01 0.  1.
         -5    1    3    3    0  502 -0.75240055877E+02  0.98078981919E+02  0.60617851300E+02  0.13774087628E+03  0.41800000000E+01 0.  1.
        -11    1    4    4    0    0 -0.16357766168E+01 -0.67503102446E+02 -0.86594337628E+02  0.10980857851E+03  0.00000000000E+00 0.  1.
         11    1    4    4    0    0  0.60492894690E+02 -0.13942203706E+02 -0.34743569386E+02  0.71139939316E+02  0.00000000000E+00 0. -1.
</event>
<event>
 8    1  0.3541538E-009  0.1781766E+03  0.7561462E-02  0.1169579E+00
         -2   -1    0    0    0  501 -0.00000000000E+00  0.00000000000E+00  0.45979163837E+02  0.45979163837E+02  0.00000000000E+00 0.  1.
          2   -1    0    0  501    0  0.00000000000E+00 -0.00000000000E+00 -0.80385971180E+03  0.80385971180E+03  0.00000000000E+00 0. -1.
         25    2    1    2    0    0  0.11644434378E+03 -0.10570145894E+03 -0.36878563865E+03  0.41998006599E+03  0.12509326493E+03 0.  0.
         23    2    1    2    0    0 -0.11644434378E+03  0.10570145894E+03 -0.38909490932E+03  0.42985880965E+03  0.93014322330E+02 0.  0.
          5    1    3    3  502    0  0.11969247765E+03 -0.12665706992E+03 -0.35133235369E+03  0.39219918118E+03  0.41800000000E+01 0.  1.
         -5    1    3    3    0  502 -0.32481338689E+01  0.20955610974E+02 -0.17453284962E+02  0.27780884811E+02  0.41800000000E+01 0.  1.
        -11    1    4    4    0    0 -0.43004907536E+02  0.19610937628E+02 -0.22889349426E+03  0.23372257628E+03  0.00000000000E+00 0. -1.
         11    1    4    4    0    0 -0.73439436249E+02  0.86090521315E+02 -0.16020141505E+03  0.19613623337E+03  0.00000000000E+00 0.  1.
</event>
<event>
 8    1  0.3541538E-009  0.1138965E+03  0.7561462E-02  0.1253520E+00
         -2   -1    0    0    0  501 -0.00000000000E+00  0.00000000000E+00  0.69164738656E+02  0.69164738656E+02  0.00000000000E+00 0.  1.
          2   -1    0    0  501    0  0.00000000000E+00 -0.00000000000E+00 -0.26947987130E+03  0.26947987130E+03  0.00000000000E+00 0. -1.
         25    2    1    2    0    0  0.78958734152E+02 -0.23654474626E+02 -0.10671796169E+03  0.18392640903E+03  0.12508471019E+03 0.  0.
         23    2    1    2    0    0 -0.78958734152E+02  0.23654474626E+02 -0.93597170948E+02  0.15471820092E+03  0.91560228359E+02 0.  0.
          5    1    3    3  502    0  0.99694345644E+02 -0.37041601656E+02 -0.41800207927E+02  0.11434934451E+03  0.41800000000E+01 0.  1.
         -5    1    3    3    0  502 -0.20735611492E+02  0.13387127030E+02 -0.64917753766E+02  0.69577064526E+02  0.41800000000E+01 0.  1.
        -11    1    4    4    0    0 -0.33998991736E+02 -0.14877994060E+02 -0.87680058328E+02  0.95210707248E+02  0.00000000000E+00 0. -1.
         11    1    4    4    0    0 -0.44959742416E+02  0.38532468685E+02 -0.59171126196E+01  0.59507493670E+02  0.00000000000E+00 0.  1.
</event>
<event>
 8    1  0.3541538E-009  0.1344555E+03  0.7561462E-02  0.1220990E+00
         -1   -1    0    0    0  501 -0.00000000000E+00  0.00000000000E+00  0.12505495389E+03  0.12505495389E+03  0.00000000000E+00 0.  1.
          1   -1    0    0  501    0  0.00000000000E+00 -0.00000000000E+00 -0.16819046465E+03  0.16819046465E+03  0.00000000000E+00 0. -1.
         25    2    1    2    0    0 -0.82658109744E+02 -0.20748763383E+01 -0.73070797239E+02  0.16680933065E+03  0.12509733477E+03 0.  0.
         23    2    1    2    0    0  0.82658109744E+02  0.20748763383E+01  0.29935286484E+02  0.12643608789E+03  0.90847645680E+02 0.  0.
          5    1    3    3  502    0 -0.47713151005E+02 -0.61478591159E+02 -0.55155282640E+02  0.95476382173E+02  0.41800000000E+01 0.  1.
         -5    1    3    3    0  502 -0.34944958739E+02  0.59403714821E+02 -0.17915514599E+02  0.71332948482E+02  0.41800000000E+01 0.  1.
        -11    1    4    4    0    0  0.93419400536E+02 -0.21636092255E+02  0.29734997979E+02  0.10039658853E+03  0.00000000000E+00 0.  1.
         11    1    4    4    0    0 -0.10761290792E+02  0.23710968593E+02  0.20028850492E+00  0.26039499354E+02  0.00000000000E+00 0. -1.
</event>
<event>
 8    1  0.3541538E-009  0.8449127E+02  0.7561462E-02  0.1316768E+00
         -2   -1    0    0    0  501 -0.00000000000E+00  0.00000000000E+00  0.69583329123E+02  0.69583329123E+02  0.00000000000E+00 0. -1.
          2   -1    0    0  501    0  0.00000000000E+00 -0.00000000000E+00 -0.21617041433E+03  0.21617041433E+03  0.00000000000E+00 0.  1.
         25    2    1    2    0    0  0.29258671220E+02 -0.27217649904E+02 -0.13046003251E+03  0.18510815720E+03  0.12509332304E+03 0.  0.
         23    2    1    2    0    0 -0.29258671220E+02  0.27217649904E+02 -0.16127052693E+02  0.10064558625E+03  0.90953734920E+02 0.  0.
          5    1    3    3  502    0 -0.21701588407E+02 -0.56736291922E+01  0.16411082368E+02  0.28105960793E+02  0.41800000000E+01 0. -1.
         -5    1    3    3    0  502  0.50960259628E+02 -0.21544020712E+02 -0.14687111488E+03  0.15700219641E+03  0.41800000000E+01 0. -1.
        -11    1    4    4    0    0  0.53609692204E+01  0.49317761238E+02 -0.29173948543E+02  0.57550854365E+02  0.00000000000E+00 0.  1.
         11    1    4    4    0    0 -0.34619640441E+02 -0.22100111334E+02  0.13046895850E+02  0.43094731889E+02  0.00000000000E+00 0. -1.
</event>
<event>
 8    1  0.3541538E-009  0.1136020E+03  0.7561462E-02  0.1254041E+00
         -1   -1    0    0    0  501 -0.00000000000E+00  0.00000000000E+00  0.53266057703E+02  0.53266057703E+02  0.00000000000E+00 0.  1.
          1   -1    0    0  501    0  0.00000000000E+00 -0.00000000000E+00 -0.30363135421E+03  0.30363135421E+03  0.00000000000E+00 0. -1.
         25    2    1    2    0    0 -0.51971233969E+02 -0.37073138440E+02 -0.16429624667E+03  0.21614186199E+03  0.12509444863E+03 0.  0.
         23    2    1    2    0    0  0.51971233969E+02  0.37073138440E+02 -0.86069049829E+02  0.14075554992E+03  0.91262351169E+02 0.  0.
          5    1    3    3  502    0 -0.50549661090E+02 -0.80999542716E+02 -0.12227218195E+03  0.15519069893E+03  0.41800000000E+01 0. -1.
         -5    1    3    3    0  502 -0.14215728798E+01  0.43926404275E+02 -0.42024064722E+02  0.60951163055E+02  0.41800000000E+01 0. -1.
        -11    1    4    4    0    0  0.58602947647E+02  0.47291238700E+02 -0.98075920282E+02  0.12365133590E+03  0.00000000000E+00 0. -1.
         11    1    4    4    0    0 -0.66317136780E+01 -0.10218100259E+02  0.12006870452E+02  0.17104214021E+02  0.00000000000E+00 0.  1.
</event>
<event>
 8    1  0.3541538E-009  0.1386715E+03  0.7561462E-02  0.1215128E+00
         -3   -1    0    0    0  501 -0.00000000000E+00  0.00000000000E+00  0.39231180628E+03  0.39231180628E+03  0.00000000000E+00 0.  1.
          3   -1    0    0  501    0  0.00000000000E+00 -0.00000000000E+00 -0.60813004328E+02  0.60813004328E+02  0.00000000000E+00 0. -1.
         25    2    1    2    0    0 -0.42365675341E+02 -0.93795230427E+02  0.23001745052E+03  0.28133952476E+03  0.12510597488E+03 0.  0.
         23    2    1    2    0    0  0.42365675341E+02  0.93795230427E+02  0.10148135143E+03  0.17178528585E+03  0.92840314776E+02 0.  0.
          5    1    3    3  502    0 -0.70036098255E+02 -0.16431161305E+02  0.15079159682E+03  0.16712455293E+03  0.41800000000E+01 0.  1.
         -5    1    3    3    0  502  0.27670422914E+02 -0.77364069122E+02  0.79225853698E+02  0.11421497183E+03  0.41800000000E+01 0.  1.
        -11    1    4    4    0    0 -0.18533737832E+02  0.18695311485E+02 -0.62199484634E+01  0.27049988326E+02  0.00000000000E+00 0. -1.
         11    1    4    4    0    0  0.60899413173E+02  0.75099918942E+02  0.10770129990E+03  0.14473529752E+03  0.00000000000E+00 0.  1.
</event>
<event>
 8    1  0.3541538E-009  0.1555598E+03  0.7561462E-02  0.1193803E+00
          2   -1    0    0  501    0  0.00000000000E+00  0.00000000000E+00  0.23309235339E+03  0.23309235339E+03  0.00000000000E+00 0. -1.
         -2   -1    0    0    0  501 -0.00000000000E+00 -0.00000000000E+00 -0.14895985817E+03  0.14895985817E+03  0.00000000000E+00 0.  1.
         25    2    1    2    0    0  0.44752606122E+02 -0.13691257524E+03 -0.36496607753E+01  0.19080994397E+03  0.12508903102E+03 0.  0.
         23    2    1    2    0    0 -0.44752606122E+02  0.13691257524E+03  0.87782155988E+02  0.19124226759E+03  0.90111314431E+02 0.  0.
          5    1    3    3  502    0  0.46457481275E+02 -0.22765808258E+02 -0.45624850622E+02  0.69106287603E+02  0.41800000000E+01 0. -1.
         -5    1    3    3    0  502 -0.17048751522E+01 -0.11414676698E+03  0.41975189847E+02  0.12170365637E+03  0.41800000000E+01 0. -1.
        -11    1    4    4    0    0 -0.63576925470E+00  0.20153874348E+02  0.60102162240E+02  0.63394422150E+02  0.00000000000E+00 0. -1.
         11    1    4    4    0    0 -0.44116836868E+02  0.11675870089E+03  0.27679993748E+02  0.12784784544E+03  0.00000000000E+00 0.  1.
</event>
<event>
 8    1  0.3541538E-009  0.1356140E+03  0.7561462E-02  0.1219356E+00
         -2   -1    0    0    0  501 -0.00000000000E+00  0.00000000000E+00  0.39581585504E+03  0.39581585504E+03  0.00000000000E+00 0.  1.
          2   -1    0    0  501    0  0.00000000000E+00 -0.00000000000E+00 -0.61152729402E+02  0.61152729402E+02  0.00000000000E+00 0. -1.
         25    2    1    2    0    0 -0.47140762438E+01 -0.97272229268E+02  0.99516575886E+02  0.18717689382E+03  0.12509009394E+03 0.  0.
         23    2    1    2    0    0  0.47140762438E+01  0.97272229268E+02  0.23514654975E+03  0.26979169062E+03  0.89496074592E+02 0.  0.
          5    1    3    3  502    0  0.33015139805E+02  0.17414589694E+02  0.20034244562E+02  0.42568894110E+02  0.41800000000E+01 0. -1.
         -5    1    3    3    0  502 -0.37729216049E+02 -0.11468681896E+03  0.79482331324E+02  0.14460799971E+03  0.41800000000E+01 0. -1.
        -11    1    4    4    0    0  0.21924671457E+02  0.10335876399E+02  0.13017334421E+03  0.13241080433E+03  0.00000000000E+00 0. -1.
         11    1    4    4    0    0 -0.17210595213E+02  0.86936352870E+02  0.10497320554E+03  0.13738088629E+03  0.00000000000E+00 0.  1.
</event>
<event>
 8    1  0.3541538E-009  0.1243539E+03  0.7561462E-02  0.1236082E+00
          1   -1    0    0  501    0  0.00000000000E+00  0.00000000000E+00  0.13153806040E+03  0.13153806040E+03  0.00000000000E+00 0. -1.
         -1   -1    0    0    0  501 -0.00000000000E+00 -0.00000000000E+00 -0.19421900696E+03  0.19421900696E+03  0.00000000000E+00 0.  1.
         25    2    1    2    0    0 -0.64984679561E+02  0.74751768809E+02  0.29949283951E+02  0.16234941458E+03  0.12509811064E+03 0.  0.
         23    2    1    2    0    0  0.64984679561E+02 -0.74751768809E+02 -0.92630230502E+02  0.16340765278E+03  0.91163950481E+02 0.  0.
          5    1    3    3  502    0 -0.19569773205E+02  0.94164590638E+02  0.50479184412E+02  0.10869943244E+03  0.41800000000E+01 0. -1.
         -5    1    3    3    0  502 -0.45414906356E+02 -0.19412821829E+02 -0.20529900461E+02  0.53649982140E+02  0.41800000000E+01 0. -1.
        -11    1    4    4    0    0  0.22196027085E+02 -0.80165650661E+01 -0.79656115804E+02  0.83078431128E+02  0.00000000000E+00 0.  1.
         11    1    4    4    0    0  0.42788652476E+02 -0.66735203743E+02 -0.12974114698E+02  0.80329221654E+02  0.00000000000E+00 0. -1.
</event>
<event>
 8    1  0.3541538E-009  0.1171278E+03  0.7561462E-02  0.1247912E+00
         -1   -1    0    0    0  501 -0.00000000000E+00  0.00000000000E+00  0.27969974587E+03  0.27969974587E+03  0.00000000000E+00 0.  1.
          1   -1    0    0  501    0  0.00000000000E+00 -0.00000000000E+00 -0.61149946530E+02  0.61149946530E+02  0.00000000000E+00 0. -1.
         25    2    1    2    0    0  0.58878404310E+02 -0.32855270935E+02  0.15381599384E+03  0.20941341592E+03  0.12509389867E+03 0.  0.
         23    2    1    2    0    0 -0.58878404310E+02  0.32855270935E+02  0.64733805503E+02  0.13143627648E+03  0.92406135496E+02 0.  0.
          5    1    3    3  502    0 -0.26572776986E+02 -0.48161359101E+02  0.61886028524E+02  0.82903449348E+02  0.41800000000E+01 0.  1.
         -5    1    3    3    0  502  0.85451181297E+02  0.15306088166E+02  0.91929965311E+02  0.12650996657E+03  0.41800000000E+01 0.  1.
        -11    1    4    4    0    0 -0.39245177579E+02 -0.13768782192E+02  0.69108576954E+02  0.80658283734E+02  0.00000000000E+00 0.  1.
         11    1    4    4    0    0 -0.19633226731E+02  0.46624053127E+02 -0.43747714516E+01  0.50777992744E+02  0.00000000000E+00 0. -1.
</event>
<event>
 8    1  0.3541538E-009  0.1242888E+03  0.7561462E-02  0.1236185E+00
          2   -1    0    0  501    0  0.00000000000E+00  0.00000000000E+00  0.18618939839E+03  0.18618939839E+03  0.00000000000E+00 0. -1.
         -2   -1    0    0    0  501 -0.00000000000E+00 -0.00000000000E+00 -0.10464827587E+03  0.10464827587E+03  0.00000000000E+00 0.  1.
         25    2    1    2    0    0  0.53652709703E+02  0.53444382351E+02 -0.25619981984E+00  0.14622763152E+03  0.12509012479E+03 0.  0.
         23    2    1    2    0    0 -0.53652709703E+02 -0.53444382351E+02  0.81797322336E+02  0.14461004273E+03  0.92121372408E+02 0.  0.
          5    1    3    3  502    0  0.24654363245E+02  0.92134800513E+02  0.11872411630E+02  0.96203355713E+02  0.41800000000E+01 0. -1.
         -5    1    3    3    0  502  0.28998346458E+02 -0.38690418162E+02 -0.12128611449E+02  0.50024275812E+02  0.41800000000E+01 0. -1.
        -11    1    4    4    0    0 -0.27133530302E+02 -0.68783715088E+02  0.86300291159E+02  0.11364492150E+03  0.00000000000E+00 0. -1.
         11    1    4    4    0    0 -0.26519179401E+02  0.15339332737E+02 -0.45029688231E+01  0.30965121235E+02  0.00000000000E+00 0.  1.
</event>
<event>
 8    1  0.3541538E-009  0.1765742E+03  0.7561462E-02  0.1171160E+00
         -1   -1    0    0    0  501 -0.00000000000E+00  0.00000000000E+00  0.75398233886E+02  0.75398233886E+02  0.00000000000E+00 0.  1.
          1   -1    0    0  501    0  0.00000000000E+00 -0.00000000000E+00 -0.52662533484E+03  0.52662533484E+03  0.00000000000E+00 0. -1.
         25    2    1    2    0    0  0.14570295127E+03  0.12333995526E+02 -0.36305218280E+03  0.41089600663E+03  0.12508862209E+03 0.  0.
         23    2    1    2    0    0 -0.14570295127E+03 -0.12333995526E+02 -0.88174918158E+02  0.19112756210E+03  0.85868803101E+02 0.  0.
          5    1    3    3  502    0  0.21165388778E+02 -0.48790635330E+02 -0.11111677396E+03  0.12325952147E+03  0.41800000000E+01 0. -1.
         -5    1    3    3    0  502  0.12453756249E+03  0.61124630856E+02 -0.25193540884E+03  0.28763648516E+03  0.41800000000E+01 0. -1.
        -11    1    4    4    0    0 -0.40285636522E+02 -0.34786869589E+02 -0.59012018005E+02  0.79469975933E+02  0.00000000000E+00 0. -1.
         11    1    4    4    0    0 -0.10541731475E+03  0.22452874063E+02 -0.29162900153E+02  0.11165758616E+03  0.00000000000E+00 0.  1.
</event>
<event>
 8    1  0.3541538E-009  0.2629067E+03  0.7561462E-02  0.1105409E+00
          1   -1    0    0  501    0  0.00000000000E+00  0.00000000000E+00  0.54821143850E+03  0.54821143850E+03  0.00000000000E+00 0. -1.
         -1   -1    0    0    0  501 -0.00000000000E+00 -0.00000000000E+00 -0.18360038463E+03  0.18360038463E+03  0.00000000000E+00 0.  1.
         25    2    1    2    0    0  0.23542114960E+03  0.59662188737E+02  0.38461767988E+03  0.47176275501E+03  0.12508654160E+03 0.  0.
         23    2    1    2    0    0 -0.23542114960E+03 -0.59662188737E+02 -0.20006626016E+02  0.26004906812E+03  0.90788536184E+02 0.  0.
          5    1    3    3  502    0  0.15928521135E+03  0.97463378018E+02  0.24226973061E+03  0.30591335927E+03  0.41800000000E+01 0. -1.
         -5    1    3    3    0  502  0.76135938253E+02 -0.37801189282E+02  0.14234794927E+03  0.16584939574E+03  0.41800000000E+01 0. -1.
        -11    1    4    4    0    0 -0.19449848258E+03 -0.17688023156E+02  0.71735969025E+01  0.19543281807E+03  0.00000000000E+00 0. -1.
         11    1    4    4    0    0 -0.40922667027E+02 -0.41974165580E+02 -0.27180222918E+02  0.64616250051E+02  0.00000000000E+00 0.  1.
</event>
<event>
 8    1  0.3541538E-009  0.1144892E+03  0.7561462E-02  0.1252475E+00
          1   -1    0    0  501    0  0.00000000000E+00  0.00000000000E+00  0.54476166379E+02  0.54476166379E+02  0.00000000000E+00 0. -1.
         -1   -1    0    0    0  501 -0.00000000000E+00 -0.00000000000E+00 -0.37241172330E+03  0.37241172330E+03  0.00000000000E+00 0.  1.
         25    2    1    2    0    0  0.37117486804E+02  0.74710769089E+02 -0.11475838162E+03  0.18914559604E+03  0.12508862261E+03 0.  0.
         23    2    1    2    0    0 -0.37117486804E+02 -0.74710769089E+02 -0.20317717529E+03  0.23774229363E+03  0.91000147124E+02 0.  0.
          5    1    3    3  502    0 -0.31387698641E+02 -0.97886045814E+01 -0.56939928569E+02  0.65883474947E+02  0.41800000000E+01 0.  1.
         -5    1    3    3    0  502  0.68505185445E+02  0.84499373671E+02 -0.57818453054E+02  0.12326212110E+03  0.41800000000E+01 0.  1.
        -11    1    4    4    0    0 -0.28385059046E+02 -0.29538714646E+02 -0.18295583449E+03  0.18748622513E+03  0.00000000000E+00 0.  1.
         11    1    4    4    0    0 -0.87324277584E+01 -0.45172054443E+02 -0.20221340802E+02  0.50256068499E+02  0.00000000000E+00 0. -1.
</event>
<event>
 8    1  0.3541538E-009  0.1256648E+03  0.7561462E-02  0.1234034E+00
         -1   -1    0    0    0  501 -0.00000000000E+00  0.00000000000E+00  0.15524985680E+03  0.15524985680E+03  0.00000000000E+00 0.  1.
          1   -1    0    0  501    0  0.00000000000E+00 -0.00000000000E+00 -0.11180775109E+03  0.11180775109E+03  0.00000000000E+00 0. -1.
         25    2    1    2    0    0 -0.72454475940E+02  0.52882640883E+01  0.45020957480E+01  0.14472761896E+03  0.12509275760E+03 0.  0.
         23    2    1    2    0    0  0.72454475940E+02 -0.52882640883E+01  0.38940009967E+02  0.12232998892E+03  0.90391841409E+02 0.  0.
          5    1    3    3  502    0  0.26597500579E+02 -0.19777808827E+02  0.23332060191E+02  0.40748572880E+02  0.41800000000E+01 0. -1.
         -5    1    3    3    0  502 -0.99051976519E+02  0.25066072915E+02 -0.18829964443E+02  0.10397904608E+03  0.41800000000E+01 0. -1.
        -11    1    4    4    0    0  0.39180452629E+02 -0.47717509751E+02  0.25199474919E+02  0.66686446459E+02  0.00000000000E+00 0.  1.
         11    1    4    4    0    0  0.33274023311E+02  0.42429245663E+02  0.13740535048E+02  0.55643542466E+02  0.00000000000E+00 0. -1.
</event>
<event>
 8    1  0.3541538E-009  0.9850210E+02  0.7561462E-02  0.1283478E+00
         -2   -1    0    0    0  501 -0.00000000000E+00  0.00000000000E+00  0.33019670536E+02  0.33019670536E+02  0.00000000000E+00 0. -1.
          2   -1    0    0  501    0  0.00000000000E+00 -0.00000000000E+00 -0.58527706249E+03  0.58527706249E+03  0.00000000000E+00 0.  1.
         25    2    1    2    0    0 -0.28442067430E+02 -0.72708766627E+02 -0.38629525376E+03  0.41348140608E+03  0.12508930473E+03 0.  0.
         23    2    1    2    0    0  0.28442067430E+02  0.72708766627E+02 -0.16596213820E+03  0.20481532695E+03  0.91161235687E+02 0.  0.
          5    1    3    3  502    0  0.19177565668E+02 -0.36615424982E+02 -0.27733180874E+02  0.49950676601E+02  0.41800000000E+01 0.  1.
         -5    1    3    3    0  502 -0.47619633098E+02 -0.36093341645E+02 -0.35856207288E+03  0.36353072948E+03  0.41800000000E+01 0.  1.
        -11    1    4    4    0    0 -0.11959205840E+02  0.45022505838E+02 -0.14361376684E+03  0.15098000749E+03  0.00000000000E+00 0.  1.
         11    1    4    4    0    0  0.40401273270E+02  0.27686260789E+02 -0.22348371360E+02  0.53835319454E+02  0.00000000000E+00 0. -1.
</event>
<event>
 8    1  0.3541538E-009  0.9075566E+02  0.7561462E-02  0.1301032E+00
         -1   -1    0    0    0  501 -0.00000000000E+00  0.00000000000E+00  0.27774157548E+03  0.27774157548E+03  0.00000000000E+00 0.  1.
          1   -1    0    0  501    0  0.00000000000E+00 -0.00000000000E+00 -0.81633895839E+02  0.81633895839E+02  0.00000000000E+00 0. -1.
         25    2    1    2    0    0 -0.18534254731E+02  0.39095655611E+02  0.21900365496E+03  0.25589402825E+03  0.12508862428E+03 0.  0.
         23    2    1    2    0    0  0.18534254731E+02 -0.39095655611E+02 -0.22895975322E+02  0.10348144306E+03  0.91171237165E+02 0.  0.
          5    1    3    3  502    0 -0.23325382224E+02  0.61417348185E+02  0.43595408615E+02  0.78956926019E+02  0.41800000000E+01 0. -1.
         -5    1    3    3    0  502  0.47911274936E+01 -0.22321692574E+02  0.17540824634E+03  0.17693710224E+03  0.41800000000E+01 0. -1.
        -11    1    4    4    0    0  0.40941689995E+02 -0.52333607038E+02  0.33360451154E+01  0.66529373981E+02  0.00000000000E+00 0.  1.
         11    1    4    4    0    0 -0.22407435264E+02  0.13237951428E+02 -0.26232020437E+02  0.36952069081E+02  0.00000000000E+00 0. -1.
</event>
<event>
 8    1  0.3541538E-009  0.2649589E+03  0.7561462E-02  0.1104200E+00
         -2   -1    0    0    0  501 -0.00000000000E+00  0.00000000000E+00  0.87224736216E+02  0.87224736216E+02  0.00000000000E+00 0.  1.
          2   -1    0    0  501    0  0.00000000000E+00 -0.00000000000E+00 -0.85233885146E+03  0.85233885146E+03  0.00000000000E+00 0. -1.
         25    2    1    2    0    0 -0.24690172801E+03  0.40353229060E+02 -0.37695285940E+03  0.46939278323E+03  0.12508908966E+03 0.  0.
         23    2    1    2    0    0  0.24690172801E+03 -0.40353229060E+02 -0.38816125584E+03  0.47017080444E+03  0.88332204895E+02 0.  0.
          5    1    3    3  502    0 -0.13936493574E+03  0.84113974470E+02 -0.23616827422E+03  0.28686350790E+03  0.41800000000E+01 0. -1.
         -5    1    3    3    0  502 -0.10753679227E+03 -0.43760745409E+02 -0.14078458517E+03  0.18252927533E+03  0.41800000000E+01 0. -1.
        -11    1    4    4    0    0  0.14708857561E+03 -0.33529358352E+02 -0.30423071862E+03  0.33958150288E+03  0.00000000000E+00 0. -1.
         11    1    4    4    0    0  0.99813152399E+02 -0.68238707084E+01 -0.83930537219E+02  0.13058930156E+03  0.00000000000E+00 0.  1.
</event>
<event>
 8    1  0.3541538E-009  0.3235077E+02  0.7561462E-02  0.1573469E+00
         -1   -1    0    0    0  501 -0.00000000000E+00  0.00000000000E+00  0.16640204737E+03  0.16640204737E+03  0.00000000000E+00 0.  1.
          1   -1    0    0  501    0  0.00000000000E+00 -0.00000000000E+00 -0.73487870464E+02  0.73487870464E+02  0.00000000000E+00 0. -1.
         25    2    1    2    0    0  0.63455779293E+01 -0.18962486290E+02  0.51169811513E+02  0.13661993953E+03  0.12508723365E+03 0.  0.
         23    2    1    2    0    0 -0.63455779293E+01  0.18962486290E+02  0.41744365390E+02  0.10326997830E+03  0.92316055648E+02 0.  0.
          5    1    3    3  502    0  0.88993536793E+01 -0.19006311653E+02 -0.39975758719E+02  0.45342828139E+02  0.41800000000E+01 0.  1.
         -5    1    3    3    0  502 -0.25537757500E+01  0.43825362552E-01  0.91145570232E+02  0.91277111393E+02  0.41800000000E+01 0.  1.
        -11    1    4    4    0    0 -0.17481053116E+01  0.28111024559E+02  0.68799915776E+02  0.74341872352E+02  0.00000000000E+00 0.  1.
         11    1    4    4    0    0 -0.45974726176E+01 -0.91485382692E+01 -0.27055550386E+02  0.28928105946E+02  0.00000000000E+00 0. -1.
</event>
<event>
 8    1  0.3541538E-009  0.8312185E+02  0.7561462E-02  0.1320418E+00
          1   -1    0    0  501    0  0.00000000000E+00  0.00000000000E+00  0.33576694645E+03  0.33576694645E+03  0.00000000000E+00 0. -1.
         -1   -1    0    0    0  501 -0.00000000000E+00 -0.00000000000E+00 -0.83081645369E+02  0.83081645369E+02  0.00000000000E+00 0.  1.
         25    2    1    2    0    0 -0.36596717618E+02 -0.28894937404E+01  0.28777274369E+03  0.31592500898E+03  0.12509112828E+03 0.  0.
         23    2    1    2    0    0  0.36596717618E+02  0.28894937404E+01 -0.35087442610E+02  0.10292358284E+03  0.89523551991E+02 0.  0.
          5    1    3    3  502    0 -0.64121231381E+02  0.53912438433E+00  0.65030646051E+02  0.91423630943E+02  0.41800000000E+01 0. -1.
         -5    1    3    3    0  502  0.27524513764E+02 -0.34286181248E+01  0.22274209764E+03  0.22450137804E+03  0.41800000000E+01 0. -1.
        -11    1    4    4    0    0 -0.23076816271E+01 -0.25605994000E+02  0.17861683094E+02  0.31305463519E+02  0.00000000000E+00 0. -1.
         11    1    4    4    0    0  0.38904399245E+02  0.28495487740E+02 -0.52949125703E+02  0.71618119320E+02  0.00000000000E+00 0.  1.
</event>
<event>
 8    1  0.3541538E-009  0.1417181E+03  0.7561462E-02  0.1211036E+00
         -1   -1    0    0    0  501 -0.00000000000E+00  0.00000000000E+00  0.32818378083E+03  0.32818378083E+03  0.00000000000E+00 0.  1.
          1   -1    0    0  501    0  0.00000000000E+00 -0.00000000000E+00 -0.95816158904E+02  0.95816158904E+02  0.00000000000E+00 0. -1.
         25    2    1    2    0    0 -0.91787604463E+02 -0.36345458915E+01  0.24908021447E+03  0.29347509146E+03  0.12509397191E+03 0.  0.
         23    2    1    2    0    0  0.91787604463E+02  0.36345458915E+01 -0.16712592543E+02  0.13052484828E+03  0.91209928254E+02 0.  0.
          5    1    3    3  502    0 -0.22607881050E+02  0.57855185654E+02  0.10900790286E+03  0.12553299996E+03  0.41800000000E+01 0. -1.
         -5    1    3    3    0  502 -0.69179723413E+02 -0.61489731545E+02  0.14007231161E+03  0.16794209150E+03  0.41800000000E+01 0. -1.
        -11    1    4    4    0    0 -0.55895213629E+01  0.27670190703E+02 -0.10195029402E+02  0.30013677334E+02  0.00000000000E+00 0. -1.
         11    1    4    4    0    0  0.97377125826E+02 -0.24035644812E+02 -0.65175631403E+01  0.10051117095E+03  0.00000000000E+00 0.  1.
</event>
<event>
 8    1  0.3541538E-009  0.1237058E+03  0.7561462E-02  0.1237106E+00
          2   -1    0    0  501    0  0.00000000000E+00  0.00000000000E+00  0.38351937199E+03  0.38351937199E+03  0.00000000000E+00 0. -1.
         -2   -1    0    0    0  501 -0.00000000000E+00 -0.00000000000E+00 -0.45908450454E+02  0.45908450454E+02  0.00000000000E+00 0.  1.
         25    2    1    2    0    0 -0.57552785580E+02  0.47235948593E+02  0.16552497027E+03  0.22043227371E+03  0.12509321941E+03 0.  0.
         23    2    1    2    0    0  0.57552785580E+02 -0.47235948593E+02  0.17208595127E+03  0.20899554873E+03  0.92314716054E+02 0.  0.
          5    1    3    3  502    0  0.25980809490E+02  0.36177792980E+02  0.13777677204E+02  0.46809528473E+02  0.41800000000E+01 0. -1.
         -5    1    3    3    0  502 -0.83533595070E+02  0.11058155613E+02  0.15174729306E+03  0.17362274524E+03  0.41800000000E+01 0. -1.
        -11    1    4    4    0    0  0.74520191583E+00  0.25783992424E+02  0.31731582023E+02  0.40893311053E+02  0.00000000000E+00 0. -1.
         11    1    4    4    0    0  0.56807583664E+02 -0.73019941017E+02  0.14035436924E+03  0.16810223768E+03  0.00000000000E+00 0.  1.
</event>
<event>
 8    1  0.3541538E-009  0.9751614E+02  0.7561462E-02  0.1285608E+00
         -2   -1    0    0    0  501 -0.00000000000E+00  0.00000000000E+00  0.19221557127E+03  0.19221557127E+03  0.00000000000E+00 0.  1.
          2   -1    0    0  501    0  0.00000000000E+00 -0.00000000000E+00 -0.11360622637E+03  0.11360622637E+03  0.00000000000E+00 0. -1.
         25    2    1    2    0    0 -0.22747289729E+02  0.60539359982E+02  0.11815473154E+03  0.18382197169E+03  0.12509006113E+03 0.  0.
         23    2    1    2    0    0  0.22747289729E+02 -0.60539359982E+02 -0.39545386637E+02  0.12199982595E+03  0.95591143054E+02 0.  0.
          5    1    3    3  502    0  0.23635794009E+02  0.40511759787E+02 -0.80905291760E+01  0.47778473205E+02  0.41800000000E+01 0.  1.
         -5    1    3    3    0  502 -0.46383083738E+02  0.20027600196E+02  0.12624526072E+03  0.13604349849E+03  0.41800000000E+01 0.  1.
        -11    1    4    4    0    0  0.48115635282E+02 -0.26926845055E+02  0.10986061335E+02  0.56221551801E+02  0.00000000000E+00 0.  1.
         11    1    4    4    0    0 -0.25368345553E+02 -0.33612514928E+02 -0.50531447972E+02  0.65778274149E+02  0.00000000000E+00 0. -1.
</event>
<event>
 8    1  0.3541538E-009  0.1484723E+03  0.7561462E-02  0.1202363E+00
          2   -1    0    0  501    0  0.00000000000E+00  0.00000000000E+00  0.92416577023E+03  0.92416577023E+03  0.00000000000E+00 0. -1.
         -2   -1    0    0    0  501 -0.00000000000E+00 -0.00000000000E+00 -0.47606025786E+02  0.47606025786E+02  0.00000000000E+00 0.  1.
         25    2    1    2    0    0  0.26282251769E+02  0.14317546805E+03  0.69843081930E+03  0.72432179959E+03  0.12508592490E+03 0.  0.
         23    2    1    2    0    0 -0.26282251769E+02 -0.14317546805E+03  0.17812892515E+03  0.24744999643E+03  0.91168061001E+02 0.  0.
          5    1    3    3  502    0  0.36097188096E+02  0.91194907862E+02  0.63062764969E+03  0.63822270655E+03  0.41800000000E+01 0.  1.
         -5    1    3    3    0  502 -0.98149363269E+01  0.51980560191E+02  0.67803169607E+02  0.86099093036E+02  0.41800000000E+01 0.  1.
        -11    1    4    4    0    0 -0.13160585648E+02 -0.89161859240E+02  0.16842653691E+03  0.19102496301E+03  0.00000000000E+00 0. -1.
         11    1    4    4    0    0 -0.13121666121E+02 -0.54013608813E+02  0.97023882427E+01  0.56425033419E+02  0.00000000000E+00 0.  1.
</event>
<event>
 8    1  0.3541538E-009  0.5883604E+02  0.7561462E-02  0.1402782E+00
          2   -1    0    0  501    0  0.00000000000E+00  0.00000000000E+00  0.14950791840E+03  0.14950791840E+03  0.00000000000E+00 0.  1.
         -2   -1    0    0    0  501 -0.00000000000E+00 -0.00000000000E+00 -0.78582594135E+02  0.78582594135E+02  0.00000000000E+00 0. -1.
         25    2    1    2    0    0 -0.25449207451E+01 -0.18909574564E+02  0.27704880201E+02  0.12953162362E+03  0.12508729951E+03 0.  0.
         23    2    1    2    0    0  0.25449207451E+01  0.18909574564E+02  0.43220444061E+02  0.98558888915E+02  0.86497393993E+02 0.  0.
          5    1    3    3  502    0 -0.13361707332E+02 -0.57054603804E+01 -0.48772121723E+02  0.51061529142E+02  0.41800000000E+01 0.  1.
         -5    1    3    3    0  502  0.10816786587E+02 -0.13204114184E+02  0.76477001924E+02  0.78470094474E+02  0.41800000000E+01 0.  1.
        -11    1    4    4    0    0  0.42632576575E+02  0.73692244534E+01  0.80755666539E+01  0.44012007807E+02  0.00000000000E+00 0. -1.
         11    1    4    4    0    0 -0.40087655830E+02  0.11540350111E+02  0.35144877407E+02  0.54546881108E+02  0.00000000000E+00 0.  1.
</event>
<event>
 8    1  0.3541538E-009  0.1061450E+03  0.7561462E-02  0.1267880E+00
          2   -1    0    0  501    0  0.00000000000E+00  0.00000000000E+00  0.74152763643E+03  0.74152763643E+03  0.00000000000E+00 0. -1.
         -2   -1    0    0    0  501 -0.00000000000E+00 -0.00000000000E+00 -0.17156025062E+02  0.17156025062E+02  0.00000000000E+00 0.  1.
         25    2    1    2    0    0  0.20024136332E+01  0.59503001458E+00  0.31266021802E+03  0.33676173675E+03  0.12509073382E+03 0.  0.
         23    2    1    2    0    0 -0.20024136332E+01 -0.59503001458E+00  0.41171139335E+03  0.42192192474E+03  0.92235976938E+02 0.  0.
          5    1    3    3  502    0 -0.50439001014E+02 -0.30335942429E+02  0.10644734242E+03  0.12170813997E+03  0.41800000000E+01 0. -1.
         -5    1    3    3    0  502  0.52441414647E+02  0.30930972444E+02  0.20621287559E+03  0.21505359678E+03  0.41800000000E+01 0. -1.
        -11    1    4    4    0    0 -0.43892071106E+02  0.16665440890E+02  0.20760519972E+03  0.21284776197E+03  0.00000000000E+00 0.  1.
         11    1    4    4    0    0  0.41889657473E+02 -0.17260470904E+02  0.20410619363E+03  0.20907416277E+03  0.00000000000E+00 0. -1.
</event>
<event>
 8    1  0.3541538E-009  0.1411384E+03  0.7561462E-02  0.1211805E+00
         -1   -1    0    0    0  501 -0.00000000000E+00  0.00000000000E+00  0.54784588498E+02  0.54784588498E+02  0.00000000000E+00 0.  1.
          1   -1    0    0  501    0  0.00000000000E+00 -0.00000000000E+00 -0.37127895541E+03  0.37127895541E+03  0.00000000000E+00 0. -1.
         25    2    1    2    0    0  0.69964653434E+02 -0.58104275149E+02 -0.14700534164E+03  0.21337616219E+03  0.12509059357E+03 0.  0.
         23    2    1    2    0    0 -0.69964653434E+02  0.58104275149E+02 -0.16948902527E+03  0.21268738172E+03  0.90764713047E+02 0.  0.
          5    1    3    3  502    0  0.88808800073E+01 -0.86570389014E+02 -0.81527114595E+02  0.11932076558E+03  0.41800000000E+01 0. -1.
         -5    1    3    3    0  502  0.61083773426E+02  0.28466113865E+02 -0.65478227049E+02  0.94055396613E+02  0.41800000000E+01 0. -1.
        -11    1    4    4    0    0 -0.89646136998E+02  0.59978967214E+02 -0.15138659541E+03  0.18588116541E+03  0.00000000000E+00 0.  1.
         11    1    4    4    0    0  0.19681483564E+02 -0.18746920643E+01 -0.18102429863E+02  0.26806216304E+02  0.00000000000E+00 0. -1.
</event>
<event>
 8    1  0.3541538E-009  0.1044457E+03  0.7561462E-02  0.1271216E+00
          4   -1    0    0  501    0  0.00000000000E+00  0.00000000000E+00  0.56363573652E+03  0.56363573652E+03  0.00000000000E+00 0. -1.
         -4   -1    0    0    0  501 -0.00000000000E+00 -0.00000000000E+00 -0.30513515374E+02  0.30513515374E+02  0.00000000000E+00 0.  1.
         25    2    1    2    0    0  0.57890015451E+02 -0.44171138220E+01  0.18558371944E+03  0.23121244343E+03  0.12508841791E+03 0.  0.
         23    2    1    2    0    0 -0.57890015451E+02  0.44171138220E+01  0.34753850171E+03  0.36293680846E+03  0.87002022874E+02 0.  0.
          5    1    3    3  502    0  0.79481524200E+02  0.15942624694E+02  0.18410601763E+03  0.20120630731E+03  0.41800000000E+01 0.  1.
         -5    1    3    3    0  502 -0.21591508749E+02 -0.20359738516E+02  0.14777018041E+01  0.30006136125E+02  0.41800000000E+01 0.  1.
        -11    1    4    4    0    0 -0.49289904885E+02  0.38534161211E+02  0.15396051850E+03  0.16618729663E+03  0.00000000000E+00 0. -1.
         11    1    4    4    0    0 -0.86001105665E+01 -0.34117047389E+02  0.19357798320E+03  0.19674951183E+03  0.00000000000E+00 0.  1.
</event>
<event>
 8    1  0.3541538E-009  0.1327364E+03  0.7561462E-02  0.1223451E+00
          1   -1    0    0  501    0  0.00000000000E+00  0.00000000000E+00  0.34596377951E+02  0.34596377951E+02  0.00000000000E+00 0. -1.
         -1   -1    0    0    0  501 -0.00000000000E+00 -0.00000000000E+00 -0.55617677313E+03  0.55617677313E+03  0.00000000000E+00 0.  1.
         25    2    1    2    0    0 -0.69906180500E+02  0.40637378948E+02 -0.22065655376E+03  0.26622719275E+03  0.12509729333E+03 0.  0.
         23    2    1    2    0    0  0.69906180500E+02 -0.40637378948E+02 -0.30092384141E+03  0.32454595833E+03  0.90755992089E+02 0.  0.
          5    1    3    3  502    0 -0.67115609372E+01  0.73295523330E+02 -0.14265451315E+03  0.16057727521E+03  0.41800000000E+01 0. -1.
         -5    1    3    3    0  502 -0.63194619563E+02 -0.32658144382E+02 -0.78002040612E+02  0.10564991754E+03  0.41800000000E+01 0. -1.
        -11    1    4    4    0    0  0.55283133137E+02  0.19487456455E+02 -0.16781044273E+03  0.17775356665E+03  0.00000000000E+00 0.  1.
         11    1    4    4    0    0  0.14623047363E+02 -0.60124835403E+02 -0.13311339868E+03  0.14679239168E+03  0.00000000000E+00 0. -1.
</event>
<event>
 8    1  0.3541538E-009  0.8120449E+02  0.7561462E-02  0.1325668E+00
         -3   -1    0    0    0  501 -0.00000000000E+00  0.00000000000E+00  0.16877322543E+02  0.16877322543E+02  0.00000000000E+00 0.  1.
          3   -1    0    0  501    0  0.00000000000E+00 -0.00000000000E+00 -0.91353603921E+03  0.91353603921E+03  0.00000000000E+00 0. -1.
         25    2    1    2    0    0 -0.13144801428E+02 -0.52399400800E+02 -0.50871654566E+03  0.52664675260E+03  0.12508315310E+03 0.  0.
         23    2    1    2    0    0  0.13144801428E+02  0.52399400800E+02 -0.38794217101E+03  0.40376660915E+03  0.98029911818E+02 0.  0.
          5    1    3    3  502    0  0.74144062231E+01 -0.48972048644E+01  0.45056312889E+01  0.10804126454E+02  0.41800000000E+01 0. -1.
         -5    1    3    3    0  502 -0.20559207651E+02 -0.47502195936E+02 -0.51322217695E+03  0.51584262615E+03  0.41800000000E+01 0. -1.
        -11    1    4    4    0    0 -0.78965975915E+01  0.71684484563E+02 -0.34320255383E+03  0.35069789640E+03  0.00000000000E+00 0. -1.
         11    1    4    4    0    0  0.21041399019E+02 -0.19285083763E+02 -0.44739617179E+02  0.53068712758E+02  0.00000000000E+00 0.  1.
</event>
<event>
 8    1  0.3541538E-009  0.1833231E+03  0.7561462E-02  0.1164625E+00
          1   -1    0    0  501    0  0.00000000000E+00  0.00000000000E+00  0.92182219835E+02  0.92182219835E+02  0.00000000000E+00 0. -1.
         -1   -1    0    0    0  501 -0.00000000000E+00 -0.00000000000E+00 -0.51952532714E+03  0.51952532714E+03  0.00000000000E+00 0.  1.
         25    2    1    2    0    0 -0.13340623540E+03  0.10655423725E+03 -0.33589197632E+03  0.39701645042E+03  0.12509041939E+03 0.  0.
         23    2    1    2    0    0  0.13340623540E+03 -0.10655423725E+03 -0.91451130984E+02  0.21469109656E+03  0.92617106764E+02 0.  0.
          5    1    3    3  502    0 -0.13871598979E+03  0.65868493452E+02 -0.31571076111E+03  0.35110047185E+03  0.41800000000E+01 0. -1.
         -5    1    3    3    0  502  0.53097543869E+01  0.40685743801E+02 -0.20181215215E+02  0.45915978567E+02  0.41800000000E+01 0. -1.
        -11    1    4    4    0    0  0.83961871895E+02 -0.78469407333E+02 -0.10002471360E+02  0.11535637500E+03  0.00000000000E+00 0. -1.
         11    1    4    4    0    0  0.49444363505E+02 -0.28084829919E+02 -0.81448659624E+02  0.99334721565E+02  0.00000000000E+00 0.  1.
</event>
<event>
 8    1  0.3541538E-009  0.6929410E+02  0.7561462E-02  0.1362510E+00
          1   -1    0    0  501    0  0.00000000000E+00  0.00000000000E+00  0.11761265768E+03  0.11761265768E+03  0.00000000000E+00 0. -1.
         -1   -1    0    0    0  501 -0.00000000000E+00 -0.00000000000E+00 -0.13895525074E+03  0.13895525074E+03  0.00000000000E+00 0.  1.
         25    2    1    2    0    0 -0.23277591978E+02  0.29364720387E+02  0.46266338653E+02  0.13853615108E+03  0.12509019934E+03 0.  0.
         23    2    1    2    0    0  0.23277591978E+02 -0.29364720387E+02 -0.67608931715E+02  0.11803175734E+03  0.89198626680E+02 0.  0.
          5    1    3    3  502    0 -0.29161182769E+02  0.60051731054E+02  0.71681854054E+02  0.98042570262E+02  0.41800000000E+01 0. -1.
         -5    1    3    3    0  502  0.58835907904E+01 -0.30687010667E+02 -0.25415515401E+02  0.40493580817E+02  0.41800000000E+01 0. -1.
        -11    1    4    4    0    0  0.15162459364E+02 -0.76275505017E+01 -0.86476339530E+02  0.88126256014E+02  0.00000000000E+00 0.  1.
         11    1    4    4    0    0  0.81151326145E+01 -0.21737169885E+02  0.18867407814E+02  0.29905501327E+02  0.00000000000E+00 0. -1.
</event>
<event>
 8    1  0.3541538E-009  0.1461346E+03  0.7561462E-02  0.1205305E+00
         -1   -1    0    0    0  501 -0.00000000000E+00  0.00000000000E+00  0.23206888547E+02  0.23206888547E+02  0.00000000000E+00 0.  1.
          1   -1    0    0  501    0  0.00000000000E+00 -0.00000000000E+00 -0.15737023741E+04  0.15737023741E+04  0.00000000000E+00 0. -1.
         25    2    1    2    0    0 -0.19988554679E+02  0.11963018835E+03 -0.12106618747E+04  0.12231359564E+04  0.12509383951E+03 0.  0.
         23    2    1    2    0    0  0.19988554679E+02 -0.11963018835E+03 -0.33983361086E+03  0.37377330627E+03  0.97512445985E+02 0.  0.
          5    1    3    3  502    0  0.77670337854E+01  0.11550679314E+03 -0.56002022466E+03  0.57187609716E+03  0.41800000000E+01 0. -1.
         -5    1    3    3    0  502 -0.27755588465E+02  0.41233952064E+01 -0.65064165003E+03  0.65125985923E+03  0.41800000000E+01 0. -1.
        -11    1    4    4    0    0  0.42636117122E+02 -0.22280274995E+02 -0.17035659984E+03  0.17701870027E+03  0.00000000000E+00 0. -1.
         11    1    4    4    0    0 -0.22647562442E+02 -0.97349913353E+02 -0.16947701103E+03  0.19675460600E+03  0.00000000000E+00 0.  1.
</event>
<event>
 8    1  0.3541538E-009  0.1372397E+03  0.7561462E-02  0.1217092E+00
         -2   -1    0    0    0  501 -0.00000000000E+00  0.00000000000E+00  0.35053277605E+02  0.35053277605E+02  0.00000000000E+00 0.  1.
          2   -1    0    0  501    0  0.00000000000E+00 -0.00000000000E+00 -0.58576770306E+03  0.58576770306E+03  0.00000000000E+00 0. -1.
         25    2    1    2    0    0  0.73975461006E+02 -0.51657693124E+02 -0.25098882919E+03  0.29458939346E+03  0.12508649915E+03 0.  0.
         23    2    1    2    0    0 -0.73975461006E+02  0.51657693124E+02 -0.29972559626E+03  0.32623158721E+03  0.91927848588E+02 0.  0.
          5    1    3    3  502    0 -0.22874309213E+01  0.34291993757E+02 -0.92638366935E+02  0.98896474176E+02  0.41800000000E+01 0.  1.
         -5    1    3    3    0  502  0.76262891927E+02 -0.85949686881E+02 -0.15835046226E+03  0.19569291928E+03  0.41800000000E+01 0.  1.
        -11    1    4    4    0    0 -0.34087541848E+02  0.72322335013E+02 -0.15088445902E+03  0.17075889618E+03  0.00000000000E+00 0. -1.
         11    1    4    4    0    0 -0.39887919158E+02 -0.20664641889E+02 -0.14884113724E+03  0.15547269102E+03  0.00000000000E+00 0.  1.
</event>
<event>
 8    1  0.3541538E-009  0.1125601E+03  0.7561462E-02  0.1255901E+00
         -2   -1    0    0    0  501 -0.00000000000E+00  0.00000000000E+00  0.13609171759E+02  0.13609171759E+02  0.00000000000E+00 0.  1.
          2   -1    0    0  501    0  0.00000000000E+00 -0.00000000000E+00 -0.10675544387E+04  0.10675544387E+04  0.00000000000E+00 0. -1.
         25    2    1    2    0    0 -0.41802402419E+02 -0.67776289906E+01 -0.72506717952E+03  0.73699592893E+03  0.12508879781E+03 0.  0.
         23    2    1    2    0    0  0.41802402419E+02  0.67776289906E+01 -0.32887808743E+03  0.34416768154E+03  0.92180364079E+02 0.  0.
          5    1    3    3  502    0 -0.79691276460E+01 -0.64101755470E+02 -0.32100593431E+03  0.32746728740E+03  0.41800000000E+01 0.  1.
         -5    1    3    3    0  502 -0.33833274773E+02  0.57324126479E+02 -0.40406124520E+03  0.40952864153E+03  0.41800000000E+01 0.  1.
        -11    1    4    4    0    0  0.30386876813E+01  0.41525702808E+02 -0.21444626642E+03  0.21845095285E+03  0.00000000000E+00 0. -1.
         11    1    4    4    0    0  0.38763714738E+02 -0.34748073818E+02 -0.11443182100E+03  0.12571672869E+03  0.00000000000E+00 0.  1.
</event>
<event>
 8    1  0.3541538E-009  0.1028782E+03  0.7561462E-02  0.1274357E+00
          1   -1    0    0  501    0  0.00000000000E+00  0.00000000000E+00  0.54397811838E+02  0.54397811838E+02  0.00000000000E+00 0. -1.
         -1   -1    0    0    0  501 -0.00000000000E+00 -0.00000000000E+00 -0.28730589746E+03  0.28730589746E+03  0.00000000000E+00 0.  1.
         25    2    1    2    0    0  0.56503497361E+02 -0.25427331301E+02 -0.12945646556E+03  0.19038385730E+03  0.12509133565E+03 0.  0.
         23    2    1    2    0    0 -0.56503497361E+02  0.25427331301E+02 -0.10345162006E+03  0.15131985200E+03  0.91412611403E+02 0.  0.
          5    1    3    3  502    0  0.90669385392E+02 -0.25481338441E+02 -0.56998952479E+02  0.11016618828E+03  0.41800000000E+01 0.  1.
         -5    1    3    3    0  502 -0.34165888030E+02  0.54007140852E-01 -0.72457513083E+02  0.80217669026E+02  0.41800000000E+01 0.  1.
        -11    1    4    4    0    0 -0.50807222043E+02 -0.20072087767E+00 -0.11258873069E+03  0.12352180528E+03  0.00000000000E+00 0.  1.
         11    1    4    4    0    0 -0.56962753180E+01  0.25628052178E+02  0.91371106246E+01  0.27798046721E+02  0.00000000000E+00 0. -1.
</event>
<event>
 8    1  0.3541538E-009  0.1517710E+03  0.7561462E-02  0.1198314E+00
         -2   -1    0    0    0  501 -0.00000000000E+00  0.00000000000E+00  0.89341072387E+02  0.89341072387E+02  0.00000000000E+00 0. -1.
          2   -1    0    0  501    0  0.00000000000E+00 -0.00000000000E+00 -0.31837918007E+03  0.31837918007E+03  0.00000000000E+00 0.  1.
         25    2    1    2    0    0 -0.11924780532E+03  0.26665309639E+02 -0.16931757608E+03  0.24340680249E+03  0.12508937651E+03 0.  0.
         23    2    1    2    0    0  0.11924780532E+03 -0.26665309639E+02 -0.59720531602E+02  0.16431344996E+03  0.92202441026E+02 0.  0.
          5    1    3    3  502    0 -0.38855856553E+02  0.60381022065E+02 -0.27736909205E+02  0.77087313783E+02  0.41800000000E+01 0. -1.
         -5    1    3    3    0  502 -0.80391948772E+02 -0.33715712426E+02 -0.14158066687E+03  0.16631948871E+03  0.41800000000E+01 0. -1.
        -11    1    4    4    0    0  0.71816895236E+02  0.23248528714E+02 -0.58409534270E+02  0.95445451554E+02  0.00000000000E+00 0.  1.
         11    1    4    4    0    0  0.47430910089E+02 -0.49913838353E+02 -0.13109973328E+01  0.68867998410E+02  0.00000000000E+00 0. -1.
</event>
<event>
 8    1  0.3541538E-009  0.1258352E+03  0.7561462E-02  0.1233770E+00
          1   -1    0    0  501    0  0.00000000000E+00  0.00000000000E+00  0.67087845312E+03  0.67087845312E+03  0.00000000000E+00 0. -1.
         -1   -1    0    0    0  501 -0.00000000000E+00 -0.00000000000E+00 -0.31429950703E+02  0.31429950703E+02  0.00000000000E+00 0.  1.
         25    2    1    2    0    0 -0.25554556726E+02  0.92083106163E+02  0.36918673559E+03  0.40134764249E+03  0.12509496628E+03 0.  0.
         23    2    1    2    0    0  0.25554556726E+02 -0.92083106163E+02  0.27026176683E+03  0.30096076133E+03  0.91671279266E+02 0.  0.
          5    1    3    3  502    0 -0.30344105799E+02 -0.18615827982E+02  0.16649404542E+03  0.17030870021E+03  0.41800000000E+01 0. -1.
         -5    1    3    3    0  502  0.47895490733E+01  0.11069893415E+03  0.20269269017E+03  0.23103894228E+03  0.41800000000E+01 0. -1.
        -11    1    4    4    0    0 -0.36272200802E+01 -0.65097300994E+02  0.65650069323E+02  0.92524304506E+02  0.00000000000E+00 0.  1.
         11    1    4    4    0    0  0.29181776806E+02 -0.26985805169E+02  0.20461169750E+03  0.20843645682E+03  0.00000000000E+00 0. -1.
</event>
<event>
 8    1  0.3541538E-009  0.1340722E+03  0.7561462E-02  0.1221535E+00
         -2   -1    0    0    0  501 -0.00000000000E+00  0.00000000000E+00  0.12714369059E+03  0.12714369059E+03  0.00000000000E+00 0.  1.
          2   -1    0    0  501    0  0.00000000000E+00 -0.00000000000E+00 -0.22842997917E+03  0.22842997917E+03  0.00000000000E+00 0. -1.
         25    2    1    2    0    0  0.14629355888E+02  0.13281974648E+03 -0.53983162413E+02  0.19083069688E+03  0.12508824861E+03 0.  0.
         23    2    1    2    0    0 -0.14629355888E+02 -0.13281974648E+03 -0.47303126171E+02  0.16474297288E+03  0.83949736503E+02 0.  0.
          5    1    3    3  502    0  0.47256615035E+01  0.28577994916E+02  0.40340470661E+02  0.49838335077E+02  0.41800000000E+01 0.  1.
         -5    1    3    3    0  502  0.99036943849E+01  0.10424175156E+03 -0.94323633074E+02  0.14099236181E+03  0.41800000000E+01 0.  1.
        -11    1    4    4    0    0 -0.65944057882E+01 -0.21849631877E+02 -0.48362480104E+02  0.53477304370E+02  0.00000000000E+00 0. -1.
         11    1    4    4    0    0 -0.80349501002E+01 -0.11097011460E+03  0.10593539335E+01  0.11126566851E+03  0.00000000000E+00 0.  1.
</event>
<event>
 8    1  0.3541538E-009  0.1000938E+03  0.7561462E-02  0.1280099E+00
          1   -1    0    0  501    0  0.00000000000E+00  0.00000000000E+00  0.10795780117E+03  0.10795780117E+03  0.00000000000E+00 0. -1.
         -1   -1    0    0    0  501 -0.00000000000E+00 -0.00000000000E+00 -0.18865084343E+03  0.18865084343E+03  0.00000000000E+00 0.  1.
         25    2    1    2    0    0  0.30616666039E+02 -0.67877389779E+02 -0.97603457514E+02  0.17526877108E+03  0.12509191386E+03 0.  0.
         23    2    1    2    0    0 -0.30616666039E+02  0.67877389779E+02  0.16910415258E+02  0.12133987352E+03  0.94301020563E+02 0.  0.
          5    1    3    3  502    0  0.17974540166E+02  0.15760366712E+02 -0.86515787452E+02  0.89855033979E+02  0.41800000000E+01 0.  1.
         -5    1    3    3    0  502  0.12642125873E+02 -0.83637756491E+02 -0.11087670063E+02  0.85413737097E+02  0.41800000000E+01 0.  1.
        -11    1    4    4    0    0 -0.16210499781E+02 -0.49817172854E+01 -0.29309852612E+02  0.33862446315E+02  0.00000000000E+00 0.  1.
         11    1    4    4    0    0 -0.14406166258E+02  0.72859107065E+02  0.46220267870E+02  0.87477427206E+02  0.00000000000E+00 0. -1.
</event>
<event>
 8    1  0.3541538E-009  0.8405309E+02  0.7561462E-02  0.1317928E+00
          1   -1    0    0  501    0  0.00000000000E+00  0.00000000000E+00  0.39786863853E+03  0.39786863853E+03  0.00000000000E+00 0. -1.
         -1   -1    0    0    0  501 -0.00000000000E+00 -0.00000000000E+00 -0.45750643305E+02  0.45750643305E+02  0.00000000000E+00 0.  1.
         25    2    1    2    0    0 -0.13971038360E+02  0.58867502489E+01  0.32068976973E+03  0.34455778431E+03  0.12509314361E+03 0.  0.
         23    2    1    2    0    0  0.13971038360E+02 -0.58867502489E+01  0.31428225498E+02  0.99061497527E+02  0.92712475929E+02 0.  0.
          5    1    3    3  502    0  0.47973678268E+02  0.32448306812E+02  0.16222841579E+03  0.17230756719E+03  0.41800000000E+01 0.  1.
         -5    1    3    3    0  502 -0.61944716628E+02 -0.26561556563E+02  0.15846135394E+03  0.17225021712E+03  0.41800000000E+01 0.  1.
        -11    1    4    4    0    0 -0.13819653475E+02  0.10720620105E+01 -0.29024216040E+02  0.32164223228E+02  0.00000000000E+00 0.  1.
         11    1    4    4    0    0  0.27790691835E+02 -0.69588122594E+01  0.60452441538E+02  0.66897274299E+02  0.00000000000E+00 0. -1.
</event>
<event>
 8    1  0.3541538E-009  0.1670258E+03  0.7561462E-02  0.1180985E+00
         -4   -1    0    0    0  501 -0.00000000000E+00  0.00000000000E+00  0.86579046955E+02  0.86579046955E+02  0.00000000000E+00 0.  1.
          4   -1    0    0  501    0  0.00000000000E+00 -0.00000000000E+00 -0.43564926274E+03  0.43564926274E+03  0.00000000000E+00 0. -1.
         25    2    1    2    0    0 -0.48402441612E+01 -0.14490370161E+03 -0.89709690927E+02  0.21146133724E+03  0.12509019864E+03 0.  0.
         23    2    1    2    0    0  0.48402441612E+01  0.14490370161E+03 -0.25936052486E+03  0.31076697245E+03  0.91036907960E+02 0.  0.
          5    1    3    3  502    0 -0.40853874181E+02 -0.60477803636E+02 -0.94476231959E+02  0.11945641286E+03  0.41800000000E+01 0.  1.
         -5    1    3    3    0  502  0.36013630019E+02 -0.84425897976E+02  0.47665410321E+01  0.92004924377E+02  0.41800000000E+01 0.  1.
        -11    1    4    4    0    0 -0.20546872063E+01 -0.11918005570E+02 -0.34315849230E+02  0.36384586086E+02  0.00000000000E+00 0.  1.
         11    1    4    4    0    0  0.68949313675E+01  0.15682170718E+03 -0.22504467563E+03  0.27438238637E+03  0.00000000000E+00 0. -1.
</event>
<event>
 8    1  0.3541538E-009  0.1643805E+03  0.7561462E-02  0.1183838E+00
          1   -1    0    0  501    0  0.00000000000E+00  0.00000000000E+00  0.55703868559E+03  0.55703868559E+03  0.00000000000E+00 0. -1.
         -1   -1    0    0    0  501 -0.00000000000E+00 -0.00000000000E+00 -0.59077355202E+02  0.59077355202E+02  0.00000000000E+00 0.  1.
         25    2    1    2    0    0  0.79372003754E+02 -0.11607508488E+03  0.20607984322E+03  0.27908244673E+03  0.12507905493E+03 0.  0.
         23    2    1    2    0    0 -0.79372003754E+02  0.11607508488E+03  0.29188148717E+03  0.33703359406E+03  0.92862805603E+02 0.  0.
          5    1    3    3  502    0  0.10509080308E+03 -0.48896866816E+02  0.13262824640E+03  0.17618939985E+03  0.41800000000E+01 0. -1.
         -5    1    3    3    0  502 -0.25718799325E+02 -0.67178218063E+02  0.73451596815E+02  0.10289304688E+03  0.41800000000E+01 0. -1.
        -11    1    4    4    0    0 -0.55292092437E+02  0.76350249673E+02  0.91625346600E+02  0.13146018504E+03  0.00000000000E+00 0. -1.
         11    1    4    4    0    0 -0.24079911317E+02  0.39724835205E+02  0.20025614057E+03  0.20557340902E+03  0.00000000000E+00 0.  1.
</event>
<event>
 8    1  0.3541538E-009  0.8927012E+02  0.7561462E-02  0.1304629E+00
         -2   -1    0    0    0  501 -0.00000000000E+00  0.00000000000E+00  0.71346977792E+02  0.71346977792E+02  0.00000000000E+00 0.  1.
          2   -1    0    0  501    0  0.00000000000E+00 -0.00000000000E+00 -0.26614191825E+03  0.26614191825E+03  0.00000000000E+00 0. -1.
         25    2    1    2    0    0 -0.34042817608E+02 -0.76986378941E+02 -0.12306514091E+03  0.19462346095E+03  0.12508975446E+03 0.  0.
         23    2    1    2    0    0  0.34042817608E+02  0.76986378941E+02 -0.71729799548E+02  0.14286543509E+03  0.90440878081E+02 0.  0.
          5    1    3    3  502    0 -0.34803845517E+02 -0.39493528152E+02 -0.14265031364E+03  0.15211058743E+03  0.41800000000E+01 0.  1.
         -5    1    3    3    0  502  0.76102790898E+00 -0.37492850788E+02  0.19585172728E+02  0.42512873515E+02  0.41800000000E+01 0.  1.
        -11    1    4    4    0    0 -0.26909921433E+01  0.20138612001E+02  0.20237523592E+02  0.28676863377E+02  0.00000000000E+00 0.  1.
         11    1    4    4    0    0  0.36733809751E+02  0.56847766940E+02 -0.91967323140E+02  0.11418857172E+03  0.00000000000E+00 0. -1.
</event>
<event>
 8    1  0.3541538E-009  0.3426533E+03  0.7561462E-02  0.1065671E+00
         -2   -1    0    0    0  501 -0.00000000000E+00  0.00000000000E+00  0.16147802724E+03  0.16147802724E+03  0.00000000000E+00 0.  1.
          2   -1    0    0  501    0  0.00000000000E+00 -0.00000000000E+00 -0.75636320798E+03  0.75636320798E+03  0.00000000000E+00 0. -1.
         25    2    1    2    0    0  0.19074960536E+03 -0.26988406073E+03 -0.26159325383E+03  0.43966020059E+03  0.12508894178E+03 0.  0.
         23    2    1    2    0    0 -0.19074960536E+03  0.26988406073E+03 -0.33329192692E+03  0.47818103463E+03  0.91382575715E+02 0.  0.
          5    1    3    3  502    0  0.10486022156E+02 -0.90893422731E+02 -0.11252854211E+03  0.14509209539E+03  0.41800000000E+01 0. -1.
         -5    1    3    3    0  502  0.18026358320E+03 -0.17899063800E+03 -0.14906471172E+03  0.29456810520E+03  0.41800000000E+01 0. -1.
        -11    1    4    4    0    0 -0.15051347887E+03  0.14717658933E+03 -0.17395635736E+03  0.27308619525E+03  0.00000000000E+00 0.  1.
         11    1    4    4    0    0 -0.40236126486E+02  0.12270747140E+03 -0.15933556957E+03  0.20509483938E+03  0.00000000000E+00 0. -1.
</event>
<event>
 8    1  0.3541538E-009  0.1035914E+03  0.7561462E-02  0.1272920E+00
         -1   -1    0    0    0  501 -0.00000000000E+00  0.00000000000E+00  0.38978538303E+02  0.38978538303E+02  0.00000000000E+00 0.  1.
          1   -1    0    0  501    0  0.00000000000E+00 -0.00000000000E+00 -0.32170131721E+03  0.32170131721E+03  0.00000000000E+00 0. -1.
         25    2    1    2    0    0 -0.12985371310E+02  0.26264885867E+02 -0.16787671132E+03  0.21139586209E+03  0.12508859344E+03 0.  0.
         23    2    1    2    0    0  0.12985371310E+02 -0.26264885867E+02 -0.11484606759E+03  0.14928399342E+03  0.90761375887E+02 0.  0.
          5    1    3    3  502    0  0.10618900458E+02  0.72950952808E+02 -0.78646592235E+02  0.10787660280E+03  0.41800000000E+01 0. -1.
         -5    1    3    3    0  502 -0.23604271768E+02 -0.46686066941E+02 -0.89230119082E+02  0.10351925929E+03  0.41800000000E+01 0. -1.
        -11    1    4    4    0    0 -0.24163205882E+02 -0.35162687191E+02 -0.99234996112E+02  0.10801786677E+03  0.00000000000E+00 0. -1.
         11    1    4    4    0    0  0.37148577191E+02  0.88978013232E+01 -0.15611071478E+02  0.41266126647E+02  0.00000000000E+00 0.  1.
</event>
<event>
 8    1  0.3541538E-009  0.8593389E+02  0.7561462E-02  0.1313008E+00
          2   -1    0    0  501    0  0.00000000000E+00  0.00000000000E+00  0.47736924426E+03  0.47736924426E+03  0.00000000000E+00 0. -1.
         -2   -1    0    0    0  501 -0.00000000000E+00 -0.00000000000E+00 -0.38501308673E+02  0.38501308673E+02  0.00000000000E+00 0.  1.
         25    2    1    2    0    0 -0.16447077847E+01  0.19032418837E+02  0.39001251426E+03  0.41003041710E+03  0.12510093381E+03 0.  0.
         23    2    1    2    0    0  0.16447077847E+01 -0.19032418837E+02  0.48855421334E+02  0.10584013584E+03  0.91925753355E+02 0.  0.
          5    1    3    3  502    0 -0.53463743280E+02 -0.67491498233E+01  0.28473130452E+03  0.28981599514E+03  0.41800000000E+01 0. -1.
         -5    1    3    3    0  502  0.51819035495E+02  0.25781568660E+02  0.10528120974E+03  0.12021442196E+03  0.41800000000E+01 0. -1.
        -11    1    4    4    0    0 -0.60162658273E+00  0.20341714781E+02 -0.18685605081E+02  0.27627869118E+02  0.00000000000E+00 0.  1.
         11    1    4    4    0    0  0.22463343675E+01 -0.39374133618E+02  0.67541026415E+02  0.78212266720E+02  0.00000000000E+00 0. -1.
</event>
<event>
 8    1  0.3541538E-009  0.1347990E+03  0.7561462E-02  0.1220504E+00
          4   -1    0    0  501    0  0.00000000000E+00  0.00000000000E+00  0.52789742453E+02  0.52789742453E+02  0.00000000000E+00 0. -1.
         -4   -1    0    0    0  501 -0.00000000000E+00 -0.00000000000E+00 -0.39266057902E+03  0.39266057902E+03  0.00000000000E+00 0.  1.
         25    2    1    2    0    0 -0.20348738575E+02 -0.91173284586E+02 -0.17407076658E+03  0.23382783242E+03  0.12509270343E+03 0.  0.
         23    2    1    2    0    0  0.20348738575E+02  0.91173284586E+02 -0.16580006999E+03  0.21162248906E+03  0.92562280017E+02 0.  0.
          5    1    3    3  502    0  0.10013570415E+02  0.20506480812E+02  0.17799541773E+01  0.23268605128E+02  0.41800000000E+01 0.  1.
         -5    1    3    3    0  502 -0.30362308990E+02 -0.11167976540E+03 -0.17585072075E+03  0.21055922729E+03  0.41800000000E+01 0.  1.
        -11    1    4    4    0    0  0.51345421508E+02  0.24142765012E+02 -0.84573365382E+02  0.10184242507E+03  0.00000000000E+00 0.  1.
         11    1    4    4    0    0 -0.30996682933E+02  0.67030519574E+02 -0.81226704611E+02  0.10978006399E+03  0.00000000000E+00 0. -1.
</event>
<event>
 8    1  0.3541538E-009  0.1010247E+03  0.7561462E-02  0.1278156E+00
         -2   -1    0    0    0  501 -0.00000000000E+00  0.00000000000E+00  0.16681507811E+02  0.16681507811E+02  0.00000000000E+00 0.  1.
          2   -1    0    0  501    0  0.00000000000E+00 -0.00000000000E+00 -0.82474258028E+03  0.82474258028E+03  0.00000000000E+00 0. -1.
         25    2    1    2    0    0  0.26971733061E+02 -0.33896505504E+02 -0.40318575556E+03  0.42436302369E+03  0.12509506351E+03 0.  0.
         23    2    1    2    0    0 -0.26971733061E+02  0.33896505504E+02 -0.40487531690E+03  0.41706106440E+03  0.90218965473E+02 0.  0.
          5    1    3    3  502    0  0.51475495354E+02 -0.50379359269E+02 -0.12303092363E+03  0.14262498740E+03  0.41800000000E+01 0.  1.
         -5    1    3    3    0  502 -0.24503762293E+02  0.16482853765E+02 -0.28015483194E+03  0.28173803629E+03  0.41800000000E+01 0.  1.
        -11    1    4    4    0    0  0.25285801355E+02 -0.14245873942E+02 -0.11906208994E+03  0.12254834938E+03  0.00000000000E+00 0.  1.
         11    1    4    4    0    0 -0.52257534416E+02  0.48142379446E+02 -0.28581322696E+03  0.29451271502E+03  0.00000000000E+00 0. -1.
</event>
<event>
 8    1  0.3541538E-009  0.1814866E+03  0.7561462E-02  0.1166372E+00
          3   -1    0    0  501    0  0.00000000000E+00  0.00000000000E+00  0.92748339640E+03  0.92748339640E+03  0.00000000000E+00 0. -1.
         -3   -1    0    0    0  501 -0.00000000000E+00 -0.00000000000E+00 -0.54730285318E+02  0.54730285318E+02  0.00000000000E+00 0.  1.
         25    2    1    2    0    0  0.17894484522E+03 -0.16491470748E+02  0.27738409761E+03  0.35339053001E+03  0.12509877241E+03 0.  0.
         23    2    1    2    0    0 -0.17894484522E+03  0.16491470748E+02  0.59536901347E+03  0.62882315170E+03  0.93064857382E+02 0.  0.
          5    1    3    3  502    0  0.16916605098E+02  0.10623974816E+01 -0.12040909249E+02  0.21207454161E+02  0.41800000000E+01 0.  1.
         -5    1    3    3    0  502  0.16202824012E+03 -0.17553868229E+02  0.28942500686E+03  0.33218307585E+03  0.41800000000E+01 0. -1.
        -11    1    4    4    0    0 -0.65668982105E+02  0.21499991392E+02  0.10631745390E+03  0.12679931327E+03  0.00000000000E+00 0.  1.
         11    1    4    4    0    0 -0.11327586311E+03 -0.50085206442E+01  0.48905155957E+03  0.50202383844E+03  0.00000000000E+00 0. -1.
</event>
<event>
 8    1  0.3541538E-009  0.1087022E+03  0.7561462E-02  0.1262992E+00
          2   -1    0    0  501    0  0.00000000000E+00  0.00000000000E+00  0.18789891154E+03  0.18789891154E+03  0.00000000000E+00 0. -1.
         -2   -1    0    0    0  501 -0.00000000000E+00 -0.00000000000E+00 -0.10772716578E+03  0.10772716578E+03  0.00000000000E+00 0.  1.
         25    2    1    2    0    0 -0.89709785506E+02  0.18946091088E+02  0.53042038345E+02  0.16391426407E+03  0.12509047985E+03 0.  0.
         23    2    1    2    0    0  0.89709785506E+02 -0.18946091088E+02  0.27129707419E+02  0.13171181326E+03  0.90582452737E+02 0.  0.
          5    1    3    3  502    0 -0.38516574149E+02  0.18741985725E+02  0.90587256896E+02  0.10029113632E+03  0.41800000000E+01 0. -1.
         -5    1    3    3    0  502 -0.51193211356E+02  0.20410536293E+00 -0.37545218551E+02  0.63623127745E+02  0.41800000000E+01 0. -1.
        -11    1    4    4    0    0  0.99113619279E+02  0.29656928612E+01  0.37093987269E+02  0.10586911142E+03  0.00000000000E+00 0. -1.
         11    1    4    4    0    0 -0.94038337729E+01 -0.21911783950E+02 -0.99642798498E+01  0.25842701840E+02  0.00000000000E+00 0.  1.
</event>
<event>
 8    1  0.3541538E-009  0.1030021E+03  0.7561462E-02  0.1274107E+00
         -2   -1    0    0    0  501 -0.00000000000E+00  0.00000000000E+00  0.14189521067E+03  0.14189521067E+03  0.00000000000E+00 0. -1.
          2   -1    0    0  501    0  0.00000000000E+00 -0.00000000000E+00 -0.14677994098E+03  0.14677994098E+03  0.00000000000E+00 0.  1.
         25    2    1    2    0    0 -0.65838499618E+02 -0.58048988100E+02 -0.35032444529E+02  0.15677889974E+03  0.12509179903E+03 0.  0.
         23    2    1    2    0    0  0.65838499618E+02  0.58048988100E+02  0.30147714221E+02  0.13189625191E+03  0.93719493943E+02 0.  0.
          5    1    3    3  502    0 -0.16779982295E+02 -0.44705104391E+02  0.42438933546E+02  0.64020697004E+02  0.41800000000E+01 0.  1.
         -5    1    3    3    0  502 -0.49058517324E+02 -0.13343883709E+02 -0.77471378075E+02  0.92758202739E+02  0.41800000000E+01 0.  1.
        -11    1    4    4    0    0  0.74860400907E+02  0.35659451592E+02 -0.11545269895E+02  0.83719587725E+02  0.00000000000E+00 0.  1.
         11    1    4    4    0    0 -0.90219012890E+01  0.22389536508E+02  0.41692984117E+02  0.48176664190E+02  0.00000000000E+00 0. -1.
</event>
<event>
 8    1  0.3541538E-009  0.1300049E+03  0.7561462E-02  0.1227449E+00
          3   -1    0    0  501    0  0.00000000000E+00  0.00000000000E+00  0.24332278967E+03  0.24332278967E+03  0.00000000000E+00 0. -1.
         -3   -1    0    0    0  501 -0.00000000000E+00 -0.00000000000E+00 -0.10092378429E+03  0.10092378429E+03  0.00000000000E+00 0.  1.
         25    2    1    2    0    0  0.14885317305E+02  0.11052965242E+03  0.92760386436E+02  0.19154629127E+03  0.12508843140E+03 0.  0.
         23    2    1    2    0    0 -0.14885317305E+02 -0.11052965242E+03  0.49638618945E+02  0.15270028270E+03  0.91733347860E+02 0.  0.
          5    1    3    3  502    0  0.41741020008E+02  0.43676936225E+02 -0.14497292479E+02  0.62270630304E+02  0.41800000000E+01 0. -1.
         -5    1    3    3    0  502 -0.26855702702E+02  0.66852716197E+02  0.10725767892E+03  0.12927566096E+03  0.41800000000E+01 0. -1.
        -11    1    4    4    0    0 -0.28113441231E+02 -0.17064397979E+02 -0.17126033831E+02  0.37079108552E+02  0.00000000000E+00 0. -1.
         11    1    4    4    0    0  0.13228123926E+02 -0.93465254443E+02  0.66764652776E+02  0.11562117415E+03  0.00000000000E+00 0.  1.
</event>
<event>
 8    1  0.3541538E-009  0.7112628E+02  0.7561462E-02  0.1356304E+00
          2   -1    0    0  501    0  0.00000000000E+00  0.00000000000E+00  0.17521460131E+03  0.17521460131E+03  0.00000000000E+00 0. -1.
         -2   -1    0    0    0  501 -0.00000000000E+00 -0.00000000000E+00 -0.84267750599E+02  0.84267750599E+02  0.00000000000E+00 0.  1.
         25    2    1    2    0    0  0.23062457117E+02 -0.45524138427E+02  0.56149783960E+02  0.14630408850E+03  0.12509102272E+03 0.  0.
         23    2    1    2    0    0 -0.23062457117E+02  0.45524138427E+02  0.34797066746E+02  0.11317826341E+03  0.94837541857E+02 0.  0.
          5    1    3    3  502    0 -0.68920775955E+01 -0.31783030062E+02  0.91856821985E+02  0.97533634602E+02  0.41800000000E+01 0.  1.
         -5    1    3    3    0  502  0.29954534712E+02 -0.13741108365E+02 -0.35707038025E+02  0.48770453898E+02  0.41800000000E+01 0.  1.
        -11    1    4    4    0    0 -0.36546980937E+02  0.94756589474E+01  0.57280701182E+02  0.68604290361E+02  0.00000000000E+00 0. -1.
         11    1    4    4    0    0  0.13484523820E+02  0.36048479480E+02 -0.22483634436E+02  0.44573973044E+02  0.00000000000E+00 0.  1.
</event>
<event>
 8    1  0.3541538E-009  0.9913132E+02  0.7561462E-02  0.1282133E+00
          4   -1    0    0  501    0  0.00000000000E+00  0.00000000000E+00  0.36994232440E+03  0.36994232440E+03  0.00000000000E+00 0. -1.
         -4   -1    0    0    0  501 -0.00000000000E+00 -0.00000000000E+00 -0.34894704213E+02  0.34894704213E+02  0.00000000000E+00 0.  1.
         25    2    1    2    0    0 -0.73803623105E+01 -0.68504556939E+01  0.13113439906E+03  0.18151052409E+03  0.12509372984E+03 0.  0.
         23    2    1    2    0    0  0.73803623105E+01  0.68504556939E+01  0.20391322112E+03  0.22332650452E+03  0.90513686171E+02 0.  0.
          5    1    3    3  502    0  0.29976390750E+02 -0.55954685160E+02  0.68846146104E+02  0.93737799351E+02  0.41800000000E+01 0. -1.
         -5    1    3    3    0  502 -0.37356753060E+02  0.49104229466E+02  0.62288252959E+02  0.87772724735E+02  0.41800000000E+01 0. -1.
        -11    1    4    4    0    0 -0.10302312647E+02  0.36696622306E+02  0.17205549464E+03  0.17622676576E+03  0.00000000000E+00 0.  1.
         11    1    4    4    0    0  0.17682674957E+02 -0.29846166612E+02  0.31857726478E+02  0.47099738761E+02  0.00000000000E+00 0. -1.
</event>
<event>
 8    1  0.3541538E-009  0.1018327E+03  0.7561462E-02  0.1276489E+00
         -2   -1    0    0    0  501 -0.00000000000E+00  0.00000000000E+00  0.70213001759E+03  0.70213001759E+03  0.00000000000E+00 0.  1.
          2   -1    0    0  501    0  0.00000000000E+00 -0.00000000000E+00 -0.21023457800E+02  0.21023457800E+02  0.00000000000E+00 0. -1.
         25    2    1    2    0    0  0.16540657099E+02 -0.25199291001E+02  0.49285405645E+03  0.50937314944E+03  0.12508911545E+03 0.  0.
         23    2    1    2    0    0 -0.16540657099E+02  0.25199291001E+02  0.18825250333E+03  0.21378032595E+03  0.96718277205E+02 0.  0.
          5    1    3    3  502    0  0.34819394374E+02  0.34543360476E+02  0.34937869649E+03  0.35282939211E+03  0.41800000000E+01 0.  1.
         -5    1    3    3    0  502 -0.18278737275E+02 -0.59742651477E+02  0.14347535996E+03  0.15654375733E+03  0.41800000000E+01 0.  1.
        -11    1    4    4    0    0  0.27063719013E+02  0.37750566659E+02  0.14018129318E+03  0.14767648806E+03  0.00000000000E+00 0.  1.
         11    1    4    4    0    0 -0.43604376112E+02 -0.12551275657E+02  0.48071210156E+02  0.66103837882E+02  0.00000000000E+00 0. -1.
</event>
<event>
 8    1  0.3541538E-009  0.1852487E+03  0.7561462E-02  0.1162818E+00
          2   -1    0    0  501    0  0.00000000000E+00  0.00000000000E+00  0.85674259835E+03  0.85674259835E+03  0.00000000000E+00 0. -1.
         -2   -1    0    0    0  501 -0.00000000000E+00 -0.00000000000E+00 -0.42451622953E+02  0.42451622953E+02  0.00000000000E+00 0.  1.
         25    2    1    2    0    0 -0.15310736396E+03 -0.25488024259E+02  0.38211640471E+03  0.43098950375E+03  0.12508997287E+03 0.  0.
         23    2    1    2    0    0  0.15310736396E+03  0.25488024259E+02  0.43217457068E+03  0.46820471755E+03  0.91374469710E+02 0.  0.
          5    1    3    3  502    0 -0.32447688580E+02  0.41136861777E+02  0.55405044266E+02  0.76369399770E+02  0.41800000000E+01 0. -1.
         -5    1    3    3    0  502 -0.12065967538E+03 -0.66624886036E+02  0.32671136045E+03  0.35462010398E+03  0.41800000000E+01 0. -1.
        -11    1    4    4    0    0 -0.10977946981E+02  0.10637015193E+02  0.40509553966E+02  0.43297637056E+02  0.00000000000E+00 0.  1.
         11    1    4    4    0    0  0.16408531094E+03  0.14851009065E+02  0.39166501672E+03  0.42490708049E+03  0.00000000000E+00 0. -1.
</event>
<event>
 8    1  0.3541538E-009  0.8549530E+02  0.7561462E-02  0.1314142E+00
         -1   -1    0    0    0  501 -0.00000000000E+00  0.00000000000E+00  0.19665356293E+03  0.19665356293E+03  0.00000000000E+00 0.  1.
          1   -1    0    0  501    0  0.00000000000E+00 -0.00000000000E+00 -0.96502882077E+02  0.96502882077E+02  0.00000000000E+00 0. -1.
         25    2    1    2    0    0  0.32405054941E+02  0.20840653216E+01  0.14105274422E+03  0.19130530284E+03  0.12508961319E+03 0.  0.
         23    2    1    2    0    0 -0.32405054941E+02 -0.20840653216E+01 -0.40902063365E+02  0.10185114217E+03  0.87442812510E+02 0.  0.
          5    1    3    3  502    0 -0.40705374887E+02  0.10881294138E+02  0.95884907335E+02  0.10481754606E+03  0.41800000000E+01 0. -1.
         -5    1    3    3    0  502  0.73110429828E+02 -0.87972288162E+01  0.45167836887E+02  0.86487756784E+02  0.41800000000E+01 0. -1.
        -11    1    4    4    0    0  0.10395467483E+02  0.49571854011E+01 -0.55037944770E+02  0.56230016858E+02  0.00000000000E+00 0. -1.
         11    1    4    4    0    0 -0.42800522425E+02 -0.70412507228E+01  0.14135881405E+02  0.45621125311E+02  0.00000000000E+00 0.  1.
</event>
<event>
 8    1  0.3541538E-009  0.1194219E+03  0.7561462E-02  0.1244054E+00
         -2   -1    0    0    0  501 -0.00000000000E+00  0.00000000000E+00  0.36022012591E+02  0.36022012591E+02  0.00000000000E+00 0.  1.
          2   -1    0    0  501    0  0.00000000000E+00 -0.00000000000E+00 -0.57597526497E+03  0.57597526497E+03  0.00000000000E+00 0. -1.
         25    2    1    2    0    0  0.58629947552E+02 -0.23217548164E+02 -0.44339326895E+03  0.46499625372E+03  0.12508956684E+03 0.  0.
         23    2    1    2    0    0 -0.58629947552E+02  0.23217548164E+02 -0.96559983432E+02  0.14700102384E+03  0.91153416380E+02 0.  0.
          5    1    3    3  502    0  0.56075881798E+02 -0.70064552175E+02 -0.33445981022E+03  0.34631543864E+03  0.41800000000E+01 0. -1.
         -5    1    3    3    0  502  0.25540657537E+01  0.46847004011E+02 -0.10893345873E+03  0.11868081508E+03  0.41800000000E+01 0. -1.
        -11    1    4    4    0    0 -0.22976840404E+01  0.42348185574E+02 -0.70009160287E+02  0.81853104384E+02  0.00000000000E+00 0. -1.
         11    1    4    4    0    0 -0.56332263511E+02 -0.19130637410E+02 -0.26550823145E+02  0.65147919458E+02  0.00000000000E+00 0.  1.
</event>
<event>
 8    1  0.3541538E-009  0.6331198E+02  0.7561462E-02  0.1384436E+00
          1   -1    0    0  501    0  0.00000000000E+00  0.00000000000E+00  0.24050314327E+03  0.24050314327E+03  0.00000000000E+00 0. -1.
         -1   -1    0    0    0  501 -0.00000000000E+00 -0.00000000000E+00 -0.58994869603E+02  0.58994869603E+02  0.00000000000E+00 0.  1.
         25    2    1    2    0    0 -0.12613540513E+02 -0.40276330750E+02  0.13546470662E+03  0.18915614906E+03  0.12509227699E+03 0.  0.
         23    2    1    2    0    0  0.12613540513E+02  0.40276330750E+02  0.46043567045E+02  0.11034186381E+03  0.90961709640E+02 0.  0.
          5    1    3    3  502    0 -0.14996685071E+02 -0.12955042587E+02 -0.21629199344E+02  0.29631543257E+02  0.41800000000E+01 0. -1.
         -5    1    3    3    0  502  0.23831445584E+01 -0.27321288163E+02  0.15709390596E+03  0.15952460580E+03  0.41800000000E+01 0. -1.
        -11    1    4    4    0    0 -0.27455063780E+02  0.16901004690E+02 -0.13422236026E+02  0.34922498574E+02  0.00000000000E+00 0.  1.
         11    1    4    4    0    0  0.40068604293E+02  0.23375326060E+02  0.59465803071E+02  0.75419365240E+02  0.00000000000E+00 0. -1.
</event>
<event>
 8    1  0.3541538E-009  0.1307283E+03  0.7561462E-02  0.1226379E+00
         -1   -1    0    0    0  501 -0.00000000000E+00  0.00000000000E+00  0.16181842324E+02  0.16181842324E+02  0.00000000000E+00 0.  1.
          1   -1    0    0  501    0  0.00000000000E+00 -0.00000000000E+00 -0.13314513654E+04  0.13314513654E+04  0.00000000000E+00 0. -1.
         25    2    1    2    0    0 -0.45672901682E+02 -0.81565678873E+02 -0.85168959769E+03  0.86588775540E+03  0.12508980856E+03 0.  0.
         23    2    1    2    0    0  0.45672901682E+02  0.81565678873E+02 -0.46357992539E+03  0.48174545234E+03  0.91833325675E+02 0.  0.
          5    1    3    3  502    0 -0.19802200486E+02  0.18696231452E+02 -0.45669035547E+03  0.45752074204E+03  0.41800000000E+01 0. -1.
         -5    1    3    3    0  502 -0.25870701196E+02 -0.10026191032E+03 -0.39499924222E+03  0.40836701336E+03  0.41800000000E+01 0. -1.
        -11    1    4    4    0    0 -0.26717255881E+02  0.10135268770E+02 -0.81579425418E+02  0.86439216137E+02  0.00000000000E+00 0.  1.
         11    1    4    4    0    0  0.72390157563E+02  0.71430410103E+02 -0.38200049997E+03  0.39530623620E+03  0.00000000000E+00 0. -1.
</event>
<event>
 8    1  0.3541538E-009  0.1822540E+03  0.7561462E-02  0.1165639E+00
          2   -1    0    0  501    0  0.00000000000E+00  0.00000000000E+00  0.65725769483E+03  0.65725769483E+03  0.00000000000E+00 0. -1.
         -2   -1    0    0    0  501 -0.00000000000E+00 -0.00000000000E+00 -0.65106579338E+02  0.65106579338E+02  0.00000000000E+00 0.  1.
         25    2    1    2    0    0  0.16869370147E+03  0.49046105612E+02  0.31906227292E+03  0.38511322076E+03  0.12509345869E+03 0.  0.
         23    2    1    2    0    0 -0.16869370147E+03 -0.49046105612E+02  0.27308884257E+03  0.33725105341E+03  0.91091556695E+02 0.  0.
          5    1    3    3  502    0  0.47842825075E+02 -0.12305733827E+02  0.14380024011E+02  0.51620000841E+02  0.41800000000E+01 0.  1.
         -5    1    3    3    0  502  0.12085087639E+03  0.61351839439E+02  0.30468224891E+03  0.33349321992E+03  0.41800000000E+01 0.  1.
        -11    1    4    4    0    0 -0.63566642024E+02 -0.36920340476E+02  0.18667397093E+03  0.20062652103E+03  0.00000000000E+00 0.  1.
         11    1    4    4    0    0 -0.10512705944E+03 -0.12125765135E+02  0.86414871641E+02  0.13662453238E+03  0.00000000000E+00 0. -1.
</event>
<event>
 8    1  0.3541538E-009  0.1191939E+03  0.7561462E-02  0.1244433E+00
         -3   -1    0    0    0  501 -0.00000000000E+00  0.00000000000E+00  0.29457261497E+02  0.29457261497E+02  0.00000000000E+00 0.  1.
          3   -1    0    0  501    0  0.00000000000E+00 -0.00000000000E+00 -0.60143085012E+03  0.60143085012E+03  0.00000000000E+00 0. -1.
         25    2    1    2    0    0  0.76732871457E+01  0.62565325940E+02 -0.40904587736E+03  0.43236443601E+03  0.12508867413E+03 0.  0.
         23    2    1    2    0    0 -0.76732871457E+01 -0.62565325940E+02 -0.16292771126E+03  0.19852367560E+03  0.94302233976E+02 0.  0.
          5    1    3    3  502    0  0.18158288985E+02 -0.31119371054E+02 -0.54427872604E+02  0.65406455567E+02  0.41800000000E+01 0. -1.
         -5    1    3    3    0  502 -0.10485001840E+02  0.93684696995E+02 -0.35461800476E+03  0.36695798045E+03  0.41800000000E+01 0. -1.
        -11    1    4    4    0    0  0.13471366668E+02  0.19112966716E+02 -0.65995972660E+02  0.70016081181E+02  0.00000000000E+00 0. -1.
         11    1    4    4    0    0 -0.21144653813E+02 -0.81678292656E+02 -0.96931738599E+02  0.12850759442E+03  0.00000000000E+00 0.  1.
</event>
<event>
 8    1  0.3541538E-009  0.6098467E+02  0.7561462E-02  0.1393745E+00
          1   -1    0    0  501    0  0.00000000000E+00  0.00000000000E+00  0.88704401305E+02  0.88704401305E+02  0.00000000000E+00 0. -1.
         -1   -1    0    0    0  501 -0.00000000000E+00 -0.00000000000E+00 -0.16306923332E+03  0.16306923332E+03  0.00000000000E+00 0.  1.
         25    2    1    2    0    0 -0.41523550037E+02  0.23487962571E+02 -0.33919421374E+02  0.13810781967E+03  0.12508938050E+03 0.  0.
         23    2    1    2    0    0  0.41523550037E+02 -0.23487962571E+02 -0.40445410643E+02  0.11366581496E+03  0.94911520137E+02 0.  0.
          5    1    3    3  502    0 -0.23702168823E+02  0.33256517244E+01  0.46902134577E+02  0.52821732214E+02  0.41800000000E+01 0.  1.
         -5    1    3    3    0  502 -0.17821381215E+02  0.20162310846E+02 -0.80821555950E+02  0.85286087455E+02  0.41800000000E+01 0.  1.
        -11    1    4    4    0    0 -0.10992901696E+02  0.33121261324E+01 -0.52283826330E+02  0.53529548503E+02  0.00000000000E+00 0.  1.
         11    1    4    4    0    0  0.52516451733E+02 -0.26800088703E+02  0.11838415687E+02  0.60136266455E+02  0.00000000000E+00 0. -1.
</event>
<event>
 8    1  0.3541538E-009  0.1060533E+03  0.7561462E-02  0.1268058E+00
         -3   -1    0    0    0  501 -0.00000000000E+00  0.00000000000E+00  0.14651364542E+03  0.14651364542E+03  0.00000000000E+00 0.  1.
          3   -1    0    0  501    0  0.00000000000E+00 -0.00000000000E+00 -0.15616014264E+03  0.15616014264E+03  0.00000000000E+00 0. -1.
         25    2    1    2    0    0 -0.36178842288E+02  0.57763194283E+02 -0.84742211037E+02  0.16575403584E+03  0.12509061844E+03 0.  0.
         23    2    1    2    0    0  0.36178842288E+02 -0.57763194283E+02  0.75095713822E+02  0.13691975223E+03  0.91989983541E+02 0.  0.
          5    1    3    3  502    0 -0.68775900794E+02  0.33577408706E+02 -0.96549747831E+02  0.12327567932E+03  0.41800000000E+01 0.  1.
         -5    1    3    3    0  502  0.32597058506E+02  0.24185785576E+02  0.11807536795E+02  0.42478356517E+02  0.41800000000E+01 0.  1.
        -11    1    4    4    0    0  0.54984463608E+02 -0.49964418722E+02  0.86144053071E+02  0.11375646028E+03  0.00000000000E+00 0.  1.
         11    1    4    4    0    0 -0.18805621320E+02 -0.77987755608E+01 -0.11048339249E+02  0.23163291943E+02  0.00000000000E+00 0. -1.
</event>
<event>
 8    1  0.3541538E-009  0.8480811E+02  0.7561462E-02  0.1315935E+00
         -1   -1    0    0    0  501 -0.00000000000E+00  0.00000000000E+00  0.15942265272E+03  0.15942265272E+03  0.00000000000E+00 0.  1.
          1   -1    0    0  501    0  0.00000000000E+00 -0.00000000000E+00 -0.10179514558E+03  0.10179514558E+03  0.00000000000E+00 0. -1.
         25    2    1    2    0    0  0.36189178404E+02  0.12614495469E+02  0.88496840754E+02  0.15794785146E+03  0.12508817221E+03 0.  0.
         23    2    1    2    0    0 -0.36189178404E+02 -0.12614495469E+02 -0.30869333619E+02  0.10326994685E+03  0.90790880789E+02 0.  0.
          5    1    3    3  502    0  0.47557541984E+02  0.36535313646E+02  0.10880782961E+03  0.12431076031E+03  0.41800000000E+01 0. -1.
         -5    1    3    3    0  502 -0.11368363580E+02 -0.23920818177E+02 -0.20310988858E+02  0.33637091151E+02  0.41800000000E+01 0. -1.
        -11    1    4    4    0    0 -0.54633210776E+02  0.77855251486E+01  0.78885078997E+01  0.55746127026E+02  0.00000000000E+00 0.  1.
         11    1    4    4    0    0  0.18444032371E+02 -0.20400020617E+02 -0.38757841519E+02  0.47523819822E+02  0.00000000000E+00 0. -1.
</event>
<event>
 8    1  0.3541538E-009  0.7504624E+02  0.7561462E-02  0.1343728E+00
         -2   -1    0    0    0  501 -0.00000000000E+00  0.00000000000E+00  0.20869363619E+02  0.20869363619E+02  0.00000000000E+00 0.  1.
          2   -1    0    0  501    0  0.00000000000E+00 -0.00000000000E+00 -0.66817053781E+03  0.66817053781E+03  0.00000000000E+00 0. -1.
         25    2    1    2    0    0  0.13790006901E+01  0.34992488253E+02 -0.27317741117E+03  0.30248881176E+03  0.12508879801E+03 0.  0.
         23    2    1    2    0    0 -0.13790006901E+01 -0.34992488253E+02 -0.37412376302E+03  0.38655108967E+03  0.90701593119E+02 0.  0.
          5    1    3    3  502    0  0.37355036758E+01 -0.10551144512E+02  0.10031727757E+02  0.15600916640E+02  0.41800000000E+01 0.  1.
         -5    1    3    3    0  502 -0.23565029856E+01  0.45543632764E+02 -0.28320913893E+03  0.28688789512E+03  0.41800000000E+01 0.  1.
        -11    1    4    4    0    0  0.38173816569E+02  0.19546479087E+01 -0.21764348901E+03  0.22097454430E+03  0.00000000000E+00 0. -1.
         11    1    4    4    0    0 -0.39552817259E+02 -0.36947136161E+02 -0.15648027401E+03  0.16557654537E+03  0.00000000000E+00 0.  1.
</event>
<event>
 8    1  0.3541538E-009  0.1517869E+03  0.7561462E-02  0.1198294E+00
         -3   -1    0    0    0  501 -0.00000000000E+00  0.00000000000E+00  0.20957464922E+03  0.20957464922E+03  0.00000000000E+00 0.  1.
          3   -1    0    0  501    0  0.00000000000E+00 -0.00000000000E+00 -0.13044179895E+03  0.13044179895E+03  0.00000000000E+00 0. -1.
         25    2    1    2    0    0 -0.70188740697E+02 -0.90525386418E+02 -0.66653829496E+01  0.16974440620E+03  0.12508969262E+03 0.  0.
         23    2    1    2    0    0  0.70188740697E+02  0.90525386418E+02  0.85798233221E+02  0.17027204196E+03  0.92249263103E+02 0.  0.
          5    1    3    3  502    0  0.26612897448E+02 -0.41245450917E+02 -0.31191586129E+02  0.58307983820E+02  0.41800000000E+01 0.  1.
         -5    1    3    3    0  502 -0.96801638145E+02 -0.49279935501E+02  0.24526203179E+02  0.11143642238E+03  0.41800000000E+01 0.  1.
        -11    1    4    4    0    0 -0.19654445708E+02  0.34559073374E+02  0.34538120489E+02  0.52664110696E+02  0.00000000000E+00 0.  1.
         11    1    4    4    0    0  0.89843186405E+02  0.55966313044E+02  0.51260112732E+02  0.11760793127E+03  0.00000000000E+00 0. -1.
</event>
<event>
 8    1  0.3541538E-009  0.1376053E+03  0.7561462E-02  0.1216588E+00
          2   -1    0    0  501    0  0.00000000000E+00  0.00000000000E+00  0.47537795082E+03  0.47537795082E+03  0.00000000000E+00 0. -1.
         -2   -1    0    0    0  501 -0.00000000000E+00 -0.00000000000E+00 -0.43224558400E+02  0.43224558400E+02  0.00000000000E+00 0.  1.
         25    2    1    2    0    0 -0.63649142392E+02  0.66928363563E+02  0.20225642902E+03  0.25511937552E+03  0.12509042133E+03 0.  0.
         23    2    1    2    0    0  0.63649142392E+02 -0.66928363563E+02  0.22989696340E+03  0.26348313370E+03  0.89666765236E+02 0.  0.
          5    1    3    3  502    0  0.34895966329E+02  0.28765166729E+02  0.90485132994E+02  0.10124324657E+03  0.41800000000E+01 0.  1.
         -5    1    3    3    0  502 -0.98545108721E+02  0.38163196834E+02  0.11177129603E+03  0.15387612895E+03  0.41800000000E+01 0.  1.
        -11    1    4    4    0    0  0.83586257924E+02 -0.47225315392E+02  0.14350299189E+03  0.17265573147E+03  0.00000000000E+00 0.  1.
         11    1    4    4    0    0 -0.19937115532E+02 -0.19703048171E+02  0.86393971509E+02  0.90827402231E+02  0.00000000000E+00 0. -1.
</event>
<event>
 8    1  0.3541538E-009  0.1027927E+03  0.7561462E-02  0.1274531E+00
          2   -1    0    0  501    0  0.00000000000E+00  0.00000000000E+00  0.51137299178E+03  0.51137299178E+03  0.00000000000E+00 0. -1.
         -2   -1    0    0    0  501 -0.00000000000E+00 -0.00000000000E+00 -0.30675273585E+02  0.30675273585E+02  0.00000000000E+00 0.  1.
         25    2    1    2    0    0 -0.61568018273E+02  0.67087610120E+01  0.28177833480E+03  0.31445602653E+03  0.12509170362E+03 0.  0.
         23    2    1    2    0    0  0.61568018273E+02 -0.67087610120E+01  0.19891938340E+03  0.22759223883E+03  0.91617016633E+02 0.  0.
          5    1    3    3  502    0 -0.33024728679E+02  0.46834840736E+02  0.46142296076E+02  0.73693411498E+02  0.41800000000E+01 0.  1.
         -5    1    3    3    0  502 -0.28543289594E+02 -0.40126079724E+02  0.23563603872E+03  0.24076261504E+03  0.41800000000E+01 0.  1.
        -11    1    4    4    0    0 -0.17613126230E+02 -0.83851502604E+01  0.94735494796E+02  0.96723042418E+02  0.00000000000E+00 0. -1.
         11    1    4    4    0    0  0.79181144503E+02  0.16763892484E+01  0.10418388860E+03  0.13086919642E+03  0.00000000000E+00 0.  1.
</event>
<event>
 8    1  0.3541538E-009  0.9840250E+02  0.7561462E-02  0.1283692E+00
          4   -1    0    0  501    0  0.00000000000E+00  0.00000000000E+00  0.44963454937E+03  0.44963454937E+03  0.00000000000E+00 0. -1.
         -4   -1    0    0    0  501 -0.00000000000E+00 -0.00000000000E+00 -0.29958633493E+02  0.29958633493E+02  0.00000000000E+00 0.  1.
         25    2    1    2    0    0 -0.58374351623E+01  0.39460158182E+02  0.26388284266E+03  0.29474252361E+03  0.12509125006E+03 0.  0.
         23    2    1    2    0    0  0.58374351623E+01 -0.39460158182E+02  0.15579307322E+03  0.18485065925E+03  0.91143320269E+02 0.  0.
          5    1    3    3  502    0  0.98284250590E+01 -0.44495522083E+02  0.95059237655E+02  0.10549967056E+03  0.41800000000E+01 0. -1.
         -5    1    3    3    0  502 -0.15665860221E+02  0.83955680265E+02  0.16882360500E+03  0.18924285305E+03  0.41800000000E+01 0. -1.
        -11    1    4    4    0    0  0.22048464242E+02 -0.43555566189E+02  0.16027099193E+03  0.16754107848E+03  0.00000000000E+00 0. -1.
         11    1    4    4    0    0 -0.16211029080E+02  0.40954080068E+01 -0.44779187160E+01  0.17309580775E+02  0.00000000000E+00 0.  1.
</event>
<event>
 8    1  0.3541538E-009  0.1221920E+03  0.7561462E-02  0.1239524E+00
         -2   -1    0    0    0  501 -0.00000000000E+00  0.00000000000E+00  0.18520870466E+03  0.18520870466E+03  0.00000000000E+00 0.  1.
          2   -1    0    0  501    0  0.00000000000E+00 -0.00000000000E+00 -0.13750280008E+03  0.13750280008E+03  0.00000000000E+00 0. -1.
         25    2    1    2    0    0 -0.83708437738E+02 -0.60291557406E+02 -0.31086104927E+02  0.16509452051E+03  0.12509068847E+03 0.  0.
         23    2    1    2    0    0  0.83708437738E+02  0.60291557406E+02  0.78792009511E+02  0.15761698423E+03  0.89402228790E+02 0.  0.
          5    1    3    3  502    0 -0.10384609730E+03 -0.52341410116E+02  0.11707933519E+02  0.11695376542E+03  0.41800000000E+01 0.  1.
         -5    1    3    3    0  502  0.20137659564E+02 -0.79501472905E+01 -0.42794038446E+02  0.48140755096E+02  0.41800000000E+01 0.  1.
        -11    1    4    4    0    0  0.53625465481E+02  0.52151654504E+02  0.20975024090E+01  0.74832380237E+02  0.00000000000E+00 0. -1.
         11    1    4    4    0    0  0.30082972257E+02  0.81399029026E+01  0.76694507102E+02  0.82784603996E+02  0.00000000000E+00 0.  1.
</event>
<event>
 8    1  0.3541538E-009  0.8920522E+02  0.7561462E-02  0.1304788E+00
         -2   -1    0    0    0  501 -0.00000000000E+00  0.00000000000E+00  0.34083840736E+03  0.34083840736E+03  0.00000000000E+00 0.  1.
          2   -1    0    0  501    0  0.00000000000E+00 -0.00000000000E+00 -0.34065086665E+02  0.34065086665E+02  0.00000000000E+00 0. -1.
         25    2    1    2    0    0  0.17434556118E+00 -0.23555565627E+01  0.19268189390E+03  0.22973686372E+03  0.12508850976E+03 0.  0.
         23    2    1    2    0    0 -0.17434556118E+00  0.23555565627E+01  0.11409142679E+03  0.14516663030E+03  0.89726907014E+02 0.  0.
          5    1    3    3  502    0 -0.60038524375E+02  0.32532737389E+01  0.66496965280E+02  0.89747016611E+02  0.41800000000E+01 0. -1.
         -5    1    3    3    0  502  0.60212869937E+02 -0.56088303016E+01  0.12618492862E+03  0.13998984711E+03  0.41800000000E+01 0. -1.
        -11    1    4    4    0    0 -0.23813624658E+02  0.17406346719E+02  0.11335824294E+03  0.11713309041E+03  0.00000000000E+00 0.  1.
         11    1    4    4    0    0  0.23639279097E+02 -0.15050790156E+02  0.73318385333E+00  0.28033539896E+02  0.00000000000E+00 0. -1.
</event>
<event>
 8    1  0.3541538E-009  0.1621927E+03  0.7561462E-02  0.1186243E+00
          1   -1    0    0  501    0  0.00000000000E+00  0.00000000000E+00  0.15152306873E+03  0.15152306873E+03  0.00000000000E+00 0. -1.
         -1   -1    0    0    0  501 -0.00000000000E+00 -0.00000000000E+00 -0.21988784444E+03  0.21988784444E+03  0.00000000000E+00 0.  1.
         25    2    1    2    0    0  0.66780032925E+02  0.12253712434E+03  0.80630461969E+01  0.18758351631E+03  0.12509054016E+03 0.  0.
         23    2    1    2    0    0 -0.66780032925E+02 -0.12253712434E+03 -0.76427821904E+02  0.18382739685E+03  0.92067259287E+02 0.  0.
          5    1    3    3  502    0  0.72280691293E+02  0.30515702230E+02  0.42207461967E+02  0.89188837093E+02  0.41800000000E+01 0.  1.
         -5    1    3    3    0  502 -0.55006583676E+01  0.92021422113E+02 -0.34144415771E+02  0.98394679218E+02  0.41800000000E+01 0.  1.
        -11    1    4    4    0    0 -0.76750580575E+02 -0.84235448084E+02 -0.86405303156E+02  0.14301097422E+03  0.00000000000E+00 0.  1.
         11    1    4    4    0    0  0.99705476505E+01 -0.38301676259E+02  0.99774812520E+01  0.40816422636E+02  0.00000000000E+00 0. -1.
</event>
<event>
 8    1  0.3541538E-009  0.1165134E+03  0.7561462E-02  0.1248962E+00
          1   -1    0    0  501    0  0.00000000000E+00  0.00000000000E+00  0.20506391729E+03  0.20506391729E+03  0.00000000000E+00 0. -1.
         -1   -1    0    0    0  501 -0.00000000000E+00 -0.00000000000E+00 -0.97431826957E+02  0.97431826957E+02  0.00000000000E+00 0.  1.
         25    2    1    2    0    0  0.74243328383E+02  0.48774970675E+02  0.76918575773E+02  0.17162426248E+03  0.12508937044E+03 0.  0.
         23    2    1    2    0    0 -0.74243328383E+02 -0.48774970675E+02  0.30713514564E+02  0.13087148178E+03  0.91065664174E+02 0.  0.
          5    1    3    3  502    0  0.62392632128E+02  0.22629758611E+01  0.10018530536E+03  0.11812082549E+03  0.41800000000E+01 0. -1.
         -5    1    3    3    0  502  0.11850696255E+02  0.46511994814E+02 -0.23266729592E+02  0.53503436985E+02  0.41800000000E+01 0. -1.
        -11    1    4    4    0    0 -0.65820496566E+02 -0.72010041378E+02  0.90001186444E+01  0.97973394159E+02  0.00000000000E+00 0. -1.
         11    1    4    4    0    0 -0.84228318166E+01  0.23235070704E+02  0.21713395919E+02  0.32898087616E+02  0.00000000000E+00 0.  1.
</event>
<event>
 8    1  0.3541538E-009  0.1395306E+03  0.7561462E-02  0.1213962E+00
         -2   -1    0    0    0  501 -0.00000000000E+00  0.00000000000E+00  0.16795113107E+02  0.16795113107E+02  0.00000000000E+00 0. -1.
          2   -1    0    0  501    0  0.00000000000E+00 -0.00000000000E+00 -0.12843572543E+04  0.12843572543E+04  0.00000000000E+00 0.  1.
         25    2    1    2    0    0  0.33474425771E+01  0.89832827973E+02 -0.87359752443E+03  0.88707470259E+03  0.12509097061E+03 0.  0.
         23    2    1    2    0    0 -0.33474425771E+01 -0.89832827973E+02 -0.39396461677E+03  0.41407766482E+03  0.90393865320E+02 0.  0.
          5    1    3    3  502    0  0.59416594216E+02  0.16828165781E+02 -0.35238461024E+03  0.35777912846E+03  0.41800000000E+01 0.  1.
         -5    1    3    3    0  502 -0.56069151639E+02  0.73004662191E+02 -0.52121291419E+03  0.52929557412E+03  0.41800000000E+01 0.  1.
        -11    1    4    4    0    0  0.22768074724E+02  0.77127980617E+01 -0.48093543319E+02  0.53766731253E+02  0.00000000000E+00 0.  1.
         11    1    4    4    0    0 -0.26115517302E+02 -0.97545626034E+02 -0.34587107345E+03  0.36031093357E+03  0.00000000000E+00 0. -1.
</event>
<event>
 8    1  0.3541538E-009  0.1226648E+03  0.7561462E-02  0.1238765E+00
          3   -1    0    0  501    0  0.00000000000E+00  0.00000000000E+00  0.41187327250E+03  0.41187327250E+03  0.00000000000E+00 0. -1.
         -3   -1    0    0    0  501 -0.00000000000E+00 -0.00000000000E+00 -0.40689907932E+02  0.40689907932E+02  0.00000000000E+00 0.  1.
         25    2    1    2    0    0  0.33004793287E+02  0.59867496157E+02  0.24023215814E+03  0.27934212928E+03  0.12508837640E+03 0.  0.
         23    2    1    2    0    0 -0.33004793287E+02 -0.59867496157E+02  0.13095120642E+03  0.17322105115E+03  0.90464803213E+02 0.  0.
          5    1    3    3  502    0  0.53231541404E+02 -0.18486181086E+02  0.64003759096E+02  0.85377335808E+02  0.41800000000E+01 0. -1.
         -5    1    3    3    0  502 -0.20226748116E+02  0.78353677243E+02  0.17622839905E+03  0.19396479347E+03  0.41800000000E+01 0. -1.
        -11    1    4    4    0    0  0.22508946558E+02 -0.45013672675E+02  0.34738040125E+02  0.61152390261E+02  0.00000000000E+00 0.  1.
         11    1    4    4    0    0 -0.55513739845E+02 -0.14853823482E+02  0.96213166297E+02  0.11206866088E+03  0.00000000000E+00 0. -1.
</event>
<event>
 8    1  0.3541538E-009  0.8498857E+02  0.7561462E-02  0.1315462E+00
          1   -1    0    0  501    0  0.00000000000E+00  0.00000000000E+00  0.33642334836E+03  0.33642334836E+03  0.00000000000E+00 0. -1.
         -1   -1    0    0    0  501 -0.00000000000E+00 -0.00000000000E+00 -0.37833149421E+02  0.37833149421E+02  0.00000000000E+00 0.  1.
         25    2    1    2    0    0  0.15347129966E+01 -0.46269890031E+01  0.11919412291E+03  0.17285049433E+03  0.12508513135E+03 0.  0.
         23    2    1    2    0    0 -0.15347129966E+01  0.46269890031E+01  0.17939607603E+03  0.20140600345E+03  0.91420248078E+02 0.  0.
          5    1    3    3  502    0  0.24286722405E+02 -0.33684444398E+02  0.12803982489E+03  0.13467054554E+03  0.41800000000E+01 0.  1.
         -5    1    3    3    0  502 -0.22752009408E+02  0.29057455395E+02 -0.88457019794E+01  0.38179948790E+02  0.41800000000E+01 0.  1.
        -11    1    4    4    0    0 -0.14171237787E+02  0.45846255970E+02  0.84481645379E+02  0.97158898577E+02  0.00000000000E+00 0.  1.
         11    1    4    4    0    0  0.12636524791E+02 -0.41219266967E+02  0.94914430651E+02  0.10424710487E+03  0.00000000000E+00 0. -1.
</event>
<event>
 8    1  0.3541538E-009  0.1228404E+03  0.7561462E-02  0.1238484E+00
         -4   -1    0    0    0  501 -0.00000000000E+00  0.00000000000E+00  0.20900542666E+03  0.20900542666E+03  0.00000000000E+00 0. -1.
          4   -1    0    0  501    0  0.00000000000E+00 -0.00000000000E+00 -0.95449482237E+02  0.95449482237E+02  0.00000000000E+00 0.  1.
         25    2    1    2    0    0  0.49770882012E+02  0.53971242893E+02  0.49494224002E+01  0.14512631365E+03  0.12508842622E+03 0.  0.
         23    2    1    2    0    0 -0.49770882012E+02 -0.53971242893E+02  0.10860652202E+03  0.15932859524E+03  0.90554894302E+02 0.  0.
          5    1    3    3  502    0  0.42494070114E+02 -0.29173389747E+02  0.27498811119E+02  0.58570382251E+02  0.41800000000E+01 0. -1.
         -5    1    3    3    0  502  0.72768118984E+01  0.83144632640E+02 -0.22549388719E+02  0.86555931396E+02  0.41800000000E+01 0. -1.
        -11    1    4    4    0    0 -0.42089755967E+02 -0.76106569732E+02  0.10378567674E+03  0.13540762242E+03  0.00000000000E+00 0. -1.
         11    1    4    4    0    0 -0.76811260454E+01  0.22135326839E+02  0.48208452792E+01  0.23920972823E+02  0.00000000000E+00 0.  1.
</event>
<event>
 8    1  0.3541538E-009  0.1659866E+03  0.7561462E-02  0.1182099E+00
          1   -1    0    0  501    0  0.00000000000E+00  0.00000000000E+00  0.24806866407E+03  0.24806866407E+03  0.00000000000E+00 0. -1.
         -1   -1    0    0    0  501 -0.00000000000E+00 -0.00000000000E+00 -0.15024356177E+03  0.15024356177E+03  0.00000000000E+00 0.  1.
         25    2    1    2    0    0  0.34496308592E+02  0.15532481773E+03  0.60137812870E+02  0.21114048280E+03  0.12509177683E+03 0.  0.
         23    2    1    2    0    0 -0.34496308592E+02 -0.15532481773E+03  0.37687289430E+02  0.18717174304E+03  0.91088612353E+02 0.  0.
          5    1    3    3  502    0  0.47805204669E+02  0.79868670473E+02 -0.25053185514E+02  0.96485629090E+02  0.41800000000E+01 0. -1.
         -5    1    3    3    0  502 -0.13308896076E+02  0.75456147255E+02  0.85190998384E+02  0.11465485371E+03  0.41800000000E+01 0. -1.
        -11    1    4    4    0    0 -0.40281904495E+02 -0.13069544510E+03 -0.57726761013E+01  0.13688409327E+03  0.00000000000E+00 0.  1.
         11    1    4    4    0    0  0.57855959023E+01 -0.24629372624E+02  0.43459965532E+02  0.50287649774E+02  0.00000000000E+00 0. -1.
</event>
<event>
 8    1  0.3541538E-009  0.1293564E+03  0.7561462E-02  0.1228414E+00
         -4   -1    0    0    0  501 -0.00000000000E+00  0.00000000000E+00  0.57174364435E+02  0.57174364435E+02  0.00000000000E+00 0.  1.
          4   -1    0    0  501    0  0.00000000000E+00 -0.00000000000E+00 -0.41067815950E+03  0.41067815950E+03  0.00000000000E+00 0. -1.
         25    2    1    2    0    0  0.99233230580E+02 -0.25405022111E+02 -0.24074369547E+03  0.28999636574E+03  0.12509083113E+03 0.  0.
         23    2    1    2    0    0 -0.99233230580E+02  0.25405022111E+02 -0.11276009959E+03  0.17785615819E+03  0.91789562297E+02 0.  0.
          5    1    3    3  502    0  0.11338811948E+03  0.85737966979E+01 -0.12772004173E+03  0.17105629801E+03  0.41800000000E+01 0. -1.
         -5    1    3    3    0  502 -0.14154888897E+02 -0.33978818809E+02 -0.11302365374E+03  0.11894006774E+03  0.41800000000E+01 0. -1.
        -11    1    4    4    0    0 -0.11620485049E+02 -0.80057466433E+01  0.14202870134E+02  0.20021218048E+02  0.00000000000E+00 0.  1.
         11    1    4    4    0    0 -0.87612745531E+02  0.33410768755E+02 -0.12696296972E+03  0.15783494014E+03  0.00000000000E+00 0. -1.
</event>
<event>
 8    1  0.3541538E-009  0.1118168E+03  0.7561462E-02  0.1257242E+00
         -1   -1    0    0    0  501 -0.00000000000E+00  0.00000000000E+00  0.34750813613E+02  0.34750813613E+02  0.00000000000E+00 0.  1.
          1   -1    0    0  501    0  0.00000000000E+00 -0.00000000000E+00 -0.43237630965E+03  0.43237630965E+03  0.00000000000E+00 0. -1.
         25    2    1    2    0    0  0.50573650085E+02 -0.21206979852E+02 -0.23941458063E+03  0.27563129229E+03  0.12508332341E+03 0.  0.
         23    2    1    2    0    0 -0.50573650085E+02  0.21206979852E+02 -0.15821091540E+03  0.19149583097E+03  0.92911406447E+02 0.  0.
          5    1    3    3  502    0  0.77695611132E+02  0.22187637714E+02 -0.17838761525E+03  0.19587882206E+03  0.41800000000E+01 0. -1.
         -5    1    3    3    0  502 -0.27121961047E+02 -0.43394617567E+02 -0.61026965379E+02  0.79752470233E+02  0.41800000000E+01 0. -1.
        -11    1    4    4    0    0 -0.66426806920E+02  0.30402076392E+02 -0.69225623362E+02  0.10064290266E+03  0.00000000000E+00 0.  1.
         11    1    4    4    0    0  0.15853156835E+02 -0.91950965401E+01 -0.88985292039E+02  0.90852928303E+02  0.00000000000E+00 0. -1.
</event>
<event>
 8    1  0.3541538E-009  0.1232396E+03  0.7561462E-02  0.1237846E+00
          2   -1    0    0  501    0  0.00000000000E+00  0.00000000000E+00  0.89566941758E+03  0.89566941758E+03  0.00000000000E+00 0. -1.
         -2   -1    0    0    0  501 -0.00000000000E+00 -0.00000000000E+00 -0.19434691632E+02  0.19434691632E+02  0.00000000000E+00 0.  1.
         25    2    1    2    0    0 -0.56840509735E+02  0.38086481132E+02  0.59637711457E+03  0.61318364089E+03  0.12508833311E+03 0.  0.
         23    2    1    2    0    0  0.56840509735E+02 -0.38086481132E+02  0.27985761138E+03  0.30192046832E+03  0.90300957656E+02 0.  0.
          5    1    3    3  502    0 -0.91535856886E+02  0.38500303282E+02  0.33355686471E+03  0.34804991143E+03  0.41800000000E+01 0.  1.
         -5    1    3    3    0  502  0.34695347152E+02 -0.41382214959E+00  0.26282024986E+03  0.26513372947E+03  0.41800000000E+01 0.  1.
        -11    1    4    4    0    0 -0.15001459168E+02  0.16210894034E+02  0.39638648559E+02  0.45376858883E+02  0.00000000000E+00 0.  1.
         11    1    4    4    0    0  0.71841968903E+02 -0.54297375167E+02  0.24021896282E+03  0.25654360944E+03  0.00000000000E+00 0. -1.
</event>
<event>
 8    1  0.3541538E-009  0.8989435E+02  0.7561462E-02  0.1303108E+00
         -1   -1    0    0    0  501 -0.00000000000E+00  0.00000000000E+00  0.30879004908E+03  0.30879004908E+03  0.00000000000E+00 0.  1.
          1   -1    0    0  501    0  0.00000000000E+00 -0.00000000000E+00 -0.38789027818E+02  0.38789027818E+02  0.00000000000E+00 0. -1.
         25    2    1    2    0    0 -0.26341965686E+02 -0.67175262497E+01  0.15665746566E+03  0.20230857177E+03  0.12509265505E+03 0.  0.
         23    2    1    2    0    0  0.26341965686E+02  0.67175262497E+01  0.11334355560E+03  0.14527050513E+03  0.86704865780E+02 0.  0.
          5    1    3    3  502    0  0.34297790723E+01  0.56949427454E+02  0.78211056205E+02  0.96899135107E+02  0.41800000000E+01 0.  1.
         -5    1    3    3    0  502 -0.29771744758E+02 -0.63666953704E+02  0.78446409457E+02  0.10540943666E+03  0.41800000000E+01 0.  1.
        -11    1    4    4    0    0  0.20151051295E+02 -0.17800626366E+02  0.11670335515E+03  0.11976059565E+03  0.00000000000E+00 0.  1.
         11    1    4    4    0    0  0.61909143911E+01  0.24518152615E+02 -0.33597995512E+01  0.25509909480E+02  0.00000000000E+00 0. -1.
</event>
<event>
 8    1  0.3541538E-009  0.1230646E+03  0.7561462E-02  0.1238125E+00
         -1   -1    0    0    0  501 -0.00000000000E+00  0.00000000000E+00  0.61509899588E+02  0.61509899588E+02  0.00000000000E+00 0.  1.
          1   -1    0    0  501    0  0.00000000000E+00 -0.00000000000E+00 -0.35260363678E+03  0.35260363678E+03  0.00000000000E+00 0. -1.
         25    2    1    2    0    0 -0.55694483711E+02  0.51282598289E+02 -0.66475256429E+02  0.16061786121E+03  0.12508939691E+03 0.  0.
         23    2    1    2    0    0  0.55694483711E+02 -0.51282598289E+02 -0.22461848076E+03  0.25349567516E+03  0.89859974526E+02 0.  0.
          5    1    3    3  502    0  0.36526673953E+02 -0.46424156337E+01 -0.81884053852E+01  0.37950919827E+02  0.41800000000E+01 0. -1.
         -5    1    3    3    0  502 -0.92221157664E+02  0.55925013923E+02 -0.58286851044E+02  0.12266694138E+03  0.41800000000E+01 0. -1.
        -11    1    4    4    0    0  0.63368229189E+02 -0.16448198763E+02 -0.74412593849E+02  0.99112611894E+02  0.00000000000E+00 0.  1.
         11    1    4    4    0    0 -0.76737454781E+01 -0.34834399526E+02 -0.15020588692E+03  0.15438306327E+03  0.00000000000E+00 0. -1.
</event>
<event>
 8    1  0.3541538E-009  0.8567815E+02  0.7561462E-02  0.1313669E+00
          2   -1    0    0  501    0  0.00000000000E+00  0.00000000000E+00  0.27755370142E+03  0.27755370142E+03  0.00000000000E+00 0. -1.
         -2   -1    0    0    0  501 -0.00000000000E+00 -0.00000000000E+00 -0.17031866615E+03  0.17031866615E+03  0.00000000000E+00 0.  1.
         25    2    1    2    0    0  0.21334811276E+02  0.69825188265E+02 -0.12254046535E+03  0.18972247422E+03  0.12509084894E+03 0.  0.
         23    2    1    2    0    0 -0.21334811276E+02 -0.69825188265E+02  0.22977550063E+03  0.25814989335E+03  0.92270556839E+02 0.  0.
          5    1    3    3  502    0  0.23202423802E+02  0.19160911633E+01  0.20508538800E+02  0.31306491968E+02  0.41800000000E+01 0. -1.
         -5    1    3    3    0  502 -0.18676125256E+01  0.67909097102E+02 -0.14304900415E+03  0.15841598226E+03  0.41800000000E+01 0. -1.
        -11    1    4    4    0    0 -0.24894333066E+02 -0.27225139833E+02  0.20591438289E+03  0.20919289935E+03  0.00000000000E+00 0. -1.
         11    1    4    4    0    0  0.35595217894E+01 -0.42600048432E+02  0.23861117738E+02  0.48956994000E+02  0.00000000000E+00 0.  1.
</event>
<event>
 8    1  0.3541538E-009  0.1866263E+03  0.7561462E-02  0.1161540E+00
          1   -1    0    0  501    0  0.00000000000E+00  0.00000000000E+00  0.93770657903E+03  0.93770657903E+03  0.00000000000E+00 0. -1.
         -1   -1    0    0    0  501 -0.00000000000E+00 -0.00000000000E+00 -0.45042941413E+02  0.45042941413E+02  0.00000000000E+00 0.  1.
         25    2    1    2    0    0 -0.41396084108E+02  0.16718256366E+03  0.41798448496E+03  0.46906471100E+03  0.12508808122E+03 0.  0.
         23    2    1    2    0    0  0.41396084108E+02 -0.16718256366E+03  0.47467915265E+03  0.51368480944E+03  0.94276933127E+02 0.  0.
          5    1    3    3  502    0  0.36145534251E+00  0.83923403817E+02  0.33118263063E+03  0.34167627309E+03  0.41800000000E+01 0.  1.
         -5    1    3    3    0  502 -0.41757539451E+02  0.83259159841E+02  0.86801854332E+02  0.12738843791E+03  0.41800000000E+01 0.  1.
        -11    1    4    4    0    0  0.41990023844E+02 -0.16205673379E+02  0.12255495074E+03  0.13055842333E+03  0.00000000000E+00 0. -1.
         11    1    4    4    0    0 -0.59393973544E+00 -0.15097689028E+03  0.35212420191E+03  0.38312638611E+03  0.00000000000E+00 0.  1.
</event>
<event>
 8    1  0.3541538E-009  0.1100984E+03  0.7561462E-02  0.1260388E+00
          2   -1    0    0  501    0  0.00000000000E+00  0.00000000000E+00  0.19564642581E+03  0.19564642581E+03  0.00000000000E+00 0. -1.
         -2   -1    0    0    0  501 -0.00000000000E+00 -0.00000000000E+00 -0.93194907987E+02  0.93194907987E+02  0.00000000000E+00 0.  1.
         25    2    1    2    0    0 -0.71952756539E+02 -0.26969687418E+01  0.90985870058E+02  0.17061793967E+03  0.12509028728E+03 0.  0.
         23    2    1    2    0    0  0.71952756539E+02  0.26969687418E+01  0.11465647768E+02  0.11822339413E+03  0.93063618173E+02 0.  0.
          5    1    3    3  502    0 -0.22999901805E+02  0.35763027561E+02  0.98890076844E+02  0.10772515640E+03  0.41800000000E+01 0.  1.
         -5    1    3    3    0  502 -0.48952854733E+02 -0.38459996303E+02 -0.79042067866E+01  0.62892783267E+02  0.41800000000E+01 0.  1.
        -11    1    4    4    0    0 -0.70170887482E+01  0.30545335914E+02 -0.78051177067E+01  0.32298249845E+02  0.00000000000E+00 0.  1.
         11    1    4    4    0    0  0.78969845287E+02 -0.27848367173E+02  0.19270765475E+02  0.85925144287E+02  0.00000000000E+00 0. -1.
</event>
<event>
 8    1  0.3541538E-009  0.1699120E+03  0.7561462E-02  0.1177940E+00
          3   -1    0    0  501    0  0.00000000000E+00  0.00000000000E+00  0.50888247857E+03  0.50888247857E+03  0.00000000000E+00 0. -1.
         -3   -1    0    0    0  501 -0.00000000000E+00 -0.00000000000E+00 -0.77418121083E+02  0.77418121083E+02  0.00000000000E+00 0.  1.
         25    2    1    2    0    0 -0.29374578768E+02  0.14372153271E+03  0.11515226902E+03  0.22455913495E+03  0.12509202686E+03 0.  0.
         23    2    1    2    0    0  0.29374578768E+02 -0.14372153271E+03  0.31631208846E+03  0.36174146471E+03  0.96357693723E+02 0.  0.
          5    1    3    3  502    0  0.47877398467E+02  0.69997474835E+02  0.39639217146E+02  0.93705024962E+02  0.41800000000E+01 0.  1.
         -5    1    3    3    0  502 -0.77251977234E+02  0.73724057872E+02  0.75513051878E+02  0.13085410998E+03  0.41800000000E+01 0.  1.
        -11    1    4    4    0    0  0.30261859428E+02 -0.10389783936E+03  0.29959908253E+03  0.31854379826E+03  0.00000000000E+00 0. -1.
         11    1    4    4    0    0 -0.88728066006E+00 -0.39823693351E+02  0.16713005935E+02  0.43197666447E+02  0.00000000000E+00 0.  1.
</event>
<event>
 8    1  0.3541538E-009  0.1243650E+03  0.7561462E-02  0.1236065E+00
          2   -1    0    0  501    0  0.00000000000E+00  0.00000000000E+00  0.38083874488E+03  0.38083874488E+03  0.00000000000E+00 0. -1.
         -2   -1    0    0    0  501 -0.00000000000E+00 -0.00000000000E+00 -0.45609235766E+02  0.45609235766E+02  0.00000000000E+00 0.  1.
         25    2    1    2    0    0 -0.71232777842E+02  0.17450756432E+02  0.16736601240E+03  0.22144424472E+03  0.12509010302E+03 0.  0.
         23    2    1    2    0    0  0.71232777842E+02 -0.17450756432E+02  0.16786349671E+03  0.20500373593E+03  0.92031194037E+02 0.  0.
          5    1    3    3  502    0  0.31733584758E+02 -0.13012366564E+02  0.61820778696E+02  0.70821064407E+02  0.41800000000E+01 0. -1.
         -5    1    3    3    0  502 -0.10296636260E+03  0.30463122996E+02  0.10554523370E+03  0.15062318031E+03  0.41800000000E+01 0. -1.
        -11    1    4    4    0    0  0.66718861717E+02  0.19486964497E+02  0.63281113919E+02  0.93998125901E+02  0.00000000000E+00 0.  1.
         11    1    4    4    0    0  0.45139161250E+01 -0.36937720929E+02  0.10458238279E+03  0.11100561002E+03  0.00000000000E+00 0. -1.
</event>
<event>
 8    1  0.3541538E-009  0.1769063E+03  0.7561462E-02  0.1170831E+00
         -2   -1    0    0    0  501 -0.00000000000E+00  0.00000000000E+00  0.12485188664E+03  0.12485188664E+03  0.00000000000E+00 0.  1.
          2   -1    0    0  501    0  0.00000000000E+00 -0.00000000000E+00 -0.28646756460E+03  0.28646756460E+03  0.00000000000E+00 0. -1.
         25    2    1    2    0    0 -0.80900721072E+02 -0.13077753476E+03 -0.68543728152E+02  0.20974570874E+03  0.12508928569E+03 0.  0.
         23    2    1    2    0    0  0.80900721072E+02  0.13077753476E+03 -0.93071949801E+02  0.20157374251E+03  0.91224424135E+02 0.  0.
          5    1    3    3  502    0 -0.10122913435E+03 -0.81851307944E+02 -0.99306892701E+01  0.13062566839E+03  0.41800000000E+01 0.  1.
         -5    1    3    3    0  502  0.20328413277E+02 -0.48926226820E+02 -0.58613038882E+02  0.79120040345E+02  0.41800000000E+01 0.  1.
        -11    1    4    4    0    0 -0.10298877476E+02  0.41633902264E+02 -0.52401779418E+02  0.67715546082E+02  0.00000000000E+00 0. -1.
         11    1    4    4    0    0  0.91199598548E+02  0.89143632501E+02 -0.40670170383E+02  0.13385819642E+03  0.00000000000E+00 0.  1.
</event>
<event>
 8    1  0.3541538E-009  0.1017841E+03  0.7561462E-02  0.1276588E+00
          2   -1    0    0  501    0  0.00000000000E+00  0.00000000000E+00  0.53903259840E+02  0.53903259840E+02  0.00000000000E+00 0. -1.
         -2   -1    0    0    0  501 -0.00000000000E+00 -0.00000000000E+00 -0.22132000979E+03  0.22132000979E+03  0.00000000000E+00 0.  1.
         25    2    1    2    0    0  0.14832927150E+02 -0.36963660313E+01 -0.10231640643E+03  0.16232528888E+03  0.12508866270E+03 0.  0.
         23    2    1    2    0    0 -0.14832927150E+02  0.36963660313E+01 -0.65100343515E+02  0.11289798075E+03  0.90962742268E+02 0.  0.
          5    1    3    3  502    0 -0.98868560566E+01  0.53473254106E+02 -0.18037770790E+02  0.57445386259E+02  0.41800000000E+01 0. -1.
         -5    1    3    3    0  502  0.24719783206E+02 -0.57169620138E+02 -0.84278635641E+02  0.10487990262E+03  0.41800000000E+01 0. -1.
        -11    1    4    4    0    0  0.33705548856E+02  0.14798440994E+02 -0.47484083837E+02  0.60081578686E+02  0.00000000000E+00 0.  1.
         11    1    4    4    0    0 -0.48538476006E+02 -0.11102074963E+02 -0.17616259678E+02  0.52816402059E+02  0.00000000000E+00 0. -1.
</event>
<event>
 8    1  0.3541538E-009  0.1995589E+03  0.7561462E-02  0.1150112E+00
         -1   -1    0    0    0  501 -0.00000000000E+00  0.00000000000E+00  0.39698098009E+03  0.39698098009E+03  0.00000000000E+00 0.  1.
          1   -1    0    0  501    0  0.00000000000E+00 -0.00000000000E+00 -0.15758767039E+03  0.15758767039E+03  0.00000000000E+00 0. -1.
         25    2    1    2    0    0  0.18097650511E+03  0.13547367393E+02  0.26977275169E+03  0.34836674107E+03  0.12508406038E+03 0.  0.
         23    2    1    2    0    0 -0.18097650511E+03 -0.13547367393E+02 -0.30379441999E+02  0.20620190941E+03  0.93060681184E+02 0.  0.
          5    1    3    3  502    0  0.15763065733E+03 -0.17132890729E+02  0.13551578706E+03  0.20862157371E+03  0.41800000000E+01 0. -1.
         -5    1    3    3    0  502  0.23345847781E+02  0.30680258122E+02  0.13425696464E+03  0.13974516736E+03  0.41800000000E+01 0. -1.
        -11    1    4    4    0    0 -0.77671089188E+02  0.37779112234E+02  0.19843681737E+01  0.86394427678E+02  0.00000000000E+00 0.  1.
         11    1    4    4    0    0 -0.10330541592E+03 -0.51326479627E+02 -0.32363810172E+02  0.11980748173E+03  0.00000000000E+00 0. -1.
</event>
<event>
 8    1  0.3541538E-009  0.1739693E+03  0.7561462E-02  0.1173771E+00
          2   -1    0    0  501    0  0.00000000000E+00  0.00000000000E+00  0.17635797390E+04  0.17635797390E+04  0.00000000000E+00 0. -1.
         -2   -1    0    0    0  501 -0.00000000000E+00 -0.00000000000E+00 -0.24756964589E+02  0.24756964589E+02  0.00000000000E+00 0.  1.
         25    2    1    2    0    0 -0.14157555996E+03  0.23984113694E+02  0.13552348317E+04  0.13685495415E+04  0.12509005474E+03 0.  0.
         23    2    1    2    0    0  0.14157555996E+03 -0.23984113694E+02  0.38358794279E+03  0.41978716209E+03  0.91992797092E+02 0.  0.
          5    1    3    3  502    0  0.79840543468E+01 -0.22738268671E+02  0.38117215494E+03  0.38195609445E+03  0.41800000000E+01 0. -1.
         -5    1    3    3    0  502 -0.14955961431E+03  0.46722382366E+02  0.97406267671E+03  0.98659344707E+03  0.41800000000E+01 0. -1.
        -11    1    4    4    0    0  0.52866805805E+02 -0.51553238899E+02  0.12707337396E+03  0.14697033022E+03  0.00000000000E+00 0.  1.
         11    1    4    4    0    0  0.88708754159E+02  0.27569125204E+02  0.25651456883E+03  0.27281683187E+03  0.00000000000E+00 0. -1.
</event>
<event>
 8    1  0.3541538E-009  0.9385930E+02  0.7561462E-02  0.1293766E+00
          1   -1    0    0  501    0  0.00000000000E+00  0.00000000000E+00  0.57194804148E+03  0.57194804148E+03  0.00000000000E+00 0. -1.
         -1   -1    0    0    0  501 -0.00000000000E+00 -0.00000000000E+00 -0.25776926622E+02  0.25776926622E+02  0.00000000000E+00 0.  1.
         25    2    1    2    0    0 -0.37203608229E+02 -0.41022662930E+02  0.28707898947E+03  0.31800869056E+03  0.12509282047E+03 0.  0.
         23    2    1    2    0    0  0.37203608229E+02  0.41022662930E+02  0.25909212539E+03  0.27971627755E+03  0.89696706447E+02 0.  0.
          5    1    3    3  502    0 -0.23500743575E+02 -0.60676133328E+02  0.28634730954E+03  0.29367691804E+03  0.41800000000E+01 0. -1.
         -5    1    3    3    0  502 -0.13702864654E+02  0.19653470398E+02  0.73167992730E+00  0.24331772519E+02  0.41800000000E+01 0. -1.
        -11    1    4    4    0    0  0.35918267518E+02  0.64957204293E+02  0.23179378885E+03  0.24338841567E+03  0.00000000000E+00 0. -1.
         11    1    4    4    0    0  0.12853407107E+01 -0.23934541363E+02  0.27298336534E+02  0.36327861877E+02  0.00000000000E+00 0.  1.
</event>
<event>
 8    1  0.3541538E-009  0.8220673E+02  0.7561462E-02  0.1322903E+00
         -1   -1    0    0    0  501 -0.00000000000E+00  0.00000000000E+00  0.25390323012E+02  0.25390323012E+02  0.00000000000E+00 0. -1.
          1   -1    0    0  501    0  0.00000000000E+00 -0.00000000000E+00 -0.51456999621E+03  0.51456999621E+03  0.00000000000E+00 0.  1.
         25    2    1    2    0    0 -0.15343753572E+02  0.13073489771E+02 -0.19938962761E+03  0.23623952782E+03  0.12508614632E+03 0.  0.
         23    2    1    2    0    0  0.15343753572E+02 -0.13073489771E+02 -0.28979004559E+03  0.30372079140E+03  0.88666237627E+02 0.  0.
          5    1    3    3  502    0 -0.16468718718E+02  0.48828192207E+02 -0.23659125085E+02  0.56856289451E+02  0.41800000000E+01 0.  1.
         -5    1    3    3    0  502  0.11249651456E+01 -0.35754702436E+02 -0.17573050252E+03  0.17938323837E+03  0.41800000000E+01 0.  1.
        -11    1    4    4    0    0  0.45138999796E+02 -0.29721543465E+01 -0.24404006410E+03  0.24819733256E+03  0.00000000000E+00 0.  1.
         11    1    4    4    0    0 -0.29795246225E+02 -0.10101335424E+02 -0.45749981499E+02  0.55523458845E+02  0.00000000000E+00 0. -1.
</event>
<event>
 8    1  0.3541538E-009  0.8715151E+02  0.7561462E-02  0.1309900E+00
         -1   -1    0    0    0  501 -0.00000000000E+00  0.00000000000E+00  0.27056753185E+03  0.27056753185E+03  0.00000000000E+00 0.  1.
          1   -1    0    0  501    0  0.00000000000E+00 -0.00000000000E+00 -0.52818145425E+02  0.52818145425E+02  0.00000000000E+00 0. -1.
         25    2    1    2    0    0  0.18848227855E+02  0.32376834536E+02  0.16927829058E+03  0.21378983284E+03  0.12508971922E+03 0.  0.
         23    2    1    2    0    0 -0.18848227855E+02 -0.32376834536E+02  0.48471095846E+02  0.10959584444E+03  0.90875116934E+02 0.  0.
          5    1    3    3  502    0  0.30328546190E+02  0.60249199367E+02  0.35001452851E+02  0.76107560991E+02  0.41800000000E+01 0. -1.
         -5    1    3    3    0  502 -0.11480318335E+02 -0.27872364830E+02  0.13427683773E+03  0.13768227184E+03  0.41800000000E+01 0. -1.
        -11    1    4    4    0    0 -0.19714771919E+02  0.17525987137E+02  0.53281954185E+02  0.59454176462E+02  0.00000000000E+00 0.  1.
         11    1    4    4    0    0  0.86654406373E+00 -0.49902821673E+02 -0.48108583387E+01  0.50141667977E+02  0.00000000000E+00 0. -1.
</event>
<event>
 8    1  0.3541538E-009  0.1260727E+03  0.7561462E-02  0.1233402E+00
          2   -1    0    0  501    0  0.00000000000E+00  0.00000000000E+00  0.15733415603E+04  0.15733415603E+04  0.00000000000E+00 0. -1.
         -2   -1    0    0    0  501 -0.00000000000E+00 -0.00000000000E+00 -0.12266548089E+02  0.12266548089E+02  0.00000000000E+00 0.  1.
         25    2    1    2    0    0  0.73172097517E+02  0.44681205533E+01  0.10976218328E+04  0.11071557611E+04  0.12508425807E+03 0.  0.
         23    2    1    2    0    0 -0.73172097517E+02 -0.44681205533E+01  0.46345317941E+03  0.47845234725E+03  0.93561098384E+02 0.  0.
          5    1    3    3  502    0  0.11903037643E+02 -0.50448194258E+02  0.64535044269E+03  0.64744217417E+03  0.41800000000E+01 0.  1.
         -5    1    3    3    0  502  0.61269059874E+02  0.54916314811E+02  0.45227139009E+03  0.45971358695E+03  0.41800000000E+01 0.  1.
        -11    1    4    4    0    0  0.70925678088E+01 -0.32098032714E+02  0.10204995738E+03  0.10721372124E+03  0.00000000000E+00 0.  1.
         11    1    4    4    0    0 -0.80264665326E+02  0.27629912161E+02  0.36140322203E+03  0.37123862601E+03  0.00000000000E+00 0. -1.
</event>
<event>
 8    1  0.3541538E-009  0.1249343E+03  0.7561462E-02  0.1235172E+00
          4   -1    0    0  501    0  0.00000000000E+00  0.00000000000E+00  0.26434342951E+03  0.26434342951E+03  0.00000000000E+00 0. -1.
         -4   -1    0    0    0  501 -0.00000000000E+00 -0.00000000000E+00 -0.65979380062E+02  0.65979380062E+02  0.00000000000E+00 0.  1.
         25    2    1    2    0    0 -0.31766997041E+02 -0.53725126444E+02  0.57411358973E+02  0.15112374239E+03  0.12508712988E+03 0.  0.
         23    2    1    2    0    0  0.31766997041E+02  0.53725126444E+02  0.14095269047E+03  0.17919906718E+03  0.91373483101E+02 0.  0.
          5    1    3    3  502    0  0.92930960418E+01  0.37808411218E+02  0.20028441258E+02  0.43982365240E+02  0.41800000000E+01 0. -1.
         -5    1    3    3    0  502 -0.41060093083E+02 -0.91533537662E+02  0.37382917715E+02  0.10714137715E+03  0.41800000000E+01 0. -1.
        -11    1    4    4    0    0 -0.26464748309E+02  0.43882685252E+02  0.72645880310E+02  0.88901613563E+02  0.00000000000E+00 0.  1.
         11    1    4    4    0    0  0.58231745350E+02  0.98424411927E+01  0.68306810161E+02  0.90297453616E+02  0.00000000000E+00 0. -1.
</event>
<event>
 8    1  0.3541538E-009  0.1413417E+03  0.7561462E-02  0.1211535E+00
          2   -1    0    0  501    0  0.00000000000E+00  0.00000000000E+00  0.40668257177E+03  0.40668257177E+03  0.00000000000E+00 0.  1.
         -2   -1    0    0    0  501 -0.00000000000E+00 -0.00000000000E+00 -0.86603219788E+02  0.86603219788E+02  0.00000000000E+00 0. -1.
         25    2    1    2    0    0  0.86615332475E+02 -0.53542923638E+02  0.31664550674E+03  0.35536148964E+03  0.12509336867E+03 0.  0.
         23    2    1    2    0    0 -0.86615332475E+02  0.53542923638E+02  0.34338452369E+01  0.13792430192E+03  0.92963763237E+02 0.  0.
          5    1    3    3  502    0  0.70515900180E+02  0.29535424705E+02  0.15188954971E+03  0.17009627040E+03  0.41800000000E+01 0.  1.
         -5    1    3    3    0  502  0.16099432295E+02 -0.83078348343E+02  0.16475595703E+03  0.18526521924E+03  0.41800000000E+01 0.  1.
        -11    1    4    4    0    0 -0.47095711566E+01 -0.14287963427E+02  0.25222780189E+02  0.29368598874E+02  0.00000000000E+00 0.  1.
         11    1    4    4    0    0 -0.81905761318E+02  0.67830887065E+02 -0.21788934952E+02  0.10855570304E+03  0.00000000000E+00 0. -1.
</event>
<event>
 8    1  0.3541538E-009  0.1131925E+03  0.7561462E-02  0.1254770E+00
         -2   -1    0    0    0  501 -0.00000000000E+00  0.00000000000E+00  0.37115748537E+02  0.37115748537E+02  0.00000000000E+00 0.  1.
          2   -1    0    0  501    0  0.00000000000E+00 -0.00000000000E+00 -0.61689381700E+03  0.61689381700E+03  0.00000000000E+00 0. -1.
         25    2    1    2    0    0  0.81968956251E+02  0.51208875525E+02 -0.22479204907E+03  0.27481219103E+03  0.12509602829E+03 0.  0.
         23    2    1    2    0    0 -0.81968956251E+02 -0.51208875525E+02 -0.35498601940E+03  0.37919737451E+03  0.91838533004E+02 0.  0.
          5    1    3    3  502    0  0.83673204704E+02  0.61153050561E+02 -0.23683675013E+03  0.25855370698E+03  0.41800000000E+01 0.  1.
         -5    1    3    3    0  502 -0.17042484528E+01 -0.99441750354E+01  0.12044701066E+02  0.16258484053E+02  0.41800000000E+01 0.  1.
        -11    1    4    4    0    0 -0.44119268659E+02 -0.58423237896E+02 -0.31605213330E+03  0.32442061519E+03  0.00000000000E+00 0. -1.
         11    1    4    4    0    0 -0.37849687592E+02  0.72143623708E+01 -0.38933886096E+02  0.54776759322E+02  0.00000000000E+00 0.  1.
</event>
<event>
 8    1  0.3541538E-009  0.1175685E+03  0.7561462E-02  0.1247163E+00
         -2   -1    0    0    0  501 -0.00000000000E+00  0.00000000000E+00  0.65792463552E+02  0.65792463552E+02  0.00000000000E+00 0.  1.
          2   -1    0    0  501    0  0.00000000000E+00 -0.00000000000E+00 -0.31880104868E+03  0.31880104868E+03  0.00000000000E+00 0. -1.
         25    2    1    2    0    0 -0.19736307681E+02  0.87608728885E+02 -0.17783570138E+03  0.23523665172E+03  0.12508370961E+03 0.  0.
         23    2    1    2    0    0  0.19736307681E+02 -0.87608728885E+02 -0.75172883749E+02  0.14935686051E+03  0.92691413372E+02 0.  0.
          5    1    3    3  502    0 -0.57073791944E+02  0.90434827828E+02 -0.16246251010E+03  0.19454412198E+03  0.41800000000E+01 0.  1.
         -5    1    3    3    0  502  0.37337484263E+02 -0.28260989438E+01 -0.15373191281E+02  0.40692529738E+02  0.41800000000E+01 0.  1.
        -11    1    4    4    0    0  0.14969422725E+02 -0.42100337102E+02  0.15906643726E+02  0.47429350780E+02  0.00000000000E+00 0.  1.
         11    1    4    4    0    0  0.47668849565E+01 -0.45508391783E+02 -0.91079527475E+02  0.10192750973E+03  0.00000000000E+00 0. -1.
</event>
<event>
 8    1  0.3541538E-009  0.5342867E+02  0.7561462E-02  0.1427679E+00
         -2   -1    0    0    0  501 -0.00000000000E+00  0.00000000000E+00  0.55792415730E+03  0.55792415730E+03  0.00000000000E+00 0.  1.
          2   -1    0    0  501    0  0.00000000000E+00 -0.00000000000E+00 -0.35085943659E+02  0.35085943659E+02  0.00000000000E+00 0. -1.
         25    2    1    2    0    0 -0.39664310814E+02  0.34722517268E+01  0.45327146191E+03  0.47189833893E+03  0.12509080710E+03 0.  0.
         23    2    1    2    0    0  0.39664310814E+02 -0.34722517268E+01  0.69566751732E+02  0.12111176203E+03  0.90792135512E+02 0.  0.
          5    1    3    3  502    0 -0.26935608795E+02 -0.23616038076E+02  0.43518979272E+03  0.43668166021E+03  0.41800000000E+01 0.  1.
         -5    1    3    3    0  502 -0.12728702019E+02  0.27088289803E+02  0.18081669189E+02  0.35216678722E+02  0.41800000000E+01 0.  1.
        -11    1    4    4    0    0  0.13140158209E+02  0.25184060295E+01 -0.21913826895E+02  0.25675317639E+02  0.00000000000E+00 0. -1.
         11    1    4    4    0    0  0.26524152606E+02 -0.59906577562E+01  0.91480578627E+02  0.95436444390E+02  0.00000000000E+00 0.  1.
</event>
<event>
 8    1  0.3541538E-009  0.1307447E+03  0.7561462E-02  0.1226355E+00
          2   -1    0    0  501    0  0.00000000000E+00  0.00000000000E+00  0.85968568376E+03  0.85968568376E+03  0.00000000000E+00 0.  1.
         -2   -1    0    0    0  501 -0.00000000000E+00 -0.00000000000E+00 -0.23044973171E+02  0.23044973171E+02  0.00000000000E+00 0. -1.
         25    2    1    2    0    0  0.41388316259E+02 -0.70644464605E+02  0.55807465927E+03  0.57775294487E+03  0.12508999511E+03 0.  0.
         23    2    1    2    0    0 -0.41388316259E+02  0.70644464605E+02  0.27856605131E+03  0.30497771206E+03  0.93320559406E+02 0.  0.
          5    1    3    3  502    0 -0.19701000651E+02 -0.74937368550E+02  0.20133083881E+03  0.21576681323E+03  0.41800000000E+01 0.  1.
         -5    1    3    3    0  502  0.61089316910E+02  0.42929039450E+01  0.35674382046E+03  0.36198613164E+03  0.41800000000E+01 0.  1.
        -11    1    4    4    0    0  0.28853775132E+02  0.28706072347E+02  0.11705268667E+03  0.12392703654E+03  0.00000000000E+00 0.  1.
         11    1    4    4    0    0 -0.70242091392E+02  0.41938392257E+02  0.16151336464E+03  0.18105067552E+03  0.00000000000E+00 0. -1.
</event>
<event>
 8    1  0.3541538E-009  0.2208006E+03  0.7561462E-02  0.1133288E+00
          2   -1    0    0  501    0  0.00000000000E+00  0.00000000000E+00  0.11377102471E+04  0.11377102471E+04  0.00000000000E+00 0. -1.
         -2   -1    0    0    0  501 -0.00000000000E+00 -0.00000000000E+00 -0.54493123319E+02  0.54493123319E+02  0.00000000000E+00 0.  1.
         25    2    1    2    0    0 -0.19781158892E+03 -0.24074469593E+02  0.31503199209E+03  0.39319413457E+03  0.12508983421E+03 0.  0.
         23    2    1    2    0    0  0.19781158892E+03  0.24074469593E+02  0.76818513171E+03  0.79900923586E+03  0.92727329415E+02 0.  0.
          5    1    3    3  502    0 -0.95091985804E+00  0.29615672830E+02  0.27868283745E+02  0.40891392305E+02  0.41800000000E+01 0. -1.
         -5    1    3    3    0  502 -0.19686066906E+03 -0.53690142423E+02  0.28716370834E+03  0.35230274226E+03  0.41800000000E+01 0. -1.
        -11    1    4    4    0    0  0.98618199265E+02 -0.17269008013E+02  0.24075919609E+03  0.26074654046E+03  0.00000000000E+00 0.  1.
         11    1    4    4    0    0  0.99193389657E+02  0.41343477606E+02  0.52742593562E+03  0.53826269540E+03  0.00000000000E+00 0. -1.
</event>
<event>
 8    1  0.3541538E-009  0.1163337E+03  0.7561462E-02  0.1249271E+00
          1   -1    0    0  501    0  0.00000000000E+00  0.00000000000E+00  0.11996187157E+03  0.11996187157E+03  0.00000000000E+00 0. -1.
         -1   -1    0    0    0  501 -0.00000000000E+00 -0.00000000000E+00 -0.14686249289E+03  0.14686249289E+03  0.00000000000E+00 0.  1.
         25    2    1    2    0    0 -0.41145440355E+02  0.15392002763E+02 -0.75932038639E+02  0.15278423885E+03  0.12508992021E+03 0.  0.
         23    2    1    2    0    0  0.41145440355E+02 -0.15392002763E+02  0.49031417325E+02  0.11404012561E+03  0.93119328569E+02 0.  0.
          5    1    3    3  502    0  0.23364457631E+02  0.52747638403E+02 -0.35709254212E+02  0.67976720087E+02  0.41800000000E+01 0.  1.
         -5    1    3    3    0  502 -0.64509897986E+02 -0.37355635639E+02 -0.40222784428E+02  0.84807518766E+02  0.41800000000E+01 0.  1.
        -11    1    4    4    0    0  0.24783294601E+02  0.37415535836E+02  0.35240648974E+02  0.57061697778E+02  0.00000000000E+00 0.  1.
         11    1    4    4    0    0  0.16362145754E+02 -0.52807538599E+02  0.13790768351E+02  0.56978427832E+02  0.00000000000E+00 0. -1.
</event>
<event>
 8    1  0.3541538E-009  0.1768960E+03  0.7561462E-02  0.1170841E+00
          3   -1    0    0  501    0  0.00000000000E+00  0.00000000000E+00  0.32755809230E+02  0.32755809230E+02  0.00000000000E+00 0. -1.
         -3   -1    0    0    0  501 -0.00000000000E+00 -0.00000000000E+00 -0.10148630624E+04  0.10148630624E+04  0.00000000000E+00 0.  1.
         25    2    1    2    0    0  0.12716917379E+03 -0.70053047938E+02 -0.48908027902E+03  0.52528751683E+03  0.12509207697E+03 0.  0.
         23    2    1    2    0    0 -0.12716917379E+03  0.70053047938E+02 -0.49302697412E+03  0.52233135477E+03  0.93139780339E+02 0.  0.
          5    1    3    3  502    0  0.30220169004E+02 -0.83495842353E+02 -0.29150412956E+03  0.30475718902E+03  0.41800000000E+01 0.  1.
         -5    1    3    3    0  502  0.96949004784E+02  0.13442794416E+02 -0.19757614946E+03  0.22053032781E+03  0.41800000000E+01 0.  1.
        -11    1    4    4    0    0 -0.59058537198E+02  0.78569140961E+02 -0.22270545613E+03  0.24343118312E+03  0.00000000000E+00 0.  1.
         11    1    4    4    0    0 -0.68110636589E+02 -0.85160930232E+01 -0.27032151799E+03  0.27890017165E+03  0.00000000000E+00 0. -1.
</event>
<event>
 8    1  0.3541538E-009  0.9130579E+02  0.7561462E-02  0.1299720E+00
         -2   -1    0    0    0  501 -0.00000000000E+00  0.00000000000E+00  0.63490188717E+02  0.63490188717E+02  0.00000000000E+00 0.  1.
          2   -1    0    0  501    0  0.00000000000E+00 -0.00000000000E+00 -0.18965549908E+03  0.18965549908E+03  0.00000000000E+00 0. -1.
         25    2    1    2    0    0 -0.71012811451E+01 -0.11883763503E+02 -0.74028741639E+02  0.14600981312E+03  0.12508780480E+03 0.  0.
         23    2    1    2    0    0  0.71012811451E+01  0.11883763503E+02 -0.52136568728E+02  0.10713587468E+03  0.92564689900E+02 0.  0.
          5    1    3    3  502    0  0.35370714165E+02  0.31729409958E+02  0.29360191079E+01  0.47790537609E+02  0.41800000000E+01 0.  1.
         -5    1    3    3    0  502 -0.42471995310E+02 -0.43613173461E+02 -0.76964760747E+02  0.98219275510E+02  0.41800000000E+01 0.  1.
        -11    1    4    4    0    0  0.31137512114E+02 -0.17666214350E+02  0.73040615849E+01  0.36537502730E+02  0.00000000000E+00 0.  1.
         11    1    4    4    0    0 -0.24036230969E+02  0.29549977853E+02 -0.59440630313E+02  0.70598371952E+02  0.00000000000E+00 0. -1.
</event>
<event>
 8    1  0.3541538E-009  0.2421259E+03  0.7561462E-02  0.1118385E+00
          2   -1    0    0  501    0  0.00000000000E+00  0.00000000000E+00  0.86576195416E+02  0.86576195416E+02  0.00000000000E+00 0.  1.
         -2   -1    0    0    0  501 -0.00000000000E+00 -0.00000000000E+00 -0.71380348886E+03  0.71380348886E+03  0.00000000000E+00 0. -1.
         25    2    1    2    0    0  0.12917128938E+03  0.17765070908E+03 -0.38092720381E+03  0.45716314992E+03  0.12509042572E+03 0.  0.
         23    2    1    2    0    0 -0.12917128938E+03 -0.17765070908E+03 -0.24630008964E+03  0.34321653436E+03  0.94280744922E+02 0.  0.
          5    1    3    3  502    0 -0.17961248401E+02 -0.40022795970E+01 -0.31916566213E+02  0.37077813918E+02  0.41800000000E+01 0. -1.
         -5    1    3    3    0  502  0.14713253778E+03  0.18165298868E+03 -0.34901063759E+03  0.42008533600E+03  0.41800000000E+01 0. -1.
        -11    1    4    4    0    0 -0.81775279154E+02 -0.51059907266E+02 -0.61859289441E+02  0.11454641898E+03  0.00000000000E+00 0.  1.
         11    1    4    4    0    0 -0.47396010227E+02 -0.12659080182E+03 -0.18444080020E+03  0.22867011538E+03  0.00000000000E+00 0. -1.
</event>
<event>
 8    1  0.3541538E-009  0.1247623E+03  0.7561462E-02  0.1235441E+00
          1   -1    0    0  501    0  0.00000000000E+00  0.00000000000E+00  0.45429951733E+02  0.45429951733E+02  0.00000000000E+00 0. -1.
         -1   -1    0    0    0  501 -0.00000000000E+00 -0.00000000000E+00 -0.43177433437E+03  0.43177433437E+03  0.00000000000E+00 0.  1.
         25    2    1    2    0    0  0.32719642549E+02  0.75991574707E+02 -0.15741217359E+03  0.21741985292E+03  0.12508999006E+03 0.  0.
         23    2    1    2    0    0 -0.32719642549E+02 -0.75991574707E+02 -0.22893220904E+03  0.25978443318E+03  0.90734232521E+02 0.  0.
          5    1    3    3  502    0 -0.45205663776E+02  0.29084909284E+02 -0.86865626920E+02  0.10223792606E+03  0.41800000000E+01 0.  1.
         -5    1    3    3    0  502  0.77925306325E+02  0.46906665423E+02 -0.70546546673E+02  0.11518192686E+03  0.41800000000E+01 0.  1.
        -11    1    4    4    0    0  0.18196271355E+02 -0.33991050155E+02 -0.26293744809E+02  0.46667513303E+02  0.00000000000E+00 0. -1.
         11    1    4    4    0    0 -0.50915913904E+02 -0.42000524552E+02 -0.20263846423E+03  0.21311691988E+03  0.00000000000E+00 0.  1.
</event>
<event>
 8    1  0.3541538E-009  0.1124786E+03  0.7561462E-02  0.1256048E+00
          1   -1    0    0  501    0  0.00000000000E+00  0.00000000000E+00  0.15675449204E+03  0.15675449204E+03  0.00000000000E+00 0. -1.
         -1   -1    0    0    0  501 -0.00000000000E+00 -0.00000000000E+00 -0.92107285825E+02  0.92107285825E+02  0.00000000000E+00 0.  1.
         25    2    1    2    0    0 -0.40640105312E+02  0.27285731559E+02  0.49537633965E+02  0.14316948551E+03  0.12508954831E+03 0.  0.
         23    2    1    2    0    0  0.40640105312E+02 -0.27285731559E+02  0.15109572250E+02  0.10569229235E+03  0.92446915481E+02 0.  0.
          5    1    3    3  502    0  0.29129929264E+02 -0.28317524261E+02 -0.40097016963E+00  0.40841989867E+02  0.41800000000E+01 0. -1.
         -5    1    3    3    0  502 -0.69770034577E+02  0.55603255820E+02  0.49938604134E+02  0.10232749565E+03  0.41800000000E+01 0. -1.
        -11    1    4    4    0    0  0.22959400700E+02  0.28317779953E+02 -0.15720561862E+02  0.39700967333E+02  0.00000000000E+00 0.  1.
         11    1    4    4    0    0  0.17680704613E+02 -0.55603511512E+02  0.30830134112E+02  0.65991325016E+02  0.00000000000E+00 0. -1.
</event>
<event>
 8    1  0.3541538E-009  0.7851584E+02  0.7561462E-02  0.1333317E+00
         -2   -1    0    0    0  501 -0.00000000000E+00  0.00000000000E+00  0.91124093447E+02  0.91124093447E+02  0.00000000000E+00 0. -1.
          2   -1    0    0  501    0  0.00000000000E+00 -0.00000000000E+00 -0.20364124381E+03  0.20364124381E+03  0.00000000000E+00 0.  1.
         25    2    1    2    0    0  0.31428546234E+02 -0.40462916629E+02 -0.13307839659E+03  0.18968944932E+03  0.12508887403E+03 0.  0.
         23    2    1    2    0    0 -0.31428546234E+02  0.40462916629E+02  0.20561246227E+02  0.10507588793E+03  0.89404564973E+02 0.  0.
          5    1    3    3  502    0  0.68398245565E+01 -0.52824258304E+02  0.30746848026E+00  0.53429883045E+02  0.41800000000E+01 0. -1.
         -5    1    3    3    0  502  0.24588721678E+02  0.12361341675E+02 -0.13338586507E+03  0.13625956628E+03  0.41800000000E+01 0. -1.
        -11    1    4    4    0    0 -0.47231250448E+02  0.35874004563E+02  0.45807399708E+02  0.74940330199E+02  0.00000000000E+00 0. -1.
         11    1    4    4    0    0  0.15802704213E+02  0.45889120664E+01 -0.25246153481E+02  0.30135557735E+02  0.00000000000E+00 0.  1.
</event>
<event>
 8    1  0.3541538E-009  0.1116664E+03  0.7561462E-02  0.1257515E+00
          1   -1    0    0  501    0  0.00000000000E+00  0.00000000000E+00  0.48652995830E+03  0.48652995830E+03  0.00000000000E+00 0. -1.
         -1   -1    0    0    0  501 -0.00000000000E+00 -0.00000000000E+00 -0.39663701128E+02  0.39663701128E+02  0.00000000000E+00 0.  1.
         25    2    1    2    0    0  0.51585117409E+01 -0.47719157132E+02  0.10635782182E+03  0.17106446160E+03  0.12508931033E+03 0.  0.
         23    2    1    2    0    0 -0.51585117409E+01  0.47719157132E+02  0.34050843535E+03  0.35512919783E+03  0.88696247976E+02 0.  0.
          5    1    3    3  502    0  0.47574379542E+02  0.14258979057E+02  0.73911373265E+02  0.89145967774E+02  0.41800000000E+01 0. -1.
         -5    1    3    3    0  502 -0.42415867801E+02 -0.61978136189E+02  0.32446448560E+02  0.81918493828E+02  0.41800000000E+01 0. -1.
        -11    1    4    4    0    0  0.54672559696E+01 -0.24588487338E+02  0.56365174744E+02  0.61737488784E+02  0.00000000000E+00 0.  1.
         11    1    4    4    0    0 -0.10625767710E+02  0.72307644470E+02  0.28414326061E+03  0.29339170904E+03  0.00000000000E+00 0. -1.
</event>
<event>
 8    1  0.3541538E-009  0.5656776E+02  0.7561462E-02  0.1412827E+00
          2   -1    0    0  501    0  0.00000000000E+00  0.00000000000E+00  0.42425237201E+03  0.42425237201E+03  0.00000000000E+00 0. -1.
         -2   -1    0    0    0  501 -0.00000000000E+00 -0.00000000000E+00 -0.29133413463E+02  0.29133413463E+02  0.00000000000E+00 0.  1.
         25    2    1    2    0    0  0.26695411990E+02 -0.29630442569E+00  0.21481935992E+03  0.25001686671E+03  0.12509333886E+03 0.  0.
         23    2    1    2    0    0 -0.26695411990E+02  0.29630442569E+00  0.18029959863E+03  0.20336891876E+03  0.90212188946E+02 0.  0.
          5    1    3    3  502    0  0.14074966328E+02 -0.12584372020E+02 -0.11814484057E+02  0.22661101690E+02  0.41800000000E+01 0.  1.
         -5    1    3    3    0  502  0.12620445662E+02  0.12288067595E+02  0.22663384398E+03  0.22735576502E+03  0.41800000000E+01 0.  1.
        -11    1    4    4    0    0 -0.37547758639E+02  0.27410791698E+02  0.44116760299E+02  0.64089579649E+02  0.00000000000E+00 0.  1.
         11    1    4    4    0    0  0.10852346649E+02 -0.27114487273E+02  0.13618283833E+03  0.13927933911E+03  0.00000000000E+00 0. -1.
</event>
<event>
 8    1  0.3541538E-009  0.1156021E+03  0.7561462E-02  0.1250534E+00
         -2   -1    0    0    0  501 -0.00000000000E+00  0.00000000000E+00  0.46995379953E+02  0.46995379953E+02  0.00000000000E+00 0.  1.
          2   -1    0    0  501    0  0.00000000000E+00 -0.00000000000E+00 -0.41744906165E+03  0.41744906165E+03  0.00000000000E+00 0. -1.
         25    2    1    2    0    0 -0.17995977711E+02  0.39611484459E+02 -0.32902518551E+03  0.35468045496E+03  0.12509087702E+03 0.  0.
         23    2    1    2    0    0  0.17995977711E+02 -0.39611484459E+02 -0.41428496192E+02  0.10976398665E+03  0.91863417928E+02 0.  0.
          5    1    3    3  502    0 -0.66069630588E+02 -0.21060161985E+01 -0.13377038115E+03  0.14927028727E+03  0.41800000000E+01 0.  1.
         -5    1    3    3    0  502  0.48073652876E+02  0.41717500657E+02 -0.19525480436E+03  0.20541016768E+03  0.41800000000E+01 0.  1.
        -11    1    4    4    0    0  0.53903352093E+02 -0.36585377079E+02 -0.21599089322E+02  0.68633678631E+02  0.00000000000E+00 0. -1.
         11    1    4    4    0    0 -0.35907374381E+02 -0.30261073799E+01 -0.19829406870E+02  0.41130308018E+02  0.00000000000E+00 0.  1.
</event>
<event>
 8    1  0.3541538E-009  0.9878076E+02  0.7561462E-02  0.1282881E+00
         -1   -1    0    0    0  501 -0.00000000000E+00  0.00000000000E+00  0.69599078656E+02  0.69599078656E+02  0.00000000000E+00 0.  1.
          1   -1    0    0  501    0  0.00000000000E+00 -0.00000000000E+00 -0.21869115763E+03  0.21869115763E+03  0.00000000000E+00 0. -1.
         25    2    1    2    0    0 -0.96976762619E+01  0.32408611021E+02 -0.13980867530E+03  0.19062809040E+03  0.12509292613E+03 0.  0.
         23    2    1    2    0    0  0.96976762619E+01 -0.32408611021E+02 -0.92834036767E+01  0.97662145885E+02  0.91144666119E+02 0.  0.
          5    1    3    3  502    0  0.58816240151E+01 -0.43032140982E+02 -0.19690723068E+02  0.47870195670E+02  0.41800000000E+01 0.  1.
         -5    1    3    3    0  502 -0.15579300277E+02  0.75440752004E+02 -0.12011795223E+03  0.14275789473E+03  0.41800000000E+01 0.  1.
        -11    1    4    4    0    0 -0.23424212689E+02  0.77998764359E+01  0.25129323212E+02  0.35228038515E+02  0.00000000000E+00 0.  1.
         11    1    4    4    0    0  0.33121888951E+02 -0.40208487457E+02 -0.34412726889E+02  0.62434107371E+02  0.00000000000E+00 0. -1.
</event>
<event>
 8    1  0.3541538E-009  0.1400079E+03  0.7561462E-02  0.1213318E+00
          2   -1    0    0  501    0  0.00000000000E+00  0.00000000000E+00  0.82774547808E+03  0.82774547808E+03  0.00000000000E+00 0.  1.
         -2   -1    0    0    0  501 -0.00000000000E+00 -0.00000000000E+00 -0.44124500519E+02  0.44124500519E+02  0.00000000000E+00 0. -1.
         25    2    1    2    0    0 -0.90828277394E+02  0.50119303250E+02  0.67574564906E+03  0.69501128541E+03  0.12508710599E+03 0.  0.
         23    2    1    2    0    0  0.90828277394E+02 -0.50119303250E+02  0.10787532850E+03  0.17685869319E+03  0.94234761771E+02 0.  0.
          5    1    3    3  502    0 -0.61976587446E+02 -0.35720700473E+02  0.28147834671E+03  0.29045584501E+03  0.41800000000E+01 0. -1.
         -5    1    3    3    0  502 -0.28851689947E+02  0.85840003723E+02  0.39426730236E+03  0.40455544040E+03  0.41800000000E+01 0. -1.
        -11    1    4    4    0    0  0.86493997835E+02 -0.61100864872E+02  0.11992511576E+03  0.15998925195E+03  0.00000000000E+00 0.  1.
         11    1    4    4    0    0  0.43342795590E+01  0.10981561622E+02 -0.12049787257E+02  0.16869441244E+02  0.00000000000E+00 0. -1.
</event>
<event>
 8    1  0.3541538E-009  0.1626362E+03  0.7561462E-02  0.1185752E+00
          3   -1    0    0  501    0  0.00000000000E+00  0.00000000000E+00  0.29199659326E+03  0.29199659326E+03  0.00000000000E+00 0. -1.
         -3   -1    0    0    0  501 -0.00000000000E+00 -0.00000000000E+00 -0.13738148780E+03  0.13738148780E+03  0.00000000000E+00 0.  1.
         25    2    1    2    0    0  0.10867752218E+03 -0.11943744704E+03  0.29784261902E+02  0.20642661421E+03  0.12509491282E+03 0.  0.
         23    2    1    2    0    0 -0.10867752218E+03  0.11943744704E+03  0.12483084357E+03  0.22295146686E+03  0.89713485522E+02 0.  0.
          5    1    3    3  502    0  0.35261953387E+02 -0.49316505134E+02  0.73880248489E+02  0.95662357027E+02  0.41800000000E+01 0.  1.
         -5    1    3    3    0  502  0.73415568795E+02 -0.70120941905E+02 -0.44095986587E+02  0.11076425718E+03  0.41800000000E+01 0.  1.
        -11    1    4    4    0    0 -0.96729974464E+02  0.94435985463E+02  0.51676313526E+02  0.14472485858E+03  0.00000000000E+00 0.  1.
         11    1    4    4    0    0 -0.11947547718E+02  0.25001461576E+02  0.73154530040E+02  0.78226608279E+02  0.00000000000E+00 0. -1.
</event>
<event>
 8    1  0.3541538E-009  0.3760650E+03  0.7561462E-02  0.1052398E+00
         -1   -1    0    0    0  501 -0.00000000000E+00  0.00000000000E+00  0.42894305283E+02  0.42894305283E+02  0.00000000000E+00 0.  1.
          1   -1    0    0  501    0  0.00000000000E+00 -0.00000000000E+00 -0.40783702633E+04  0.40783702633E+04  0.00000000000E+00 0. -1.
         25    2    1    2    0    0 -0.33628246509E+03 -0.15470935832E+03 -0.28235736188E+04  0.28504800215E+04  0.12508992914E+03 0.  0.
         23    2    1    2    0    0  0.33628246509E+03  0.15470935832E+03 -0.12119023392E+04  0.12707845470E+04  0.95735068735E+02 0.  0.
          5    1    3    3  502    0 -0.13773220755E+03 -0.80277016443E+02 -0.16679402410E+04  0.16755466810E+04  0.41800000000E+01 0. -1.
         -5    1    3    3    0  502 -0.19855025755E+03 -0.74432341882E+02 -0.11556333778E+04  0.11749333405E+04  0.41800000000E+01 0. -1.
        -11    1    4    4    0    0  0.11707858886E+03  0.91399465459E+01 -0.31962183847E+03  0.34051292812E+03  0.00000000000E+00 0.  1.
         11    1    4    4    0    0  0.21920387623E+03  0.14556941178E+03 -0.89228050069E+03  0.93027161889E+03  0.00000000000E+00 0. -1.
</event>
<event>
 8    1  0.3541538E-009  0.7997953E+02  0.7561462E-02  0.1329110E+00
          1   -1    0    0  501    0  0.00000000000E+00  0.00000000000E+00  0.90285471876E+02  0.90285471876E+02  0.00000000000E+00 0. -1.
         -1   -1    0    0    0  501 -0.00000000000E+00 -0.00000000000E+00 -0.17936510687E+03  0.17936510687E+03  0.00000000000E+00 0.  1.
         25    2    1    2    0    0 -0.20190486074E+02 -0.14532485239E+02  0.16359877302E+02  0.12858607079E+03  0.12509149916E+03 0.  0.
         23    2    1    2    0    0  0.20190486074E+02  0.14532485239E+02 -0.10543951229E+03  0.14106450795E+03  0.90348524039E+02 0.  0.
          5    1    3    3  502    0  0.10123223537E+02 -0.66263403631E+02  0.12843088589E+02  0.68379350977E+02  0.41800000000E+01 0. -1.
         -5    1    3    3    0  502 -0.30313709611E+02  0.51730918392E+02  0.35167887132E+01  0.60206719815E+02  0.41800000000E+01 0. -1.
        -11    1    4    4    0    0  0.20326831850E+02  0.22966885625E+01 -0.12017905698E+03  0.12190759045E+03  0.00000000000E+00 0.  1.
         11    1    4    4    0    0 -0.13634577659E+00  0.12235796676E+02  0.14739544692E+02  0.19156917503E+02  0.00000000000E+00 0. -1.
</event>
<event>
 8    1  0.3541538E-009  0.1555829E+03  0.7561462E-02  0.1193776E+00
         -1   -1    0    0    0  501 -0.00000000000E+00  0.00000000000E+00  0.46344685379E+02  0.46344685379E+02  0.00000000000E+00 0.  1.
          1   -1    0    0  501    0  0.00000000000E+00 -0.00000000000E+00 -0.59111204027E+03  0.59111204027E+03  0.00000000000E+00 0. -1.
         25    2    1    2    0    0 -0.13038557679E+02  0.12240373326E+03 -0.25172379135E+03  0.30686318813E+03  0.12508985251E+03 0.  0.
         23    2    1    2    0    0  0.13038557679E+02 -0.12240373326E+03 -0.29304356355E+03  0.33059353752E+03  0.90911379979E+02 0.  0.
          5    1    3    3  502    0 -0.59397713642E+02  0.38411788617E+02 -0.61712781956E+02  0.93965385901E+02  0.41800000000E+01 0. -1.
         -5    1    3    3    0  502  0.46359155964E+02  0.83991944642E+02 -0.19001100939E+03  0.21289780223E+03  0.41800000000E+01 0. -1.
        -11    1    4    4    0    0  0.15702055008E+02 -0.13270921864E+03 -0.29033022471E+03  0.31960902776E+03  0.00000000000E+00 0. -1.
         11    1    4    4    0    0 -0.26634973295E+01  0.10305485384E+02 -0.27133388381E+01  0.10984509760E+02  0.00000000000E+00 0.  1.
</event>
<event>
 8    1  0.3541538E-009  0.1419165E+03  0.7561462E-02  0.1210773E+00
         -2   -1    0    0    0  501 -0.00000000000E+00  0.00000000000E+00  0.41244161865E+02  0.41244161865E+02  0.00000000000E+00 0.  1.
          2   -1    0    0  501    0  0.00000000000E+00 -0.00000000000E+00 -0.85057529542E+03  0.85057529542E+03  0.00000000000E+00 0. -1.
         25    2    1    2    0    0  0.47103512998E+02  0.12179209170E+03 -0.24318442303E+03  0.30304683414E+03  0.12508663213E+03 0.  0.
         23    2    1    2    0    0 -0.47103512998E+02 -0.12179209170E+03 -0.56614671052E+03  0.58877262314E+03  0.95284045872E+02 0.  0.
          5    1    3    3  502    0  0.25779635418E+02  0.10393365063E+03 -0.25177896229E+03  0.27363645880E+03  0.41800000000E+01 0.  1.
         -5    1    3    3    0  502  0.21323877580E+02  0.17858441063E+02  0.85945392537E+01  0.29410375333E+02  0.41800000000E+01 0.  1.
        -11    1    4    4    0    0 -0.53303015100E+02 -0.40322348757E+02 -0.37478606569E+03  0.38069896015E+03  0.00000000000E+00 0. -1.
         11    1    4    4    0    0  0.61995021019E+01 -0.81469742938E+02 -0.19136064483E+03  0.20807366299E+03  0.00000000000E+00 0.  1.
</event>
<event>
 8    1  0.3541538E-009  0.2156027E+03  0.7561462E-02  0.1137205E+00
         -2   -1    0    0    0  501 -0.00000000000E+00  0.00000000000E+00  0.19131395897E+03  0.19131395897E+03  0.00000000000E+00 0. -1.
          2   -1    0    0  501    0  0.00000000000E+00 -0.00000000000E+00 -0.27839720429E+03  0.27839720429E+03  0.00000000000E+00 0.  1.
         25    2    1    2    0    0  0.19425782403E+03 -0.13676455908E+02 -0.10397549579E+03  0.25373445053E+03  0.12508844878E+03 0.  0.
         23    2    1    2    0    0 -0.19425782403E+03  0.13676455908E+02  0.16892250468E+02  0.21597671272E+03  0.91855564165E+02 0.  0.
          5    1    3    3  502    0 -0.13578632418E+02  0.50595963100E+01  0.77882324016E+01  0.16973736686E+02  0.41800000000E+01 0. -1.
         -5    1    3    3    0  502  0.20783645645E+03 -0.18736052218E+02 -0.11176372819E+03  0.23676071385E+03  0.41800000000E+01 0. -1.
        -11    1    4    4    0    0 -0.17845729643E+03  0.33992297667E+02 -0.56642247883E+01  0.18175413721E+03  0.00000000000E+00 0. -1.
         11    1    4    4    0    0 -0.15800527604E+02 -0.20315841758E+02  0.22556475256E+02  0.34222575515E+02  0.00000000000E+00 0.  1.
</event>
<event>
 8    1  0.3541538E-009  0.7468755E+02  0.7561462E-02  0.1344841E+00
         -1   -1    0    0    0  501 -0.00000000000E+00  0.00000000000E+00  0.17673910509E+03  0.17673910509E+03  0.00000000000E+00 0.  1.
          1   -1    0    0  501    0  0.00000000000E+00 -0.00000000000E+00 -0.74174285075E+02  0.74174285075E+02  0.00000000000E+00 0. -1.
         25    2    1    2    0    0  0.10679172568E+02  0.78397772153E+00  0.20632278714E+02  0.12723026130E+03  0.12508872498E+03 0.  0.
         23    2    1    2    0    0 -0.10679172568E+02 -0.78397772153E+00  0.81932541304E+02  0.12368312887E+03  0.92032144899E+02 0.  0.
          5    1    3    3  502    0 -0.19478401201E+02  0.18734079184E+02 -0.45016599768E+02  0.52672008608E+02  0.41800000000E+01 0.  1.
         -5    1    3    3    0  502  0.30157573768E+02 -0.17950101463E+02  0.65648878481E+02  0.74558252689E+02  0.41800000000E+01 0.  1.
        -11    1    4    4    0    0 -0.28188502886E+02  0.36132011201E+02  0.21217162591E+02  0.50500316007E+02  0.00000000000E+00 0.  1.
         11    1    4    4    0    0  0.17509330318E+02 -0.36915988922E+02  0.60715378713E+02  0.73182812863E+02  0.00000000000E+00 0. -1.
</event>
<event>
 8    1  0.3541538E-009  0.1128371E+03  0.7561462E-02  0.1255404E+00
          4   -1    0    0  501    0  0.00000000000E+00  0.00000000000E+00  0.91290784078E+03  0.91290784078E+03  0.00000000000E+00 0. -1.
         -4   -1    0    0    0  501 -0.00000000000E+00 -0.00000000000E+00 -0.17187245589E+02  0.17187245589E+02  0.00000000000E+00 0.  1.
         25    2    1    2    0    0 -0.65076163407E+02 -0.14729426196E+02  0.47907829288E+03  0.49961572961E+03  0.12509198026E+03 0.  0.
         23    2    1    2    0    0  0.65076163407E+02  0.14729426196E+02  0.41664230231E+03  0.43047935676E+03  0.85263154289E+02 0.  0.
          5    1    3    3  502    0 -0.18867655177E+02  0.44240194438E+02  0.79164358007E+02  0.92723520179E+02  0.41800000000E+01 0.  1.
         -5    1    3    3    0  502 -0.46208508230E+02 -0.58969620634E+02  0.39991393487E+03  0.40689220943E+03  0.41800000000E+01 0.  1.
        -11    1    4    4    0    0  0.32771209683E+01  0.36646615730E+02  0.88386752241E+02  0.95738873703E+02  0.00000000000E+00 0.  1.
         11    1    4    4    0    0  0.61799042438E+02 -0.21917189533E+02  0.32825555007E+03  0.33474048306E+03  0.00000000000E+00 0. -1.
</event>
<event>
 8    1  0.3541538E-009  0.1804452E+03  0.7561462E-02  0.1167373E+00
         -1   -1    0    0    0  501 -0.00000000000E+00  0.00000000000E+00  0.13025541497E+03  0.13025541497E+03  0.00000000000E+00 0.  1.
          1   -1    0    0  501    0  0.00000000000E+00 -0.00000000000E+00 -0.30786150915E+03  0.30786150915E+03  0.00000000000E+00 0. -1.
         25    2    1    2    0    0 -0.14636923627E+03  0.79736881966E+02 -0.74081872023E+02  0.22117338369E+03  0.12509044016E+03 0.  0.
         23    2    1    2    0    0  0.14636923627E+03 -0.79736881966E+02 -0.10352422216E+03  0.21694354043E+03  0.92548968062E+02 0.  0.
          5    1    3    3  502    0 -0.70367443006E+01  0.34282931991E+02  0.25874238881E+02  0.43723950347E+02  0.41800000000E+01 0.  1.
         -5    1    3    3    0  502 -0.13933249197E+03  0.45453949975E+02 -0.99956110905E+02  0.17744943335E+03  0.41800000000E+01 0.  1.
        -11    1    4    4    0    0  0.83855702632E+02 -0.85568866365E+01 -0.86340805093E+02  0.12066372196E+03  0.00000000000E+00 0. -1.
         11    1    4    4    0    0  0.62513533642E+02 -0.71179995329E+02 -0.17183417064E+02  0.96279818474E+02  0.00000000000E+00 0.  1.
</event>
<event>
 8    1  0.3541538E-009  0.1030144E+03  0.7561462E-02  0.1274082E+00
          1   -1    0    0  501    0  0.00000000000E+00  0.00000000000E+00  0.30841298817E+03  0.30841298817E+03  0.00000000000E+00 0. -1.
         -1   -1    0    0    0  501 -0.00000000000E+00 -0.00000000000E+00 -0.56782075540E+02  0.56782075540E+02  0.00000000000E+00 0.  1.
         25    2    1    2    0    0 -0.34688180718E+02 -0.21249538617E+02  0.23040052202E+03  0.26530530390E+03  0.12509073091E+03 0.  0.
         23    2    1    2    0    0  0.34688180718E+02  0.21249538617E+02  0.21230390611E+02  0.99889759804E+02  0.88726669357E+02 0.  0.
          5    1    3    3  502    0  0.40955755957E+02 -0.32972137078E+02  0.71197284286E+02  0.88606215692E+02  0.41800000000E+01 0.  1.
         -5    1    3    3    0  502 -0.75643936676E+02  0.11722598461E+02  0.15920323773E+03  0.17669908821E+03  0.41800000000E+01 0.  1.
        -11    1    4    4    0    0  0.11888035052E+02  0.43301360641E+02  0.42397073918E+02  0.61756336417E+02  0.00000000000E+00 0. -1.
         11    1    4    4    0    0  0.22800145666E+02 -0.22051822025E+02 -0.21166683307E+02  0.38133423387E+02  0.00000000000E+00 0.  1.
</event>
<event>
 8    1  0.3541538E-009  0.1557473E+03  0.7561462E-02  0.1193583E+00
         -1   -1    0    0    0  501 -0.00000000000E+00  0.00000000000E+00  0.24945449423E+02  0.24945449423E+02  0.00000000000E+00 0.  1.
          1   -1    0    0  501    0  0.00000000000E+00 -0.00000000000E+00 -0.12134311451E+04  0.12134311451E+04  0.00000000000E+00 0. -1.
         25    2    1    2    0    0  0.57167624763E+02 -0.10449621174E+03 -0.86556132408E+03  0.88262761001E+03  0.12508995411E+03 0.  0.
         23    2    1    2    0    0 -0.57167624763E+02  0.10449621174E+03 -0.32292437159E+03  0.35574898451E+03  0.89942173758E+02 0.  0.
          5    1    3    3  502    0 -0.38344705767E+02 -0.24608489168E+02 -0.17292838986E+03  0.17887871482E+03  0.41800000000E+01 0. -1.
         -5    1    3    3    0  502  0.95512330530E+02 -0.79887722576E+02 -0.69263293422E+03  0.70374889518E+03  0.41800000000E+01 0. -1.
        -11    1    4    4    0    0  0.17598619755E+02  0.86924054146E+01 -0.99455325952E+02  0.10137372041E+03  0.00000000000E+00 0. -1.
         11    1    4    4    0    0 -0.74766244518E+02  0.95803806329E+02 -0.22346904564E+03  0.25437526410E+03  0.00000000000E+00 0.  1.
</event>
<event>
 8    1  0.3541538E-009  0.5577059E+02  0.7561462E-02  0.1416489E+00
          3   -1    0    0  501    0  0.00000000000E+00  0.00000000000E+00  0.14842622264E+03  0.14842622264E+03  0.00000000000E+00 0. -1.
         -3   -1    0    0    0  501 -0.00000000000E+00 -0.00000000000E+00 -0.11550560631E+03  0.11550560631E+03  0.00000000000E+00 0.  1.
         25    2    1    2    0    0  0.46996948263E+02  0.24691391530E+02 -0.32904184710E+02  0.13981745899E+03  0.12509140060E+03 0.  0.
         23    2    1    2    0    0 -0.46996948263E+02 -0.24691391530E+02  0.65824801036E+02  0.12411436997E+03  0.90846543352E+02 0.  0.
          5    1    3    3  502    0  0.21776269707E+02  0.10489590915E+00  0.47234518797E+02  0.52180351585E+02  0.41800000000E+01 0.  1.
         -5    1    3    3    0  502  0.25220678556E+02  0.24586495621E+02 -0.80138703507E+02  0.87637107401E+02  0.41800000000E+01 0.  1.
        -11    1    4    4    0    0 -0.16965116301E+02 -0.40058253508E+01  0.82280656767E+02  0.84106886079E+02  0.00000000000E+00 0. -1.
         11    1    4    4    0    0 -0.30031831962E+02 -0.20685566179E+02 -0.16455855732E+02  0.40007483887E+02  0.00000000000E+00 0.  1.
</event>
<event>
 8    1  0.3541538E-009  0.1418665E+03  0.7561462E-02  0.1210839E+00
          1   -1    0    0  501    0  0.00000000000E+00  0.00000000000E+00  0.26900613561E+03  0.26900613561E+03  0.00000000000E+00 0. -1.
         -1   -1    0    0    0  501 -0.00000000000E+00 -0.00000000000E+00 -0.84759980108E+02  0.84759980108E+02  0.00000000000E+00 0.  1.
         25    2    1    2    0    0 -0.34528220619E+02 -0.10046442587E+03  0.12969177531E+03  0.20917148450E+03  0.12508978559E+03 0.  0.
         23    2    1    2    0    0  0.34528220619E+02  0.10046442587E+03  0.54554380190E+02  0.14459463122E+03  0.81523788526E+02 0.  0.
          5    1    3    3  502    0 -0.81084200172E+02 -0.50146925224E+02  0.76084415107E+02  0.12204782771E+03  0.41800000000E+01 0.  1.
         -5    1    3    3    0  502  0.46555979553E+02 -0.50317500645E+02  0.53607360203E+02  0.87123656783E+02  0.41800000000E+01 0.  1.
        -11    1    4    4    0    0  0.18679021915E+02  0.78778928283E+00 -0.13329207927E+02  0.22960711131E+02  0.00000000000E+00 0.  1.
         11    1    4    4    0    0  0.15849198704E+02  0.99676636587E+02  0.67883588118E+02  0.12163392009E+03  0.00000000000E+00 0. -1.
</event>
<event>
 8    1  0.3541538E-009  0.1483256E+03  0.7561462E-02  0.1202546E+00
          1   -1    0    0  501    0  0.00000000000E+00  0.00000000000E+00  0.11906538529E+04  0.11906538529E+04  0.00000000000E+00 0. -1.
         -1   -1    0    0    0  501 -0.00000000000E+00 -0.00000000000E+00 -0.32182113121E+02  0.32182113121E+02  0.00000000000E+00 0.  1.
         25    2    1    2    0    0 -0.11249130113E+03 -0.71056004851E+02  0.90224462115E+03  0.92054122401E+03  0.12509012772E+03 0.  0.
         23    2    1    2    0    0  0.11249130113E+03  0.71056004851E+02  0.25622711866E+03  0.30229474204E+03  0.89590881653E+02 0.  0.
          5    1    3    3  502    0 -0.96791851784E+02 -0.66955198393E+01  0.72124423577E+03  0.72775285131E+03  0.41800000000E+01 0.  1.
         -5    1    3    3    0  502 -0.15699449343E+02 -0.64360485012E+02  0.18100038538E+03  0.19278837270E+03  0.41800000000E+01 0.  1.
        -11    1    4    4    0    0  0.27197781438E+02  0.19899233521E+02  0.76483012457E+01  0.34557131273E+02  0.00000000000E+00 0. -1.
         11    1    4    4    0    0  0.85293519690E+02  0.51156771330E+02  0.24857881741E+03  0.26773761077E+03  0.00000000000E+00 0.  1.
</event>
<event>
 8    1  0.3541538E-009  0.1190851E+03  0.7561462E-02  0.1244614E+00
         -4   -1    0    0    0  501 -0.00000000000E+00  0.00000000000E+00  0.14658838365E+03  0.14658838365E+03  0.00000000000E+00 0.  1.
          4   -1    0    0  501    0  0.00000000000E+00 -0.00000000000E+00 -0.12397117379E+03  0.12397117379E+03  0.00000000000E+00 0. -1.
         25    2    1    2    0    0 -0.40230877336E+02 -0.47519325979E+02  0.60543178741E+02  0.15228294475E+03  0.12509200188E+03 0.  0.
         23    2    1    2    0    0  0.40230877336E+02  0.47519325979E+02 -0.37925968880E+02  0.11827661269E+03  0.93136288098E+02 0.  0.
          5    1    3    3  502    0  0.37220555121E+02  0.99043662141E+01  0.74125178460E+00  0.38749039315E+02  0.41800000000E+01 0. -1.
         -5    1    3    3    0  502 -0.77451432457E+02 -0.57423692193E+02  0.59801926956E+02  0.11353390543E+03  0.41800000000E+01 0. -1.
        -11    1    4    4    0    0  0.63634966745E+02  0.47680363987E+02 -0.47906898721E+02  0.92832629218E+02  0.00000000000E+00 0. -1.
         11    1    4    4    0    0 -0.23404089409E+02 -0.16103800791E+00  0.99809298410E+01  0.25443983469E+02  0.00000000000E+00 0.  1.
</event>
<event>
 8    1  0.3541538E-009  0.7880928E+02  0.7561462E-02  0.1332465E+00
          2   -1    0    0  501    0  0.00000000000E+00  0.00000000000E+00  0.62584577521E+03  0.62584577521E+03  0.00000000000E+00 0. -1.
         -2   -1    0    0    0  501 -0.00000000000E+00 -0.00000000000E+00 -0.24791251752E+02  0.24791251752E+02  0.00000000000E+00 0.  1.
         25    2    1    2    0    0 -0.47499588552E+02  0.26103944564E+02  0.40973296069E+03  0.43181815319E+03  0.12509273166E+03 0.  0.
         23    2    1    2    0    0  0.47499588552E+02 -0.26103944564E+02  0.19132156278E+03  0.21881887378E+03  0.91324324828E+02 0.  0.
          5    1    3    3  502    0 -0.32421311633E+02 -0.25365743156E+02  0.37890872088E+02  0.56104839020E+02  0.41800000000E+01 0. -1.
         -5    1    3    3    0  502 -0.15078276919E+02  0.51469687719E+02  0.37184208860E+03  0.37571331417E+03  0.41800000000E+01 0. -1.
        -11    1    4    4    0    0  0.28072888596E+02 -0.31588612305E+02  0.19391532546E+03  0.19846682582E+03  0.00000000000E+00 0. -1.
         11    1    4    4    0    0  0.19426699956E+02  0.54846677410E+01 -0.25937626857E+01  0.20352047962E+02  0.00000000000E+00 0.  1.
</event>
<event>
 8    1  0.3541538E-009  0.1837838E+03  0.7561462E-02  0.1164191E+00
         -2   -1    0    0    0  501 -0.00000000000E+00  0.00000000000E+00  0.24393733978E+02  0.24393733978E+02  0.00000000000E+00 0.  1.
          2   -1    0    0  501    0  0.00000000000E+00 -0.00000000000E+00 -0.14347243067E+04  0.14347243067E+04  0.00000000000E+00 0. -1.
         25    2    1    2    0    0  0.73573470263E+02 -0.13265695578E+03 -0.78515449390E+03  0.80939843134E+03  0.12508923985E+03 0.  0.
         23    2    1    2    0    0 -0.73573470263E+02  0.13265695578E+03 -0.62517607887E+03  0.64971960938E+03  0.90991855593E+02 0.  0.
          5    1    3    3  502    0  0.79783095021E+02 -0.23982080418E+02 -0.42591031601E+03  0.43400178815E+03  0.41800000000E+01 0.  1.
         -5    1    3    3    0  502 -0.62096247585E+01 -0.10867487536E+03 -0.35924417789E+03  0.37539664319E+03  0.41800000000E+01 0.  1.
        -11    1    4    4    0    0  0.13591007037E+02  0.60668501396E+02 -0.18087695512E+03  0.19126383722E+03  0.00000000000E+00 0.  1.
         11    1    4    4    0    0 -0.87164477300E+02  0.71988454380E+02 -0.44429912375E+03  0.45845577216E+03  0.00000000000E+00 0. -1.
</event>
<event>
 8    1  0.3541538E-009  0.8333602E+02  0.7561462E-02  0.1319842E+00
          2   -1    0    0  501    0  0.00000000000E+00  0.00000000000E+00  0.65373282134E+03  0.65373282134E+03  0.00000000000E+00 0. -1.
         -2   -1    0    0    0  501 -0.00000000000E+00 -0.00000000000E+00 -0.30844019019E+02  0.30844019019E+02  0.00000000000E+00 0.  1.
         25    2    1    2    0    0  0.34500247074E+02  0.40664161139E+02  0.51515587829E+03  0.53280087473E+03  0.12508937657E+03 0.  0.
         23    2    1    2    0    0 -0.34500247074E+02 -0.40664161139E+02  0.10773292404E+03  0.15177596563E+03  0.92659159141E+02 0.  0.
          5    1    3    3  502    0 -0.23965357741E+02  0.31670178568E+02  0.41108732724E+03  0.41302251948E+03  0.41800000000E+01 0.  1.
         -5    1    3    3    0  502  0.58465604815E+02  0.89939825712E+01  0.10406855105E+03  0.11977835525E+03  0.41800000000E+01 0.  1.
        -11    1    4    4    0    0  0.33690595814E+01 -0.26950400937E+02 -0.87433601679E+01  0.28532806034E+02  0.00000000000E+00 0.  1.
         11    1    4    4    0    0 -0.37869306655E+02 -0.13713760201E+02  0.11647628421E+03  0.12324315960E+03  0.00000000000E+00 0. -1.
</event>
<event>
 8    1  0.3541538E-009  0.1301493E+03  0.7561462E-02  0.1227234E+00
          2   -1    0    0  501    0  0.00000000000E+00  0.00000000000E+00  0.13385832580E+03  0.13385832580E+03  0.00000000000E+00 0. -1.
         -2   -1    0    0    0  501 -0.00000000000E+00 -0.00000000000E+00 -0.26759911034E+03  0.26759911034E+03  0.00000000000E+00 0.  1.
         25    2    1    2    0    0  0.22440385038E+02 -0.67331125495E+02 -0.21409666387E+03  0.25791820398E+03  0.12508943650E+03 0.  0.
         23    2    1    2    0    0 -0.22440385038E+02  0.67331125495E+02  0.80355879329E+02  0.14353923217E+03  0.95443137455E+02 0.  0.
          5    1    3    3  502    0  0.69111560607E+02 -0.66865843710E+02 -0.13164665770E+03  0.16308207673E+03  0.41800000000E+01 0. -1.
         -5    1    3    3    0  502 -0.46671175569E+02 -0.46528178487E+00 -0.82450006161E+02  0.94836127252E+02  0.41800000000E+01 0. -1.
        -11    1    4    4    0    0 -0.59033102163E+02  0.37142729824E+02  0.59667683013E+02  0.91786283975E+02  0.00000000000E+00 0. -1.
         11    1    4    4    0    0  0.36592717125E+02  0.30188395671E+02  0.20688196316E+02  0.51752948192E+02  0.00000000000E+00 0.  1.
</event>
<event>
 8    1  0.3541538E-009  0.1587677E+03  0.7561462E-02  0.1190095E+00
          3   -1    0    0  501    0  0.00000000000E+00  0.00000000000E+00  0.10478167163E+03  0.10478167163E+03  0.00000000000E+00 0. -1.
         -3   -1    0    0    0  501 -0.00000000000E+00 -0.00000000000E+00 -0.35121447960E+03  0.35121447960E+03  0.00000000000E+00 0.  1.
         25    2    1    2    0    0 -0.11726812761E+03  0.15937907539E+02 -0.25370116640E+03  0.30662314750E+03  0.12509053562E+03 0.  0.
         23    2    1    2    0    0  0.11726812761E+03 -0.15937907539E+02  0.72683584243E+01  0.14937300373E+03  0.90849516006E+02 0.  0.
          5    1    3    3  502    0 -0.78119113528E+01  0.55149725414E+02 -0.81616051145E+02  0.98899799680E+02  0.41800000000E+01 0.  1.
         -5    1    3    3    0  502 -0.10945621626E+03 -0.39211817875E+02 -0.17208511525E+03  0.20772334782E+03  0.41800000000E+01 0.  1.
        -11    1    4    4    0    0  0.44150255326E+02  0.34902195773E+02 -0.13611193932E+02  0.57902270382E+02  0.00000000000E+00 0. -1.
         11    1    4    4    0    0  0.73117872287E+02 -0.50840103312E+02  0.20879552356E+02  0.91470733348E+02  0.00000000000E+00 0.  1.
</event>
<event>
 8    1  0.3541538E-009  0.1408498E+03  0.7561462E-02  0.1212190E+00
          2   -1    0    0  501    0  0.00000000000E+00  0.00000000000E+00  0.14067932710E+04  0.14067932710E+04  0.00000000000E+00 0. -1.
         -2   -1    0    0    0  501 -0.00000000000E+00 -0.00000000000E+00 -0.21242380726E+02  0.21242380726E+02  0.00000000000E+00 0.  1.
         25    2    1    2    0    0  0.10201054080E+03 -0.72717234796E+02  0.53782552524E+03  0.56621463878E+03  0.12509506346E+03 0.  0.
         23    2    1    2    0    0 -0.10201054080E+03  0.72717234796E+02  0.84772536503E+03  0.86182101294E+03  0.91669063248E+02 0.  0.
          5    1    3    3  502    0  0.35486645203E+02 -0.16618578162E+02  0.40780676533E+03  0.40970636970E+03  0.41800000000E+01 0.  1.
         -5    1    3    3    0  502  0.66523895597E+02 -0.56098656634E+02  0.13001875991E+03  0.15650826908E+03  0.41800000000E+01 0.  1.
        -11    1    4    4    0    0 -0.70524290078E+02  0.93744138469E+02  0.65107260321E+03  0.66155662920E+03  0.00000000000E+00 0.  1.
         11    1    4    4    0    0 -0.31486250722E+02 -0.21026903674E+02  0.19665276182E+03  0.20026438374E+03  0.00000000000E+00 0. -1.
</event>
<event>
 8    1  0.3541538E-009  0.1621581E+03  0.7561462E-02  0.1186282E+00
          4   -1    0    0  501    0  0.00000000000E+00  0.00000000000E+00  0.41374825190E+03  0.41374825190E+03  0.00000000000E+00 0. -1.
         -4   -1    0    0    0  501 -0.00000000000E+00 -0.00000000000E+00 -0.78374416301E+02  0.78374416301E+02  0.00000000000E+00 0.  1.
         25    2    1    2    0    0  0.11199216988E+03  0.67317547545E+02  0.96038399997E+02  0.20480368063E+03  0.12508906828E+03 0.  0.
         23    2    1    2    0    0 -0.11199216988E+03 -0.67317547545E+02  0.23933543561E+03  0.28731898757E+03  0.90536465378E+02 0.  0.
          5    1    3    3  502    0  0.44435032520E+02 -0.35612142293E+02  0.22766630706E+02  0.61469412455E+02  0.41800000000E+01 0.  1.
         -5    1    3    3    0  502  0.67557137357E+02  0.10292968984E+03  0.73271769291E+02  0.14333426817E+03  0.41800000000E+01 0.  1.
        -11    1    4    4    0    0 -0.60623284426E+01  0.10816161252E+02 -0.18659568709E+01  0.12538858218E+02  0.00000000000E+00 0.  1.
         11    1    4    4    0    0 -0.10592984143E+03 -0.78133708797E+02  0.24120139248E+03  0.27478012936E+03  0.00000000000E+00 0. -1.
</event>
<event>
 8    1  0.3541538E-009  0.1413371E+03  0.7561462E-02  0.1211541E+00
          1   -1    0    0  501    0  0.00000000000E+00  0.00000000000E+00  0.20585001383E+02  0.20585001383E+02  0.00000000000E+00 0. -1.
         -1   -1    0    0    0  501 -0.00000000000E+00 -0.00000000000E+00 -0.30295844627E+04  0.30295844627E+04  0.00000000000E+00 0.  1.
         25    2    1    2    0    0 -0.81675349745E+01 -0.11770413830E+03 -0.27150251714E+04  0.27204650896E+04  0.12509056545E+03 0.  0.
         23    2    1    2    0    0  0.81675349745E+01  0.11770413830E+03 -0.29397428991E+03  0.32970437448E+03  0.91450088154E+02 0.  0.
          5    1    3    3  502    0 -0.36874305301E+02 -0.12713548798E+03 -0.24700397295E+04  0.24735878566E+04  0.41800000000E+01 0.  1.
         -5    1    3    3    0  502  0.28706770327E+02  0.94313496813E+01 -0.24498544191E+03  0.24687723299E+03  0.41800000000E+01 0.  1.
        -11    1    4    4    0    0  0.13341093148E+02  0.47597475042E+02 -0.33016629213E+02  0.59444109896E+02  0.00000000000E+00 0. -1.
         11    1    4    4    0    0 -0.51735581731E+01  0.70106663260E+02 -0.26095766069E+03  0.27026026458E+03  0.00000000000E+00 0.  1.
</event>
<event>
 8    1  0.3541538E-009  0.9608110E+02  0.7561462E-02  0.1288760E+00
          4   -1    0    0  501    0  0.00000000000E+00  0.00000000000E+00  0.76968627300E+03  0.76968627300E+03  0.00000000000E+00 0. -1.
         -4   -1    0    0    0  501 -0.00000000000E+00 -0.00000000000E+00 -0.19913760934E+02  0.19913760934E+02  0.00000000000E+00 0.  1.
         25    2    1    2    0    0 -0.45923946613E+02  0.38249945661E+02  0.44190232461E+03  0.46313851016E+03  0.12509015904E+03 0.  0.
         23    2    1    2    0    0  0.45923946613E+02 -0.38249945661E+02  0.30787018745E+03  0.32646152377E+03  0.90669768728E+02 0.  0.
          5    1    3    3  502    0 -0.34360933784E+02  0.73196143537E+02  0.16528489746E+03  0.18405140295E+03  0.41800000000E+01 0.  1.
         -5    1    3    3    0  502 -0.11563012830E+02 -0.34946197877E+02  0.27661742714E+03  0.27908710721E+03  0.41800000000E+01 0.  1.
        -11    1    4    4    0    0  0.28787167082E+02 -0.46839935240E+02  0.30118227008E+03  0.30615917483E+03  0.00000000000E+00 0. -1.
         11    1    4    4    0    0  0.17136779531E+02  0.85899895796E+01  0.66879173795E+01  0.20302348942E+02  0.00000000000E+00 0.  1.
</event>
<event>
 8    1  0.3541538E-009  0.9092871E+02  0.7561462E-02  0.1300618E+00
         -2   -1    0    0    0  501 -0.00000000000E+00  0.00000000000E+00  0.15719744697E+02  0.15719744697E+02  0.00000000000E+00 0.  1.
          2   -1    0    0  501    0  0.00000000000E+00 -0.00000000000E+00 -0.96400452520E+03  0.96400452520E+03  0.00000000000E+00 0. -1.
         25    2    1    2    0    0  0.55214227606E+02 -0.17449343362E+02 -0.52281794051E+03  0.54068361252E+03  0.12508828649E+03 0.  0.
         23    2    1    2    0    0 -0.55214227606E+02  0.17449343362E+02 -0.42546683999E+03  0.43904065737E+03  0.91550949642E+02 0.  0.
          5    1    3    3  502    0  0.13493461996E+02  0.15841327666E+02 -0.73779756569E+01  0.22470605324E+02  0.41800000000E+01 0.  1.
         -5    1    3    3    0  502  0.41720765610E+02 -0.33290671027E+02 -0.51543996486E+03  0.51821300720E+03  0.41800000000E+01 0.  1.
        -11    1    4    4    0    0 -0.35791251756E+02  0.54534500312E+02 -0.22585688820E+03  0.23508798220E+03  0.00000000000E+00 0. -1.
         11    1    4    4    0    0 -0.19422975850E+02 -0.37085156950E+02 -0.19960995179E+03  0.20395267517E+03  0.00000000000E+00 0.  1.
</event>
<event>
 8    1  0.3541538E-009  0.7541080E+02  0.7561462E-02  0.1342604E+00
          2   -1    0    0  501    0  0.00000000000E+00  0.00000000000E+00  0.27758900046E+04  0.27758900046E+04  0.00000000000E+00 0. -1.
         -2   -1    0    0    0  501 -0.00000000000E+00 -0.00000000000E+00 -0.63692501039E+01  0.63692501039E+01  0.00000000000E+00 0.  1.
         25    2    1    2    0    0 -0.20368381648E+02  0.14051919920E+02  0.22832766851E+04  0.22868344047E+04  0.12508735654E+03 0.  0.
         23    2    1    2    0    0  0.20368381648E+02 -0.14051919920E+02  0.48624406947E+03  0.49542484999E+03  0.91652383877E+02 0.  0.
          5    1    3    3  502    0 -0.38843512895E+01  0.31663666529E+02  0.14975020075E+03  0.15316746060E+03  0.41800000000E+01 0.  1.
         -5    1    3    3    0  502 -0.16484030359E+02 -0.17611746608E+02  0.21335264843E+04  0.21336669441E+04  0.41800000000E+01 0.  1.
        -11    1    4    4    0    0  0.52857123854E+02 -0.26802992924E+02  0.33540672553E+03  0.34060233044E+03  0.00000000000E+00 0.  1.
         11    1    4    4    0    0 -0.32488742206E+02  0.12751073004E+02  0.15083734394E+03  0.15482251955E+03  0.00000000000E+00 0. -1.
</event>
<event>
 8    1  0.3541538E-009  0.1948513E+03  0.7561462E-02  0.1154157E+00
         -2   -1    0    0    0  501 -0.00000000000E+00  0.00000000000E+00  0.12027650391E+03  0.12027650391E+03  0.00000000000E+00 0.  1.
          2   -1    0    0  501    0  0.00000000000E+00 -0.00000000000E+00 -0.36587691496E+03  0.36587691496E+03  0.00000000000E+00 0. -1.
         25    2    1    2    0    0  0.13068727251E+02  0.16482837519E+03 -0.21594003754E+03  0.29936074689E+03  0.12509025568E+03 0.  0.
         23    2    1    2    0    0 -0.13068727251E+02 -0.16482837519E+03 -0.29660373502E+02  0.18679267198E+03  0.81685859552E+02 0.  0.
          5    1    3    3  502    0 -0.49097183871E+02  0.11629890162E+03 -0.11193373397E+03  0.16876789145E+03  0.41800000000E+01 0.  1.
         -5    1    3    3    0  502  0.62165911122E+02  0.48529473563E+02 -0.10400630357E+03  0.13059285544E+03  0.41800000000E+01 0.  1.
        -11    1    4    4    0    0 -0.35241737441E+02 -0.25905585556E+02 -0.65906270571E+01  0.44232519551E+02  0.00000000000E+00 0. -1.
         11    1    4    4    0    0  0.22173010190E+02 -0.13892278963E+03 -0.23069746445E+02  0.14256015243E+03  0.00000000000E+00 0.  1.
</event>
<event>
 8    1  0.3541538E-009  0.9792474E+02  0.7561462E-02  0.1284721E+00
         -1   -1    0    0    0  501 -0.00000000000E+00  0.00000000000E+00  0.68483928490E+02  0.68483928490E+02  0.00000000000E+00 0.  1.
          1   -1    0    0  501    0  0.00000000000E+00 -0.00000000000E+00 -0.34425609001E+03  0.34425609001E+03  0.00000000000E+00 0. -1.
         25    2    1    2    0    0  0.60176948276E+02 -0.25091482412E+02 -0.32297695123E+02  0.14471307301E+03  0.12509150569E+03 0.  0.
         23    2    1    2    0    0 -0.60176948276E+02  0.25091482412E+02 -0.24347446639E+03  0.26802694549E+03  0.91147024789E+02 0.  0.
          5    1    3    3  502    0  0.73435441002E+02 -0.19282893197E+02  0.29157103259E+02  0.81438338857E+02  0.41800000000E+01 0. -1.
         -5    1    3    3    0  502 -0.13258492726E+02 -0.58085892149E+01 -0.61454798382E+02  0.63274734154E+02  0.41800000000E+01 0. -1.
        -11    1    4    4    0    0  0.43844798978E+01 -0.23521085397E+02 -0.22923765612E+02  0.33135542127E+02  0.00000000000E+00 0.  1.
         11    1    4    4    0    0 -0.64561428174E+02  0.48612567810E+02 -0.22055070078E+03  0.23489140336E+03  0.00000000000E+00 0. -1.
</event>
<event>
 8    1  0.3541538E-009  0.1321844E+03  0.7561462E-02  0.1224250E+00
         -1   -1    0    0    0  501 -0.00000000000E+00  0.00000000000E+00  0.77101100845E+02  0.77101100845E+02  0.00000000000E+00 0.  1.
          1   -1    0    0  501    0  0.00000000000E+00 -0.00000000000E+00 -0.25515613799E+03  0.25515613799E+03  0.00000000000E+00 0. -1.
         25    2    1    2    0    0 -0.87053792994E+02 -0.33463062796E+01 -0.11743539105E+03  0.19242818173E+03  0.12509185990E+03 0.  0.
         23    2    1    2    0    0  0.87053792994E+02  0.33463062796E+01 -0.60619646104E+02  0.13982905711E+03  0.91037701411E+02 0.  0.
          5    1    3    3  502    0 -0.99791428568E+02  0.38955244437E+02 -0.92064722564E+02  0.14131251121E+03  0.41800000000E+01 0.  1.
         -5    1    3    3    0  502  0.12737635573E+02 -0.42301550716E+02 -0.25370668482E+02  0.51115670515E+02  0.41800000000E+01 0.  1.
        -11    1    4    4    0    0  0.87923719634E+02  0.24769482554E+02 -0.19424935337E+02  0.93388628072E+02  0.00000000000E+00 0.  1.
         11    1    4    4    0    0 -0.86992664013E+00 -0.21423176275E+02 -0.41194710767E+02  0.46440429038E+02  0.00000000000E+00 0. -1.
</event>
<event>
 8    1  0.3541538E-009  0.1312312E+03  0.7561462E-02  0.1225640E+00
          1   -1    0    0  501    0  0.00000000000E+00  0.00000000000E+00  0.13299087181E+03  0.13299087181E+03  0.00000000000E+00 0. -1.
         -1   -1    0    0    0  501 -0.00000000000E+00 -0.00000000000E+00 -0.14083944324E+03  0.14083944324E+03  0.00000000000E+00 0.  1.
         25    2    1    2    0    0  0.75782094777E+02  0.59112592569E+01 -0.34595104541E+02  0.15040576396E+03  0.12508878326E+03 0.  0.
         23    2    1    2    0    0 -0.75782094777E+02 -0.59112592569E+01  0.26746533115E+02  0.12342455110E+03  0.93489966868E+02 0.  0.
          5    1    3    3  502    0  0.26157267547E+02 -0.56849145163E+02 -0.31606619752E+02  0.70231608009E+02  0.41800000000E+01 0.  1.
         -5    1    3    3    0  502  0.49624827230E+02  0.62760404420E+02 -0.29884847890E+01  0.80174155948E+02  0.41800000000E+01 0.  1.
        -11    1    4    4    0    0  0.12413055023E+02 -0.26320290690E+02  0.12956213842E+02  0.31854436333E+02  0.00000000000E+00 0. -1.
         11    1    4    4    0    0 -0.88195149799E+02  0.20409031433E+02  0.13790319272E+02  0.91570114763E+02  0.00000000000E+00 0.  1.
</event>
<event>
 8    1  0.3541538E-009  0.1246946E+03  0.7561462E-02  0.1235547E+00
          1   -1    0    0  501    0  0.00000000000E+00  0.00000000000E+00  0.39698280336E+03  0.39698280336E+03  0.00000000000E+00 0. -1.
         -1   -1    0    0    0  501 -0.00000000000E+00 -0.00000000000E+00 -0.51645575850E+02  0.51645575850E+02  0.00000000000E+00 0.  1.
         25    2    1    2    0    0  0.62077478505E+02  0.44905960905E+02  0.10361846958E+03  0.17959567687E+03  0.12509061216E+03 0.  0.
         23    2    1    2    0    0 -0.62077478505E+02 -0.44905960905E+02  0.24171875792E+03  0.26903270233E+03  0.89891480867E+02 0.  0.
          5    1    3    3  502    0  0.16918782079E+02 -0.39889539226E+02  0.59686417247E+02  0.73873955698E+02  0.41800000000E+01 0.  1.
         -5    1    3    3    0  502  0.45158696426E+02  0.84795500131E+02  0.43932052338E+02  0.10572172117E+03  0.41800000000E+01 0.  1.
        -11    1    4    4    0    0 -0.70707148573E+02 -0.72646834061E+01  0.10376303100E+03  0.12577377742E+03  0.00000000000E+00 0.  1.
         11    1    4    4    0    0  0.86296700687E+01 -0.37641277499E+02  0.13795572692E+03  0.14325892492E+03  0.00000000000E+00 0. -1.
</event>
<event>
 8    1  0.3541538E-009  0.1142834E+03  0.7561462E-02  0.1252837E+00
         -2   -1    0    0    0  501 -0.00000000000E+00  0.00000000000E+00  0.42685386995E+03  0.42685386995E+03  0.00000000000E+00 0. -1.
          2   -1    0    0  501    0  0.00000000000E+00 -0.00000000000E+00 -0.11403645038E+03  0.11403645038E+03  0.00000000000E+00 0.  1.
         25    2    1    2    0    0  0.14401581810E+02  0.93908744883E+02 -0.41979086953E+02  0.16258799976E+03  0.12508539483E+03 0.  0.
         23    2    1    2    0    0 -0.14401581810E+02 -0.93908744883E+02  0.35479650652E+03  0.37830232057E+03  0.90586018710E+02 0.  0.
          5    1    3    3  502    0 -0.27737551158E+02  0.31152705371E+02 -0.70223439681E+02  0.81784269128E+02  0.41800000000E+01 0. -1.
         -5    1    3    3    0  502  0.42139132968E+02  0.62756039512E+02  0.28244352728E+02  0.80803730629E+02  0.41800000000E+01 0. -1.
        -11    1    4    4    0    0 -0.34049649917E+02 -0.79770002975E+02  0.33771787782E+03  0.34867749718E+03  0.00000000000E+00 0. -1.
         11    1    4    4    0    0  0.19648068107E+02 -0.14138741908E+02  0.17078628697E+02  0.29624823397E+02  0.00000000000E+00 0.  1.
</event>
<event>
 8    1  0.3541538E-009  0.1330714E+03  0.7561462E-02  0.1222968E+00
          1   -1    0    0  501    0  0.00000000000E+00  0.00000000000E+00  0.28141257516E+03  0.28141257516E+03  0.00000000000E+00 0. -1.
         -1   -1    0    0    0  501 -0.00000000000E+00 -0.00000000000E+00 -0.13010569289E+03  0.13010569289E+03  0.00000000000E+00 0.  1.
         25    2    1    2    0    0 -0.37955991073E+02 -0.12105867138E+03 -0.20434722752E+02  0.17932358542E+03  0.12507402296E+03 0.  0.
         23    2    1    2    0    0  0.37955991073E+02  0.12105867138E+03  0.17174160502E+03  0.23219468263E+03  0.91232300048E+02 0.  0.
          5    1    3    3  502    0 -0.74068910702E+01  0.23504304327E+01 -0.48304308849E+02  0.49103617096E+02  0.41800000000E+01 0. -1.
         -5    1    3    3    0  502 -0.30549100003E+02 -0.12340910181E+03  0.27869586097E+02  0.13021996832E+03  0.41800000000E+01 0. -1.
        -11    1    4    4    0    0  0.20537531094E+01  0.54107511003E+02  0.13954860304E+03  0.14968518049E+03  0.00000000000E+00 0. -1.
         11    1    4    4    0    0  0.35902237964E+02  0.66951160374E+02  0.32193001983E+02  0.82509502137E+02  0.00000000000E+00 0.  1.
</event>
<event>
 8    1  0.3541538E-009  0.2450834E+03  0.7561462E-02  0.1116452E+00
          1   -1    0    0  501    0  0.00000000000E+00  0.00000000000E+00  0.17807729725E+03  0.17807729725E+03  0.00000000000E+00 0. -1.
         -1   -1    0    0    0  501 -0.00000000000E+00 -0.00000000000E+00 -0.49610326474E+03  0.49610326474E+03  0.00000000000E+00 0.  1.
         25    2    1    2    0    0 -0.17154401878E+03 -0.15603607639E+03 -0.33326029926E+03  0.42483435463E+03  0.12508874568E+03 0.  0.
         23    2    1    2    0    0  0.17154401878E+03  0.15603607639E+03  0.15234331773E+02  0.24934620737E+03  0.90370563509E+02 0.  0.
          5    1    3    3  502    0 -0.38889335350E+02  0.13579443706E+02 -0.95176581113E+02  0.10379227181E+03  0.41800000000E+01 0.  1.
         -5    1    3    3    0  502 -0.13265468343E+03 -0.16961552009E+03 -0.23808371814E+03  0.32104208282E+03  0.41800000000E+01 0.  1.
        -11    1    4    4    0    0  0.97971423002E+02  0.10644230467E+03 -0.32962155905E+02  0.14837408019E+03  0.00000000000E+00 0.  1.
         11    1    4    4    0    0  0.73572595779E+02  0.49593771715E+02  0.48196487679E+02  0.10097212718E+03  0.00000000000E+00 0. -1.
</event>
<event>
 8    1  0.3541538E-009  0.1012718E+03  0.7561462E-02  0.1277644E+00
          1   -1    0    0  501    0  0.00000000000E+00  0.00000000000E+00  0.18838684703E+03  0.18838684703E+03  0.00000000000E+00 0. -1.
         -1   -1    0    0    0  501 -0.00000000000E+00 -0.00000000000E+00 -0.77713996082E+02  0.77713996082E+02  0.00000000000E+00 0.  1.
         25    2    1    2    0    0  0.39331151709E+01 -0.20060418623E+02  0.68580836257E+01  0.12693653387E+03  0.12509180840E+03 0.  0.
         23    2    1    2    0    0 -0.39331151709E+01  0.20060418623E+02  0.10381476733E+03  0.13916430925E+03  0.90395294476E+02 0.  0.
          5    1    3    3  502    0  0.36088185380E+02 -0.63120903091E+02  0.28782845171E+01  0.72885955113E+02  0.41800000000E+01 0. -1.
         -5    1    3    3    0  502 -0.32155070209E+02  0.43060484467E+02  0.39797991086E+01  0.54050578754E+02  0.41800000000E+01 0. -1.
        -11    1    4    4    0    0  0.32901108230E+02 -0.18487081566E+01  0.75739457774E+01  0.33812206364E+02  0.00000000000E+00 0.  1.
         11    1    4    4    0    0 -0.36834223401E+02  0.21909126780E+02  0.96240821549E+02  0.10535210288E+03  0.00000000000E+00 0. -1.
</event>
<event>
 8    1  0.3541538E-009  0.9320786E+02  0.7561462E-02  0.1295264E+00
         -2   -1    0    0    0  501 -0.00000000000E+00  0.00000000000E+00  0.33859305338E+03  0.33859305338E+03  0.00000000000E+00 0.  1.
          2   -1    0    0  501    0  0.00000000000E+00 -0.00000000000E+00 -0.42624383589E+02  0.42624383589E+02  0.00000000000E+00 0. -1.
         25    2    1    2    0    0 -0.34550167027E+02  0.35286907148E+02  0.12578821932E+03  0.18414965568E+03  0.12509812033E+03 0.  0.
         23    2    1    2    0    0  0.34550167027E+02 -0.35286907148E+02  0.17018045048E+03  0.19706778129E+03  0.86229025510E+02 0.  0.
          5    1    3    3  502    0  0.41926929086E+02 -0.12403786449E+02  0.47486572817E+02  0.64685147436E+02  0.41800000000E+01 0.  1.
         -5    1    3    3    0  502 -0.76477096114E+02  0.47690693597E+02  0.78301646501E+02  0.11946450825E+03  0.41800000000E+01 0.  1.
        -11    1    4    4    0    0  0.27545651052E+02 -0.16246635452E+02  0.17357630232E+03  0.17649773024E+03  0.00000000000E+00 0.  1.
         11    1    4    4    0    0  0.70045159757E+01 -0.19040271696E+02 -0.33958518399E+01  0.20570051046E+02  0.00000000000E+00 0. -1.
</event>
<event>
 8    1  0.3541538E-009  0.9308960E+02  0.7561462E-02  0.1295538E+00
          4   -1    0    0  501    0  0.00000000000E+00  0.00000000000E+00  0.19100822211E+03  0.19100822211E+03  0.00000000000E+00 0.  1.
         -4   -1    0    0    0  501 -0.00000000000E+00 -0.00000000000E+00 -0.70180343811E+02  0.70180343811E+02  0.00000000000E+00 0. -1.
         25    2    1    2    0    0 -0.16132440109E+02 -0.38523538784E+02  0.61633032710E+02  0.14557368771E+03  0.12509496060E+03 0.  0.
         23    2    1    2    0    0  0.16132440109E+02  0.38523538784E+02  0.59194845589E+02  0.11561487821E+03  0.90102450888E+02 0.  0.
          5    1    3    3  502    0 -0.28905685317E+02  0.39087505587E+02  0.60434817909E+01  0.49166734779E+02  0.41800000000E+01 0.  1.
         -5    1    3    3    0  502  0.12773245208E+02 -0.77611044371E+02  0.55589550919E+02  0.96406952928E+02  0.41800000000E+01 0.  1.
        -11    1    4    4    0    0 -0.12816543074E+02  0.37115015741E+01 -0.20205007139E+02  0.24213247073E+02  0.00000000000E+00 0. -1.
         11    1    4    4    0    0  0.28948983183E+02  0.34812037210E+02  0.79399852728E+02  0.91401631142E+02  0.00000000000E+00 0.  1.
</event>
<event>
 8    1  0.3541538E-009  0.1643938E+03  0.7561462E-02  0.1183824E+00
          1   -1    0    0  501    0  0.00000000000E+00  0.00000000000E+00  0.38032814088E+03  0.38032814088E+03  0.00000000000E+00 0. -1.
         -1   -1    0    0    0  501 -0.00000000000E+00 -0.00000000000E+00 -0.78560833662E+02  0.78560833662E+02  0.00000000000E+00 0.  1.
         25    2    1    2    0    0 -0.10243827888E+03  0.84411147333E+02  0.18438590487E+03  0.25935454768E+03  0.12509107368E+03 0.  0.
         23    2    1    2    0    0  0.10243827888E+03 -0.84411147333E+02  0.11738140235E+03  0.19953442686E+03  0.91742853186E+02 0.  0.
          5    1    3    3  502    0 -0.18724631749E+02 -0.31395994735E+02  0.21430631966E+02  0.42580097534E+02  0.41800000000E+01 0. -1.
         -5    1    3    3    0  502 -0.83713647132E+02  0.11580714207E+03  0.16295527290E+03  0.21677445015E+03  0.41800000000E+01 0. -1.
        -11    1    4    4    0    0  0.90733234359E+02 -0.33377292600E+02  0.36817106190E+02  0.10345077470E+03  0.00000000000E+00 0.  1.
         11    1    4    4    0    0  0.11705044521E+02 -0.51033854733E+02  0.80564296157E+02  0.96083652155E+02  0.00000000000E+00 0. -1.
</event>
<event>
 8    1  0.3541538E-009  0.1223725E+03  0.7561462E-02  0.1239234E+00
         -4   -1    0    0    0  501 -0.00000000000E+00  0.00000000000E+00  0.21001828574E+03  0.21001828574E+03  0.00000000000E+00 0.  1.
          4   -1    0    0  501    0  0.00000000000E+00 -0.00000000000E+00 -0.23790161080E+03  0.23790161080E+03  0.00000000000E+00 0. -1.
         25    2    1    2    0    0 -0.10768467933E+03  0.35927465575E+02 -0.17284339348E+03  0.24168974221E+03  0.12510923177E+03 0.  0.
         23    2    1    2    0    0  0.10768467933E+03 -0.35927465575E+02  0.14496006842E+03  0.20623015433E+03  0.92901464850E+02 0.  0.
          5    1    3    3  502    0 -0.98443052972E+02  0.33879201434E+02 -0.45112683451E+02  0.11354057238E+03  0.41800000000E+01 0.  1.
         -5    1    3    3    0  502 -0.92416263621E+01  0.20482641405E+01 -0.12773071003E+03  0.12814916983E+03  0.41800000000E+01 0.  1.
        -11    1    4    4    0    0 -0.67220259290E+01 -0.11343086663E+02 -0.66060536943E+01  0.14747582617E+02  0.00000000000E+00 0. -1.
         11    1    4    4    0    0  0.11440670526E+03 -0.24584378911E+02  0.15156612211E+03  0.19148257171E+03  0.00000000000E+00 0.  1.
</event>
<event>
 8    1  0.3541538E-009  0.1708978E+03  0.7561462E-02  0.1176915E+00
          4   -1    0    0  501    0  0.00000000000E+00  0.00000000000E+00  0.78432798372E+03  0.78432798372E+03  0.00000000000E+00 0.  1.
         -4   -1    0    0    0  501 -0.00000000000E+00 -0.00000000000E+00 -0.45111686551E+02  0.45111686551E+02  0.00000000000E+00 0. -1.
         25    2    1    2    0    0  0.14790961791E+03 -0.17290920900E+02  0.31097323757E+03  0.36678093390E+03  0.12509063905E+03 0.  0.
         23    2    1    2    0    0 -0.14790961791E+03  0.17290920900E+02  0.42824305961E+03  0.46265873637E+03  0.92112741922E+02 0.  0.
          5    1    3    3  502    0  0.96981742701E+02 -0.69823043279E+02  0.16922015332E+03  0.20720436404E+03  0.41800000000E+01 0.  1.
         -5    1    3    3    0  502  0.50927875205E+02  0.52532122379E+02  0.14175308425E+03  0.15957656986E+03  0.41800000000E+01 0.  1.
        -11    1    4    4    0    0 -0.33820797160E+02  0.29670306114E+01  0.21998034459E+02  0.40454457248E+02  0.00000000000E+00 0. -1.
         11    1    4    4    0    0 -0.11408882075E+03  0.14323890288E+02  0.40624502515E+03  0.42220427912E+03  0.00000000000E+00 0.  1.
</event>
<event>
 8    1  0.3541538E-009  0.9801150E+02  0.7561462E-02  0.1284534E+00
          1   -1    0    0  501    0  0.00000000000E+00  0.00000000000E+00  0.43912852602E+03  0.43912852602E+03  0.00000000000E+00 0. -1.
         -1   -1    0    0    0  501 -0.00000000000E+00 -0.00000000000E+00 -0.36860463536E+02  0.36860463536E+02  0.00000000000E+00 0.  1.
         25    2    1    2    0    0  0.65932689592E+02 -0.11476471842E+02  0.23649773288E+03  0.27578636755E+03  0.12509242146E+03 0.  0.
         23    2    1    2    0    0 -0.65932689592E+02  0.11476471842E+02  0.16577032961E+03  0.20020262201E+03  0.90124684294E+02 0.  0.
          5    1    3    3  502    0  0.79735155241E+02  0.20189806786E+02  0.77716102415E+02  0.11323686791E+03  0.41800000000E+01 0.  1.
         -5    1    3    3    0  502 -0.13802465649E+02 -0.31666278628E+02  0.15878163047E+03  0.16254949964E+03  0.41800000000E+01 0.  1.
        -11    1    4    4    0    0 -0.60247102756E+02  0.24206101852E+02  0.17279531979E+03  0.18459109214E+03  0.00000000000E+00 0. -1.
         11    1    4    4    0    0 -0.56855868355E+01 -0.12729630010E+02 -0.70249901801E+01  0.15611529870E+02  0.00000000000E+00 0.  1.
</event>
<event>
 8    1  0.3541538E-009  0.4404063E+03  0.7561462E-02  0.1030622E+00
          1   -1    0    0  501    0  0.00000000000E+00  0.00000000000E+00  0.83140732707E+03  0.83140732707E+03  0.00000000000E+00 0. -1.
         -1   -1    0    0    0  501 -0.00000000000E+00 -0.00000000000E+00 -0.30249599104E+03  0.30249599104E+03  0.00000000000E+00 0.  1.
         25    2    1    2    0    0  0.41588595237E+03 -0.95501773193E+02 -0.34030046128E+01  0.44467988201E+03  0.12508758117E+03 0.  0.
         23    2    1    2    0    0 -0.41588595237E+03  0.95501773193E+02  0.53231434064E+03  0.68922343610E+03  0.97921772617E+02 0.  0.
          5    1    3    3  502    0  0.21169366867E+03  0.13141426286E+02 -0.17873641735E+02  0.21289397809E+03  0.41800000000E+01 0. -1.
         -5    1    3    3    0  502  0.20419228370E+03 -0.10864319948E+03  0.14470637122E+02  0.23178590392E+03  0.41800000000E+01 0. -1.
        -11    1    4    4    0    0 -0.14877531351E+03 -0.12321217259E+02  0.19694843936E+03  0.24713274585E+03  0.00000000000E+00 0.  1.
         11    1    4    4    0    0 -0.26711063886E+03  0.10782299045E+03  0.33536590128E+03  0.44209069025E+03  0.00000000000E+00 0. -1.
</event>
<event>
 8    1  0.3541538E-009  0.5107681E+02  0.7561462E-02  0.1439619E+00
          1   -1    0    0  501    0  0.00000000000E+00  0.00000000000E+00  0.22093077144E+03  0.22093077144E+03  0.00000000000E+00 0. -1.
         -1   -1    0    0    0  501 -0.00000000000E+00 -0.00000000000E+00 -0.60434722793E+02  0.60434722793E+02  0.00000000000E+00 0.  1.
         25    2    1    2    0    0 -0.21168202520E+02 -0.24202922228E+01  0.48127662767E+02  0.13571043233E+03  0.12508836440E+03 0.  0.
         23    2    1    2    0    0  0.21168202520E+02  0.24202922228E+01  0.11236838588E+03  0.14565506191E+03  0.90193083442E+02 0.  0.
          5    1    3    3  502    0 -0.84932712812E+01 -0.16826563992E+02 -0.40535495005E+02  0.44898414984E+02  0.41800000000E+01 0.  1.
         -5    1    3    3    0  502 -0.12674931239E+02  0.14406271769E+02  0.88663157771E+02  0.90812017344E+02  0.41800000000E+01 0.  1.
        -11    1    4    4    0    0  0.35763335764E+02 -0.16439717156E+02  0.11510679795E+03  0.12165054631E+03  0.00000000000E+00 0. -1.
         11    1    4    4    0    0 -0.14595133244E+02  0.18860009379E+02 -0.27384120634E+01  0.24004515592E+02  0.00000000000E+00 0.  1.
</event>
<event>
 8    1  0.3541538E-009  0.1741447E+03  0.7561462E-02  0.1173593E+00
         -2   -1    0    0    0  501 -0.00000000000E+00  0.00000000000E+00  0.35275318088E+02  0.35275318088E+02  0.00000000000E+00 0.  1.
          2   -1    0    0  501    0  0.00000000000E+00 -0.00000000000E+00 -0.11132779134E+04  0.11132779134E+04  0.00000000000E+00 0. -1.
         25    2    1    2    0    0  0.60132312057E+00  0.15897886272E+03 -0.69743250148E+03  0.72617873054E+03  0.12509522049E+03 0.  0.
         23    2    1    2    0    0 -0.60132312057E+00 -0.15897886272E+03 -0.38057009379E+03  0.42237450090E+03  0.91060322562E+02 0.  0.
          5    1    3    3  502    0  0.31706189749E+02  0.14679911954E+03 -0.65501828367E+03  0.67202804131E+03  0.41800000000E+01 0.  1.
         -5    1    3    3    0  502 -0.31104866629E+02  0.12179743175E+02 -0.42414217814E+02  0.54150689235E+02  0.41800000000E+01 0.  1.
        -11    1    4    4    0    0  0.16125190706E+02 -0.27775998635E+02 -0.18871445177E+02  0.37251299555E+02  0.00000000000E+00 0.  1.
         11    1    4    4    0    0 -0.16726513826E+02 -0.13120286408E+03 -0.36169864861E+03  0.38512320134E+03  0.00000000000E+00 0. -1.
</event>
<event>
 8    1  0.3541538E-009  0.6906814E+02  0.7561462E-02  0.1363291E+00
          2   -1    0    0  501    0  0.00000000000E+00  0.00000000000E+00  0.13382792548E+03  0.13382792548E+03  0.00000000000E+00 0. -1.
         -2   -1    0    0    0  501 -0.00000000000E+00 -0.00000000000E+00 -0.94349460412E+02  0.94349460412E+02  0.00000000000E+00 0.  1.
         25    2    1    2    0    0 -0.17716443357E+02  0.20727906397E+02  0.20194534942E+02  0.12962665453E+03  0.12510688172E+03 0.  0.
         23    2    1    2    0    0  0.17716443357E+02 -0.20727906397E+02  0.19283930123E+02  0.98550731357E+02  0.92719244072E+02 0.  0.
          5    1    3    3  502    0 -0.17024418349E+02  0.35715812291E+02 -0.46465268403E+02  0.61171428261E+02  0.41800000000E+01 0.  1.
         -5    1    3    3    0  502 -0.69202500767E+00 -0.14987905894E+02  0.66659803345E+02  0.68455226270E+02  0.41800000000E+01 0.  1.
        -11    1    4    4    0    0  0.16651300333E+02  0.28783125133E+02 -0.16820202277E+02  0.37264638733E+02  0.00000000000E+00 0.  1.
         11    1    4    4    0    0  0.10651430238E+01 -0.49511031530E+02  0.36104132400E+02  0.61286092625E+02  0.00000000000E+00 0. -1.
</event>
<event>
 8    1  0.3541538E-009  0.1013199E+03  0.7561462E-02  0.1277545E+00
          2   -1    0    0  501    0  0.00000000000E+00  0.00000000000E+00  0.21471959284E+03  0.21471959284E+03  0.00000000000E+00 0. -1.
         -2   -1    0    0    0  501 -0.00000000000E+00 -0.00000000000E+00 -0.58507112112E+02  0.58507112112E+02  0.00000000000E+00 0.  1.
         25    2    1    2    0    0 -0.21432327349E+01 -0.28629301078E+02  0.93771966879E+02  0.15894962471E+03  0.12509025181E+03 0.  0.
         23    2    1    2    0    0  0.21432327349E+01  0.28629301078E+02  0.62440513851E+02  0.11427708024E+03  0.91302809221E+02 0.  0.
          5    1    3    3  502    0  0.26265066574E+02  0.30988038172E+02  0.82184462249E+02  0.91770749518E+02  0.41800000000E+01 0. -1.
         -5    1    3    3    0  502 -0.28408299309E+02 -0.59617339250E+02  0.11587504630E+02  0.67178875195E+02  0.41800000000E+01 0. -1.
        -11    1    4    4    0    0  0.35215925892E+02 -0.17138499441E+02  0.27856596749E+02  0.48061206622E+02  0.00000000000E+00 0.  1.
         11    1    4    4    0    0 -0.33072693158E+02  0.45767800519E+02  0.34583917102E+02  0.66215873619E+02  0.00000000000E+00 0. -1.
</event>
<event>
 8    1  0.3541538E-009  0.1134443E+03  0.7561462E-02  0.1254321E+00
          2   -1    0    0  501    0  0.00000000000E+00  0.00000000000E+00  0.11739592062E+04  0.11739592062E+04  0.00000000000E+00 0. -1.
         -2   -1    0    0    0  501 -0.00000000000E+00 -0.00000000000E+00 -0.13492590275E+02  0.13492590275E+02  0.00000000000E+00 0.  1.
         25    2    1    2    0    0  0.49817309637E+02 -0.11081156557E+02  0.84031743956E+03  0.85110802272E+03  0.12508761228E+03 0.  0.
         23    2    1    2    0    0 -0.49817309637E+02  0.11081156557E+02  0.32014917634E+03  0.33634377373E+03  0.89593987761E+02 0.  0.
          5    1    3    3  502    0  0.82113546734E+02  0.23578055524E+02  0.60662674036E+03  0.61262715724E+03  0.41800000000E+01 0. -1.
         -5    1    3    3    0  502 -0.32296237097E+02 -0.34659212081E+02  0.23369069920E+03  0.23848086549E+03  0.41800000000E+01 0. -1.
        -11    1    4    4    0    0  0.12974583067E+02 -0.19916830317E+02  0.32327304487E+02  0.40125734274E+02  0.00000000000E+00 0.  1.
         11    1    4    4    0    0 -0.62791892704E+02  0.30997986875E+02  0.28782187185E+03  0.29621803945E+03  0.00000000000E+00 0. -1.
</event>
<event>
 8    1  0.3541538E-009  0.1641293E+03  0.7561462E-02  0.1184112E+00
          2   -1    0    0  501    0  0.00000000000E+00  0.00000000000E+00  0.61423048526E+03  0.61423048526E+03  0.00000000000E+00 0. -1.
         -2   -1    0    0    0  501 -0.00000000000E+00 -0.00000000000E+00 -0.64937115843E+02  0.64937115843E+02  0.00000000000E+00 0.  1.
         25    2    1    2    0    0 -0.96995963263E+02  0.95610451412E+02  0.12080983971E+03  0.22088765707E+03  0.12508702718E+03 0.  0.
         23    2    1    2    0    0  0.96995963263E+02 -0.95610451412E+02  0.42848352971E+03  0.45827994403E+03  0.88728780901E+02 0.  0.
          5    1    3    3  502    0 -0.12284454988E+03  0.91849930444E+02  0.82166610861E+02  0.17405751204E+03  0.41800000000E+01 0. -1.
         -5    1    3    3    0  502  0.25848586616E+02  0.37605209682E+01  0.38643228847E+02  0.46830145032E+02  0.41800000000E+01 0. -1.
        -11    1    4    4    0    0  0.78790259719E+02 -0.37104869693E+02  0.15286615977E+03  0.17593390573E+03  0.00000000000E+00 0.  1.
         11    1    4    4    0    0  0.18205703544E+02 -0.58505581719E+02  0.27561736994E+03  0.28234603830E+03  0.00000000000E+00 0. -1.
</event>
<event>
 8    1  0.3541538E-009  0.1055720E+03  0.7561462E-02  0.1268997E+00
         -1   -1    0    0    0  501 -0.00000000000E+00  0.00000000000E+00  0.13644995313E+04  0.13644995313E+04  0.00000000000E+00 0.  1.
          1   -1    0    0  501    0  0.00000000000E+00 -0.00000000000E+00 -0.17441747260E+02  0.17441747260E+02  0.00000000000E+00 0. -1.
         25    2    1    2    0    0  0.54198299663E+02 -0.34621747142E+02  0.11245969922E+04  0.11333588935E+04  0.12509142956E+03 0.  0.
         23    2    1    2    0    0 -0.54198299663E+02  0.34621747142E+02  0.22246079192E+03  0.24858238506E+03  0.90378521535E+02 0.  0.
          5    1    3    3  502    0 -0.17849456022E+02  0.13315445774E+02  0.45896124582E+02  0.51184283018E+02  0.41800000000E+01 0.  1.
         -5    1    3    3    0  502  0.72047755685E+02 -0.47937192916E+02  0.10787008676E+04  0.10821746105E+04  0.41800000000E+01 0.  1.
        -11    1    4    4    0    0 -0.72995876549E+02  0.38688231356E+02  0.12917099831E+03  0.15333076679E+03  0.00000000000E+00 0. -1.
         11    1    4    4    0    0  0.18797576885E+02 -0.40664842142E+01  0.93289793610E+02  0.95251618267E+02  0.00000000000E+00 0.  1.
</event>
<event>
 8    1  0.3541538E-009  0.9548795E+02  0.7561462E-02  0.1290081E+00
         -2   -1    0    0    0  501 -0.00000000000E+00  0.00000000000E+00  0.62398680207E+02  0.62398680207E+02  0.00000000000E+00 0.  1.
          2   -1    0    0  501    0  0.00000000000E+00 -0.00000000000E+00 -0.25180988543E+03  0.25180988543E+03  0.00000000000E+00 0. -1.
         25    2    1    2    0    0  0.41176813425E+01  0.45507893651E+02 -0.53857125523E+02  0.14365316677E+03  0.12509084166E+03 0.  0.
         23    2    1    2    0    0 -0.41176813425E+01 -0.45507893651E+02 -0.13555407970E+03  0.17055539887E+03  0.92877940744E+02 0.  0.
          5    1    3    3  502    0  0.31228880114E+02  0.55428475988E+02  0.17875665105E+02  0.66216090994E+02  0.41800000000E+01 0. -1.
         -5    1    3    3    0  502 -0.27111198772E+02 -0.99205823373E+01 -0.71732790629E+02  0.77437075772E+02  0.41800000000E+01 0. -1.
        -11    1    4    4    0    0  0.69695915442E+01  0.25369093732E+02 -0.15038299864E+02  0.30303738810E+02  0.00000000000E+00 0.  1.
         11    1    4    4    0    0 -0.11087272887E+02 -0.70876987383E+02 -0.12051577984E+03  0.14025166006E+03  0.00000000000E+00 0. -1.
</event>
<event>
 8    1  0.3541538E-009  0.1961979E+03  0.7561462E-02  0.1152987E+00
         -2   -1    0    0    0  501 -0.00000000000E+00  0.00000000000E+00  0.14757117287E+03  0.14757117287E+03  0.00000000000E+00 0.  1.
          2   -1    0    0  501    0  0.00000000000E+00 -0.00000000000E+00 -0.31725746179E+03  0.31725746179E+03  0.00000000000E+00 0. -1.
         25    2    1    2    0    0  0.16487669134E+03 -0.70078955213E+02 -0.31104898992E+02  0.22070675025E+03  0.12509425068E+03 0.  0.
         23    2    1    2    0    0 -0.16487669134E+03  0.70078955213E+02 -0.13858138992E+03  0.24412188441E+03  0.91078589713E+02 0.  0.
          5    1    3    3  502    0  0.15338003553E+03 -0.16471093578E+02  0.58953140557E+01  0.15443108285E+03  0.41800000000E+01 0. -1.
         -5    1    3    3    0  502  0.11496655812E+02 -0.53607861636E+02 -0.37000213048E+02  0.66275667402E+02  0.41800000000E+01 0.  1.
        -11    1    4    4    0    0 -0.12099308646E+03  0.32412127557E+02 -0.43052897229E+02  0.13245159472E+03  0.00000000000E+00 0. -1.
         11    1    4    4    0    0 -0.43883604876E+02  0.37666827657E+02 -0.95528492693E+02  0.11167028969E+03  0.00000000000E+00 0.  1.
</event>
<event>
 8    1  0.3541538E-009  0.9232622E+02  0.7561462E-02  0.1297314E+00
          1   -1    0    0  501    0  0.00000000000E+00  0.00000000000E+00  0.16799435362E+03  0.16799435362E+03  0.00000000000E+00 0. -1.
         -1   -1    0    0    0  501 -0.00000000000E+00 -0.00000000000E+00 -0.87357189444E+02  0.87357189444E+02  0.00000000000E+00 0.  1.
         25    2    1    2    0    0  0.40530347945E+01  0.47554571574E+02  0.38085037585E+02  0.13919780059E+03  0.12509073999E+03 0.  0.
         23    2    1    2    0    0 -0.40530347945E+01 -0.47554571574E+02  0.42552126588E+02  0.11615374248E+03  0.96969809968E+02 0.  0.
          5    1    3    3  502    0 -0.11952172655E+02  0.74809869524E+02 -0.14935269714E+02  0.77329849934E+02  0.41800000000E+01 0.  1.
         -5    1    3    3    0  502  0.16005207449E+02 -0.27255297950E+02  0.53020307298E+02  0.61867950652E+02  0.41800000000E+01 0.  1.
        -11    1    4    4    0    0  0.23027214697E+02 -0.43896799826E+02  0.64328680249E+02  0.81211826443E+02  0.00000000000E+00 0. -1.
         11    1    4    4    0    0 -0.27080249491E+02 -0.36577717485E+01 -0.21776553661E+02  0.34941916032E+02  0.00000000000E+00 0.  1.
</event>
<event>
 8    1  0.3541538E-009  0.1561789E+03  0.7561462E-02  0.1193080E+00
         -2   -1    0    0    0  501 -0.00000000000E+00  0.00000000000E+00  0.70355308341E+02  0.70355308341E+02  0.00000000000E+00 0.  1.
          2   -1    0    0  501    0  0.00000000000E+00 -0.00000000000E+00 -0.43280064171E+03  0.43280064171E+03  0.00000000000E+00 0. -1.
         25    2    1    2    0    0 -0.10764957096E+03 -0.72158993804E+02 -0.24929092018E+03  0.30755227407E+03  0.12508832036E+03 0.  0.
         23    2    1    2    0    0  0.10764957096E+03  0.72158993804E+02 -0.11315441319E+03  0.19560367598E+03  0.93067321422E+02 0.  0.
          5    1    3    3  502    0 -0.98035877453E+02 -0.20521737297E+02 -0.23093629486E+03  0.25175627034E+03  0.41800000000E+01 0.  1.
         -5    1    3    3    0  502 -0.96136935068E+01 -0.51637256508E+02 -0.18354625318E+02  0.55796003737E+02  0.41800000000E+01 0.  1.
        -11    1    4    4    0    0  0.14021404594E+02  0.63908075227E+02 -0.50384579421E+02  0.82579947381E+02  0.00000000000E+00 0.  1.
         11    1    4    4    0    0  0.93628166366E+02  0.82509185775E+01 -0.62769833767E+02  0.11302372860E+03  0.00000000000E+00 0. -1.
</event>
<event>
 8    1  0.3541538E-009  0.1751601E+03  0.7561462E-02  0.1172571E+00
         -1   -1    0    0    0  501 -0.00000000000E+00  0.00000000000E+00  0.19103651327E+03  0.19103651327E+03  0.00000000000E+00 0.  1.
          1   -1    0    0  501    0  0.00000000000E+00 -0.00000000000E+00 -0.24673633726E+03  0.24673633726E+03  0.00000000000E+00 0. -1.
         25    2    1    2    0    0 -0.20618653796E+02 -0.15164846290E+03 -0.13739637282E+03  0.24073252938E+03  0.12510796238E+03 0.  0.
         23    2    1    2    0    0  0.20618653796E+02  0.15164846290E+03  0.81696548828E+02  0.19704032116E+03  0.93424712401E+02 0.  0.
          5    1    3    3  502    0  0.15495187105E+01 -0.16882217807E+03 -0.11178751075E+03  0.20252715565E+03  0.41800000000E+01 0.  1.
         -5    1    3    3    0  502 -0.22168172507E+02  0.17173715167E+02 -0.25608862071E+02  0.38205373725E+02  0.41800000000E+01 0.  1.
        -11    1    4    4    0    0  0.76046249576E+01  0.69417242517E+02 -0.12911820439E+02  0.71016188201E+02  0.00000000000E+00 0.  1.
         11    1    4    4    0    0  0.13014028839E+02  0.82231220384E+02  0.94608369267E+02  0.12602413296E+03  0.00000000000E+00 0. -1.
</event>
<event>
 8    1  0.3541538E-009  0.1121935E+03  0.7561462E-02  0.1256561E+00
          1   -1    0    0  501    0  0.00000000000E+00  0.00000000000E+00  0.23717735842E+03  0.23717735842E+03  0.00000000000E+00 0. -1.
         -1   -1    0    0    0  501 -0.00000000000E+00 -0.00000000000E+00 -0.83734099479E+02  0.83734099479E+02  0.00000000000E+00 0.  1.
         25    2    1    2    0    0  0.45873362944E+02 -0.53242307069E+02  0.21056313580E+02  0.14501535872E+03  0.12508787805E+03 0.  0.
         23    2    1    2    0    0 -0.45873362944E+02  0.53242307069E+02  0.13238694536E+03  0.17589609918E+03  0.92054471451E+02 0.  0.
          5    1    3    3  502    0  0.54650230501E+02  0.27036385735E+02 -0.12566698871E+01  0.61128270600E+02  0.41800000000E+01 0.  1.
         -5    1    3    3    0  502 -0.87768675571E+01 -0.80278692804E+02  0.22312983467E+02  0.83887088122E+02  0.41800000000E+01 0.  1.
        -11    1    4    4    0    0  0.36695274197E+01  0.25224283858E+02  0.11289111653E+03  0.11573302951E+03  0.00000000000E+00 0. -1.
         11    1    4    4    0    0 -0.49542890363E+02  0.28018023211E+02  0.19495828831E+02  0.60163069669E+02  0.00000000000E+00 0.  1.
</event>
<event>
 8    1  0.3541538E-009  0.1067100E+03  0.7561462E-02  0.1266787E+00
          2   -1    0    0  501    0  0.00000000000E+00  0.00000000000E+00  0.60790277908E+02  0.60790277908E+02  0.00000000000E+00 0. -1.
         -2   -1    0    0    0  501 -0.00000000000E+00 -0.00000000000E+00 -0.34924644048E+03  0.34924644048E+03  0.00000000000E+00 0.  1.
         25    2    1    2    0    0 -0.52672230661E+02  0.57898305806E+02 -0.76154070895E+02  0.16605979106E+03  0.12509929654E+03 0.  0.
         23    2    1    2    0    0  0.52672230661E+02 -0.57898305806E+02 -0.21230209167E+03  0.24397692732E+03  0.91246836878E+02 0.  0.
          5    1    3    3  502    0  0.80687141476E+01  0.64920151332E+02  0.33929736944E+01  0.65640801850E+02  0.41800000000E+01 0. -1.
         -5    1    3    3    0  502 -0.60740944809E+02 -0.70218455258E+01 -0.79547044590E+02  0.10041898921E+03  0.41800000000E+01 0. -1.
        -11    1    4    4    0    0  0.98920146553E+01 -0.38238710020E+02 -0.18579441255E+03  0.18994634672E+03  0.00000000000E+00 0.  1.
         11    1    4    4    0    0  0.42780216006E+02 -0.19659595787E+02 -0.26507679124E+02  0.54030580605E+02  0.00000000000E+00 0. -1.
</event>
<event>
 8    1  0.3541538E-009  0.1238685E+03  0.7561462E-02  0.1236848E+00
          1   -1    0    0  501    0  0.00000000000E+00  0.00000000000E+00  0.46111205547E+03  0.46111205547E+03  0.00000000000E+00 0. -1.
         -1   -1    0    0    0  501 -0.00000000000E+00 -0.00000000000E+00 -0.39274111168E+02  0.39274111168E+02  0.00000000000E+00 0.  1.
         25    2    1    2    0    0 -0.56358350870E+02 -0.43159216044E+02  0.29842641882E+03  0.33127765443E+03  0.12509026832E+03 0.  0.
         23    2    1    2    0    0  0.56358350870E+02  0.43159216044E+02  0.12341152548E+03  0.16910851221E+03  0.91259534513E+02 0.  0.
          5    1    3    3  502    0 -0.83252144111E+02 -0.16299418857E+01  0.12034396971E+03  0.14640259443E+03  0.41800000000E+01 0.  1.
         -5    1    3    3    0  502  0.26893793242E+02 -0.41529274158E+02  0.17808244911E+03  0.18487506000E+03  0.41800000000E+01 0.  1.
        -11    1    4    4    0    0  0.81028294288E+02  0.27869678819E+02  0.82501724319E+02  0.11894888813E+03  0.00000000000E+00 0.  1.
         11    1    4    4    0    0 -0.24669943418E+02  0.15289537225E+02  0.40909801159E+02  0.50159624078E+02  0.00000000000E+00 0. -1.
</event>
<event>
 8    1  0.3541538E-009  0.1153778E+03  0.7561462E-02  0.1250923E+00
          1   -1    0    0  501    0  0.00000000000E+00  0.00000000000E+00  0.31496422445E+03  0.31496422445E+03  0.00000000000E+00 0. -1.
         -1   -1    0    0    0  501 -0.00000000000E+00 -0.00000000000E+00 -0.69971987410E+02  0.69971987410E+02  0.00000000000E+00 0.  1.
         25    2    1    2    0    0 -0.44752066181E+02 -0.75367576412E+02  0.68602217842E+02  0.16744469796E+03  0.12509373918E+03 0.  0.
         23    2    1    2    0    0  0.44752066181E+02  0.75367576412E+02  0.17639001920E+03  0.21749151390E+03  0.92228524563E+02 0.  0.
          5    1    3    3  502    0 -0.75581693097E+02 -0.61098057572E+02  0.85282825280E+02  0.12936845697E+03  0.41800000000E+01 0.  1.
         -5    1    3    3    0  502  0.30829626916E+02 -0.14269518840E+02 -0.16680607438E+02  0.38076240994E+02  0.41800000000E+01 0.  1.
        -11    1    4    4    0    0  0.54244533280E+02  0.57708174394E+02  0.59932288929E+02  0.99320602288E+02  0.00000000000E+00 0.  1.
         11    1    4    4    0    0 -0.94924670993E+01  0.17659402018E+02  0.11645773027E+03  0.11817091161E+03  0.00000000000E+00 0. -1.
</event>
<event>
 8    1  0.3541538E-009  0.1273410E+03  0.7561462E-02  0.1231455E+00
         -1   -1    0    0    0  501 -0.00000000000E+00  0.00000000000E+00  0.78937626345E+02  0.78937626345E+02  0.00000000000E+00 0.  1.
          1   -1    0    0  501    0  0.00000000000E+00 -0.00000000000E+00 -0.42590184070E+03  0.42590184070E+03  0.00000000000E+00 0. -1.
         25    2    1    2    0    0  0.10277643814E+03  0.46719177091E+02 -0.31434309867E+03  0.35665770947E+03  0.12508980893E+03 0.  0.
         23    2    1    2    0    0 -0.10277643814E+03 -0.46719177091E+02 -0.32621115690E+02  0.14818175758E+03  0.90266374394E+02 0.  0.
          5    1    3    3  502    0  0.79839490487E+02  0.62453393034E+02 -0.10712684653E+03  0.14754119489E+03  0.41800000000E+01 0.  1.
         -5    1    3    3    0  502  0.22936947651E+02 -0.15734215943E+02 -0.20721625214E+03  0.20911651458E+03  0.41800000000E+01 0.  1.
        -11    1    4    4    0    0 -0.71093986620E+02 -0.57710936580E+02  0.12012644659E+02  0.92353726325E+02  0.00000000000E+00 0.  1.
         11    1    4    4    0    0 -0.31682451518E+02  0.10991759489E+02 -0.44633760350E+02  0.55828031255E+02  0.00000000000E+00 0. -1.
</event>
<event>
 8    1  0.3541538E-009  0.4889466E+02  0.7561462E-02  0.1451396E+00
          2   -1    0    0  501    0  0.00000000000E+00  0.00000000000E+00  0.83314714155E+03  0.83314714155E+03  0.00000000000E+00 0. -1.
         -2   -1    0    0    0  501 -0.00000000000E+00 -0.00000000000E+00 -0.14979458553E+02  0.14979458553E+02  0.00000000000E+00 0.  1.
         25    2    1    2    0    0 -0.10373468154E+02  0.17980222576E+02  0.54872386803E+03  0.56318417402E+03  0.12509050034E+03 0.  0.
         23    2    1    2    0    0  0.10373468154E+02 -0.17980222576E+02  0.26944381497E+03  0.28494242608E+03  0.90340021660E+02 0.  0.
          5    1    3    3  502    0 -0.35168350416E+01  0.20819700972E+02  0.55316138903E+03  0.55358000577E+03  0.41800000000E+01 0. -1.
         -5    1    3    3    0  502 -0.68566331125E+01 -0.28394783955E+01 -0.44375209960E+01  0.96041682507E+01  0.41800000000E+01 0. -1.
        -11    1    4    4    0    0  0.10904268915E+02  0.23687204757E+02  0.22303820782E+02  0.34313950097E+02  0.00000000000E+00 0.  1.
         11    1    4    4    0    0 -0.53080076136E+00 -0.41667427333E+02  0.24713999419E+03  0.25062847599E+03  0.00000000000E+00 0. -1.
</event>
<event>
 8    1  0.3541538E-009  0.9967279E+02  0.7561462E-02  0.1280986E+00
          1   -1    0    0  501    0  0.00000000000E+00  0.00000000000E+00  0.34113603377E+03  0.34113603377E+03  0.00000000000E+00 0. -1.
         -1   -1    0    0    0  501 -0.00000000000E+00 -0.00000000000E+00 -0.64126337915E+02  0.64126337915E+02  0.00000000000E+00 0.  1.
         25    2    1    2    0    0  0.44507706156E+02  0.78271064302E+02  0.89174164781E+02  0.17806827651E+03  0.12509589929E+03 0.  0.
         23    2    1    2    0    0 -0.44507706156E+02 -0.78271064302E+02  0.18783553108E+03  0.22719409518E+03  0.90706530840E+02 0.  0.
          5    1    3    3  502    0  0.45525001398E+02  0.36792420897E+02  0.11493679651E+03  0.12905094955E+03  0.41800000000E+01 0. -1.
         -5    1    3    3    0  502 -0.10172952418E+01  0.41478643405E+02 -0.25762631729E+02  0.49017326956E+02  0.41800000000E+01 0. -1.
        -11    1    4    4    0    0 -0.32167485094E+02 -0.16850746437E+02  0.14927870050E+03  0.15363210985E+03  0.00000000000E+00 0. -1.
         11    1    4    4    0    0 -0.12340221062E+02 -0.61420317865E+02  0.38556830575E+02  0.73561985335E+02  0.00000000000E+00 0.  1.
</event>
<event>
 8    1  0.3541538E-009  0.1060928E+03  0.7561462E-02  0.1267981E+00
          1   -1    0    0  501    0  0.00000000000E+00  0.00000000000E+00  0.69866070505E+03  0.69866070505E+03  0.00000000000E+00 0. -1.
         -1   -1    0    0    0  501 -0.00000000000E+00 -0.00000000000E+00 -0.18009980929E+02  0.18009980929E+02  0.00000000000E+00 0.  1.
         25    2    1    2    0    0  0.27494154616E+02  0.14175998317E+02  0.37897382108E+03  0.40028333205E+03  0.12509476961E+03 0.  0.
         23    2    1    2    0    0 -0.27494154616E+02 -0.14175998317E+02  0.30167690304E+03  0.31638735393E+03  0.90194880304E+02 0.  0.
          5    1    3    3  502    0  0.72819450035E+02 -0.77824036458E+01  0.27593077108E+03  0.28551444961E+03  0.41800000000E+01 0. -1.
         -5    1    3    3    0  502 -0.45325295420E+02  0.21958401963E+02  0.10304305000E+03  0.11476888244E+03  0.41800000000E+01 0. -1.
        -11    1    4    4    0    0  0.25719600942E+02 -0.22819818105E+02  0.63773971806E+02  0.72452477189E+02  0.00000000000E+00 0.  1.
         11    1    4    4    0    0 -0.53213755557E+02  0.86438197871E+01  0.23790293124E+03  0.24393487674E+03  0.00000000000E+00 0. -1.
</event>
<event>
 8    1  0.3541538E-009  0.8792322E+02  0.7561462E-02  0.1307960E+00
         -2   -1    0    0    0  501 -0.00000000000E+00  0.00000000000E+00  0.78599786849E+02  0.78599786849E+02  0.00000000000E+00 0. -1.
          2   -1    0    0  501    0  0.00000000000E+00 -0.00000000000E+00 -0.22482335031E+03  0.22482335031E+03  0.00000000000E+00 0.  1.
         25    2    1    2    0    0 -0.12887537607E+02  0.75705665055E+02 -0.85297321257E+02  0.16976982089E+03  0.12509485491E+03 0.  0.
         23    2    1    2    0    0  0.12887537607E+02 -0.75705665055E+02 -0.60926242203E+02  0.13365331627E+03  0.90850237274E+02 0.  0.
          5    1    3    3  502    0 -0.95808698951E+01  0.55953549257E+02  0.21637626031E+02  0.60895418568E+02  0.41800000000E+01 0.  1.
         -5    1    3    3    0  502 -0.33066677116E+01  0.19752115799E+02 -0.10693494729E+03  0.10887440232E+03  0.41800000000E+01 0.  1.
        -11    1    4    4    0    0 -0.14805558545E+02 -0.68179774717E+02 -0.74360876067E+02  0.10196678937E+03  0.00000000000E+00 0.  1.
         11    1    4    4    0    0  0.27693096152E+02 -0.75258903380E+01  0.13434633863E+02  0.31686526899E+02  0.00000000000E+00 0. -1.
</event>
<event>
 8    1  0.3541538E-009  0.1054837E+03  0.7561462E-02  0.1269170E+00
         -3   -1    0    0    0  501 -0.00000000000E+00  0.00000000000E+00  0.14324239545E+03  0.14324239545E+03  0.00000000000E+00 0.  1.
          3   -1    0    0  501    0  0.00000000000E+00 -0.00000000000E+00 -0.13558438267E+03  0.13558438267E+03  0.00000000000E+00 0. -1.
         25    2    1    2    0    0  0.19892689875E+02 -0.56513407323E+02  0.72200747857E+02  0.15636183558E+03  0.12508633546E+03 0.  0.
         23    2    1    2    0    0 -0.19892689875E+02  0.56513407323E+02 -0.64542735080E+02  0.12246494254E+03  0.85102368840E+02 0.  0.
          5    1    3    3  502    0  0.64706612212E+02 -0.65841960244E+02  0.43165605088E+02  0.10199436874E+03  0.41800000000E+01 0. -1.
         -5    1    3    3    0  502 -0.44813922337E+02  0.93285529208E+01  0.29035142769E+02  0.54367466838E+02  0.41800000000E+01 0. -1.
        -11    1    4    4    0    0 -0.31487742311E+02  0.29297604623E+02  0.83368206178E+01  0.43810160129E+02  0.00000000000E+00 0.  1.
         11    1    4    4    0    0  0.11595052436E+02  0.27215802699E+02 -0.72879555697E+02  0.78654782412E+02  0.00000000000E+00 0. -1.
</event>
<event>
 8    1  0.3541538E-009  0.1092958E+03  0.7561462E-02  0.1261879E+00
         -2   -1    0    0    0  501 -0.00000000000E+00  0.00000000000E+00  0.62606279753E+02  0.62606279753E+02  0.00000000000E+00 0.  1.
          2   -1    0    0  501    0  0.00000000000E+00 -0.00000000000E+00 -0.20813122340E+03  0.20813122340E+03  0.00000000000E+00 0. -1.
         25    2    1    2    0    0 -0.29622808455E+02  0.13173195036E+02 -0.61796902536E+02  0.14323996650E+03  0.12509111476E+03 0.  0.
         23    2    1    2    0    0  0.29622808455E+02 -0.13173195036E+02 -0.83728041116E+02  0.12749753666E+03  0.90521782662E+02 0.  0.
          5    1    3    3  502    0 -0.78278711898E+02  0.62467451605E+00 -0.43128581359E+02  0.89473425579E+02  0.41800000000E+01 0. -1.
         -5    1    3    3    0  502  0.48655903443E+02  0.12548520520E+02 -0.18668321178E+02  0.53766540922E+02  0.41800000000E+01 0. -1.
        -11    1    4    4    0    0 -0.20293222700E+02  0.21063246913E+02 -0.75638670680E+01  0.30210715700E+02  0.00000000000E+00 0. -1.
         11    1    4    4    0    0  0.49916031155E+02 -0.34236441950E+02 -0.76164174048E+02  0.97286820957E+02  0.00000000000E+00 0.  1.
</event>
<event>
 8    1  0.3541538E-009  0.6681633E+02  0.7561462E-02  0.1371267E+00
         -3   -1    0    0    0  501 -0.00000000000E+00  0.00000000000E+00  0.16824883997E+03  0.16824883997E+03  0.00000000000E+00 0.  1.
          3   -1    0    0  501    0  0.00000000000E+00 -0.00000000000E+00 -0.68134896562E+02  0.68134896562E+02  0.00000000000E+00 0. -1.
         25    2    1    2    0    0  0.17089235819E+01 -0.61587840951E+01  0.69388871183E+02  0.14318756813E+03  0.12508802174E+03 0.  0.
         23    2    1    2    0    0 -0.17089235819E+01  0.61587840951E+01  0.30725072228E+02  0.93196168402E+02  0.87753317316E+02 0.  0.
          5    1    3    3  502    0  0.35339533553E+02 -0.37079213422E+01  0.94428863053E+02  0.10097976971E+03  0.41800000000E+01 0.  1.
         -5    1    3    3    0  502 -0.33630609971E+02 -0.24508627530E+01 -0.25039991870E+02  0.42207798427E+02  0.41800000000E+01 0.  1.
        -11    1    4    4    0    0  0.21555397886E+02  0.25665215060E+02  0.47788046317E+02  0.58369819367E+02  0.00000000000E+00 0.  1.
         11    1    4    4    0    0 -0.23264321468E+02 -0.19506430965E+02 -0.17062974088E+02  0.34826349035E+02  0.00000000000E+00 0. -1.
</event>
<event>
 8    1  0.3541538E-009  0.8686195E+02  0.7561462E-02  0.1310634E+00
         -2   -1    0    0    0  501 -0.00000000000E+00  0.00000000000E+00  0.43092566772E+02  0.43092566772E+02  0.00000000000E+00 0.  1.
          2   -1    0    0  501    0  0.00000000000E+00 -0.00000000000E+00 -0.32182794616E+03  0.32182794616E+03  0.00000000000E+00 0. -1.
         25    2    1    2    0    0  0.39357777310E+02 -0.23470530441E+02 -0.14930792150E+03  0.20010463469E+03  0.12509639871E+03 0.  0.
         23    2    1    2    0    0 -0.39357777310E+02  0.23470530441E+02 -0.12942745789E+03  0.16481587824E+03  0.91175141511E+02 0.  0.
          5    1    3    3  502    0  0.55746076810E+02 -0.21579505479E+02 -0.11210668204E+02  0.60962706781E+02  0.41800000000E+01 0. -1.
         -5    1    3    3    0  502 -0.16388299500E+02 -0.18910249626E+01 -0.13809725329E+03  0.13914192791E+03  0.41800000000E+01 0. -1.
        -11    1    4    4    0    0 -0.87093147408E+01 -0.32132633611E+02 -0.21601564264E+02  0.39686091829E+02  0.00000000000E+00 0.  1.
         11    1    4    4    0    0 -0.30648462570E+02  0.55603164052E+02 -0.10782589362E+03  0.12512978641E+03  0.00000000000E+00 0. -1.
</event>
<event>
 8    1  0.3541538E-009  0.6568010E+02  0.7561462E-02  0.1375431E+00
          1   -1    0    0  501    0  0.00000000000E+00  0.00000000000E+00  0.42729141253E+02  0.42729141253E+02  0.00000000000E+00 0. -1.
         -1   -1    0    0    0  501 -0.00000000000E+00 -0.00000000000E+00 -0.34669807401E+03  0.34669807401E+03  0.00000000000E+00 0.  1.
         25    2    1    2    0    0  0.27954302183E+02  0.28818611012E+02 -0.23265300098E+03  0.26719028625E+03  0.12510505525E+03 0.  0.
         23    2    1    2    0    0 -0.27954302183E+02 -0.28818611012E+02 -0.71315931781E+02  0.12223692902E+03  0.90796196723E+02 0.  0.
          5    1    3    3  502    0  0.31133017070E+02  0.31453092547E+02 -0.11442377398E+02  0.45901657739E+02  0.41800000000E+01 0. -1.
         -5    1    3    3    0  502 -0.31787148871E+01 -0.26344815355E+01 -0.22121062358E+03  0.22128862851E+03  0.41800000000E+01 0. -1.
        -11    1    4    4    0    0 -0.50350693312E+02 -0.90460512296E+01 -0.76386243542E+02  0.91934115334E+02  0.00000000000E+00 0.  1.
         11    1    4    4    0    0  0.22396391129E+02 -0.19772559782E+02  0.50703117607E+01  0.30302813686E+02  0.00000000000E+00 0. -1.
</event>
<event>
 8    1  0.3541538E-009  0.2541253E+03  0.7561462E-02  0.1110725E+00
         -2   -1    0    0    0  501 -0.00000000000E+00  0.00000000000E+00  0.19963222318E+03  0.19963222318E+03  0.00000000000E+00 0.  1.
          2   -1    0    0  501    0  0.00000000000E+00 -0.00000000000E+00 -0.38987877117E+03  0.38987877117E+03  0.00000000000E+00 0. -1.
         25    2    1    2    0    0 -0.23971260528E+03 -0.32705825915E+02 -0.18808483834E+03  0.33099031389E+03  0.12508747856E+03 0.  0.
         23    2    1    2    0    0  0.23971260528E+03  0.32705825915E+02 -0.21617096515E+01  0.25852068047E+03  0.91084933227E+02 0.  0.
          5    1    3    3  502    0 -0.24713153181E+03 -0.26992989353E+02 -0.19714184186E+03  0.31730898774E+03  0.41800000000E+01 0.  1.
         -5    1    3    3    0  502  0.74189265290E+01 -0.57128365622E+01  0.90570035159E+01  0.13681326146E+02  0.41800000000E+01 0.  1.
        -11    1    4    4    0    0  0.64999430540E+02  0.36615293499E+02 -0.32103605533E+02  0.81217283732E+02  0.00000000000E+00 0. -1.
         11    1    4    4    0    0  0.17471317474E+03 -0.39094675842E+01  0.29941895881E+02  0.17730339673E+03  0.00000000000E+00 0.  1.
</event>
<event>
 8    1  0.3541538E-009  0.1633788E+03  0.7561462E-02  0.1184934E+00
         -1   -1    0    0    0  501 -0.00000000000E+00  0.00000000000E+00  0.85723130844E+02  0.85723130844E+02  0.00000000000E+00 0.  1.
          1   -1    0    0  501    0  0.00000000000E+00 -0.00000000000E+00 -0.44854491510E+03  0.44854491510E+03  0.00000000000E+00 0. -1.
         25    2    1    2    0    0  0.13113988356E+03  0.85579368306E+02 -0.25165556785E+03  0.32171640878E+03  0.12509766388E+03 0.  0.
         23    2    1    2    0    0 -0.13113988356E+03 -0.85579368306E+02 -0.11116621640E+03  0.21255163716E+03  0.91097603983E+02 0.  0.
          5    1    3    3  502    0  0.12188743567E+03  0.62468558626E+02 -0.10427733478E+03  0.17219205190E+03  0.41800000000E+01 0. -1.
         -5    1    3    3    0  502  0.92524478928E+01  0.23110809680E+02 -0.14737823307E+03  0.14952435688E+03  0.41800000000E+01 0. -1.
        -11    1    4    4    0    0 -0.35586545734E+02  0.91998442005E+00  0.85830190599E+01  0.36618531166E+02  0.00000000000E+00 0.  1.
         11    1    4    4    0    0 -0.95553337825E+02 -0.86499352726E+02 -0.11974923546E+03  0.17593310599E+03  0.00000000000E+00 0. -1.
</event>
<event>
 8    1  0.3541538E-009  0.1126687E+03  0.7561462E-02  0.1255706E+00
         -2   -1    0    0    0  501 -0.00000000000E+00  0.00000000000E+00  0.46397708247E+02  0.46397708247E+02  0.00000000000E+00 0.  1.
          2   -1    0    0  501    0  0.00000000000E+00 -0.00000000000E+00 -0.31470645426E+03  0.31470645426E+03  0.00000000000E+00 0. -1.
         25    2    1    2    0    0 -0.51765323810E+02  0.65909635094E+01 -0.14088265612E+03  0.19549597493E+03  0.12509062262E+03 0.  0.
         23    2    1    2    0    0  0.51765323810E+02 -0.65909635094E+01 -0.12742608989E+03  0.16560818759E+03  0.92008553194E+02 0.  0.
          5    1    3    3  502    0 -0.28746168442E+02 -0.51345060673E+02 -0.11216157822E+03  0.12672943417E+03  0.41800000000E+01 0.  1.
         -5    1    3    3    0  502 -0.23019155368E+02  0.57936024182E+02 -0.28721077904E+02  0.68766540759E+02  0.41800000000E+01 0.  1.
        -11    1    4    4    0    0  0.29263752511E+02  0.41493299895E+02 -0.78017806054E+02  0.93085118083E+02  0.00000000000E+00 0. -1.
         11    1    4    4    0    0  0.22501571299E+02 -0.48084263404E+02 -0.49408283840E+02  0.72523069503E+02  0.00000000000E+00 0.  1.
</event>
<event>
 8    1  0.3541538E-009  0.2104418E+03  0.7561462E-02  0.1141217E+00
          2   -1    0    0  501    0  0.00000000000E+00  0.00000000000E+00  0.12149929636E+04  0.12149929636E+04  0.00000000000E+00 0. -1.
         -2   -1    0    0    0  501 -0.00000000000E+00 -0.00000000000E+00 -0.87593941307E+02  0.87593941307E+02  0.00000000000E+00 0.  1.
         25    2    1    2    0    0  0.14200061202E+03 -0.13370883810E+03  0.10492414387E+04  0.10745200328E+04  0.12507388583E+03 0.  0.
         23    2    1    2    0    0 -0.14200061202E+03  0.13370883810E+03  0.78157583558E+02  0.22806687211E+03  0.88677297484E+02 0.  0.
          5    1    3    3  502    0  0.14596870837E+03 -0.10215727524E+03  0.99998616584E+03  0.10157424757E+04  0.41800000000E+01 0.  1.
         -5    1    3    3    0  502 -0.39680963497E+01 -0.31551562857E+02  0.49255272871E+02  0.58777557051E+02  0.41800000000E+01 0.  1.
        -11    1    4    4    0    0 -0.15824168207E+02  0.65052114437E+02  0.44928828307E+02  0.80627424027E+02  0.00000000000E+00 0.  1.
         11    1    4    4    0    0 -0.12617644381E+03  0.68656723662E+02  0.33228755251E+02  0.14743944809E+03  0.00000000000E+00 0. -1.
</event>
<event>
 8    1  0.3541538E-009  0.1315873E+03  0.7561462E-02  0.1225119E+00
         -1   -1    0    0    0  501 -0.00000000000E+00  0.00000000000E+00  0.24682521253E+03  0.24682521253E+03  0.00000000000E+00 0.  1.
          1   -1    0    0  501    0  0.00000000000E+00 -0.00000000000E+00 -0.12008645051E+03  0.12008645051E+03  0.00000000000E+00 0. -1.
         25    2    1    2    0    0 -0.86875673906E+02 -0.23390738698E+02  0.17306881822E+03  0.23172067947E+03  0.12508856094E+03 0.  0.
         23    2    1    2    0    0  0.86875673906E+02  0.23390738698E+02 -0.46330056200E+02  0.13519098357E+03  0.89641611753E+02 0.  0.
          5    1    3    3  502    0 -0.19112362812E+02 -0.63353645926E+02  0.41054388223E+02  0.77986550486E+02  0.41800000000E+01 0.  1.
         -5    1    3    3    0  502 -0.67763311093E+02  0.39962907228E+02  0.13201443000E+03  0.15373412898E+03  0.41800000000E+01 0.  1.
        -11    1    4    4    0    0  0.55126069254E+02 -0.24744738665E+02 -0.48507506622E+02  0.77486539487E+02  0.00000000000E+00 0.  1.
         11    1    4    4    0    0  0.31749604652E+02  0.48135477364E+02  0.21774504217E+01  0.57704444083E+02  0.00000000000E+00 0. -1.
</event>
<event>
 8    1  0.3541538E-009  0.1073297E+03  0.7561462E-02  0.1265596E+00
         -2   -1    0    0    0  501 -0.00000000000E+00  0.00000000000E+00  0.10574078219E+03  0.10574078219E+03  0.00000000000E+00 0.  1.
          2   -1    0    0  501    0  0.00000000000E+00 -0.00000000000E+00 -0.11761078443E+03  0.11761078443E+03  0.00000000000E+00 0. -1.
         25    2    1    2    0    0 -0.16002928453E+02  0.10158279395E+02 -0.30887540934E+02  0.13023535749E+03  0.12509166158E+03 0.  0.
         23    2    1    2    0    0  0.16002928453E+02 -0.10158279395E+02  0.19017538692E+02  0.93116209138E+02  0.89160962685E+02 0.  0.
          5    1    3    3  502    0  0.46862324594E+02  0.31980821192E+02 -0.32843225987E+00  0.56889635772E+02  0.41800000000E+01 0.  1.
         -5    1    3    3    0  502 -0.62865253047E+02 -0.21822541798E+02 -0.30559108674E+02  0.73345721717E+02  0.41800000000E+01 0.  1.
        -11    1    4    4    0    0  0.59273591013E+01 -0.49820726644E+02  0.12142283354E+02  0.51620474953E+02  0.00000000000E+00 0. -1.
         11    1    4    4    0    0  0.10075569352E+02  0.39662447249E+02  0.68752553381E+01  0.41495734185E+02  0.00000000000E+00 0.  1.
</event>
<event>
 8    1  0.3541538E-009  0.1231135E+03  0.7561462E-02  0.1238047E+00
         -1   -1    0    0    0  501 -0.00000000000E+00  0.00000000000E+00  0.19315228965E+03  0.19315228965E+03  0.00000000000E+00 0.  1.
          1   -1    0    0  501    0  0.00000000000E+00 -0.00000000000E+00 -0.13386393142E+03  0.13386393142E+03  0.00000000000E+00 0. -1.
         25    2    1    2    0    0 -0.69072707763E+02 -0.84237571781E+02 -0.16292337126E+02  0.16667121680E+03  0.12508735669E+03 0.  0.
         23    2    1    2    0    0  0.69072707763E+02  0.84237571781E+02  0.75580695366E+02  0.16034500427E+03  0.90172453806E+02 0.  0.
          5    1    3    3  502    0  0.17327436589E+02 -0.26660828107E+01 -0.41399824141E+02  0.45152695326E+02  0.41800000000E+01 0.  1.
         -5    1    3    3    0  502 -0.86400144352E+02 -0.81571488971E+02  0.25107487015E+02  0.12151852147E+03  0.41800000000E+01 0.  1.
        -11    1    4    4    0    0  0.52959514434E+02  0.58211845037E+02 -0.11141015595E+00  0.78697785763E+02  0.00000000000E+00 0. -1.
         11    1    4    4    0    0  0.16113193329E+02  0.26025726744E+02  0.75692105522E+02  0.81647218508E+02  0.00000000000E+00 0.  1.
</event>
<event>
 8    1  0.3541538E-009  0.7589301E+02  0.7561462E-02  0.1341128E+00
          1   -1    0    0  501    0  0.00000000000E+00  0.00000000000E+00  0.36433558650E+03  0.36433558650E+03  0.00000000000E+00 0. -1.
         -1   -1    0    0    0  501 -0.00000000000E+00 -0.00000000000E+00 -0.49799058737E+02  0.49799058737E+02  0.00000000000E+00 0.  1.
         25    2    1    2    0    0 -0.63436461976E+01 -0.46062678490E+02  0.73579148579E+02  0.15239243982E+03  0.12509017712E+03 0.  0.
         23    2    1    2    0    0  0.63436461976E+01  0.46062678490E+02  0.24095737918E+03  0.26174220542E+03  0.91030276927E+02 0.  0.
          5    1    3    3  502    0 -0.10965052055E+02 -0.34503723021E+02 -0.30478505598E+02  0.47509482973E+02  0.41800000000E+01 0. -1.
         -5    1    3    3    0  502  0.46214058572E+01 -0.11558955469E+02  0.10405765418E+03  0.10488295684E+03  0.41800000000E+01 0. -1.
        -11    1    4    4    0    0 -0.32538681735E+02  0.53504344160E+02  0.14924410426E+03  0.16184957000E+03  0.00000000000E+00 0. -1.
         11    1    4    4    0    0  0.38882327933E+02 -0.74416656703E+01  0.91713274926E+02  0.99892635419E+02  0.00000000000E+00 0.  1.
</event>
<event>
 8    1  0.3541538E-009  0.9476917E+02  0.7561462E-02  0.1291697E+00
         -3   -1    0    0    0  501 -0.00000000000E+00  0.00000000000E+00  0.41284701628E+03  0.41284701628E+03  0.00000000000E+00 0.  1.
          3   -1    0    0  501    0  0.00000000000E+00 -0.00000000000E+00 -0.32903033588E+02  0.32903033588E+02  0.00000000000E+00 0. -1.
         25    2    1    2    0    0  0.68068993212E+01  0.34220682277E+02  0.17567500090E+03  0.21846408152E+03  0.12508980773E+03 0.  0.
         23    2    1    2    0    0 -0.68068993212E+01 -0.34220682277E+02  0.20426898180E+03  0.22728596836E+03  0.93357942953E+02 0.  0.
          5    1    3    3  502    0  0.46640617591E+02  0.40189362162E+02  0.16561563312E+03  0.17673862728E+03  0.41800000000E+01 0.  1.
         -5    1    3    3    0  502 -0.39833718270E+02 -0.59686798846E+01  0.10059367775E+02  0.41725454231E+02  0.41800000000E+01 0.  1.
        -11    1    4    4    0    0 -0.15215646489E+02 -0.59123711790E+02  0.82040276965E+02  0.10226307368E+03  0.00000000000E+00 0. -1.
         11    1    4    4    0    0  0.84087471682E+01  0.24903029513E+02  0.12222870483E+03  0.12502289468E+03  0.00000000000E+00 0.  1.
</event>
<event>
 8    1  0.3541538E-009  0.8494492E+02  0.7561462E-02  0.1315577E+00
          2   -1    0    0  501    0  0.00000000000E+00  0.00000000000E+00  0.18265303637E+03  0.18265303637E+03  0.00000000000E+00 0. -1.
         -2   -1    0    0    0  501 -0.00000000000E+00 -0.00000000000E+00 -0.70805904008E+02  0.70805904008E+02  0.00000000000E+00 0.  1.
         25    2    1    2    0    0 -0.32572809967E+02  0.28756278006E+01  0.63921681461E+02  0.14422989302E+03  0.12508806296E+03 0.  0.
         23    2    1    2    0    0  0.32572809967E+02 -0.28756278006E+01  0.47925450905E+02  0.10922904736E+03  0.92546630187E+02 0.  0.
          5    1    3    3  502    0  0.10753886782E+02 -0.33471619130E+02  0.78122725074E+02  0.85770787224E+02  0.41800000000E+01 0.  1.
         -5    1    3    3    0  502 -0.43326696749E+02  0.36347246930E+02 -0.14201043613E+02  0.58459105794E+02  0.41800000000E+01 0.  1.
        -11    1    4    4    0    0 -0.22757845017E+01 -0.32170880378E+02 -0.11613829197E+02  0.34278648865E+02  0.00000000000E+00 0. -1.
         11    1    4    4    0    0  0.34848594468E+02  0.29295252577E+02  0.59539280102E+02  0.74950398498E+02  0.00000000000E+00 0.  1.
</event>
<event>
 8    1  0.3541538E-009  0.1121913E+03  0.7561462E-02  0.1256565E+00
          3   -1    0    0  501    0  0.00000000000E+00  0.00000000000E+00  0.15898514439E+02  0.15898514439E+02  0.00000000000E+00 0. -1.
         -3   -1    0    0    0  501 -0.00000000000E+00 -0.00000000000E+00 -0.87701306553E+03  0.87701306553E+03  0.00000000000E+00 0.  1.
         25    2    1    2    0    0  0.39514388526E+02  0.26869476693E+02 -0.53261250961E+03  0.54918921750E+03  0.12509738426E+03 0.  0.
         23    2    1    2    0    0 -0.39514388526E+02 -0.26869476693E+02 -0.32850204148E+03  0.34372236246E+03  0.89152204257E+02 0.  0.
          5    1    3    3  502    0  0.16424650571E+02 -0.46013345651E+02 -0.12175892068E+03  0.13126196818E+03  0.41800000000E+01 0.  1.
         -5    1    3    3    0  502  0.23089737955E+02  0.72882822344E+02 -0.41085358893E+03  0.41792724933E+03  0.41800000000E+01 0.  1.
        -11    1    4    4    0    0 -0.66405187521E+02 -0.10313306430E+02 -0.25535988991E+03  0.26405432508E+03  0.00000000000E+00 0.  1.
         11    1    4    4    0    0  0.26890798994E+02 -0.16556170263E+02 -0.73142151565E+02  0.79668037380E+02  0.00000000000E+00 0. -1.
</event>
<event>
 8    1  0.3541538E-009  0.1078129E+03  0.7561462E-02  0.1264674E+00
         -1   -1    0    0    0  501 -0.00000000000E+00  0.00000000000E+00  0.34951479304E+03  0.34951479304E+03  0.00000000000E+00 0.  1.
          1   -1    0    0  501    0  0.00000000000E+00 -0.00000000000E+00 -0.93830921633E+02  0.93830921633E+02  0.00000000000E+00 0. -1.
         25    2    1    2    0    0 -0.13809977730E+02  0.10213130315E+03  0.25926822107E+03  0.30576043776E+03  0.12509163151E+03 0.  0.
         23    2    1    2    0    0  0.13809977730E+02 -0.10213130315E+03 -0.35843496694E+01  0.13758527691E+03  0.91078769702E+02 0.  0.
          5    1    3    3  502    0 -0.26557602370E+02  0.39826692548E+02  0.23116580059E+03  0.23610711858E+03  0.41800000000E+01 0.  1.
         -5    1    3    3    0  502  0.12747624640E+02  0.62304610602E+02  0.28102420487E+02  0.69653319185E+02  0.41800000000E+01 0.  1.
        -11    1    4    4    0    0  0.11199091988E+02 -0.36988799424E+02  0.42729646334E+02  0.57614352552E+02  0.00000000000E+00 0.  1.
         11    1    4    4    0    0  0.26108857420E+01 -0.65142503727E+02 -0.46313996003E+02  0.79970924354E+02  0.00000000000E+00 0. -1.
</event>
<event>
 8    1  0.3541538E-009  0.1685223E+03  0.7561462E-02  0.1179398E+00
         -2   -1    0    0    0  501 -0.00000000000E+00  0.00000000000E+00  0.78191498954E+03  0.78191498954E+03  0.00000000000E+00 0.  1.
          2   -1    0    0  501    0  0.00000000000E+00 -0.00000000000E+00 -0.61410674050E+02  0.61410674050E+02  0.00000000000E+00 0. -1.
         25    2    1    2    0    0  0.13993731619E+03 -0.68584987823E+02  0.58180203767E+03  0.61516402908E+03  0.12508724403E+03 0.  0.
         23    2    1    2    0    0 -0.13993731619E+03  0.68584987823E+02  0.13870227783E+03  0.22816163452E+03  0.92374545062E+02 0.  0.
          5    1    3    3  502    0  0.13131279459E+03 -0.86284286048E+02  0.36467694545E+03  0.39710801425E+03  0.41800000000E+01 0.  1.
         -5    1    3    3    0  502  0.86245216011E+01  0.17699298225E+02  0.21712509221E+03  0.21805601482E+03  0.41800000000E+01 0. -1.
        -11    1    4    4    0    0 -0.38947408418E+02  0.37513100541E+02  0.35037778428E+00  0.54076391330E+02  0.00000000000E+00 0. -1.
         11    1    4    4    0    0 -0.10098990777E+03  0.31071887282E+02  0.13835190004E+03  0.17408524319E+03  0.00000000000E+00 0.  1.
</event>
<event>
 8    1  0.3541538E-009  0.1733359E+03  0.7561462E-02  0.1174413E+00
          1   -1    0    0  501    0  0.00000000000E+00  0.00000000000E+00  0.87443722070E+03  0.87443722070E+03  0.00000000000E+00 0. -1.
         -1   -1    0    0    0  501 -0.00000000000E+00 -0.00000000000E+00 -0.43013390059E+02  0.43013390059E+02  0.00000000000E+00 0.  1.
         25    2    1    2    0    0 -0.44723242875E+02 -0.13447832208E+03  0.61381696542E+03  0.64226444139E+03  0.12509099916E+03 0.  0.
         23    2    1    2    0    0  0.44723242875E+02  0.13447832208E+03  0.21760686523E+03  0.27518616937E+03  0.91049944857E+02 0.  0.
          5    1    3    3  502    0 -0.81749237479E+02 -0.61456193101E+02  0.40986548316E+03  0.42245353376E+03  0.41800000000E+01 0. -1.
         -5    1    3    3    0  502  0.37025994604E+02 -0.73022128981E+02  0.20395148225E+03  0.21981090762E+03  0.41800000000E+01 0. -1.
        -11    1    4    4    0    0 -0.14438865998E+02  0.81966495595E+02  0.14809283938E+03  0.16987782765E+03  0.00000000000E+00 0.  1.
         11    1    4    4    0    0  0.59162108873E+02  0.52511826487E+02  0.69514025841E+02  0.10530834172E+03  0.00000000000E+00 0. -1.
</event>
<event>
 8    1  0.3541538E-009  0.1113516E+03  0.7561462E-02  0.1258087E+00
          3   -1    0    0  501    0  0.00000000000E+00  0.00000000000E+00  0.54654329479E+02  0.54654329479E+02  0.00000000000E+00 0. -1.
         -3   -1    0    0    0  501 -0.00000000000E+00 -0.00000000000E+00 -0.33180216052E+03  0.33180216052E+03  0.00000000000E+00 0.  1.
         25    2    1    2    0    0 -0.28660597648E+02 -0.16230829545E+01 -0.25829614489E+03  0.28842593730E+03  0.12509419885E+03 0.  0.
         23    2    1    2    0    0  0.28660597648E+02  0.16230829545E+01 -0.18851686154E+02  0.98030552702E+02  0.91817966305E+02 0.  0.
          5    1    3    3  502    0  0.36016888079E+02  0.36417037259E+02 -0.81890154961E+02  0.96679298245E+02  0.41800000000E+01 0.  1.
         -5    1    3    3    0  502 -0.64677485728E+02 -0.38040120213E+02 -0.17640598993E+03  0.19174663905E+03  0.41800000000E+01 0.  1.
        -11    1    4    4    0    0 -0.36531264120E+00  0.44436104287E+02 -0.73311410012E+01  0.45038277563E+02  0.00000000000E+00 0. -1.
         11    1    4    4    0    0  0.29025910289E+02 -0.42813021332E+02 -0.11520545153E+02  0.52992275138E+02  0.00000000000E+00 0.  1.
</event>
<event>
 8    1  0.3541538E-009  0.7208042E+02  0.7561462E-02  0.1353158E+00
         -1   -1    0    0    0  501 -0.00000000000E+00  0.00000000000E+00  0.49606723939E+02  0.49606723939E+02  0.00000000000E+00 0.  1.
          1   -1    0    0  501    0  0.00000000000E+00 -0.00000000000E+00 -0.25258224017E+03  0.25258224017E+03  0.00000000000E+00 0. -1.
         25    2    1    2    0    0 -0.15128848146E+02 -0.23638109043E+02 -0.10506252269E+03  0.16575880916E+03  0.12510078695E+03 0.  0.
         23    2    1    2    0    0  0.15128848146E+02  0.23638109043E+02 -0.97912993539E+02  0.13643015495E+03  0.90766682376E+02 0.  0.
          5    1    3    3  502    0  0.13204188989E+02  0.21091069603E+02 -0.10958671942E+03  0.11245401415E+03  0.41800000000E+01 0. -1.
         -5    1    3    3    0  502 -0.28333037135E+02 -0.44729178646E+02  0.45241967292E+01  0.53304795016E+02  0.41800000000E+01 0. -1.
        -11    1    4    4    0    0  0.37209755886E+02  0.62943628944E+01 -0.10134483437E+03  0.10814324015E+03  0.00000000000E+00 0. -1.
         11    1    4    4    0    0 -0.22080907741E+02  0.17343746149E+02  0.34318408294E+01  0.28286914795E+02  0.00000000000E+00 0.  1.
</event>
<event>
 8    1  0.3541538E-009  0.2086014E+03  0.7561462E-02  0.1142678E+00
         -1   -1    0    0    0  501 -0.00000000000E+00  0.00000000000E+00  0.69155756905E+02  0.69155756905E+02  0.00000000000E+00 0.  1.
          1   -1    0    0  501    0  0.00000000000E+00 -0.00000000000E+00 -0.72014816436E+03  0.72014816436E+03  0.00000000000E+00 0. -1.
         25    2    1    2    0    0 -0.52388526522E+01  0.18749049291E+03 -0.24636035030E+03  0.33394733538E+03  0.12508904867E+03 0.  0.
         23    2    1    2    0    0  0.52388526522E+01 -0.18749049291E+03 -0.40463205715E+03  0.45535658589E+03  0.91882469093E+02 0.  0.
          5    1    3    3  502    0 -0.52166860639E+02  0.54263002674E+02 -0.44507945059E+02  0.87545898713E+02  0.41800000000E+01 0. -1.
         -5    1    3    3    0  502  0.46928007987E+02  0.13322749023E+03 -0.20185240524E+03  0.24640143666E+03  0.41800000000E+01 0. -1.
        -11    1    4    4    0    0 -0.32833316554E+02 -0.80413392969E+02 -0.11417179050E+03  0.14345570115E+03  0.00000000000E+00 0. -1.
         11    1    4    4    0    0  0.38072169206E+02 -0.10707709994E+03 -0.29046026665E+03  0.31190088474E+03  0.00000000000E+00 0.  1.
</event>
<event>
 8    1  0.3541538E-009  0.1555974E+03  0.7561462E-02  0.1193759E+00
         -1   -1    0    0    0  501 -0.00000000000E+00  0.00000000000E+00  0.44238998271E+02  0.44238998271E+02  0.00000000000E+00 0.  1.
          1   -1    0    0  501    0  0.00000000000E+00 -0.00000000000E+00 -0.76773750436E+03  0.76773750436E+03  0.00000000000E+00 0. -1.
         25    2    1    2    0    0 -0.13839658497E+03 -0.48408154186E+02 -0.32478430393E+03  0.37765927073E+03  0.12507884142E+03 0.  0.
         23    2    1    2    0    0  0.13839658497E+03  0.48408154186E+02 -0.39871420216E+03  0.43431723190E+03  0.90340903200E+02 0.  0.
          5    1    3    3  502    0 -0.23562449226E+02  0.90720261391E+00 -0.19850296552E+03  0.19994227105E+03  0.41800000000E+01 0. -1.
         -5    1    3    3    0  502 -0.11483413575E+03 -0.49315356800E+02 -0.12628133840E+03  0.17771699969E+03  0.41800000000E+01 0. -1.
        -11    1    4    4    0    0  0.12865182180E+03  0.17552096648E+02 -0.36579957200E+03  0.38816065517E+03  0.00000000000E+00 0. -1.
         11    1    4    4    0    0  0.97447631752E+01  0.30856057537E+02 -0.32914630168E+02  0.46156576727E+02  0.00000000000E+00 0.  1.
</event>
<event>
 8    1  0.3541538E-009  0.1685192E+03  0.7561462E-02  0.1179401E+00
         -2   -1    0    0    0  501 -0.00000000000E+00  0.00000000000E+00  0.11650401994E+03  0.11650401994E+03  0.00000000000E+00 0.  1.
          2   -1    0    0  501    0  0.00000000000E+00 -0.00000000000E+00 -0.28882766081E+03  0.28882766081E+03  0.00000000000E+00 0. -1.
         25    2    1    2    0    0 -0.99766358198E+02 -0.10725740729E+03 -0.77289611435E+02  0.20755316233E+03  0.12508858266E+03 0.  0.
         23    2    1    2    0    0  0.99766358198E+02  0.10725740729E+03 -0.95034029429E+02  0.19777851842E+03  0.92883787350E+02 0.  0.
          5    1    3    3  502    0 -0.10927745572E+03 -0.62441267709E+02 -0.95531451381E+02  0.15806392645E+03  0.41800000000E+01 0. -1.
         -5    1    3    3    0  502  0.95110975260E+01 -0.44816139583E+02  0.18241839946E+02  0.49489235879E+02  0.41800000000E+01 0. -1.
        -11    1    4    4    0    0  0.87424068532E+02  0.38978226891E+02 -0.84336141848E+02  0.12757293895E+03  0.00000000000E+00 0.  1.
         11    1    4    4    0    0  0.12342289666E+02  0.68279180401E+02 -0.10697887582E+02  0.70205579473E+02  0.00000000000E+00 0. -1.
</event>
<event>
 8    1  0.3541538E-009  0.1172764E+03  0.7561462E-02  0.1247659E+00
          2   -1    0    0  501    0  0.00000000000E+00  0.00000000000E+00  0.46213307880E+02  0.46213307880E+02  0.00000000000E+00 0. -1.
         -2   -1    0    0    0  501 -0.00000000000E+00 -0.00000000000E+00 -0.36124154642E+03  0.36124154642E+03  0.00000000000E+00 0.  1.
         25    2    1    2    0    0  0.61424549560E+02  0.36335761456E+02 -0.17116921571E+03  0.22369455442E+03  0.12508833048E+03 0.  0.
         23    2    1    2    0    0 -0.61424549560E+02 -0.36335761456E+02 -0.14385902283E+03  0.18376029988E+03  0.89326180437E+02 0.  0.
          5    1    3    3  502    0  0.29478630255E+02 -0.42794832064E+02 -0.34492150512E+02  0.62510544231E+02  0.41800000000E+01 0.  1.
         -5    1    3    3    0  502  0.31945919305E+02  0.79130593520E+02 -0.13667706520E+03  0.16118401019E+03  0.41800000000E+01 0.  1.
        -11    1    4    4    0    0  0.61889030838E+01 -0.28210893399E+02 -0.52909282282E+01  0.29362407076E+02  0.00000000000E+00 0. -1.
         11    1    4    4    0    0 -0.67613452644E+02 -0.81248680565E+01 -0.13856809461E+03  0.15439789280E+03  0.00000000000E+00 0.  1.
</event>
<event>
 8    1  0.3541538E-009  0.2023000E+03  0.7561462E-02  0.1147813E+00
         -1   -1    0    0    0  501 -0.00000000000E+00  0.00000000000E+00  0.15337074353E+03  0.15337074353E+03  0.00000000000E+00 0.  1.
          1   -1    0    0  501    0  0.00000000000E+00 -0.00000000000E+00 -0.30251250741E+03  0.30251250741E+03  0.00000000000E+00 0. -1.
         25    2    1    2    0    0  0.53455312713E+02  0.16704083578E+03 -0.14337106304E+03  0.25877541700E+03  0.12509733591E+03 0.  0.
         23    2    1    2    0    0 -0.53455312713E+02 -0.16704083578E+03 -0.57707008282E+01  0.19710783394E+03  0.89766842088E+02 0.  0.
          5    1    3    3  502    0  0.28239835845E+01  0.15904780742E+03 -0.83015326412E+02  0.17948035198E+03  0.41800000000E+01 0. -1.
         -5    1    3    3    0  502  0.50631329129E+02  0.79930283546E+01 -0.60355736632E+02  0.79295065016E+02  0.41800000000E+01 0. -1.
        -11    1    4    4    0    0  0.10837029363E+02 -0.10205577179E+03 -0.20094322583E+02  0.10457821743E+03  0.00000000000E+00 0. -1.
         11    1    4    4    0    0 -0.64292342076E+02 -0.64985063984E+02  0.14323621755E+02  0.92529616507E+02  0.00000000000E+00 0.  1.
</event>
<event>
 8    1  0.3541538E-009  0.3399749E+03  0.7561462E-02  0.1066807E+00
          2   -1    0    0  501    0  0.00000000000E+00  0.00000000000E+00  0.19736998385E+04  0.19736998385E+04  0.00000000000E+00 0. -1.
         -2   -1    0    0    0  501 -0.00000000000E+00 -0.00000000000E+00 -0.62212173504E+02  0.62212173504E+02  0.00000000000E+00 0.  1.
         25    2    1    2    0    0  0.32933818615E+03 -0.11390674070E+02  0.83276946640E+03  0.90429327157E+03  0.12509176039E+03 0.  0.
         23    2    1    2    0    0 -0.32933818615E+03  0.11390674070E+02  0.10787181986E+04  0.11316187404E+04  0.91294213453E+02 0.  0.
          5    1    3    3  502    0  0.27351216994E+03  0.19186658815E+02  0.55187740476E+03  0.61624928175E+03  0.41800000000E+01 0.  1.
         -5    1    3    3    0  502  0.55826016215E+02 -0.30577332885E+02  0.28089206164E+03  0.28804398981E+03  0.41800000000E+01 0.  1.
        -11    1    4    4    0    0 -0.19596551007E+03  0.51595909369E+02  0.64137924324E+03  0.67263062126E+03  0.00000000000E+00 0.  1.
         11    1    4    4    0    0 -0.13337267608E+03 -0.40205235299E+02  0.43733895536E+03  0.45898811917E+03  0.00000000000E+00 0. -1.
</event>
<event>
 8    1  0.3541538E-009  0.1462028E+03  0.7561462E-02  0.1205218E+00
          1   -1    0    0  501    0  0.00000000000E+00  0.00000000000E+00  0.62853233827E+02  0.62853233827E+02  0.00000000000E+00 0. -1.
         -1   -1    0    0    0  501 -0.00000000000E+00 -0.00000000000E+00 -0.42870566358E+03  0.42870566358E+03  0.00000000000E+00 0.  1.
         25    2    1    2    0    0  0.27345911493E+02 -0.11243062823E+03 -0.25432986386E+03  0.30613397557E+03  0.12508351732E+03 0.  0.
         23    2    1    2    0    0 -0.27345911493E+02  0.11243062823E+03 -0.11152256589E+03  0.18542492184E+03  0.92502291312E+02 0.  0.
          5    1    3    3  502    0 -0.42044434758E+02 -0.58185992708E+02 -0.16795647780E+03  0.18270247693E+03  0.41800000000E+01 0.  1.
         -5    1    3    3    0  502  0.69390346251E+02 -0.54244635522E+02 -0.86373386066E+02  0.12343149864E+03  0.41800000000E+01 0.  1.
        -11    1    4    4    0    0  0.21143133412E+02  0.30357893118E+02  0.21676844006E+01  0.37058502678E+02  0.00000000000E+00 0. -1.
         11    1    4    4    0    0 -0.48489044905E+02  0.82072735112E+02 -0.11369025029E+03  0.14836641917E+03  0.00000000000E+00 0.  1.
</event>
<event>
 8    1  0.3541538E-009  0.1153005E+03  0.7561462E-02  0.1251057E+00
          1   -1    0    0  501    0  0.00000000000E+00  0.00000000000E+00  0.11300618782E+04  0.11300618782E+04  0.00000000000E+00 0. -1.
         -1   -1    0    0    0  501 -0.00000000000E+00 -0.00000000000E+00 -0.30202604061E+02  0.30202604061E+02  0.00000000000E+00 0.  1.
         25    2    1    2    0    0 -0.64055068089E+02  0.17895316806E+02  0.99939876671E+03  0.10093904328E+04  0.12509139395E+03 0.  0.
         23    2    1    2    0    0  0.64055068089E+02 -0.17895316806E+02  0.10046050748E+03  0.15087404950E+03  0.90815038058E+02 0.  0.
          5    1    3    3  502    0 -0.61156248697E+02  0.64541091858E+02  0.50637533904E+03  0.51413917929E+03  0.41800000000E+01 0.  1.
         -5    1    3    3    0  502 -0.28988193912E+01 -0.46645775052E+02  0.49302342767E+03  0.49525125352E+03  0.41800000000E+01 0.  1.
        -11    1    4    4    0    0  0.59469153040E+02  0.15098482992E+02  0.10028169286E+03  0.11756258876E+03  0.00000000000E+00 0. -1.
         11    1    4    4    0    0  0.45859150483E+01 -0.32993799798E+02  0.17881461466E+00  0.33311460739E+02  0.00000000000E+00 0.  1.
</event>
<event>
 8    1  0.3541538E-009  0.1001539E+03  0.7561462E-02  0.1279973E+00
         -1   -1    0    0    0  501 -0.00000000000E+00  0.00000000000E+00  0.29059612529E+03  0.29059612529E+03  0.00000000000E+00 0.  1.
          1   -1    0    0  501    0  0.00000000000E+00 -0.00000000000E+00 -0.32332735184E+03  0.32332735184E+03  0.00000000000E+00 0. -1.
         25    2    1    2    0    0 -0.62468665697E+01 -0.23991860413E+02 -0.30215824360E+03  0.32796672011E+03  0.12509169685E+03 0.  0.
         23    2    1    2    0    0  0.62468665697E+01  0.23991860413E+02  0.26942701704E+03  0.28595675702E+03  0.92551157011E+02 0.  0.
          5    1    3    3  502    0  0.44738828739E+02 -0.31824324533E+02 -0.24391384375E+03  0.25005156669E+03  0.41800000000E+01 0.  1.
         -5    1    3    3    0  502 -0.50985695309E+02  0.78324641200E+01 -0.58244399848E+02  0.77915153430E+02  0.41800000000E+01 0.  1.
        -11    1    4    4    0    0 -0.34816617546E+02 -0.14022984455E+02  0.14013494802E+03  0.14507461737E+03  0.00000000000E+00 0.  1.
         11    1    4    4    0    0  0.41063484116E+02  0.38014844867E+02  0.12929206902E+03  0.14088213964E+03  0.00000000000E+00 0. -1.
</event>
<event>
 8    1  0.3541538E-009  0.1635488E+03  0.7561462E-02  0.1184747E+00
         -1   -1    0    0    0  501 -0.00000000000E+00  0.00000000000E+00  0.26544752015E+03  0.26544752015E+03  0.00000000000E+00 0.  1.
          1   -1    0    0  501    0  0.00000000000E+00 -0.00000000000E+00 -0.12948412814E+03  0.12948412814E+03  0.00000000000E+00 0. -1.
         25    2    1    2    0    0  0.66349351024E+02 -0.10814935380E+03 -0.13994051376E+02  0.17871155919E+03  0.12507385341E+03 0.  0.
         23    2    1    2    0    0 -0.66349351024E+02  0.10814935380E+03  0.14995744339E+03  0.21622008910E+03  0.90362453446E+02 0.  0.
          5    1    3    3  502    0 -0.35030241943E+02 -0.41592295467E+02  0.87931909980E+01  0.55243366124E+02  0.41800000000E+01 0. -1.
         -5    1    3    3    0  502  0.10137959297E+03 -0.66557058334E+02 -0.22787242374E+02  0.12346819307E+03  0.41800000000E+01 0. -1.
        -11    1    4    4    0    0 -0.40724835003E+02  0.68130806204E+00  0.65598748621E+02  0.77215103363E+02  0.00000000000E+00 0.  1.
         11    1    4    4    0    0 -0.25624516021E+02  0.10746804574E+03  0.84358694770E+02  0.13900498574E+03  0.00000000000E+00 0. -1.
</event>
<event>
 8    1  0.3541538E-009  0.9385394E+02  0.7561462E-02  0.1293778E+00
         -1   -1    0    0    0  501 -0.00000000000E+00  0.00000000000E+00  0.49173149521E+03  0.49173149521E+03  0.00000000000E+00 0.  1.
          1   -1    0    0  501    0  0.00000000000E+00 -0.00000000000E+00 -0.40831289415E+02  0.40831289415E+02  0.00000000000E+00 0. -1.
         25    2    1    2    0    0  0.92513504009E+00  0.57567201476E+02  0.37960196132E+03  0.40380956570E+03  0.12509867207E+03 0.  0.
         23    2    1    2    0    0 -0.92513504009E+00 -0.57567201476E+02  0.71298244473E+02  0.12875321892E+03  0.90438449551E+02 0.  0.
          5    1    3    3  502    0  0.44844225103E+02  0.23160688951E+02  0.56402069061E+02  0.75802953980E+02  0.41800000000E+01 0.  1.
         -5    1    3    3    0  502 -0.43919090063E+02  0.34406512524E+02  0.32319989226E+03  0.32800661172E+03  0.41800000000E+01 0.  1.
        -11    1    4    4    0    0 -0.22818865969E+02 -0.38944277265E+01  0.66702222521E+02  0.70604912724E+02  0.00000000000E+00 0.  1.
         11    1    4    4    0    0  0.21893730929E+02 -0.53672773749E+02  0.45960219520E+01  0.58148306198E+02  0.00000000000E+00 0. -1.
</event>
<event>
 8    1  0.3541538E-009  0.1481376E+03  0.7561462E-02  0.1202780E+00
          3   -1    0    0  501    0  0.00000000000E+00  0.00000000000E+00  0.44549017511E+03  0.44549017511E+03  0.00000000000E+00 0. -1.
         -3   -1    0    0    0  501 -0.00000000000E+00 -0.00000000000E+00 -0.66885970173E+02  0.66885970173E+02  0.00000000000E+00 0.  1.
         25    2    1    2    0    0  0.13147596531E+03 -0.26637225690E+02  0.20339011632E+03  0.27388086320E+03  0.12509083326E+03 0.  0.
         23    2    1    2    0    0 -0.13147596531E+03  0.26637225690E+02  0.17521408861E+03  0.23849528208E+03  0.90468510976E+02 0.  0.
          5    1    3    3  502    0  0.11647985301E+03 -0.30435855231E+02  0.69578984559E+02  0.13911364036E+03  0.41800000000E+01 0.  1.
         -5    1    3    3    0  502  0.14996112300E+02  0.37986295404E+01  0.13381113176E+03  0.13476722285E+03  0.41800000000E+01 0.  1.
        -11    1    4    4    0    0 -0.98959641003E+02  0.57922270616E+02  0.14173058682E+03  0.18230622376E+03  0.00000000000E+00 0.  1.
         11    1    4    4    0    0 -0.32516324306E+02 -0.31285044926E+02  0.33483501793E+02  0.56189058319E+02  0.00000000000E+00 0. -1.
</event>
<event>
 8    1  0.3541538E-009  0.1338615E+03  0.7561462E-02  0.1221836E+00
          2   -1    0    0  501    0  0.00000000000E+00  0.00000000000E+00  0.60588764634E+02  0.60588764634E+02  0.00000000000E+00 0.  1.
         -2   -1    0    0    0  501 -0.00000000000E+00 -0.00000000000E+00 -0.44911317592E+03  0.44911317592E+03  0.00000000000E+00 0. -1.
         25    2    1    2    0    0 -0.81909577443E+02  0.91498967152E+02 -0.25684179376E+03  0.31096017856E+03  0.12508911129E+03 0.  0.
         23    2    1    2    0    0  0.81909577443E+02 -0.91498967152E+02 -0.13168261753E+03  0.19874176199E+03  0.84123340011E+02 0.  0.
          5    1    3    3  502    0 -0.10429169862E+02  0.23050731477E+00 -0.15845289474E+03  0.15885091428E+03  0.41800000000E+01 0.  1.
         -5    1    3    3    0  502 -0.71480407582E+02  0.91268459838E+02 -0.98388899023E+02  0.15210926428E+03  0.41800000000E+01 0.  1.
        -11    1    4    4    0    0  0.56849558796E+02 -0.13327137553E+02 -0.88389393730E+02  0.10593474338E+03  0.00000000000E+00 0.  1.
         11    1    4    4    0    0  0.25060018648E+02 -0.78171829599E+02 -0.43293223797E+02  0.92807018615E+02  0.00000000000E+00 0. -1.
</event>
<event>
 8    1  0.3541538E-009  0.1304856E+03  0.7561462E-02  0.1226737E+00
          1   -1    0    0  501    0  0.00000000000E+00  0.00000000000E+00  0.31833949202E+03  0.31833949202E+03  0.00000000000E+00 0. -1.
         -1   -1    0    0    0  501 -0.00000000000E+00 -0.00000000000E+00 -0.71388260047E+02  0.71388260047E+02  0.00000000000E+00 0.  1.
         25    2    1    2    0    0 -0.93623762285E+02 -0.85510048503E+01  0.19338349556E+03  0.24876379317E+03  0.12509084653E+03 0.  0.
         23    2    1    2    0    0  0.93623762285E+02  0.85510048503E+01  0.53567736409E+02  0.14096395890E+03  0.90348252762E+02 0.  0.
          5    1    3    3  502    0 -0.84971545340E+02  0.30522717438E+02  0.57680410949E+02  0.10722080957E+03  0.41800000000E+01 0. -1.
         -5    1    3    3    0  502 -0.86522169453E+01 -0.39073722288E+02  0.13570308462E+03  0.14154298360E+03  0.41800000000E+01 0. -1.
        -11    1    4    4    0    0 -0.64308224597E+01  0.27736183973E+02  0.13150814526E+02  0.31362322962E+02  0.00000000000E+00 0. -1.
         11    1    4    4    0    0  0.10005458474E+03 -0.19185179122E+02  0.40416921883E+02  0.10960163594E+03  0.00000000000E+00 0.  1.
</event>
<event>
 8    1  0.3541538E-009  0.1478148E+03  0.7561462E-02  0.1203184E+00
          3   -1    0    0  501    0  0.00000000000E+00  0.00000000000E+00  0.76556599962E+02  0.76556599962E+02  0.00000000000E+00 0. -1.
         -3   -1    0    0    0  501 -0.00000000000E+00 -0.00000000000E+00 -0.48172645555E+03  0.48172645555E+03  0.00000000000E+00 0.  1.
         25    2    1    2    0    0  0.60532235498E+02  0.88102185028E+02 -0.42854856282E+02  0.17003013654E+03  0.12509021578E+03 0.  0.
         23    2    1    2    0    0 -0.60532235498E+02 -0.88102185028E+02 -0.36231499931E+03  0.38825291897E+03  0.89677331728E+02 0.  0.
          5    1    3    3  502    0  0.79709989094E+02  0.88338666808E+01 -0.36225425794E+02  0.88099224945E+02  0.41800000000E+01 0. -1.
         -5    1    3    3    0  502 -0.19177753597E+02  0.79268318347E+02 -0.66294304876E+01  0.81930911597E+02  0.41800000000E+01 0. -1.
        -11    1    4    4    0    0 -0.91370613439E-01 -0.70788606527E+02 -0.24661981753E+03  0.25657819385E+03  0.00000000000E+00 0.  1.
         11    1    4    4    0    0 -0.60440864884E+02 -0.17313578501E+02 -0.11569518178E+03  0.13167472512E+03  0.00000000000E+00 0. -1.
</event>
<event>
 8    1  0.3541538E-009  0.1671601E+03  0.7561462E-02  0.1180842E+00
         -2   -1    0    0    0  501 -0.00000000000E+00  0.00000000000E+00  0.75557065519E+02  0.75557065519E+02  0.00000000000E+00 0. -1.
          2   -1    0    0  501    0  0.00000000000E+00 -0.00000000000E+00 -0.42159552723E+03  0.42159552723E+03  0.00000000000E+00 0.  1.
         25    2    1    2    0    0 -0.11143168493E+03 -0.85689692882E+02 -0.17140658782E+03  0.25453350063E+03  0.12508933097E+03 0.  0.
         23    2    1    2    0    0  0.11143168493E+03  0.85689692882E+02 -0.17463187389E+03  0.24261909211E+03  0.92779246651E+02 0.  0.
          5    1    3    3  502    0 -0.34558297113E+02 -0.95747983155E+02 -0.13405456723E+03  0.16837473555E+03  0.41800000000E+01 0.  1.
         -5    1    3    3    0  502 -0.76873387817E+02  0.10058290272E+02 -0.37352020595E+02  0.86158765081E+02  0.41800000000E+01 0.  1.
        -11    1    4    4    0    0  0.13546024884E+02  0.48055794771E+02 -0.15949896374E+02  0.52414248021E+02  0.00000000000E+00 0. -1.
         11    1    4    4    0    0  0.97885660046E+02  0.37633898111E+02 -0.15868197751E+03  0.19020484409E+03  0.00000000000E+00 0.  1.
</event>
<event>
 8    1  0.3541538E-009  0.1424069E+03  0.7561462E-02  0.1210127E+00
         -1   -1    0    0    0  501 -0.00000000000E+00  0.00000000000E+00  0.39390398833E+03  0.39390398833E+03  0.00000000000E+00 0.  1.
          1   -1    0    0  501    0  0.00000000000E+00 -0.00000000000E+00 -0.68124446072E+02  0.68124446072E+02  0.00000000000E+00 0. -1.
         25    2    1    2    0    0  0.10366926553E+03 -0.53267531940E+02  0.21299597520E+03  0.27312997016E+03  0.12509176062E+03 0.  0.
         23    2    1    2    0    0 -0.10366926553E+03  0.53267531940E+02  0.11278356706E+03  0.18889846424E+03  0.96838784685E+02 0.  0.
          5    1    3    3  502    0  0.12001882788E+03 -0.28248954528E+02  0.10826579260E+03  0.16413858999E+03  0.41800000000E+01 0. -1.
         -5    1    3    3    0  502 -0.16349562347E+02 -0.25018577411E+02  0.10473018260E+03  0.10899138017E+03  0.41800000000E+01 0. -1.
        -11    1    4    4    0    0 -0.56144566265E+02 -0.46610063383E+01  0.97229760694E+02  0.11237243285E+03  0.00000000000E+00 0.  1.
         11    1    4    4    0    0 -0.47524699263E+02  0.57928538278E+02  0.15553806367E+02  0.76526031385E+02  0.00000000000E+00 0. -1.
</event>
<event>
 8    1  0.3541538E-009  0.9444466E+02  0.7561462E-02  0.1292432E+00
          1   -1    0    0  501    0  0.00000000000E+00  0.00000000000E+00  0.44803580830E+02  0.44803580830E+02  0.00000000000E+00 0. -1.
         -1   -1    0    0    0  501 -0.00000000000E+00 -0.00000000000E+00 -0.44133900865E+03  0.44133900865E+03  0.00000000000E+00 0.  1.
         25    2    1    2    0    0 -0.45335664334E+01  0.23209828030E+02 -0.36676272470E+03  0.38822847817E+03  0.12508879121E+03 0.  0.
         23    2    1    2    0    0  0.45335664334E+01 -0.23209828030E+02 -0.29772703114E+02  0.97914111309E+02  0.90230316418E+02 0.  0.
          5    1    3    3  502    0 -0.40251390574E+02 -0.36327250935E+02 -0.11806061421E+03  0.12998317057E+03  0.41800000000E+01 0. -1.
         -5    1    3    3    0  502  0.35717824141E+02  0.59537078965E+02 -0.24870211050E+03  0.25824530760E+03  0.41800000000E+01 0. -1.
        -11    1    4    4    0    0  0.32400975947E+02 -0.16162457037E+02  0.19308615346E+02  0.41034995874E+02  0.00000000000E+00 0. -1.
         11    1    4    4    0    0 -0.27867409514E+02 -0.70473709933E+01 -0.49081318460E+02  0.56879115435E+02  0.00000000000E+00 0.  1.
</event>
<event>
 8    1  0.3541538E-009  0.1201076E+03  0.7561462E-02  0.1242920E+00
         -1   -1    0    0    0  501 -0.00000000000E+00  0.00000000000E+00  0.33590494759E+03  0.33590494759E+03  0.00000000000E+00 0.  1.
          1   -1    0    0  501    0  0.00000000000E+00 -0.00000000000E+00 -0.57899382546E+02  0.57899382546E+02  0.00000000000E+00 0. -1.
         25    2    1    2    0    0 -0.65127764365E+02 -0.44780434995E+02  0.20151239286E+03  0.25000477121E+03  0.12509287790E+03 0.  0.
         23    2    1    2    0    0  0.65127764365E+02  0.44780434995E+02  0.76493172181E+02  0.14379955893E+03  0.92629340424E+02 0.  0.
          5    1    3    3  502    0 -0.98190262569E+02 -0.44773444117E+02  0.18129942878E+03  0.21102830199E+03  0.41800000000E+01 0. -1.
         -5    1    3    3    0  502  0.33062498203E+02 -0.69908777338E-02  0.20212964077E+02  0.38976469223E+02  0.41800000000E+01 0. -1.
        -11    1    4    4    0    0  0.66099778958E+02  0.13334920940E+02  0.73442362527E+01  0.67830219673E+02  0.00000000000E+00 0. -1.
         11    1    4    4    0    0 -0.97201459240E+00  0.31445514055E+02  0.69148935928E+02  0.75969339253E+02  0.00000000000E+00 0.  1.
</event>
<event>
 8    1  0.3541538E-009  0.8809995E+02  0.7561462E-02  0.1307519E+00
         -1   -1    0    0    0  501 -0.00000000000E+00  0.00000000000E+00  0.37324850593E+02  0.37324850593E+02  0.00000000000E+00 0.  1.
          1   -1    0    0  501    0  0.00000000000E+00 -0.00000000000E+00 -0.34073727082E+03  0.34073727082E+03  0.00000000000E+00 0. -1.
         25    2    1    2    0    0 -0.23879147946E+02  0.15427462391E+02 -0.20586183217E+03  0.24255857435E+03  0.12508935905E+03 0.  0.
         23    2    1    2    0    0  0.23879147946E+02 -0.15427462391E+02 -0.97550588057E+02  0.13550354705E+03  0.89648612547E+02 0.  0.
          5    1    3    3  502    0  0.19704431462E+02 -0.39850874456E+02 -0.13661167174E+03  0.14372396484E+03  0.41800000000E+01 0.  1.
         -5    1    3    3    0  502 -0.43583579408E+02  0.55278336848E+02 -0.69250160425E+02  0.98834609513E+02  0.41800000000E+01 0.  1.
        -11    1    4    4    0    0  0.86268379401E+01  0.20368618983E+02  0.75962862387E+01  0.23388170872E+02  0.00000000000E+00 0.  1.
         11    1    4    4    0    0  0.15252310006E+02 -0.35796081375E+02 -0.10514687430E+03  0.11211537618E+03  0.00000000000E+00 0. -1.
</event>
<event>
 8    1  0.3541538E-009  0.1882936E+03  0.7561462E-02  0.1160009E+00
         -2   -1    0    0    0  501 -0.00000000000E+00  0.00000000000E+00  0.57131516299E+03  0.57131516299E+03  0.00000000000E+00 0.  1.
          2   -1    0    0  501    0  0.00000000000E+00 -0.00000000000E+00 -0.77464367923E+02  0.77464367923E+02  0.00000000000E+00 0. -1.
         25    2    1    2    0    0  0.11350307942E+03  0.13262210891E+03  0.32551922939E+03  0.38997384549E+03  0.12508100835E+03 0.  0.
         23    2    1    2    0    0 -0.11350307942E+03 -0.13262210891E+03  0.16833156567E+03  0.25880568543E+03  0.90406271888E+02 0.  0.
          5    1    3    3  502    0  0.10364895303E+03  0.76685166186E+02  0.30192330686E+03  0.32832739118E+03  0.41800000000E+01 0.  1.
         -5    1    3    3    0  502  0.98541263890E+01  0.55936942721E+02  0.23595922536E+02  0.61646454304E+02  0.41800000000E+01 0.  1.
        -11    1    4    4    0    0 -0.49173997495E+02 -0.72280898596E+01  0.74272028521E+02  0.89368123698E+02  0.00000000000E+00 0.  1.
         11    1    4    4    0    0 -0.64329081928E+02 -0.12539401905E+03  0.94059537153E+02  0.16943756173E+03  0.00000000000E+00 0. -1.
</event>
<event>
 8    1  0.3541538E-009  0.1248202E+03  0.7561462E-02  0.1235351E+00
         -1   -1    0    0    0  501 -0.00000000000E+00  0.00000000000E+00  0.22503493361E+02  0.22503493361E+02  0.00000000000E+00 0. -1.
          1   -1    0    0  501    0  0.00000000000E+00 -0.00000000000E+00 -0.10141223589E+04  0.10141223589E+04  0.00000000000E+00 0.  1.
         25    2    1    2    0    0  0.94151834177E+02  0.35561396556E+02 -0.62276765098E+03  0.64312946047E+03  0.12508706972E+03 0.  0.
         23    2    1    2    0    0 -0.94151834177E+02 -0.35561396556E+02 -0.36885121453E+03  0.39349639176E+03  0.93053807369E+02 0.  0.
          5    1    3    3  502    0  0.66157020905E+02 -0.19383892777E+02 -0.50893100364E+03  0.51359587769E+03  0.41800000000E+01 0.  1.
         -5    1    3    3    0  502  0.27994813271E+02  0.54945289333E+02 -0.11383664734E+03  0.12953358278E+03  0.41800000000E+01 0.  1.
        -11    1    4    4    0    0 -0.16205593950E+02 -0.37442511669E+02 -0.46551964234E+02  0.61900309607E+02  0.00000000000E+00 0. -1.
         11    1    4    4    0    0 -0.77946240227E+02  0.18811151137E+01 -0.32229925029E+03  0.33159608215E+03  0.00000000000E+00 0.  1.
</event>
<event>
 8    1  0.3541538E-009  0.1628892E+03  0.7561462E-02  0.1185473E+00
          1   -1    0    0  501    0  0.00000000000E+00  0.00000000000E+00  0.25495799380E+03  0.25495799380E+03  0.00000000000E+00 0. -1.
         -1   -1    0    0    0  501 -0.00000000000E+00 -0.00000000000E+00 -0.14722696041E+03  0.14722696041E+03  0.00000000000E+00 0.  1.
         25    2    1    2    0    0  0.14902781781E+03  0.52048365393E+02  0.80145946318E+02  0.21676975001E+03  0.12508968377E+03 0.  0.
         23    2    1    2    0    0 -0.14902781781E+03 -0.52048365393E+02  0.27585087072E+02  0.18541520420E+03  0.93271314448E+02 0.  0.
          5    1    3    3  502    0  0.77923073102E+02  0.26267192559E+02  0.10822290788E+03  0.13598397302E+03  0.41800000000E+01 0.  1.
         -5    1    3    3    0  502  0.71104744712E+02  0.25781172834E+02 -0.28076961566E+02  0.80785776991E+02  0.41800000000E+01 0.  1.
        -11    1    4    4    0    0 -0.39840966875E+02 -0.42239889019E+02 -0.25731753813E+02  0.63510896861E+02  0.00000000000E+00 0.  1.
         11    1    4    4    0    0 -0.10918685094E+03 -0.98084763744E+01  0.53316840886E+02  0.12190430734E+03  0.00000000000E+00 0. -1.
</event>
<event>
 8    1  0.3541538E-009  0.1537823E+03  0.7561462E-02  0.1195901E+00
         -1   -1    0    0    0  501 -0.00000000000E+00  0.00000000000E+00  0.80152414025E+03  0.80152414025E+03  0.00000000000E+00 0.  1.
          1   -1    0    0  501    0  0.00000000000E+00 -0.00000000000E+00 -0.49557021169E+02  0.49557021169E+02  0.00000000000E+00 0. -1.
         25    2    1    2    0    0  0.29145428921E+01  0.11511616173E+03  0.13398454458E+03  0.21647115275E+03  0.12509067325E+03 0.  0.
         23    2    1    2    0    0 -0.29145428921E+01 -0.11511616173E+03  0.61798257451E+03  0.63461000867E+03  0.86989513536E+02 0.  0.
          5    1    3    3  502    0  0.56787079066E+02  0.35435514625E+02  0.85535759555E+02  0.10869354446E+03  0.41800000000E+01 0. -1.
         -5    1    3    3    0  502 -0.53872536174E+02  0.79680647106E+02  0.48448785025E+02  0.10777760828E+03  0.41800000000E+01 0. -1.
        -11    1    4    4    0    0  0.40955173091E+02 -0.71269470378E+02  0.36344817725E+03  0.37262748309E+03  0.00000000000E+00 0. -1.
         11    1    4    4    0    0 -0.43869715983E+02 -0.43846691353E+02  0.25453439726E+03  0.26198252558E+03  0.00000000000E+00 0.  1.
</event>
<event>
 8    1  0.3541538E-009  0.8626345E+02  0.7561462E-02  0.1312161E+00
         -1   -1    0    0    0  501 -0.00000000000E+00  0.00000000000E+00  0.16604525555E+02  0.16604525555E+02  0.00000000000E+00 0.  1.
          1   -1    0    0  501    0  0.00000000000E+00 -0.00000000000E+00 -0.90066830386E+03  0.90066830386E+03  0.00000000000E+00 0. -1.
         25    2    1    2    0    0  0.26523502578E+02 -0.34790904876E+02 -0.37089696314E+03  0.39386451269E+03  0.12510313280E+03 0.  0.
         23    2    1    2    0    0 -0.26523502578E+02  0.34790904876E+02 -0.51316681516E+03  0.52340831672E+03  0.93285489664E+02 0.  0.
          5    1    3    3  502    0 -0.53903647134E+01 -0.37599867554E+02 -0.23273756745E+02  0.44743113715E+02  0.41800000000E+01 0.  1.
         -5    1    3    3    0  502  0.31913867291E+02  0.28089626788E+01 -0.34762320640E+03  0.34912139897E+03  0.41800000000E+01 0.  1.
        -11    1    4    4    0    0  0.34516471527E+02  0.85278082561E+01 -0.14520246669E+03  0.14949202873E+03  0.00000000000E+00 0.  1.
         11    1    4    4    0    0 -0.61039974105E+02  0.26263096620E+02 -0.36796434847E+03  0.37391628799E+03  0.00000000000E+00 0. -1.
</event>
<event>
 8    1  0.3541538E-009  0.8913745E+02  0.7561462E-02  0.1304954E+00
         -1   -1    0    0    0  501 -0.00000000000E+00  0.00000000000E+00  0.17072176337E+03  0.17072176337E+03  0.00000000000E+00 0.  1.
          1   -1    0    0  501    0  0.00000000000E+00 -0.00000000000E+00 -0.80582658643E+02  0.80582658643E+02  0.00000000000E+00 0. -1.
         25    2    1    2    0    0  0.32537295524E+02 -0.36946930842E+02  0.58718741221E+02  0.14669147480E+03  0.12508695740E+03 0.  0.
         23    2    1    2    0    0 -0.32537295524E+02  0.36946930842E+02  0.31420363507E+02  0.10461294721E+03  0.86792155075E+02 0.  0.
          5    1    3    3  502    0 -0.26444044282E+02  0.17722149792E+02  0.57844287616E+02  0.66157358480E+02  0.41800000000E+01 0. -1.
         -5    1    3    3    0  502  0.58981339807E+02 -0.54669080634E+02  0.87445360487E+00  0.80534116323E+02  0.41800000000E+01 0. -1.
        -11    1    4    4    0    0 -0.21158558711E+02 -0.53613212534E+01  0.51861254226E+02  0.56267380090E+02  0.00000000000E+00 0.  1.
         11    1    4    4    0    0 -0.11378736813E+02  0.42308252095E+02 -0.20440890719E+02  0.48345567121E+02  0.00000000000E+00 0. -1.
</event>
<event>
 8    1  0.3541538E-009  0.1128127E+03  0.7561462E-02  0.1255448E+00
          2   -1    0    0  501    0  0.00000000000E+00  0.00000000000E+00  0.21509070250E+03  0.21509070250E+03  0.00000000000E+00 0. -1.
         -2   -1    0    0    0  501 -0.00000000000E+00 -0.00000000000E+00 -0.67019822805E+02  0.67019822805E+02  0.00000000000E+00 0.  1.
         25    2    1    2    0    0  0.76524736890E+01 -0.50652655282E+02  0.87959297813E+02  0.16126872691E+03  0.12508601987E+03 0.  0.
         23    2    1    2    0    0 -0.76524736890E+01  0.50652655282E+02  0.60111581877E+02  0.12084179839E+03  0.91460844742E+02 0.  0.
          5    1    3    3  502    0 -0.11181208970E+02 -0.82617552361E+02  0.91391046380E+02  0.12377590699E+03  0.41800000000E+01 0.  1.
         -5    1    3    3    0  502  0.18833682659E+02  0.31964897079E+02 -0.34317485672E+01  0.37492819926E+02  0.41800000000E+01 0.  1.
        -11    1    4    4    0    0  0.29949419980E+02  0.59117994907E+02  0.37000271890E+02  0.75900758882E+02  0.00000000000E+00 0. -1.
         11    1    4    4    0    0 -0.37601893669E+02 -0.84653396251E+01  0.23111309987E+02  0.44941039505E+02  0.00000000000E+00 0.  1.
</event>
<event>
 8    1  0.3541538E-009  0.1380639E+03  0.7561462E-02  0.1215958E+00
         -1   -1    0    0    0  501 -0.00000000000E+00  0.00000000000E+00  0.29336266816E+02  0.29336266816E+02  0.00000000000E+00 0.  1.
          1   -1    0    0  501    0  0.00000000000E+00 -0.00000000000E+00 -0.69718830792E+03  0.69718830792E+03  0.00000000000E+00 0. -1.
         25    2    1    2    0    0  0.92522341126E+01 -0.88476303424E+02 -0.43677384441E+03  0.46296054226E+03  0.12508961758E+03 0.  0.
         23    2    1    2    0    0 -0.92522341126E+01  0.88476303424E+02 -0.23107819669E+03  0.26356403247E+03  0.90306179874E+02 0.  0.
          5    1    3    3  502    0 -0.49425449401E+02 -0.73607293371E+02 -0.30927787553E+03  0.32176262272E+03  0.41800000000E+01 0. -1.
         -5    1    3    3    0  502  0.58677683514E+02 -0.14869010054E+02 -0.12749596888E+03  0.14119791955E+03  0.41800000000E+01 0. -1.
        -11    1    4    4    0    0  0.28138180133E+01  0.10565820132E+03 -0.18939277029E+03  0.21688982114E+03  0.00000000000E+00 0.  1.
         11    1    4    4    0    0 -0.12066052126E+02 -0.17181897891E+02 -0.41685426402E+02  0.46674211331E+02  0.00000000000E+00 0. -1.
</event>
<event>
 8    1  0.3541538E-009  0.1457927E+03  0.7561462E-02  0.1205740E+00
         -4   -1    0    0    0  501 -0.00000000000E+00  0.00000000000E+00  0.17288584474E+03  0.17288584474E+03  0.00000000000E+00 0.  1.
          4   -1    0    0  501    0  0.00000000000E+00 -0.00000000000E+00 -0.12310463021E+03  0.12310463021E+03  0.00000000000E+00 0. -1.
         25    2    1    2    0    0 -0.79958945483E+02  0.58487663638E+02  0.23791194217E+02  0.16133131797E+03  0.12509010142E+03 0.  0.
         23    2    1    2    0    0  0.79958945483E+02 -0.58487663638E+02  0.25990020313E+02  0.13465915697E+03  0.87426355526E+02 0.  0.
          5    1    3    3  502    0 -0.90518174710E+02  0.88993457865E+02  0.18242645707E+02  0.12831072449E+03  0.41800000000E+01 0.  1.
         -5    1    3    3    0  502  0.10559229227E+02 -0.30505794227E+02  0.55485485093E+01  0.33020593482E+02  0.41800000000E+01 0.  1.
        -11    1    4    4    0    0 -0.12330022500E+02  0.10983753202E+02  0.50019413996E+01  0.17253744724E+02  0.00000000000E+00 0. -1.
         11    1    4    4    0    0  0.92288967983E+02 -0.69471416840E+02  0.20988078914E+02  0.11740541225E+03  0.00000000000E+00 0.  1.
</event>
<event>
 8    1  0.3541538E-009  0.1548651E+03  0.7561462E-02  0.1194619E+00
         -3   -1    0    0    0  501 -0.00000000000E+00  0.00000000000E+00  0.16323629540E+03  0.16323629540E+03  0.00000000000E+00 0.  1.
          3   -1    0    0  501    0  0.00000000000E+00 -0.00000000000E+00 -0.17427541698E+03  0.17427541698E+03  0.00000000000E+00 0. -1.
         25    2    1    2    0    0 -0.14842512515E+02  0.12409314277E+03  0.26461984870E+02  0.17879549686E+03  0.12509270480E+03 0.  0.
         23    2    1    2    0    0  0.14842512515E+02 -0.12409314277E+03 -0.37501106456E+02  0.15871621552E+03  0.90360919787E+02 0.  0.
          5    1    3    3  502    0 -0.46088768696E+02  0.11296807484E+03 -0.17754450337E+02  0.12336390655E+03  0.41800000000E+01 0.  1.
         -5    1    3    3    0  502  0.31246256181E+02  0.11125067924E+02  0.44216435207E+02  0.55431590308E+02  0.41800000000E+01 0.  1.
        -11    1    4    4    0    0 -0.36265649445E+02 -0.75217509341E+02 -0.19934442437E+02  0.85850177847E+02  0.00000000000E+00 0. -1.
         11    1    4    4    0    0  0.51108161960E+02 -0.48875633425E+02 -0.17566664018E+02  0.72866037674E+02  0.00000000000E+00 0.  1.
</event>
<event>
 8    1  0.3541538E-009  0.9452009E+02  0.7561462E-02  0.1292261E+00
         -3   -1    0    0    0  501 -0.00000000000E+00  0.00000000000E+00  0.90526393341E+02  0.90526393341E+02  0.00000000000E+00 0.  1.
          3   -1    0    0  501    0  0.00000000000E+00 -0.00000000000E+00 -0.13743264479E+03  0.13743264479E+03  0.00000000000E+00 0. -1.
         25    2    1    2    0    0 -0.19277660695E+02 -0.13317387964E+02 -0.37019100023E+02  0.13253585765E+03  0.12508540592E+03 0.  0.
         23    2    1    2    0    0  0.19277660695E+02  0.13317387964E+02 -0.98871514239E+01  0.95423180476E+02  0.91971988045E+02 0.  0.
          5    1    3    3  502    0 -0.55639157761E+02 -0.14491759860E+02 -0.64681469147E+02  0.86642321248E+02  0.41800000000E+01 0. -1.
         -5    1    3    3    0  502  0.36361497066E+02  0.11743718961E+01  0.27662369124E+02  0.45893536405E+02  0.41800000000E+01 0. -1.
        -11    1    4    4    0    0  0.32813744814E+02 -0.32988521631E+02 -0.22978214057E+01  0.46586096546E+02  0.00000000000E+00 0.  1.
         11    1    4    4    0    0 -0.13536084119E+02  0.46305909595E+02 -0.75893300183E+01  0.48837083930E+02  0.00000000000E+00 0. -1.
</event>
<event>
 8    1  0.3541538E-009  0.1308630E+03  0.7561462E-02  0.1226181E+00
         -2   -1    0    0    0  501 -0.00000000000E+00  0.00000000000E+00  0.96036120487E+02  0.96036120487E+02  0.00000000000E+00 0.  1.
          2   -1    0    0  501    0  0.00000000000E+00 -0.00000000000E+00 -0.25398231821E+03  0.25398231821E+03  0.00000000000E+00 0. -1.
         25    2    1    2    0    0  0.90235732891E+02  0.54354419730E+02 -0.44655522776E+02  0.16952364405E+03  0.12508900729E+03 0.  0.
         23    2    1    2    0    0 -0.90235732891E+02 -0.54354419730E+02 -0.11329067495E+03  0.18049479465E+03  0.92987652023E+02 0.  0.
          5    1    3    3  502    0  0.80797560182E+02  0.11616285022E+02  0.26462433518E+02  0.85912261038E+02  0.41800000000E+01 0. -1.
         -5    1    3    3    0  502  0.94381727096E+01  0.42738134708E+02 -0.71117956294E+02  0.83611383016E+02  0.41800000000E+01 0. -1.
        -11    1    4    4    0    0 -0.88352361185E+02 -0.69971885175E+01 -0.94368546696E+02  0.12946243849E+03  0.00000000000E+00 0.  1.
         11    1    4    4    0    0 -0.18833717062E+01 -0.47357231213E+02 -0.18922128254E+02  0.51032356156E+02  0.00000000000E+00 0. -1.
</event>
<event>
 8    1  0.3541538E-009  0.1130994E+03  0.7561462E-02  0.1254936E+00
          3   -1    0    0  501    0  0.00000000000E+00  0.00000000000E+00  0.96873233720E+02  0.96873233720E+02  0.00000000000E+00 0. -1.
         -3   -1    0    0    0  501 -0.00000000000E+00 -0.00000000000E+00 -0.19340897055E+03  0.19340897055E+03  0.00000000000E+00 0.  1.
         25    2    1    2    0    0 -0.23534132306E+02  0.76862494227E+02 -0.76007452609E+02  0.16699286771E+03  0.12509111324E+03 0.  0.
         23    2    1    2    0    0  0.23534132306E+02 -0.76862494227E+02 -0.20528284220E+02  0.12328933656E+03  0.91198419146E+02 0.  0.
          5    1    3    3  502    0 -0.89335882945E+01  0.10565107621E+03 -0.29333377133E+02  0.11009031891E+03  0.41800000000E+01 0. -1.
         -5    1    3    3    0  502 -0.14600544012E+02 -0.28788581981E+02 -0.46674075476E+02  0.56902548796E+02  0.41800000000E+01 0. -1.
        -11    1    4    4    0    0  0.22652648353E+02 -0.18710470319E+02 -0.50073168665E+02  0.58056407029E+02  0.00000000000E+00 0.  1.
         11    1    4    4    0    0  0.88148395277E+00 -0.58152023908E+02  0.29544884446E+02  0.65232929533E+02  0.00000000000E+00 0. -1.
</event>
<event>
 8    1  0.3541538E-009  0.6527589E+02  0.7561462E-02  0.1376937E+00
          1   -1    0    0  501    0  0.00000000000E+00  0.00000000000E+00  0.14618349614E+03  0.14618349614E+03  0.00000000000E+00 0. -1.
         -1   -1    0    0    0  501 -0.00000000000E+00 -0.00000000000E+00 -0.12740365251E+03  0.12740365251E+03  0.00000000000E+00 0.  1.
         25    2    1    2    0    0  0.24897307768E+02 -0.19264324141E+02  0.86705378359E+02  0.15542259896E+03  0.12508945404E+03 0.  0.
         23    2    1    2    0    0 -0.24897307768E+02  0.19264324141E+02 -0.67925534731E+02  0.11816454968E+03  0.91422056499E+02 0.  0.
          5    1    3    3  502    0  0.31544458161E+02 -0.37173435981E+02 -0.15526926060E+02  0.51336877741E+02  0.41800000000E+01 0.  1.
         -5    1    3    3    0  502 -0.66471503930E+01  0.17909111840E+02  0.10223230442E+03  0.10408572122E+03  0.41800000000E+01 0.  1.
        -11    1    4    4    0    0 -0.38868075662E+02  0.75633167736E+00  0.72043997159E+01  0.39537358517E+02  0.00000000000E+00 0. -1.
         11    1    4    4    0    0  0.13970767893E+02  0.18507992464E+02 -0.75129934447E+02  0.78627191165E+02  0.00000000000E+00 0.  1.
</event>
<event>
 8    1  0.3541538E-009  0.1989242E+03  0.7561462E-02  0.1150650E+00
          3   -1    0    0  501    0  0.00000000000E+00  0.00000000000E+00  0.57951420292E+03  0.57951420292E+03  0.00000000000E+00 0. -1.
         -3   -1    0    0    0  501 -0.00000000000E+00 -0.00000000000E+00 -0.83281512034E+02  0.83281512034E+02  0.00000000000E+00 0.  1.
         25    2    1    2    0    0  0.10884699590E+03  0.15511318983E+03  0.23144977332E+03  0.32422146488E+03  0.12507114192E+03 0.  0.
         23    2    1    2    0    0 -0.10884699590E+03 -0.15511318983E+03  0.26478291757E+03  0.33857425008E+03  0.92815727126E+02 0.  0.
          5    1    3    3  502    0  0.23210267835E+02  0.10127487633E+03  0.47647768461E+02  0.11438137675E+03  0.41800000000E+01 0. -1.
         -5    1    3    3    0  502  0.85636728070E+02  0.53838313503E+02  0.18380200486E+03  0.20984008813E+03  0.41800000000E+01 0. -1.
        -11    1    4    4    0    0 -0.76484337216E+02 -0.13301062387E+03  0.25592662967E+03  0.29839591095E+03  0.00000000000E+00 0. -1.
         11    1    4    4    0    0 -0.32362658689E+02 -0.22102565959E+02  0.88562879060E+01  0.40178339125E+02  0.00000000000E+00 0.  1.
</event>
<event>
 8    1  0.3541538E-009  0.1117227E+03  0.7561462E-02  0.1257413E+00
          2   -1    0    0  501    0  0.00000000000E+00  0.00000000000E+00  0.16062376434E+03  0.16062376434E+03  0.00000000000E+00 0. -1.
         -2   -1    0    0    0  501 -0.00000000000E+00 -0.00000000000E+00 -0.82353298228E+02  0.82353298228E+02  0.00000000000E+00 0.  1.
         25    2    1    2    0    0  0.10435710834E+02 -0.77251423727E+01  0.32037414736E+02  0.12977071278E+03  0.12508181350E+03 0.  0.
         23    2    1    2    0    0 -0.10435710834E+02  0.77251423727E+01  0.46233051379E+02  0.11320634979E+03  0.10251634361E+03 0.  0.
          5    1    3    3  502    0  0.55945819509E+02 -0.37510501970E+02  0.20433185896E+01  0.67517553492E+02  0.41800000000E+01 0.  1.
         -5    1    3    3    0  502 -0.45510108675E+02  0.29785359598E+02  0.29994096146E+02  0.62253159290E+02  0.41800000000E+01 0.  1.
        -11    1    4    4    0    0  0.34853690056E+02 -0.27203983998E+02  0.31062537916E+02  0.54034412346E+02  0.00000000000E+00 0. -1.
         11    1    4    4    0    0 -0.45289400890E+02  0.34929126371E+02  0.15170513464E+02  0.59171937443E+02  0.00000000000E+00 0.  1.
</event>
<event>
 8    1  0.3541538E-009  0.8892915E+02  0.7561462E-02  0.1305466E+00
         -2   -1    0    0    0  501 -0.00000000000E+00  0.00000000000E+00  0.29580709661E+02  0.29580709661E+02  0.00000000000E+00 0.  1.
          2   -1    0    0  501    0  0.00000000000E+00 -0.00000000000E+00 -0.41026048024E+03  0.41026048024E+03  0.00000000000E+00 0. -1.
         25    2    1    2    0    0  0.74652927087E+01  0.24389111313E+02 -0.19994515255E+03  0.23722650029E+03  0.12509112305E+03 0.  0.
         23    2    1    2    0    0 -0.74652927087E+01 -0.24389111313E+02 -0.18073461803E+03  0.20261468961E+03  0.87961076313E+02 0.  0.
          5    1    3    3  502    0 -0.14694208760E+02  0.55754662596E+02 -0.34479621412E+02  0.67311357623E+02  0.41800000000E+01 0.  1.
         -5    1    3    3    0  502  0.22159501468E+02 -0.31365551284E+02 -0.16546553114E+03  0.16991514267E+03  0.41800000000E+01 0.  1.
        -11    1    4    4    0    0 -0.15585888572E+02 -0.51139685072E+02 -0.15729589435E+03  0.16613303612E+03  0.00000000000E+00 0. -1.
         11    1    4    4    0    0  0.81205958635E+01  0.26750573759E+02 -0.23438723681E+02  0.36481653491E+02  0.00000000000E+00 0.  1.
</event>
<event>
 8    1  0.3541538E-009  0.9299532E+02  0.7561462E-02  0.1295756E+00
         -2   -1    0    0    0  501 -0.00000000000E+00  0.00000000000E+00  0.27423919033E+02  0.27423919033E+02  0.00000000000E+00 0.  1.
          2   -1    0    0  501    0  0.00000000000E+00 -0.00000000000E+00 -0.95729771599E+03  0.95729771599E+03  0.00000000000E+00 0. -1.
         25    2    1    2    0    0  0.27300723090E+02  0.87584287137E+02 -0.73244751017E+03  0.74869579370E+03  0.12509875903E+03 0.  0.
         23    2    1    2    0    0 -0.27300723090E+02 -0.87584287137E+02 -0.19742628678E+03  0.23602584132E+03  0.91185098694E+02 0.  0.
          5    1    3    3  502    0  0.13061882747E+02  0.69447425598E+02 -0.15092700879E+03  0.16670330557E+03  0.41800000000E+01 0.  1.
         -5    1    3    3    0  502  0.14238840344E+02  0.18136861538E+02 -0.58152050138E+03  0.58199248813E+03  0.41800000000E+01 0.  1.
        -11    1    4    4    0    0 -0.19029480058E+02 -0.57492812545E+02 -0.19560480537E+03  0.20476519355E+03  0.00000000000E+00 0. -1.
         11    1    4    4    0    0 -0.82712430325E+01 -0.30091474592E+02 -0.18214814108E+01  0.31260647769E+02  0.00000000000E+00 0.  1.
</event>
<event>
 8    1  0.3541538E-009  0.5777149E+02  0.7561462E-02  0.1407429E+00
         -1   -1    0    0    0  501 -0.00000000000E+00  0.00000000000E+00  0.10220624060E+03  0.10220624060E+03  0.00000000000E+00 0.  1.
          1   -1    0    0  501    0  0.00000000000E+00 -0.00000000000E+00 -0.17615333996E+03  0.17615333996E+03  0.00000000000E+00 0. -1.
         25    2    1    2    0    0 -0.42513447044E+02  0.12974197058E+02  0.25036906174E+02  0.13509036098E+03  0.12508731347E+03 0.  0.
         23    2    1    2    0    0  0.42513447044E+02 -0.12974197058E+02 -0.98984005528E+02  0.14326921958E+03  0.93554866035E+02 0.  0.
          5    1    3    3  502    0 -0.24634958406E+02  0.28879358701E+02  0.72403841563E+02  0.81857725401E+02  0.41800000000E+01 0.  1.
         -5    1    3    3    0  502 -0.17878488638E+02 -0.15905161644E+02 -0.47366935389E+02  0.53232635583E+02  0.41800000000E+01 0.  1.
        -11    1    4    4    0    0  0.16548419382E+02  0.91857897371E+01 -0.10662245247E+03  0.10828931752E+03  0.00000000000E+00 0. -1.
         11    1    4    4    0    0  0.25965027663E+02 -0.22159986795E+02  0.76384469452E+01  0.34979902058E+02  0.00000000000E+00 0.  1.
</event>
<event>
 8    1  0.3541538E-009  0.1129500E+03  0.7561462E-02  0.1255202E+00
         -1   -1    0    0    0  501 -0.00000000000E+00  0.00000000000E+00  0.35419901192E+02  0.35419901192E+02  0.00000000000E+00 0.  1.
          1   -1    0    0  501    0  0.00000000000E+00 -0.00000000000E+00 -0.40844762346E+03  0.40844762346E+03  0.00000000000E+00 0. -1.
         25    2    1    2    0    0  0.10601671936E+02 -0.52158282648E+02 -0.21708559402E+03  0.25613795671E+03  0.12509043064E+03 0.  0.
         23    2    1    2    0    0 -0.10601671936E+02  0.52158282648E+02 -0.15594212825E+03  0.18772956794E+03  0.89953106795E+02 0.  0.
          5    1    3    3  502    0 -0.14691401843E+02 -0.88076994609E+02 -0.16673422054E+03  0.18918553583E+03  0.41800000000E+01 0. -1.
         -5    1    3    3    0  502  0.25293073779E+02  0.35918711961E+02 -0.50351373482E+02  0.66952420880E+02  0.41800000000E+01 0. -1.
        -11    1    4    4    0    0  0.32506956580E+02  0.28353178498E+02 -0.30109333001E+02  0.52603962691E+02  0.00000000000E+00 0.  1.
         11    1    4    4    0    0 -0.43108628516E+02  0.23805104151E+02 -0.12583279525E+03  0.13512560525E+03  0.00000000000E+00 0. -1.
</event>
<event>
 8    1  0.3541538E-009  0.1864660E+03  0.7561462E-02  0.1161688E+00
         -2   -1    0    0    0  501 -0.00000000000E+00  0.00000000000E+00  0.51501723506E+02  0.51501723506E+02  0.00000000000E+00 0.  1.
          2   -1    0    0  501    0  0.00000000000E+00 -0.00000000000E+00 -0.97882691415E+03  0.97882691415E+03  0.00000000000E+00 0. -1.
         25    2    1    2    0    0 -0.16198415631E+03 -0.19213642354E+02 -0.73584223071E+03  0.76401503600E+03  0.12508859174E+03 0.  0.
         23    2    1    2    0    0  0.16198415631E+03  0.19213642354E+02 -0.19148295994E+03  0.26631360166E+03  0.87459588031E+02 0.  0.
          5    1    3    3  502    0 -0.16255989352E+03  0.85769549934E+01 -0.48509284872E+03  0.51169505315E+03  0.41800000000E+01 0. -1.
         -5    1    3    3    0  502  0.57573721952E+00 -0.27790597348E+02 -0.25074938199E+03  0.25231998284E+03  0.41800000000E+01 0. -1.
        -11    1    4    4    0    0  0.41312389860E+02 -0.30623925726E+02 -0.77445694603E+02  0.92964369494E+02  0.00000000000E+00 0.  1.
         11    1    4    4    0    0  0.12067176645E+03  0.49837568080E+02 -0.11403726533E+03  0.17334923217E+03  0.00000000000E+00 0. -1.
</event>
<event>
 8    1  0.3541538E-009  0.5320753E+02  0.7561462E-02  0.1428771E+00
          2   -1    0    0  501    0  0.00000000000E+00  0.00000000000E+00  0.21401359597E+03  0.21401359597E+03  0.00000000000E+00 0.  1.
         -2   -1    0    0    0  501 -0.00000000000E+00 -0.00000000000E+00 -0.68274642592E+02  0.68274642592E+02  0.00000000000E+00 0. -1.
         25    2    1    2    0    0  0.41429482232E+02  0.16479074949E+02  0.50014479470E+02  0.14191557760E+03  0.12510244243E+03 0.  0.
         23    2    1    2    0    0 -0.41429482232E+02 -0.16479074949E+02  0.95724473903E+02  0.14037266095E+03  0.92484307479E+02 0.  0.
          5    1    3    3  502    0  0.43311760601E+02  0.13612566749E+02 -0.34533560464E+02  0.57194840486E+02  0.41800000000E+01 0. -1.
         -5    1    3    3    0  502 -0.18822783687E+01  0.28665081999E+01  0.84548039934E+02  0.84720737118E+02  0.41800000000E+01 0. -1.
        -11    1    4    4    0    0 -0.12432420400E+02 -0.22586932535E+02  0.10593671357E+03  0.10902899559E+03  0.00000000000E+00 0.  1.
         11    1    4    4    0    0 -0.28997061832E+02  0.61078575861E+01 -0.10212239666E+02  0.31343665360E+02  0.00000000000E+00 0. -1.
</event>
<event>
 8    1  0.3541538E-009  0.1047285E+03  0.7561462E-02  0.1270656E+00
         -2   -1    0    0    0  501 -0.00000000000E+00  0.00000000000E+00  0.64773709237E+02  0.64773709237E+02  0.00000000000E+00 0.  1.
          2   -1    0    0  501    0  0.00000000000E+00 -0.00000000000E+00 -0.23009375986E+03  0.23009375986E+03  0.00000000000E+00 0. -1.
         25    2    1    2    0    0 -0.50800332871E+02 -0.22814067377E+02 -0.67470061467E+02  0.15265852463E+03  0.12510499773E+03 0.  0.
         23    2    1    2    0    0  0.50800332871E+02  0.22814067377E+02 -0.97849989156E+02  0.14220894447E+03  0.86876970591E+02 0.  0.
          5    1    3    3  502    0 -0.75325203129E+02 -0.29498692947E+02 -0.88082263281E+02  0.11966627184E+03  0.41800000000E+01 0. -1.
         -5    1    3    3    0  502  0.24524870258E+02  0.66846255697E+01  0.20612201814E+02  0.32992252785E+02  0.41800000000E+01 0. -1.
        -11    1    4    4    0    0  0.27374441909E+02  0.55847715464E+02 -0.65998552244E+02  0.90687023828E+02  0.00000000000E+00 0. -1.
         11    1    4    4    0    0  0.23425890962E+02 -0.33033648086E+02 -0.31851436911E+02  0.51521920641E+02  0.00000000000E+00 0.  1.
</event>
<event>
 8    1  0.3541538E-009  0.1123074E+03  0.7561462E-02  0.1256356E+00
          1   -1    0    0  501    0  0.00000000000E+00  0.00000000000E+00  0.47880084645E+03  0.47880084645E+03  0.00000000000E+00 0. -1.
         -1   -1    0    0    0  501 -0.00000000000E+00 -0.00000000000E+00 -0.39520393122E+02  0.39520393122E+02  0.00000000000E+00 0.  1.
         25    2    1    2    0    0 -0.73980772577E+02 -0.16048468920E+02  0.16920268442E+03  0.22362376652E+03  0.12508929798E+03 0.  0.
         23    2    1    2    0    0  0.73980772577E+02  0.16048468920E+02  0.27007776891E+03  0.29469747306E+03  0.90409575277E+02 0.  0.
          5    1    3    3  502    0 -0.37593587773E+02  0.30224728462E+02  0.44516614037E+01  0.48622029385E+02  0.41800000000E+01 0. -1.
         -5    1    3    3    0  502 -0.36387184804E+02 -0.46273197382E+02  0.16475102302E+03  0.17500173713E+03  0.41800000000E+01 0. -1.
        -11    1    4    4    0    0  0.26400372530E+02 -0.37300593818E+02  0.89660663544E+02  0.10063472838E+03  0.00000000000E+00 0. -1.
         11    1    4    4    0    0  0.47580400047E+02  0.53349062738E+02  0.18041710537E+03  0.19406274468E+03  0.00000000000E+00 0.  1.
</event>
<event>
 8    1  0.3541538E-009  0.1841571E+03  0.7561462E-02  0.1163839E+00
         -2   -1    0    0    0  501 -0.00000000000E+00  0.00000000000E+00  0.86129839906E+02  0.86129839906E+02  0.00000000000E+00 0.  1.
          2   -1    0    0  501    0  0.00000000000E+00 -0.00000000000E+00 -0.40995034865E+03  0.40995034865E+03  0.00000000000E+00 0. -1.
         25    2    1    2    0    0  0.90807138383E+01  0.15368880367E+03 -0.17096129308E+03  0.26188090553E+03  0.12510450516E+03 0.  0.
         23    2    1    2    0    0 -0.90807138383E+01 -0.15368880367E+03 -0.15285921566E+03  0.23419928302E+03  0.88208030356E+02 0.  0.
          5    1    3    3  502    0  0.55823101738E+02  0.42669117662E+02 -0.99101825136E+02  0.12155458212E+03  0.41800000000E+01 0.  1.
         -5    1    3    3    0  502 -0.46742387900E+02  0.11101968601E+03 -0.71859467947E+02  0.14032632341E+03  0.41800000000E+01 0.  1.
        -11    1    4    4    0    0 -0.43929229041E+02 -0.43477736133E+02 -0.50920032263E+02  0.80080836590E+02  0.00000000000E+00 0.  1.
         11    1    4    4    0    0  0.34848515202E+02 -0.11021106754E+03 -0.10193918340E+03  0.15411844643E+03  0.00000000000E+00 0. -1.
</event>
<event>
 8    1  0.3541538E-009  0.1196350E+03  0.7561462E-02  0.1243700E+00
         -1   -1    0    0    0  501 -0.00000000000E+00  0.00000000000E+00  0.26760242998E+03  0.26760242998E+03  0.00000000000E+00 0.  1.
          1   -1    0    0  501    0  0.00000000000E+00 -0.00000000000E+00 -0.13021463780E+03  0.13021463780E+03  0.00000000000E+00 0. -1.
         25    2    1    2    0    0 -0.74757875703E+02  0.25079306986E+02  0.21046986304E+03  0.25721680652E+03  0.12508081663E+03 0.  0.
         23    2    1    2    0    0  0.74757875703E+02 -0.25079306986E+02 -0.73082070871E+02  0.14060026126E+03  0.90607575646E+02 0.  0.
          5    1    3    3  502    0  0.26453694891E+02 -0.34129663587E+01  0.66031200627E+01  0.27794242341E+02  0.41800000000E+01 0. -1.
         -5    1    3    3    0  502 -0.10121157059E+03  0.28492273345E+02  0.20386674298E+03  0.22942256418E+03  0.41800000000E+01 0. -1.
        -11    1    4    4    0    0 -0.14503098834E+02 -0.73456651313E+00 -0.39647294724E+02  0.42223067661E+02  0.00000000000E+00 0. -1.
         11    1    4    4    0    0  0.89260974537E+02 -0.24344740473E+02 -0.33434776147E+02  0.98377193597E+02  0.00000000000E+00 0.  1.
</event>
<event>
 8    1  0.3541538E-009  0.1269306E+03  0.7561462E-02  0.1232083E+00
         -1   -1    0    0    0  501 -0.00000000000E+00  0.00000000000E+00  0.14139108075E+03  0.14139108075E+03  0.00000000000E+00 0.  1.
          1   -1    0    0  501    0  0.00000000000E+00 -0.00000000000E+00 -0.14281242389E+03  0.14281242389E+03  0.00000000000E+00 0. -1.
         25    2    1    2    0    0 -0.15017240393E+02  0.78697760184E+02  0.39682290745E+02  0.15375589643E+03  0.12508931417E+03 0.  0.
         23    2    1    2    0    0  0.15017240393E+02 -0.78697760184E+02 -0.41103633884E+02  0.13044760822E+03  0.94383339651E+02 0.  0.
          5    1    3    3  502    0  0.75993036872E+01  0.10908439388E+03  0.21456090020E+02  0.11151228903E+03  0.41800000000E+01 0. -1.
         -5    1    3    3    0  502 -0.22616544080E+02 -0.30386633696E+02  0.18226200725E+02  0.42243607403E+02  0.41800000000E+01 0. -1.
        -11    1    4    4    0    0 -0.27679261927E+02 -0.40365563572E+02  0.13986701363E+02  0.50903320896E+02  0.00000000000E+00 0. -1.
         11    1    4    4    0    0  0.42696502320E+02 -0.38332196612E+02 -0.55090335247E+02  0.79544287319E+02  0.00000000000E+00 0.  1.
</event>
<event>
 8    1  0.3541538E-009  0.8644947E+02  0.7561462E-02  0.1311685E+00
          4   -1    0    0  501    0  0.00000000000E+00  0.00000000000E+00  0.12552500005E+03  0.12552500005E+03  0.00000000000E+00 0. -1.
         -4   -1    0    0    0  501 -0.00000000000E+00 -0.00000000000E+00 -0.13875897819E+03  0.13875897819E+03  0.00000000000E+00 0.  1.
         25    2    1    2    0    0 -0.12414003196E+02  0.36321370577E+01 -0.80749625640E+02  0.14944921656E+03  0.12508903387E+03 0.  0.
         23    2    1    2    0    0  0.12414003196E+02 -0.36321370577E+01  0.67515647506E+02  0.11483476168E+03  0.91985650718E+02 0.  0.
          5    1    3    3  502    0  0.32947156217E+02  0.11252968792E+02 -0.94877641682E+02  0.10115030252E+03  0.41800000000E+01 0. -1.
         -5    1    3    3    0  502 -0.45361159413E+02 -0.76208317342E+01  0.14128016042E+02  0.48298914035E+02  0.41800000000E+01 0. -1.
        -11    1    4    4    0    0  0.28318833471E+02  0.37820366794E+02  0.44139907406E+02  0.64658084563E+02  0.00000000000E+00 0. -1.
         11    1    4    4    0    0 -0.15904830275E+02 -0.41452503852E+02  0.23375740100E+02  0.50176677121E+02  0.00000000000E+00 0.  1.
</event>
<event>
 8    1  0.3541538E-009  0.2271269E+03  0.7561462E-02  0.1128678E+00
          2   -1    0    0  501    0  0.00000000000E+00  0.00000000000E+00  0.71168433149E+02  0.71168433149E+02  0.00000000000E+00 0. -1.
         -2   -1    0    0    0  501 -0.00000000000E+00 -0.00000000000E+00 -0.73447545290E+03  0.73447545290E+03  0.00000000000E+00 0.  1.
         25    2    1    2    0    0 -0.14088105417E+02  0.20045202577E+03 -0.34382599602E+03  0.41742419167E+03  0.12508857226E+03 0.  0.
         23    2    1    2    0    0  0.14088105417E+02 -0.20045202577E+03 -0.31948102373E+03  0.38821969437E+03  0.90922589184E+02 0.  0.
          5    1    3    3  502    0 -0.20029148997E+02 -0.11570602033E+02 -0.47353015100E+02  0.52866114667E+02  0.41800000000E+01 0. -1.
         -5    1    3    3    0  502  0.59410435807E+01  0.21202262780E+03 -0.29647298092E+03  0.36455807701E+03  0.41800000000E+01 0. -1.
        -11    1    4    4    0    0 -0.21838866836E+02 -0.17030988257E+03 -0.22805081968E+03  0.28546377802E+03  0.00000000000E+00 0.  1.
         11    1    4    4    0    0  0.35926972252E+02 -0.30142143197E+02 -0.91430204050E+02  0.10275591635E+03  0.00000000000E+00 0. -1.
</event>
<event>
 8    1  0.3541538E-009  0.1335520E+03  0.7561462E-02  0.1222278E+00
          2   -1    0    0  501    0  0.00000000000E+00  0.00000000000E+00  0.18825873462E+03  0.18825873462E+03  0.00000000000E+00 0.  1.
         -2   -1    0    0    0  501 -0.00000000000E+00 -0.00000000000E+00 -0.14691914555E+03  0.14691914555E+03  0.00000000000E+00 0. -1.
         25    2    1    2    0    0 -0.10755954685E+03 -0.21713655967E+00  0.88380839092E+02  0.18715827635E+03  0.12509174402E+03 0.  0.
         23    2    1    2    0    0  0.10755954685E+03  0.21713655967E+00 -0.47041250018E+02  0.14801960383E+03  0.90154426667E+02 0.  0.
          5    1    3    3  502    0 -0.57340535800E+02  0.47570539401E+02  0.90971819217E+02  0.11766153814E+03  0.41800000000E+01 0.  1.
         -5    1    3    3    0  502 -0.50219011045E+02 -0.47787675960E+02 -0.25909801254E+01  0.69496738211E+02  0.41800000000E+01 0.  1.
        -11    1    4    4    0    0  0.80929280616E+02  0.26951904162E+02  0.29922522092E+01  0.85351667660E+02  0.00000000000E+00 0.  1.
         11    1    4    4    0    0  0.26630266229E+02 -0.26734767602E+02 -0.50033502228E+02  0.62667936166E+02  0.00000000000E+00 0. -1.
</event>
<event>
 8    1  0.3541538E-009  0.1002479E+03  0.7561462E-02  0.1279776E+00
         -2   -1    0    0    0  501 -0.00000000000E+00  0.00000000000E+00  0.14043571015E+02  0.14043571015E+02  0.00000000000E+00 0.  1.
          2   -1    0    0  501    0  0.00000000000E+00 -0.00000000000E+00 -0.10156344144E+04  0.10156344144E+04  0.00000000000E+00 0. -1.
         25    2    1    2    0    0  0.25685790891E+02 -0.76465284178E+01 -0.72308300025E+03  0.73431218837E+03  0.12508851060E+03 0.  0.
         23    2    1    2    0    0 -0.25685790891E+02  0.76465284178E+01 -0.27850784312E+03  0.29536579703E+03  0.94636706022E+02 0.  0.
          5    1    3    3  502    0 -0.18807329050E+02 -0.48736530819E+02 -0.51192769659E+03  0.51460315195E+03  0.41800000000E+01 0.  1.
         -5    1    3    3    0  502  0.44493119941E+02  0.41090002401E+02 -0.21115530366E+03  0.21970903642E+03  0.41800000000E+01 0.  1.
        -11    1    4    4    0    0  0.22573856758E+02 -0.21357654746E+02 -0.41992098409E+02  0.52240451319E+02  0.00000000000E+00 0.  1.
         11    1    4    4    0    0 -0.48259647650E+02  0.29004183164E+02 -0.23651574471E+03  0.24312534572E+03  0.00000000000E+00 0. -1.
</event>
<event>
 8    1  0.3541538E-009  0.1266001E+03  0.7561462E-02  0.1232590E+00
          2   -1    0    0  501    0  0.00000000000E+00  0.00000000000E+00  0.51795801878E+03  0.51795801878E+03  0.00000000000E+00 0. -1.
         -2   -1    0    0    0  501 -0.00000000000E+00 -0.00000000000E+00 -0.36905617367E+02  0.36905617367E+02  0.00000000000E+00 0.  1.
         25    2    1    2    0    0 -0.24663504939E+02  0.80634459800E+02  0.29566311372E+03  0.33192590018E+03  0.12509165365E+03 0.  0.
         23    2    1    2    0    0  0.24663504939E+02 -0.80634459800E+02  0.18538928769E+03  0.22293773596E+03  0.90674370925E+02 0.  0.
          5    1    3    3  502    0 -0.18177588254E+02 -0.23234162879E+02  0.16705890173E+02  0.34158603688E+02  0.41800000000E+01 0.  1.
         -5    1    3    3    0  502 -0.64859166849E+01  0.10386862268E+03  0.27895722354E+03  0.29776729649E+03  0.41800000000E+01 0.  1.
        -11    1    4    4    0    0 -0.76915932244E+01  0.15778560931E+02  0.54046387335E+02  0.56825483503E+02  0.00000000000E+00 0. -1.
         11    1    4    4    0    0  0.32355098163E+02 -0.96413020731E+02  0.13134290036E+03  0.16611225246E+03  0.00000000000E+00 0.  1.
</event>
<event>
 8    1  0.3541538E-009  0.1362386E+03  0.7561462E-02  0.1218482E+00
         -2   -1    0    0    0  501 -0.00000000000E+00  0.00000000000E+00  0.87480985596E+02  0.87480985596E+02  0.00000000000E+00 0. -1.
          2   -1    0    0  501    0  0.00000000000E+00 -0.00000000000E+00 -0.40855706452E+03  0.40855706452E+03  0.00000000000E+00 0.  1.
         25    2    1    2    0    0 -0.97899518352E+02 -0.92694366682E+02 -0.70437253121E+02  0.19694268120E+03  0.12509377180E+03 0.  0.
         23    2    1    2    0    0  0.97899518352E+02  0.92694366682E+02 -0.25063882580E+03  0.29909536891E+03  0.91987267594E+02 0.  0.
          5    1    3    3  502    0 -0.84808352523E+02 -0.89792290064E+02  0.15560491350E+01  0.12359209401E+03  0.41800000000E+01 0.  1.
         -5    1    3    3    0  502 -0.13091165829E+02 -0.29020766180E+01 -0.71993302256E+02  0.73350587190E+02  0.41800000000E+01 0.  1.
        -11    1    4    4    0    0  0.27003608154E+02  0.23861142817E+02 -0.77273569744E+01  0.36854593142E+02  0.00000000000E+00 0. -1.
         11    1    4    4    0    0  0.70895910198E+02  0.68833223865E+02 -0.24291146882E+03  0.26224077577E+03  0.00000000000E+00 0.  1.
</event>
<event>
 8    1  0.3541538E-009  0.1095426E+03  0.7561462E-02  0.1261419E+00
          1   -1    0    0  501    0  0.00000000000E+00  0.00000000000E+00  0.48822526304E+03  0.48822526304E+03  0.00000000000E+00 0.  1.
         -1   -1    0    0    0  501 -0.00000000000E+00 -0.00000000000E+00 -0.28156222754E+02  0.28156222754E+02  0.00000000000E+00 0. -1.
         25    2    1    2    0    0  0.22545594156E+02  0.21302372835E+02  0.18959845466E+03  0.22925503743E+03  0.12509277867E+03 0.  0.
         23    2    1    2    0    0 -0.22545594156E+02 -0.21302372835E+02  0.27047058562E+03  0.28712644836E+03  0.91242340796E+02 0.  0.
          5    1    3    3  502    0  0.50777779031E+02 -0.33467768428E+02  0.59217520235E+02  0.84986242826E+02  0.41800000000E+01 0.  1.
         -5    1    3    3    0  502 -0.28232184875E+02  0.54770141263E+02  0.13038093442E+03  0.14426879461E+03  0.41800000000E+01 0.  1.
        -11    1    4    4    0    0 -0.55696252699E+02 -0.28317709384E+02  0.17659494996E+03  0.18732256026E+03  0.00000000000E+00 0. -1.
         11    1    4    4    0    0  0.33150658543E+02  0.70153365494E+01  0.93875635661E+02  0.99803888098E+02  0.00000000000E+00 0.  1.
</event>
<event>
 8    1  0.3541538E-009  0.9217947E+02  0.7561462E-02  0.1297658E+00
          1   -1    0    0  501    0  0.00000000000E+00  0.00000000000E+00  0.82789369606E+02  0.82789369606E+02  0.00000000000E+00 0. -1.
         -1   -1    0    0    0  501 -0.00000000000E+00 -0.00000000000E+00 -0.16855334075E+03  0.16855334075E+03  0.00000000000E+00 0.  1.
         25    2    1    2    0    0 -0.40600801514E+02 -0.17951250715E+02 -0.21160812709E+02  0.13439738047E+03  0.12507679000E+03 0.  0.
         23    2    1    2    0    0  0.40600801514E+02  0.17951250715E+02 -0.64603158435E+02  0.11694532989E+03  0.86786920775E+02 0.  0.
          5    1    3    3  502    0 -0.15342518870E+02  0.52575389793E+02 -0.22496016270E+02  0.59355771794E+02  0.41800000000E+01 0.  1.
         -5    1    3    3    0  502 -0.25258282644E+02 -0.70526640508E+02  0.13352035610E+01  0.75041608672E+02  0.41800000000E+01 0.  1.
        -11    1    4    4    0    0  0.23698154308E+02  0.26424194381E+02 -0.83181524488E+02  0.90437860337E+02  0.00000000000E+00 0.  1.
         11    1    4    4    0    0  0.16902647206E+02 -0.84729436656E+01  0.18578366053E+02  0.26507469553E+02  0.00000000000E+00 0. -1.
</event>
<event>
 8    1  0.3541538E-009  0.1497530E+03  0.7561462E-02  0.1200777E+00
         -2   -1    0    0    0  501 -0.00000000000E+00  0.00000000000E+00  0.33107736706E+03  0.33107736706E+03  0.00000000000E+00 0.  1.
          2   -1    0    0  501    0  0.00000000000E+00 -0.00000000000E+00 -0.89080778405E+02  0.89080778405E+02  0.00000000000E+00 0. -1.
         25    2    1    2    0    0 -0.13285728595E+03  0.95458133051E+00  0.13069008659E+03  0.22445577348E+03  0.12509406805E+03 0.  0.
         23    2    1    2    0    0  0.13285728595E+03 -0.95458133051E+00  0.11130650207E+03  0.19570237198E+03  0.90875251533E+02 0.  0.
          5    1    3    3  502    0 -0.54111895326E+02 -0.19116027338E+02  0.13100482562E+03  0.14308478764E+03  0.41800000000E+01 0. -1.
         -5    1    3    3    0  502 -0.78745390625E+02  0.20070608669E+02 -0.31473903365E+00  0.81370985847E+02  0.41800000000E+01 0. -1.
        -11    1    4    4    0    0  0.10463982318E+03 -0.40337973536E+02  0.71516200543E+02  0.13300831419E+03  0.00000000000E+00 0. -1.
         11    1    4    4    0    0  0.28217462774E+02  0.39383392206E+02  0.39790301526E+02  0.62694057793E+02  0.00000000000E+00 0.  1.
</event>
<event>
 8    1  0.3541538E-009  0.1755687E+03  0.7561462E-02  0.1172162E+00
         -1   -1    0    0    0  501 -0.00000000000E+00  0.00000000000E+00  0.63958595071E+02  0.63958595071E+02  0.00000000000E+00 0.  1.
          1   -1    0    0  501    0  0.00000000000E+00 -0.00000000000E+00 -0.57244833702E+03  0.57244833702E+03  0.00000000000E+00 0. -1.
         25    2    1    2    0    0 -0.31580719399E+02 -0.14285141462E+03 -0.17481679102E+03  0.26002424772E+03  0.12509128861E+03 0.  0.
         23    2    1    2    0    0  0.31580719399E+02  0.14285141462E+03 -0.33367295093E+03  0.37638268437E+03  0.94458553951E+02 0.  0.
          5    1    3    3  502    0 -0.67083747480E+02 -0.77664241839E+02 -0.14970540887E+03  0.18155204620E+03  0.41800000000E+01 0. -1.
         -5    1    3    3    0  502  0.35503028082E+02 -0.65187172776E+02 -0.25111382148E+02  0.78472201517E+02  0.41800000000E+01 0. -1.
        -11    1    4    4    0    0 -0.32020834076E+02  0.72415609291E+02 -0.15683382795E+03  0.17568780229E+03  0.00000000000E+00 0. -1.
         11    1    4    4    0    0  0.63601553475E+02  0.70435805324E+02 -0.17683912298E+03  0.20069488208E+03  0.00000000000E+00 0.  1.
</event>
<event>
 8    1  0.3541538E-009  0.1511787E+03  0.7561462E-02  0.1199032E+00
         -1   -1    0    0    0  501 -0.00000000000E+00  0.00000000000E+00  0.92703011490E+02  0.92703011490E+02  0.00000000000E+00 0.  1.
          1   -1    0    0  501    0  0.00000000000E+00 -0.00000000000E+00 -0.29977195231E+03  0.29977195231E+03  0.00000000000E+00 0. -1.
         25    2    1    2    0    0  0.11844293140E+03 -0.56958786160E+01 -0.16073723425E+03  0.23568126924E+03  0.12509209075E+03 0.  0.
         23    2    1    2    0    0 -0.11844293140E+03  0.56958786160E+01 -0.46331706572E+02  0.15679369456E+03  0.91523027634E+02 0.  0.
          5    1    3    3  502    0  0.49275651284E+02  0.56810423136E+02 -0.47925645915E+02  0.89274038347E+02  0.41800000000E+01 0. -1.
         -5    1    3    3    0  502  0.69167280113E+02 -0.62506301752E+02 -0.11281158833E+03  0.14640723090E+03  0.41800000000E+01 0. -1.
        -11    1    4    4    0    0 -0.22814771487E+01  0.16867142973E+02  0.16968264416E+02  0.24033885398E+02  0.00000000000E+00 0.  1.
         11    1    4    4    0    0 -0.11616145425E+03 -0.11171264357E+02 -0.63299970988E+02  0.13275980916E+03  0.00000000000E+00 0. -1.
</event>
<event>
 8    1  0.3541538E-009  0.1187815E+03  0.7561462E-02  0.1245121E+00
          2   -1    0    0  501    0  0.00000000000E+00  0.00000000000E+00  0.34745071383E+03  0.34745071383E+03  0.00000000000E+00 0. -1.
         -2   -1    0    0    0  501 -0.00000000000E+00 -0.00000000000E+00 -0.64899759630E+02  0.64899759630E+02  0.00000000000E+00 0.  1.
         25    2    1    2    0    0  0.86624079005E+02 -0.52871181775E+02  0.12577925403E+03  0.20436717413E+03  0.12508568340E+03 0.  0.
         23    2    1    2    0    0 -0.86624079005E+02  0.52871181775E+02  0.15677170017E+03  0.20798329933E+03  0.91545583727E+02 0.  0.
          5    1    3    3  502    0  0.19971255373E+02 -0.28907639747E+02 -0.21136219525E+02  0.41215468610E+02  0.41800000000E+01 0. -1.
         -5    1    3    3    0  502  0.66652823632E+02 -0.23963542027E+02  0.14691547355E+03  0.16315170552E+03  0.41800000000E+01 0. -1.
        -11    1    4    4    0    0  0.22418448584E+01 -0.17642103702E+02  0.49501464276E+01  0.18460055283E+02  0.00000000000E+00 0.  1.
         11    1    4    4    0    0 -0.88865923863E+02  0.70513285477E+02  0.15182155374E+03  0.18952324405E+03  0.00000000000E+00 0. -1.
</event>
<event>
 8    1  0.3541538E-009  0.1078934E+03  0.7561462E-02  0.1264522E+00
         -1   -1    0    0    0  501 -0.00000000000E+00  0.00000000000E+00  0.19528209134E+03  0.19528209134E+03  0.00000000000E+00 0.  1.
          1   -1    0    0  501    0  0.00000000000E+00 -0.00000000000E+00 -0.62492720200E+02  0.62492720200E+02  0.00000000000E+00 0. -1.
         25    2    1    2    0    0  0.51866911448E+01  0.22117361270E+02  0.78387796962E+02  0.14935145045E+03  0.12508049250E+03 0.  0.
         23    2    1    2    0    0 -0.51866911448E+01 -0.22117361270E+02  0.54401574176E+02  0.10842336109E+03  0.90994585130E+02 0.  0.
          5    1    3    3  502    0  0.53889313294E+02  0.44968096956E+02  0.28511378570E+02  0.75871990478E+02  0.41800000000E+01 0. -1.
         -5    1    3    3    0  502 -0.48702622149E+02 -0.22850735686E+02  0.49876418392E+02  0.73479459968E+02  0.41800000000E+01 0. -1.
        -11    1    4    4    0    0 -0.34882700461E+01 -0.56742581735E+02  0.21957543122E+02  0.60942778981E+02  0.00000000000E+00 0. -1.
         11    1    4    4    0    0 -0.16984210986E+01  0.34625220466E+02  0.32444031055E+02  0.47480582111E+02  0.00000000000E+00 0.  1.
</event>
<event>
 8    1  0.3541538E-009  0.2358019E+03  0.7561462E-02  0.1122621E+00
          1   -1    0    0  501    0  0.00000000000E+00  0.00000000000E+00  0.24575010490E+04  0.24575010490E+04  0.00000000000E+00 0. -1.
         -1   -1    0    0    0  501 -0.00000000000E+00 -0.00000000000E+00 -0.34370210041E+02  0.34370210041E+02  0.00000000000E+00 0.  1.
         25    2    1    2    0    0  0.21388598409E+03 -0.43873016080E+02  0.19140325652E+04  0.19305024965E+04  0.12508865818E+03 0.  0.
         23    2    1    2    0    0 -0.21388598409E+03  0.43873016080E+02  0.50909827368E+03  0.56136876251E+03  0.91004283059E+02 0.  0.
          5    1    3    3  502    0  0.19398119246E+03 -0.83346401887E+01  0.12292081860E+04  0.12444550640E+04  0.41800000000E+01 0. -1.
         -5    1    3    3    0  502  0.19904791631E+02 -0.35538375891E+02  0.68482437920E+03  0.68604743250E+03  0.41800000000E+01 0. -1.
        -11    1    4    4    0    0 -0.78313596563E+02  0.61717607116E+02  0.22252541403E+03  0.24384347915E+03  0.00000000000E+00 0.  1.
         11    1    4    4    0    0 -0.13557238753E+03 -0.17844591036E+02  0.28657285964E+03  0.31752528336E+03  0.00000000000E+00 0. -1.
</event>
<event>
 8    1  0.3541538E-009  0.1072504E+03  0.7561462E-02  0.1265748E+00
          1   -1    0    0  501    0  0.00000000000E+00  0.00000000000E+00  0.13313905070E+04  0.13313905070E+04  0.00000000000E+00 0. -1.
         -1   -1    0    0    0  501 -0.00000000000E+00 -0.00000000000E+00 -0.12327436698E+02  0.12327436698E+02  0.00000000000E+00 0.  1.
         25    2    1    2    0    0  0.58376237655E+02  0.14187408982E+02  0.89243148798E+03  0.90315601588E+03  0.12509100916E+03 0.  0.
         23    2    1    2    0    0 -0.58376237655E+02 -0.14187408982E+02  0.42663158237E+03  0.44056192787E+03  0.92039325943E+02 0.  0.
          5    1    3    3  502    0 -0.20967934221E+02 -0.12302139301E+02  0.42746029845E+02  0.49352734112E+02  0.41800000000E+01 0. -1.
         -5    1    3    3    0  502  0.79344171876E+02  0.26489548283E+02  0.84968545814E+03  0.85380328176E+03  0.41800000000E+01 0. -1.
        -11    1    4    4    0    0 -0.66675995558E+01 -0.45263336335E+02  0.12887357690E+03  0.13675388596E+03  0.00000000000E+00 0.  1.
         11    1    4    4    0    0 -0.51708638099E+02  0.31075927353E+02  0.29775800546E+03  0.30380804192E+03  0.00000000000E+00 0. -1.
</event>
<event>
 8    1  0.3541538E-009  0.1092616E+03  0.7561462E-02  0.1261943E+00
          1   -1    0    0  501    0  0.00000000000E+00  0.00000000000E+00  0.35173386685E+03  0.35173386685E+03  0.00000000000E+00 0. -1.
         -1   -1    0    0    0  501 -0.00000000000E+00 -0.00000000000E+00 -0.45115885523E+02  0.45115885523E+02  0.00000000000E+00 0.  1.
         25    2    1    2    0    0  0.23744698738E+01 -0.62848688212E+02  0.18971337352E+03  0.23578387918E+03  0.12508907976E+03 0.  0.
         23    2    1    2    0    0 -0.23744698738E+01  0.62848688212E+02  0.11690460781E+03  0.16106587319E+03  0.91213663791E+02 0.  0.
          5    1    3    3  502    0  0.59784940589E+02 -0.48774429202E+02  0.80844139937E+02  0.11183215739E+03  0.41800000000E+01 0.  1.
         -5    1    3    3    0  502 -0.57410470715E+02 -0.14074259010E+02  0.10886923358E+03  0.12395172179E+03  0.41800000000E+01 0.  1.
        -11    1    4    4    0    0  0.17349954527E+02  0.13405335980E+01  0.89029832549E+02  0.90714546993E+02  0.00000000000E+00 0. -1.
         11    1    4    4    0    0 -0.19724424401E+02  0.61508154614E+02  0.27874775263E+02  0.70351326199E+02  0.00000000000E+00 0.  1.
</event>
<event>
 8    1  0.3541538E-009  0.2082921E+03  0.7561462E-02  0.1142926E+00
          1   -1    0    0  501    0  0.00000000000E+00  0.00000000000E+00  0.25149770982E+04  0.25149770982E+04  0.00000000000E+00 0. -1.
         -1   -1    0    0    0  501 -0.00000000000E+00 -0.00000000000E+00 -0.24192258485E+02  0.24192258485E+02  0.00000000000E+00 0.  1.
         25    2    1    2    0    0 -0.98173408726E+02  0.16613929982E+03  0.18432470733E+04  0.18575379444E+04  0.12508859484E+03 0.  0.
         23    2    1    2    0    0  0.98173408726E+02 -0.16613929982E+03  0.64753776648E+03  0.68163141234E+03  0.89866223625E+02 0.  0.
          5    1    3    3  502    0 -0.74369975185E+02  0.29175067924E+02  0.42305805043E+03  0.43055506527E+03  0.41800000000E+01 0.  1.
         -5    1    3    3    0  502 -0.23803433541E+02  0.13696423189E+03  0.14201890228E+04  0.14269828791E+04  0.41800000000E+01 0.  1.
        -11    1    4    4    0    0  0.19120642887E+02 -0.72407513360E+02  0.38033184483E+03  0.38763482708E+03  0.00000000000E+00 0.  1.
         11    1    4    4    0    0  0.79052765839E+02 -0.93731786459E+02  0.26720592165E+03  0.29399658526E+03  0.00000000000E+00 0. -1.
</event>
<event>
 8    1  0.3541538E-009  0.1978452E+03  0.7561462E-02  0.1151570E+00
         -2   -1    0    0    0  501 -0.00000000000E+00  0.00000000000E+00  0.33893770295E+02  0.33893770295E+02  0.00000000000E+00 0. -1.
          2   -1    0    0  501    0  0.00000000000E+00 -0.00000000000E+00 -0.13553525701E+04  0.13553525701E+04  0.00000000000E+00 0.  1.
         25    2    1    2    0    0  0.18294094349E+03  0.29431492557E+02 -0.63096297381E+03  0.66939877831E+03  0.12508736356E+03 0.  0.
         23    2    1    2    0    0 -0.18294094349E+03 -0.29431492557E+02 -0.69049582600E+03  0.71984756209E+03  0.84038237527E+02 0.  0.
          5    1    3    3  502    0  0.18076627124E+03  0.58833819815E+01 -0.42311787012E+03  0.46017090675E+03  0.41800000000E+01 0.  1.
         -5    1    3    3    0  502  0.21746722543E+01  0.23548110575E+02 -0.20784510369E+03  0.20922787157E+03  0.41800000000E+01 0.  1.
        -11    1    4    4    0    0 -0.91718751785E+02 -0.37709341807E+02 -0.48235366460E+03  0.49244226224E+03  0.00000000000E+00 0.  1.
         11    1    4    4    0    0 -0.91222191705E+02  0.82778492501E+01 -0.20814216140E+03  0.22740529985E+03  0.00000000000E+00 0. -1.
</event>
<event>
 8    1  0.3541538E-009  0.8819980E+02  0.7561462E-02  0.1307271E+00
          1   -1    0    0  501    0  0.00000000000E+00  0.00000000000E+00  0.23999134959E+03  0.23999134959E+03  0.00000000000E+00 0. -1.
         -1   -1    0    0    0  501 -0.00000000000E+00 -0.00000000000E+00 -0.52779498852E+02  0.52779498852E+02  0.00000000000E+00 0.  1.
         25    2    1    2    0    0  0.29593106132E+01  0.17903146960E+02  0.72445770595E+02  0.14569070971E+03  0.12509241795E+03 0.  0.
         23    2    1    2    0    0 -0.29593106132E+01 -0.17903146960E+02  0.11476608015E+03  0.14708013874E+03  0.90177790326E+02 0.  0.
          5    1    3    3  502    0  0.34088442325E+01  0.52800459170E+02 -0.11830818540E+02  0.54377839005E+02  0.41800000000E+01 0.  1.
         -5    1    3    3    0  502 -0.44953361930E+00 -0.34897312210E+02  0.84276589136E+02  0.91312870705E+02  0.41800000000E+01 0.  1.
        -11    1    4    4    0    0 -0.32925754184E+02 -0.39361945512E+02  0.45342632604E+02  0.68479357287E+02  0.00000000000E+00 0.  1.
         11    1    4    4    0    0  0.29966443570E+02  0.21458798553E+02  0.69423447543E+02  0.78600781449E+02  0.00000000000E+00 0. -1.
</event>
<event>
 8    1  0.3541538E-009  0.1304442E+03  0.7561462E-02  0.1226798E+00
          2   -1    0    0  501    0  0.00000000000E+00  0.00000000000E+00  0.11870033916E+04  0.11870033916E+04  0.00000000000E+00 0. -1.
         -2   -1    0    0    0  501 -0.00000000000E+00 -0.00000000000E+00 -0.17098629598E+02  0.17098629598E+02  0.00000000000E+00 0.  1.
         25    2    1    2    0    0  0.76720648752E+02 -0.42093259934E+02  0.76912195538E+03  0.78412626444E+03  0.12509003101E+03 0.  0.
         23    2    1    2    0    0 -0.76720648752E+02  0.42093259934E+02  0.40078280667E+03  0.41997575681E+03  0.89971538316E+02 0.  0.
          5    1    3    3  502    0  0.10161721822E+03 -0.62956348555E+02  0.58277816857E+03  0.59492640471E+03  0.41800000000E+01 0.  1.
         -5    1    3    3    0  502 -0.24896569465E+02  0.20863088622E+02  0.18634378682E+03  0.18919985973E+03  0.41800000000E+01 0.  1.
        -11    1    4    4    0    0 -0.41207541729E+02  0.56728544671E+02  0.34622273770E+03  0.35325114774E+03  0.00000000000E+00 0. -1.
         11    1    4    4    0    0 -0.35513107023E+02 -0.14635284737E+02  0.54560068967E+02  0.66724609069E+02  0.00000000000E+00 0.  1.
</event>
<event>
 8    1  0.3541538E-009  0.5509871E+02  0.7561462E-02  0.1419633E+00
         -2   -1    0    0    0  501 -0.00000000000E+00  0.00000000000E+00  0.23237199951E+03  0.23237199951E+03  0.00000000000E+00 0.  1.
          2   -1    0    0  501    0  0.00000000000E+00 -0.00000000000E+00 -0.51386109583E+02  0.51386109583E+02  0.00000000000E+00 0. -1.
         25    2    1    2    0    0 -0.78212535224E+00  0.16147641960E+02  0.10426434395E+03  0.16364690123E+03  0.12509155368E+03 0.  0.
         23    2    1    2    0    0  0.78212535224E+00 -0.16147641960E+02  0.76721545975E+02  0.12011120786E+03  0.90989826774E+02 0.  0.
          5    1    3    3  502    0  0.57257272523E+01  0.44964188471E+02 -0.91014037175E+01  0.46420578918E+02  0.41800000000E+01 0. -1.
         -5    1    3    3    0  502 -0.65078526045E+01 -0.28816546511E+02  0.11336574767E+03  0.11722632231E+03  0.41800000000E+01 0. -1.
        -11    1    4    4    0    0 -0.12670553771E+02 -0.17182324293E+02  0.95012956177E+02  0.97381913323E+02  0.00000000000E+00 0.  1.
         11    1    4    4    0    0  0.13452679123E+02  0.10346823331E+01 -0.18291410201E+02  0.22729294540E+02  0.00000000000E+00 0. -1.
</event>
<event>
 8    1  0.3541538E-009  0.8776039E+02  0.7561462E-02  0.1308368E+00
          2   -1    0    0  501    0  0.00000000000E+00  0.00000000000E+00  0.34188326401E+02  0.34188326401E+02  0.00000000000E+00 0.  1.
         -2   -1    0    0    0  501 -0.00000000000E+00 -0.00000000000E+00 -0.50414182302E+03  0.50414182302E+03  0.00000000000E+00 0. -1.
         25    2    1    2    0    0 -0.41738365622E+02 -0.60415026744E+02 -0.24103533339E+03  0.28131211952E+03  0.12508561077E+03 0.  0.
         23    2    1    2    0    0  0.41738365622E+02  0.60415026744E+02 -0.22891816323E+03  0.25701802991E+03  0.90899260828E+02 0.  0.
          5    1    3    3  502    0 -0.25993676037E+02 -0.47068142755E+02 -0.17372507710E+02  0.56660018359E+02  0.41800000000E+01 0. -1.
         -5    1    3    3    0  502 -0.15744689585E+02 -0.13346883989E+02 -0.22366282568E+03  0.22465210116E+03  0.41800000000E+01 0. -1.
        -11    1    4    4    0    0 -0.16841923007E+02  0.30291034199E+02 -0.15128591934E+03  0.15520511111E+03  0.00000000000E+00 0. -1.
         11    1    4    4    0    0  0.58580288629E+02  0.30123992546E+02 -0.77632243886E+02  0.10181291880E+03  0.00000000000E+00 0.  1.
</event>
<event>
 8    1  0.3541538E-009  0.1023369E+03  0.7561462E-02  0.1275457E+00
         -2   -1    0    0    0  501 -0.00000000000E+00  0.00000000000E+00  0.27205893389E+03  0.27205893389E+03  0.00000000000E+00 0.  1.
          2   -1    0    0  501    0  0.00000000000E+00 -0.00000000000E+00 -0.28246471780E+03  0.28246471780E+03  0.00000000000E+00 0. -1.
         25    2    1    2    0    0 -0.11481748205E+02  0.41691312888E+01 -0.26008386669E+03  0.28886051203E+03  0.12509022943E+03 0.  0.
         23    2    1    2    0    0  0.11481748205E+02 -0.41691312888E+01  0.24967808279E+03  0.26566313966E+03  0.89936347240E+02 0.  0.
          5    1    3    3  502    0 -0.53820854113E+02  0.42262698979E+02 -0.14443563547E+03  0.15988103470E+03  0.41800000000E+01 0. -1.
         -5    1    3    3    0  502  0.42339105908E+02 -0.38093567690E+02 -0.11564823122E+03  0.12897947733E+03  0.41800000000E+01 0. -1.
        -11    1    4    4    0    0  0.42406112034E+02 -0.16788102389E+02  0.20423833768E+03  0.20926876809E+03  0.00000000000E+00 0.  1.
         11    1    4    4    0    0 -0.30924363829E+02  0.12618971100E+02  0.45439745102E+02  0.56394371570E+02  0.00000000000E+00 0. -1.
</event>
<event>
 8    1  0.3541538E-009  0.2637946E+03  0.7561462E-02  0.1104885E+00
          2   -1    0    0  501    0  0.00000000000E+00  0.00000000000E+00  0.12519677964E+04  0.12519677964E+04  0.00000000000E+00 0.  1.
         -2   -1    0    0    0  501 -0.00000000000E+00 -0.00000000000E+00 -0.57622137434E+02  0.57622137434E+02  0.00000000000E+00 0. -1.
         25    2    1    2    0    0 -0.19140803061E+03  0.15195622427E+03  0.55888101865E+03  0.62267702132E+03  0.12510376335E+03 0.  0.
         23    2    1    2    0    0  0.19140803061E+03 -0.15195622427E+03  0.63546464031E+03  0.68691291250E+03  0.91138970833E+02 0.  0.
          5    1    3    3  502    0 -0.20837683645E+03  0.14942816007E+03  0.53081545079E+03  0.58951861395E+03  0.41800000000E+01 0.  1.
         -5    1    3    3    0  502  0.16968805848E+02  0.25280641961E+01  0.28065567857E+02  0.33158407374E+02  0.41800000000E+01 0.  1.
        -11    1    4    4    0    0  0.75618274477E+02 -0.20597531478E+02  0.12801667537E+03  0.15010213493E+03  0.00000000000E+00 0. -1.
         11    1    4    4    0    0  0.11578975613E+03 -0.13135869279E+03  0.50744796494E+03  0.53681077757E+03  0.00000000000E+00 0.  1.
</event>
<event>
 8    1  0.3541538E-009  0.1125446E+03  0.7561462E-02  0.1255929E+00
          2   -1    0    0  501    0  0.00000000000E+00  0.00000000000E+00  0.15613550975E+03  0.15613550975E+03  0.00000000000E+00 0. -1.
         -2   -1    0    0    0  501 -0.00000000000E+00 -0.00000000000E+00 -0.16136524691E+03  0.16136524691E+03  0.00000000000E+00 0.  1.
         25    2    1    2    0    0 -0.57380659808E+01  0.48433284435E+02 -0.10699454732E+03  0.17167748060E+03  0.12508643311E+03 0.  0.
         23    2    1    2    0    0  0.57380659808E+01 -0.48433284435E+02  0.10176481016E+03  0.14582327606E+03  0.92356065369E+02 0.  0.
          5    1    3    3  502    0  0.35537304592E+02 -0.27584217472E+02 -0.52908243762E+02  0.69574016192E+02  0.41800000000E+01 0.  1.
         -5    1    3    3    0  502 -0.41275370573E+02  0.76017501906E+02 -0.54086303562E+02  0.10210346441E+03  0.41800000000E+01 0.  1.
        -11    1    4    4    0    0  0.30087544026E+02 -0.59413053143E+02  0.37966523356E+02  0.76659168303E+02  0.00000000000E+00 0.  1.
         11    1    4    4    0    0 -0.24349478045E+02  0.10979768708E+02  0.63798286808E+02  0.69164107756E+02  0.00000000000E+00 0. -1.
</event>
<event>
 8    1  0.3541538E-009  0.1115450E+03  0.7561462E-02  0.1257735E+00
         -2   -1    0    0    0  501 -0.00000000000E+00  0.00000000000E+00  0.10611095996E+04  0.10611095996E+04  0.00000000000E+00 0. -1.
          2   -1    0    0  501    0  0.00000000000E+00 -0.00000000000E+00 -0.18855940256E+02  0.18855940256E+02  0.00000000000E+00 0.  1.
         25    2    1    2    0    0  0.26987915569E+02  0.41090664562E+02  0.86104905117E+03  0.87147574953E+03  0.12509085978E+03 0.  0.
         23    2    1    2    0    0 -0.26987915569E+02 -0.41090664562E+02  0.18120460816E+03  0.20848979031E+03  0.90642662937E+02 0.  0.
          5    1    3    3  502    0 -0.18479041902E+02 -0.35538352567E+02  0.17063171284E+03  0.17532000262E+03  0.41800000000E+01 0. -1.
         -5    1    3    3    0  502  0.45466957471E+02  0.76629017129E+02  0.69041733833E+03  0.69615574691E+03  0.41800000000E+01 0. -1.
        -11    1    4    4    0    0 -0.54350329804E+02 -0.37471691103E+02  0.16180344783E+03  0.17475251561E+03  0.00000000000E+00 0.  1.
         11    1    4    4    0    0  0.27362414235E+02 -0.36189734583E+01  0.19401160326E+02  0.33737274693E+02  0.00000000000E+00 0. -1.
</event>
<event>
 8    1  0.3541538E-009  0.1070622E+03  0.7561462E-02  0.1266109E+00
         -2   -1    0    0    0  501 -0.00000000000E+00  0.00000000000E+00  0.14330286262E+02  0.14330286262E+02  0.00000000000E+00 0.  1.
          2   -1    0    0  501    0  0.00000000000E+00 -0.00000000000E+00 -0.11869634875E+04  0.11869634875E+04  0.00000000000E+00 0. -1.
         25    2    1    2    0    0  0.45084521422E+02  0.41986971455E+02 -0.73779067667E+03  0.75085207355E+03  0.12509290116E+03 0.  0.
         23    2    1    2    0    0 -0.45084521422E+02 -0.41986971455E+02 -0.43484252455E+03  0.45044170020E+03  0.10007089625E+03 0.  0.
          5    1    3    3  502    0  0.61896253108E+02  0.48415248469E+01 -0.65997732141E+03  0.66290430960E+03  0.41800000000E+01 0. -1.
         -5    1    3    3    0  502 -0.16811731686E+02  0.37145446608E+02 -0.77813355267E+02  0.87947763950E+02  0.41800000000E+01 0. -1.
        -11    1    4    4    0    0  0.64514828528E+01 -0.56897814492E+02 -0.29812430769E+03  0.30357385553E+03  0.00000000000E+00 0. -1.
         11    1    4    4    0    0 -0.51536004274E+02  0.14910843038E+02 -0.13671821686E+03  0.14686784467E+03  0.00000000000E+00 0.  1.
</event>
<event>
 8    1  0.3541538E-009  0.1163460E+03  0.7561462E-02  0.1249250E+00
         -1   -1    0    0    0  501 -0.00000000000E+00  0.00000000000E+00  0.93391705068E+02  0.93391705068E+02  0.00000000000E+00 0.  1.
          1   -1    0    0  501    0  0.00000000000E+00 -0.00000000000E+00 -0.20316096495E+03  0.20316096495E+03  0.00000000000E+00 0. -1.
         25    2    1    2    0    0 -0.14407417299E+02  0.57361536526E+02 -0.12324192992E+03  0.18529544875E+03  0.12509160839E+03 0.  0.
         23    2    1    2    0    0  0.14407417299E+02 -0.57361536526E+02  0.13472670045E+02  0.11125722126E+03  0.93267019354E+02 0.  0.
          5    1    3    3  502    0  0.41969964110E+02  0.51896809324E+02 -0.10707621064E+03  0.12624398596E+03  0.41800000000E+01 0. -1.
         -5    1    3    3    0  502 -0.56377381409E+02  0.54647272026E+01 -0.16165719281E+02  0.59051462792E+02  0.41800000000E+01 0. -1.
        -11    1    4    4    0    0 -0.19500022089E+02  0.17902911921E+02 -0.42920951994E+01  0.26817665780E+02  0.00000000000E+00 0. -1.
         11    1    4    4    0    0  0.33907439388E+02 -0.75264448447E+02  0.17764765245E+02  0.84439555483E+02  0.00000000000E+00 0.  1.
</event>
<event>
 8    1  0.3541538E-009  0.1096496E+03  0.7561462E-02  0.1261220E+00
         -1   -1    0    0    0  501 -0.00000000000E+00  0.00000000000E+00  0.12753446532E+03  0.12753446532E+03  0.00000000000E+00 0.  1.
          1   -1    0    0  501    0  0.00000000000E+00 -0.00000000000E+00 -0.18982039810E+03  0.18982039810E+03  0.00000000000E+00 0. -1.
         25    2    1    2    0    0  0.38134869407E+02  0.57002749606E+02  0.56458201748E+02  0.15342436538E+03  0.12509166887E+03 0.  0.
         23    2    1    2    0    0 -0.38134869407E+02 -0.57002749606E+02 -0.11874413453E+03  0.16393049804E+03  0.89830156269E+02 0.  0.
          5    1    3    3  502    0  0.69353542504E+02  0.15791892767E+02  0.69929471437E+02  0.99834368384E+02  0.41800000000E+01 0.  1.
         -5    1    3    3    0  502 -0.31218673098E+02  0.41210856839E+02 -0.13471269689E+02  0.53589997000E+02  0.41800000000E+01 0.  1.
        -11    1    4    4    0    0 -0.57615626687E+02 -0.38380697436E+02 -0.38353894088E+02  0.79143285033E+02  0.00000000000E+00 0.  1.
         11    1    4    4    0    0  0.19480757280E+02 -0.18622052171E+02 -0.80390240441E+02  0.84787213007E+02  0.00000000000E+00 0. -1.
</event>
<event>
 8    1  0.3541538E-009  0.1113891E+03  0.7561462E-02  0.1258019E+00
         -2   -1    0    0    0  501 -0.00000000000E+00  0.00000000000E+00  0.31921342003E+02  0.31921342003E+02  0.00000000000E+00 0.  1.
          2   -1    0    0  501    0  0.00000000000E+00 -0.00000000000E+00 -0.60921369695E+03  0.60921369695E+03  0.00000000000E+00 0. -1.
         25    2    1    2    0    0 -0.50962533583E+02  0.45902483945E+02 -0.44709750571E+03  0.46930552895E+03  0.12508909633E+03 0.  0.
         23    2    1    2    0    0  0.50962533583E+02 -0.45902483945E+02 -0.13019484923E+03  0.17182951000E+03  0.88715634927E+02 0.  0.
          5    1    3    3  502    0 -0.67547543822E+02  0.44672879382E+01 -0.10991610157E+03  0.12915745864E+03  0.41800000000E+01 0. -1.
         -5    1    3    3    0  502  0.16585010238E+02  0.41435196007E+02 -0.33718140414E+03  0.34014807030E+03  0.41800000000E+01 0. -1.
        -11    1    4    4    0    0  0.41643027600E+02 -0.71579517165E+02 -0.82667208033E+02  0.11701126574E+03  0.00000000000E+00 0.  1.
         11    1    4    4    0    0  0.93195059830E+01  0.25677033220E+02 -0.47527641198E+02  0.54818244268E+02  0.00000000000E+00 0. -1.
</event>
<event>
 8    1  0.3541538E-009  0.2115786E+03  0.7561462E-02  0.1140322E+00
          2   -1    0    0  501    0  0.00000000000E+00  0.00000000000E+00  0.76634836099E+03  0.76634836099E+03  0.00000000000E+00 0. -1.
         -2   -1    0    0    0  501 -0.00000000000E+00 -0.00000000000E+00 -0.76007340734E+02  0.76007340734E+02  0.00000000000E+00 0.  1.
         25    2    1    2    0    0  0.41759829872E+02 -0.18136973162E+03  0.53917978043E+03  0.58395521043E+03  0.12509991697E+03 0.  0.
         23    2    1    2    0    0 -0.41759829872E+02  0.18136973162E+03  0.15116123983E+03  0.25840049130E+03  0.96344333179E+02 0.  0.
          5    1    3    3  502    0 -0.37251743310E+02 -0.11352336754E+03  0.30685965298E+03  0.32932592728E+03  0.41800000000E+01 0. -1.
         -5    1    3    3    0  502  0.79011573181E+02 -0.67846364084E+02  0.23232012745E+03  0.25462928315E+03  0.41800000000E+01 0. -1.
        -11    1    4    4    0    0  0.48566648779E+00  0.14081701348E+03  0.14041758878E+03  0.19886368798E+03  0.00000000000E+00 0. -1.
         11    1    4    4    0    0 -0.42245496359E+02  0.40552718143E+02  0.10743651048E+02  0.59536803317E+02  0.00000000000E+00 0.  1.
</event>
<event>
 8    1  0.3541538E-009  0.1188170E+03  0.7561462E-02  0.1245062E+00
          2   -1    0    0  501    0  0.00000000000E+00  0.00000000000E+00  0.41511371220E+03  0.41511371220E+03  0.00000000000E+00 0. -1.
         -2   -1    0    0    0  501 -0.00000000000E+00 -0.00000000000E+00 -0.45324805557E+02  0.45324805557E+02  0.00000000000E+00 0.  1.
         25    2    1    2    0    0 -0.34444486356E+02 -0.42193662901E+02  0.94204088988E+02  0.16579459410E+03  0.12508680674E+03 0.  0.
         23    2    1    2    0    0  0.34444486356E+02  0.42193662901E+02  0.27558481766E+03  0.29464392366E+03  0.88889381809E+02 0.  0.
          5    1    3    3  502    0  0.46523618349E+02 -0.53381600864E+01  0.26928551536E+02  0.54180829684E+02  0.41800000000E+01 0.  1.
         -5    1    3    3    0  502 -0.80968104705E+02 -0.36855502814E+02  0.67275537452E+02  0.11161376441E+03  0.41800000000E+01 0.  1.
        -11    1    4    4    0    0 -0.25395753451E+02  0.32006814372E+02  0.79594369431E+02  0.89468676667E+02  0.00000000000E+00 0.  1.
         11    1    4    4    0    0  0.59840239807E+02  0.10186848529E+02  0.19599044823E+03  0.20517524700E+03  0.00000000000E+00 0. -1.
</event>
<event>
 8    1  0.3541538E-009  0.2428040E+03  0.7561462E-02  0.1117939E+00
         -1   -1    0    0    0  501 -0.00000000000E+00  0.00000000000E+00  0.96863942897E+03  0.96863942897E+03  0.00000000000E+00 0.  1.
          1   -1    0    0  501    0  0.00000000000E+00 -0.00000000000E+00 -0.66309226436E+02  0.66309226436E+02  0.00000000000E+00 0. -1.
         25    2    1    2    0    0 -0.94237316159E+02 -0.19784750199E+03  0.32951590971E+03  0.41503343406E+03  0.12509081036E+03 0.  0.
         23    2    1    2    0    0  0.94237316159E+02  0.19784750199E+03  0.57281429283E+03  0.61991522135E+03  0.90301504920E+02 0.  0.
          5    1    3    3  502    0  0.20229664058E+02 -0.87965916296E+02  0.15263848975E+03  0.17737875490E+03  0.41800000000E+01 0.  1.
         -5    1    3    3    0  502 -0.11446698022E+03 -0.10988158569E+03  0.17687741996E+03  0.23765467916E+03  0.41800000000E+01 0.  1.
        -11    1    4    4    0    0  0.33286791881E+02  0.16289534274E+03  0.38381033507E+03  0.41827416428E+03  0.00000000000E+00 0. -1.
         11    1    4    4    0    0  0.60950524279E+02  0.34952159247E+02  0.18900395776E+03  0.20164105707E+03  0.00000000000E+00 0.  1.
</event>
<event>
 8    1  0.3541538E-009  0.1282010E+03  0.7561462E-02  0.1230150E+00
          1   -1    0    0  501    0  0.00000000000E+00  0.00000000000E+00  0.23616968132E+03  0.23616968132E+03  0.00000000000E+00 0. -1.
         -1   -1    0    0    0  501 -0.00000000000E+00 -0.00000000000E+00 -0.13048450591E+03  0.13048450591E+03  0.00000000000E+00 0.  1.
         25    2    1    2    0    0 -0.70325353999E+02  0.86788750432E+02 -0.26130937529E+02  0.16973832030E+03  0.12510127444E+03 0.  0.
         23    2    1    2    0    0  0.70325353999E+02 -0.86788750432E+02  0.13181611294E+03  0.19691586692E+03  0.94458606796E+02 0.  0.
          5    1    3    3  502    0 -0.70129513005E+02  0.67776098915E+02 -0.71080203513E+02  0.12075436187E+03  0.41800000000E+01 0. -1.
         -5    1    3    3    0  502 -0.19584099343E+00  0.19012651518E+02  0.44949265985E+02  0.48983958435E+02  0.41800000000E+01 0. -1.
        -11    1    4    4    0    0 -0.66984514178E+01 -0.55948277487E+02  0.84018123780E+02  0.10116384793E+03  0.00000000000E+00 0.  1.
         11    1    4    4    0    0  0.77023805417E+02 -0.30840472945E+02  0.47797989159E+02  0.95752018986E+02  0.00000000000E+00 0. -1.
</event>
<event>
 8    1  0.3541538E-009  0.9149164E+02  0.7561462E-02  0.1299279E+00
          2   -1    0    0  501    0  0.00000000000E+00  0.00000000000E+00  0.81405503861E+02  0.81405503861E+02  0.00000000000E+00 0. -1.
         -2   -1    0    0    0  501 -0.00000000000E+00 -0.00000000000E+00 -0.24336856276E+03  0.24336856276E+03  0.00000000000E+00 0.  1.
         25    2    1    2    0    0 -0.52350889062E+02  0.71595695211E+02 -0.99068787547E+02  0.18256041373E+03  0.12508845205E+03 0.  0.
         23    2    1    2    0    0  0.52350889062E+02 -0.71595695211E+02 -0.62894271356E+02  0.14221365290E+03  0.91665012645E+02 0.  0.
          5    1    3    3  502    0 -0.10225748875E+02  0.29192127428E+02 -0.11613820689E+03  0.12025931042E+03  0.41800000000E+01 0.  1.
         -5    1    3    3    0  502 -0.42125140187E+02  0.42403567783E+02  0.17069419340E+02  0.62301103306E+02  0.41800000000E+01 0.  1.
        -11    1    4    4    0    0  0.26775977782E+02 -0.17417564394E+02  0.21654066474E+02  0.38590453877E+02  0.00000000000E+00 0. -1.
         11    1    4    4    0    0  0.25574911281E+02 -0.54178130816E+02 -0.84548337830E+02  0.10362319902E+03  0.00000000000E+00 0.  1.
</event>
<event>
 8    1  0.3541538E-009  0.1217864E+03  0.7561462E-02  0.1240179E+00
          2   -1    0    0  501    0  0.00000000000E+00  0.00000000000E+00  0.12108447196E+04  0.12108447196E+04  0.00000000000E+00 0.  1.
         -2   -1    0    0    0  501 -0.00000000000E+00 -0.00000000000E+00 -0.20716408936E+02  0.20716408936E+02  0.00000000000E+00 0. -1.
         25    2    1    2    0    0 -0.66362476748E+02 -0.72523742546E+01  0.99989474535E+03  0.10098979357E+04  0.12509102105E+03 0.  0.
         23    2    1    2    0    0  0.66362476748E+02  0.72523742546E+01  0.19023356529E+03  0.22166319279E+03  0.92136781048E+02 0.  0.
          5    1    3    3  502    0 -0.48577935174E+01 -0.56322102788E+02  0.57263816168E+03  0.57543697659E+03  0.41800000000E+01 0. -1.
         -5    1    3    3    0  502 -0.61504683231E+02  0.49069728534E+02  0.42725658367E+03  0.43446095913E+03  0.41800000000E+01 0. -1.
        -11    1    4    4    0    0 -0.19424740084E+02 -0.79192891735E+01  0.70733445522E+02  0.73778424921E+02  0.00000000000E+00 0.  1.
         11    1    4    4    0    0  0.85787216832E+02  0.15171663428E+02  0.11950011977E+03  0.14788476787E+03  0.00000000000E+00 0. -1.
</event>
<event>
 8    1  0.3541538E-009  0.1325229E+03  0.7561462E-02  0.1223759E+00
         -1   -1    0    0    0  501 -0.00000000000E+00  0.00000000000E+00  0.67993332846E+03  0.67993332846E+03  0.00000000000E+00 0.  1.
          1   -1    0    0  501    0  0.00000000000E+00 -0.00000000000E+00 -0.63044022958E+02  0.63044022958E+02  0.00000000000E+00 0. -1.
         25    2    1    2    0    0  0.11455784463E+03  0.62354210354E+02  0.10891595174E+03  0.21100273316E+03  0.12509165257E+03 0.  0.
         23    2    1    2    0    0 -0.11455784463E+03 -0.62354210354E+02  0.50797335376E+03  0.53197461826E+03  0.89154467232E+02 0.  0.
          5    1    3    3  502    0  0.45456216068E+02  0.21344566306E+02 -0.23855178072E+02  0.55753026921E+02  0.41800000000E+01 0. -1.
         -5    1    3    3    0  502  0.69101628561E+02  0.41009644048E+02  0.13277112981E+03  0.15524970624E+03  0.41800000000E+01 0. -1.
        -11    1    4    4    0    0 -0.60969769690E+02 -0.50827719173E+02  0.42620527622E+03  0.43353397483E+03  0.00000000000E+00 0.  1.
         11    1    4    4    0    0 -0.53588074939E+02 -0.11526491181E+02  0.81768077538E+02  0.98440643429E+02  0.00000000000E+00 0. -1.
</event>
<event>
 8    1  0.3541538E-009  0.8062363E+02  0.7561462E-02  0.1327291E+00
         -2   -1    0    0    0  501 -0.00000000000E+00  0.00000000000E+00  0.24560405645E+02  0.24560405645E+02  0.00000000000E+00 0.  1.
          2   -1    0    0  501    0  0.00000000000E+00 -0.00000000000E+00 -0.54294525295E+03  0.54294525295E+03  0.00000000000E+00 0. -1.
         25    2    1    2    0    0  0.89931302657E+01 -0.35341355348E+02 -0.21145214392E+03  0.24837407954E+03  0.12509111251E+03 0.  0.
         23    2    1    2    0    0 -0.89931302657E+01  0.35341355348E+02 -0.30693270339E+03  0.31913157906E+03  0.79419094390E+02 0.  0.
          5    1    3    3  502    0  0.31759636482E+02 -0.40982246593E+02 -0.20449996278E+02  0.55891804346E+02  0.41800000000E+01 0. -1.
         -5    1    3    3    0  502 -0.22766506216E+02  0.56408912453E+01 -0.19100214764E+03  0.19248227519E+03  0.41800000000E+01 0. -1.
        -11    1    4    4    0    0  0.21460808213E+02  0.47882105284E+02 -0.21995498362E+03  0.22612708178E+03  0.00000000000E+00 0. -1.
         11    1    4    4    0    0 -0.30453938479E+02 -0.12540749936E+02 -0.86977719764E+02  0.93004497273E+02  0.00000000000E+00 0.  1.
</event>
<event>
 8    1  0.3541538E-009  0.1273683E+03  0.7561462E-02  0.1231414E+00
          2   -1    0    0  501    0  0.00000000000E+00  0.00000000000E+00  0.69755810473E+03  0.69755810473E+03  0.00000000000E+00 0. -1.
         -2   -1    0    0    0  501 -0.00000000000E+00 -0.00000000000E+00 -0.29153188364E+02  0.29153188364E+02  0.00000000000E+00 0.  1.
         25    2    1    2    0    0 -0.65535874374E+01  0.71852500334E+02  0.51083801591E+03  0.53085896675E+03  0.12510009102E+03 0.  0.
         23    2    1    2    0    0  0.65535874374E+01 -0.71852500334E+02  0.15756690046E+03  0.19585232634E+03  0.91241845118E+02 0.  0.
          5    1    3    3  502    0 -0.23248976574E+02  0.10254774333E+03  0.32168191233E+03  0.33845720511E+03  0.41800000000E+01 0. -1.
         -5    1    3    3    0  502  0.16695389136E+02 -0.30695242997E+02  0.18915610358E+03  0.19240176164E+03  0.41800000000E+01 0. -1.
        -11    1    4    4    0    0 -0.26640228649E+02  0.80165914797E+01  0.55381439648E+02  0.61976377588E+02  0.00000000000E+00 0. -1.
         11    1    4    4    0    0  0.33193816086E+02 -0.79869091814E+02  0.10218546081E+03  0.13387594875E+03  0.00000000000E+00 0.  1.
</event>
<event>
 8    1  0.3541538E-009  0.1093609E+03  0.7561462E-02  0.1261758E+00
         -3   -1    0    0    0  501 -0.00000000000E+00  0.00000000000E+00  0.10170296034E+03  0.10170296034E+03  0.00000000000E+00 0.  1.
          3   -1    0    0  501    0  0.00000000000E+00 -0.00000000000E+00 -0.12336189145E+03  0.12336189145E+03  0.00000000000E+00 0. -1.
         25    2    1    2    0    0  0.11650446712E+02  0.24218701205E+02  0.59422450074E-01  0.12794431405E+03  0.12508983000E+03 0.  0.
         23    2    1    2    0    0 -0.11650446712E+02 -0.24218701205E+02 -0.21718353563E+02  0.97120537738E+02  0.90765817202E+02 0.  0.
          5    1    3    3  502    0  0.66090870952E+02 -0.37360588623E+01  0.42213866361E+01  0.66462424453E+02  0.41800000000E+01 0. -1.
         -5    1    3    3    0  502 -0.54440424240E+02  0.27954760067E+02 -0.41619641860E+01  0.61481889592E+02  0.41800000000E+01 0. -1.
        -11    1    4    4    0    0 -0.49705792333E+02 -0.14451537833E+02  0.92791492270E+00  0.51772326230E+02  0.00000000000E+00 0.  1.
         11    1    4    4    0    0  0.38055345621E+02 -0.97671633722E+01 -0.22646268486E+02  0.45348211508E+02  0.00000000000E+00 0. -1.
</event>
<event>
 8    1  0.3541538E-009  0.1357931E+03  0.7561462E-02  0.1219104E+00
         -2   -1    0    0    0  501 -0.00000000000E+00  0.00000000000E+00  0.56304867357E+02  0.56304867357E+02  0.00000000000E+00 0.  1.
          2   -1    0    0  501    0  0.00000000000E+00 -0.00000000000E+00 -0.44378467929E+03  0.44378467929E+03  0.00000000000E+00 0. -1.
         25    2    1    2    0    0 -0.86695317610E+02 -0.63823811196E+01 -0.93966456891E+02  0.17898011646E+03  0.12508946471E+03 0.  0.
         23    2    1    2    0    0  0.86695317610E+02  0.63823811196E+01 -0.29351335504E+03  0.32110943019E+03  0.96976098518E+02 0.  0.
          5    1    3    3  502    0 -0.19921937781E+02 -0.57065416252E+02 -0.68100347869E+02  0.91150837171E+02  0.41800000000E+01 0.  1.
         -5    1    3    3    0  502 -0.66773379828E+02  0.50683035133E+02 -0.25866109021E+02  0.87829279286E+02  0.41800000000E+01 0.  1.
        -11    1    4    4    0    0  0.48329326905E+02 -0.42890490465E+02 -0.11393596204E+03  0.13098366867E+03  0.00000000000E+00 0.  1.
         11    1    4    4    0    0  0.38365990705E+02  0.49272871585E+02 -0.17957739300E+03  0.19012576152E+03  0.00000000000E+00 0. -1.
</event>
<event>
 8    1  0.3541538E-009  0.1045400E+03  0.7561462E-02  0.1271029E+00
         -1   -1    0    0    0  501 -0.00000000000E+00  0.00000000000E+00  0.10100271446E+03  0.10100271446E+03  0.00000000000E+00 0.  1.
          1   -1    0    0  501    0  0.00000000000E+00 -0.00000000000E+00 -0.12583575363E+03  0.12583575363E+03  0.00000000000E+00 0. -1.
         25    2    1    2    0    0 -0.76475596081E+01 -0.27966267203E+02 -0.10087963078E+02  0.12880698553E+03  0.12509546456E+03 0.  0.
         23    2    1    2    0    0  0.76475596081E+01  0.27966267203E+02 -0.14745076090E+02  0.98031482564E+02  0.92477873222E+02 0.  0.
          5    1    3    3  502    0  0.88069235219E+01 -0.76007718546E+02  0.11086052519E+01  0.76638349318E+02  0.41800000000E+01 0. -1.
         -5    1    3    3    0  502 -0.16454483130E+02  0.48041451343E+02 -0.11196568330E+02  0.52168636216E+02  0.41800000000E+01 0. -1.
        -11    1    4    4    0    0 -0.12939714207E+02  0.49820076664E+02 -0.34613686033E+02  0.62028892488E+02  0.00000000000E+00 0.  1.
         11    1    4    4    0    0  0.20587273815E+02 -0.21853809461E+02  0.19868609944E+02  0.36002590076E+02  0.00000000000E+00 0. -1.
</event>
<event>
 8    1  0.3541538E-009  0.1362559E+03  0.7561462E-02  0.1218458E+00
          4   -1    0    0  501    0  0.00000000000E+00  0.00000000000E+00  0.12626385633E+03  0.12626385633E+03  0.00000000000E+00 0. -1.
         -4   -1    0    0    0  501 -0.00000000000E+00 -0.00000000000E+00 -0.18564125905E+03  0.18564125905E+03  0.00000000000E+00 0.  1.
         25    2    1    2    0    0 -0.40767757888E+02 -0.98737024111E+02 -0.48338972033E+02  0.17145101027E+03  0.12509109757E+03 0.  0.
         23    2    1    2    0    0  0.40767757888E+02  0.98737024111E+02 -0.11038430686E+02  0.14045410512E+03  0.90523470322E+02 0.  0.
          5    1    3    3  502    0  0.26499825765E+01 -0.11695621696E+03 -0.37879773521E+02  0.12303710309E+03  0.41800000000E+01 0. -1.
         -5    1    3    3    0  502 -0.43417740464E+02  0.18219192851E+02 -0.10459198512E+02  0.48413907182E+02  0.41800000000E+01 0. -1.
        -11    1    4    4    0    0  0.34189912234E+02  0.61481230916E+02  0.36857563592E+02  0.79418964029E+02  0.00000000000E+00 0. -1.
         11    1    4    4    0    0  0.65778456540E+01  0.37255793195E+02 -0.47895994277E+02  0.61035141090E+02  0.00000000000E+00 0.  1.
</event>
<event>
 8    1  0.3541538E-009  0.1055218E+03  0.7561462E-02  0.1269095E+00
          2   -1    0    0  501    0  0.00000000000E+00  0.00000000000E+00  0.97287495223E+03  0.97287495223E+03  0.00000000000E+00 0. -1.
         -2   -1    0    0    0  501 -0.00000000000E+00 -0.00000000000E+00 -0.29020389563E+02  0.29020389563E+02  0.00000000000E+00 0.  1.
         25    2    1    2    0    0 -0.85963734939E+02 -0.26634568018E+01  0.78057186415E+03  0.79519585474E+03  0.12508858688E+03 0.  0.
         23    2    1    2    0    0  0.85963734939E+02  0.26634568018E+01  0.16328269852E+03  0.20669948705E+03  0.93094471297E+02 0.  0.
          5    1    3    3  502    0 -0.88895831197E+01  0.23588957273E+02  0.55072482308E+03  0.55131730134E+03  0.41800000000E+01 0. -1.
         -5    1    3    3    0  502 -0.77074151819E+02 -0.26252414075E+02  0.22984704107E+03  0.24387855340E+03  0.41800000000E+01 0. -1.
        -11    1    4    4    0    0  0.31491370874E+02  0.29576952943E+02  0.13091048774E+03  0.13785520805E+03  0.00000000000E+00 0. -1.
         11    1    4    4    0    0  0.54472364065E+02 -0.26913496141E+02  0.32372210776E+02  0.68844279006E+02  0.00000000000E+00 0.  1.
</event>
<event>
 8    1  0.3541538E-009  0.6289060E+02  0.7561462E-02  0.1386087E+00
          1   -1    0    0  501    0  0.00000000000E+00  0.00000000000E+00  0.10302231380E+04  0.10302231380E+04  0.00000000000E+00 0. -1.
         -1   -1    0    0    0  501 -0.00000000000E+00 -0.00000000000E+00 -0.16832314173E+02  0.16832314173E+02  0.00000000000E+00 0.  1.
         25    2    1    2    0    0 -0.42109357404E+02  0.44406420333E+01  0.80490738601E+03  0.81566948202E+03  0.12509151277E+03 0.  0.
         23    2    1    2    0    0  0.42109357404E+02 -0.44406420333E+01  0.20848343778E+03  0.23138597011E+03  0.91001132160E+02 0.  0.
          5    1    3    3  502    0 -0.17957094068E+02  0.73272509086E+00  0.11220442078E+02  0.21595481793E+02  0.41800000000E+01 0.  1.
         -5    1    3    3    0  502 -0.24152263336E+02  0.37079169425E+01  0.79368694393E+03  0.79407400022E+03  0.41800000000E+01 0.  1.
        -11    1    4    4    0    0 -0.13874250701E+02 -0.20084812130E+02  0.13442953268E+02  0.27867678471E+02  0.00000000000E+00 0.  1.
         11    1    4    4    0    0  0.55983608105E+02  0.15644170097E+02  0.19504048451E+03  0.20351829164E+03  0.00000000000E+00 0. -1.
</event>
<event>
 8    1  0.3541538E-009  0.1439296E+03  0.7561462E-02  0.1208137E+00
         -2   -1    0    0    0  501 -0.00000000000E+00  0.00000000000E+00  0.71146732337E+02  0.71146732337E+02  0.00000000000E+00 0.  1.
          2   -1    0    0  501    0  0.00000000000E+00 -0.00000000000E+00 -0.41104865682E+03  0.41104865682E+03  0.00000000000E+00 0. -1.
         25    2    1    2    0    0  0.11902976836E+03  0.46278283881E+02 -0.13376782828E+03  0.22327127983E+03  0.12508583932E+03 0.  0.
         23    2    1    2    0    0 -0.11902976836E+03 -0.46278283881E+02 -0.20613409620E+03  0.25892410933E+03  0.90778100111E+02 0.  0.
          5    1    3    3  502    0  0.12018144882E+03  0.61876161046E+02 -0.60357570195E+02  0.14809709189E+03  0.41800000000E+01 0.  1.
         -5    1    3    3    0  502 -0.11516804613E+01 -0.15597877165E+02 -0.73410258086E+02  0.75174187938E+02  0.41800000000E+01 0.  1.
        -11    1    4    4    0    0 -0.19500637393E+02  0.10185545167E+02 -0.10153529459E+03  0.10389146373E+03  0.00000000000E+00 0. -1.
         11    1    4    4    0    0 -0.99529130967E+02 -0.56463829048E+02 -0.10459880161E+03  0.15503264560E+03  0.00000000000E+00 0.  1.
</event>
<event>
 8    1  0.3541538E-009  0.1330111E+03  0.7561462E-02  0.1223055E+00
         -2   -1    0    0    0  501 -0.00000000000E+00  0.00000000000E+00  0.78662906853E+02  0.78662906853E+02  0.00000000000E+00 0.  1.
          2   -1    0    0  501    0  0.00000000000E+00 -0.00000000000E+00 -0.32228147289E+03  0.32228147289E+03  0.00000000000E+00 0. -1.
         25    2    1    2    0    0 -0.99413700222E+02 -0.25037449219E+02 -0.62161190822E+02  0.17326938869E+03  0.12509320428E+03 0.  0.
         23    2    1    2    0    0  0.99413700222E+02  0.25037449219E+02 -0.18145737522E+03  0.22767499105E+03  0.91646957810E+02 0.  0.
          5    1    3    3  502    0 -0.89788170259E+02  0.21962197112E+02  0.25993751747E+01  0.92566099473E+02  0.41800000000E+01 0. -1.
         -5    1    3    3    0  502 -0.96255299627E+01 -0.46999646330E+02 -0.64760565997E+02  0.80703289217E+02  0.41800000000E+01 0. -1.
        -11    1    4    4    0    0  0.78896066425E+02 -0.15035108175E+02 -0.15721667808E+03  0.17654384056E+03  0.00000000000E+00 0. -1.
         11    1    4    4    0    0  0.20517633797E+02  0.40072557394E+02 -0.24240697140E+02  0.51131150491E+02  0.00000000000E+00 0.  1.
</event>
<event>
 8    1  0.3541538E-009  0.1286583E+03  0.7561462E-02  0.1229460E+00
          2   -1    0    0  501    0  0.00000000000E+00  0.00000000000E+00  0.10084701839E+04  0.10084701839E+04  0.00000000000E+00 0.  1.
         -2   -1    0    0    0  501 -0.00000000000E+00 -0.00000000000E+00 -0.19813960072E+02  0.19813960072E+02  0.00000000000E+00 0. -1.
         25    2    1    2    0    0  0.36286516652E+02  0.68205414948E+02  0.65185666482E+03  0.66823068392E+03  0.12508575273E+03 0.  0.
         23    2    1    2    0    0 -0.36286516652E+02 -0.68205414948E+02  0.33679955896E+03  0.36005346001E+03  0.10117243315E+03 0.  0.
          5    1    3    3  502    0 -0.13658054893E+02 -0.31545770868E+02  0.18495526929E+03  0.18816907865E+03  0.41800000000E+01 0. -1.
         -5    1    3    3    0  502  0.49944571545E+02  0.99751185816E+02  0.46690139553E+03  0.48006160526E+03  0.41800000000E+01 0. -1.
        -11    1    4    4    0    0 -0.54144135173E+02 -0.16886581999E+02  0.25912746908E+03  0.26526173727E+03  0.00000000000E+00 0.  1.
         11    1    4    4    0    0  0.17857618521E+02 -0.51318832949E+02  0.77672089884E+02  0.94791722747E+02  0.00000000000E+00 0. -1.
</event>
<event>
 8    1  0.3541538E-009  0.7993573E+02  0.7561462E-02  0.1329234E+00
         -1   -1    0    0    0  501 -0.00000000000E+00  0.00000000000E+00  0.89358091774E+02  0.89358091774E+02  0.00000000000E+00 0.  1.
          1   -1    0    0  501    0  0.00000000000E+00 -0.00000000000E+00 -0.14616270275E+03  0.14616270275E+03  0.00000000000E+00 0. -1.
         25    2    1    2    0    0  0.22949793864E+02  0.24564273916E+02 -0.33190874206E+02  0.13371355813E+03  0.12509030701E+03 0.  0.
         23    2    1    2    0    0 -0.22949793864E+02 -0.24564273916E+02 -0.23613736767E+02  0.10180723639E+03  0.93150460145E+02 0.  0.
          5    1    3    3  502    0  0.26079734015E+02  0.38132990847E+02  0.38673272006E+02  0.60393475515E+02  0.41800000000E+01 0.  1.
         -5    1    3    3    0  502 -0.31299401507E+01 -0.13568716930E+02 -0.71864146211E+02  0.73320082618E+02  0.41800000000E+01 0.  1.
        -11    1    4    4    0    0 -0.38178425793E+02  0.25965173601E+02 -0.89138136932E+01  0.47023807914E+02  0.00000000000E+00 0. -1.
         11    1    4    4    0    0  0.15228631929E+02 -0.50529447518E+02 -0.14699923074E+02  0.54783428473E+02  0.00000000000E+00 0.  1.
</event>
<event>
 8    1  0.3541538E-009  0.8226261E+02  0.7561462E-02  0.1322750E+00
          1   -1    0    0  501    0  0.00000000000E+00  0.00000000000E+00  0.47506672612E+02  0.47506672612E+02  0.00000000000E+00 0.  1.
         -1   -1    0    0    0  501 -0.00000000000E+00 -0.00000000000E+00 -0.34953873670E+03  0.34953873670E+03  0.00000000000E+00 0. -1.
         25    2    1    2    0    0 -0.13526199669E+02 -0.64287244802E+01 -0.27100644302E+03  0.29885835054E+03  0.12509010733E+03 0.  0.
         23    2    1    2    0    0  0.13526199669E+02  0.64287244802E+01 -0.31025621064E+02  0.98187058772E+02  0.91944672342E+02 0.  0.
          5    1    3    3  502    0 -0.49436356573E+02  0.44662897251E+01 -0.37583147031E+02  0.62400852846E+02  0.41800000000E+01 0. -1.
         -5    1    3    3    0  502  0.35910156904E+02 -0.10895014205E+02 -0.23342329599E+03  0.23645749769E+03  0.41800000000E+01 0. -1.
        -11    1    4    4    0    0  0.26893150012E+02  0.35745830111E+02 -0.44651141674E+02  0.63203879158E+02  0.00000000000E+00 0. -1.
         11    1    4    4    0    0 -0.13366950343E+02 -0.29317105630E+02  0.13625520610E+02  0.34983179614E+02  0.00000000000E+00 0.  1.
</event>
<event>
 8    1  0.3541538E-009  0.1245168E+03  0.7561462E-02  0.1235826E+00
          1   -1    0    0  501    0  0.00000000000E+00  0.00000000000E+00  0.86175875015E+03  0.86175875015E+03  0.00000000000E+00 0. -1.
         -1   -1    0    0    0  501 -0.00000000000E+00 -0.00000000000E+00 -0.21657341645E+02  0.21657341645E+02  0.00000000000E+00 0.  1.
         25    2    1    2    0    0  0.52559689994E+02 -0.52369508491E+02  0.57262354987E+03  0.59080374816E+03  0.12508498124E+03 0.  0.
         23    2    1    2    0    0 -0.52559689994E+02  0.52369508491E+02  0.26747785863E+03  0.29261234364E+03  0.92587754918E+02 0.  0.
          5    1    3    3  502    0  0.80898471093E+02 -0.11335014565E+02  0.46467720428E+03  0.47182138756E+03  0.41800000000E+01 0. -1.
         -5    1    3    3    0  502 -0.28338781099E+02 -0.41034493927E+02  0.10794634559E+03  0.11898236059E+03  0.41800000000E+01 0. -1.
        -11    1    4    4    0    0  0.99898907768E+01  0.53709087900E+02  0.10211616567E+03  0.11581094651E+03  0.00000000000E+00 0.  1.
         11    1    4    4    0    0 -0.62549580771E+02 -0.13395794088E+01  0.16536169296E+03  0.17680139713E+03  0.00000000000E+00 0. -1.
</event>
<event>
 8    1  0.3541538E-009  0.1149601E+03  0.7561462E-02  0.1251651E+00
          3   -1    0    0  501    0  0.00000000000E+00  0.00000000000E+00  0.39071921315E+03  0.39071921315E+03  0.00000000000E+00 0. -1.
         -3   -1    0    0    0  501 -0.00000000000E+00 -0.00000000000E+00 -0.39413943571E+02  0.39413943571E+02  0.00000000000E+00 0.  1.
         25    2    1    2    0    0  0.52078489484E+02 -0.68702601676E+01  0.25197723458E+03  0.28617990160E+03  0.12508812810E+03 0.  0.
         23    2    1    2    0    0 -0.52078489484E+02  0.68702601676E+01  0.99328034999E+02  0.14395325512E+03  0.89983951796E+02 0.  0.
          5    1    3    3  502    0  0.49525275707E+01 -0.58576586821E+02  0.72037125622E+02  0.93072895737E+02  0.41800000000E+01 0. -1.
         -5    1    3    3    0  502  0.47125961913E+02  0.51706326654E+02  0.17994010896E+03  0.19310700587E+03  0.41800000000E+01 0. -1.
        -11    1    4    4    0    0  0.26814930921E+01  0.37877342282E+02  0.20714419815E+02  0.43254718261E+02  0.00000000000E+00 0.  1.
         11    1    4    4    0    0 -0.54759982576E+02 -0.31007082114E+02  0.78613615184E+02  0.10069853686E+03  0.00000000000E+00 0. -1.
</event>
<event>
 8    1  0.3541538E-009  0.1299729E+03  0.7561462E-02  0.1227496E+00
          2   -1    0    0  501    0  0.00000000000E+00  0.00000000000E+00  0.60132061091E+02  0.60132061091E+02  0.00000000000E+00 0. -1.
         -2   -1    0    0    0  501 -0.00000000000E+00 -0.00000000000E+00 -0.43464512751E+03  0.43464512751E+03  0.00000000000E+00 0.  1.
         25    2    1    2    0    0 -0.87697309559E+02 -0.61531857694E+02 -0.29086566377E+03  0.33425573446E+03  0.12508826503E+03 0.  0.
         23    2    1    2    0    0  0.87697309559E+02  0.61531857694E+02 -0.83647402648E+02  0.16052145414E+03  0.85400595155E+02 0.  0.
          5    1    3    3  502    0 -0.10052035929E+03 -0.74277943324E+02 -0.28984274632E+03  0.31567046978E+03  0.41800000000E+01 0. -1.
         -5    1    3    3    0  502  0.12823049732E+02  0.12746085630E+02 -0.10229174491E+01  0.18585264685E+02  0.41800000000E+01 0. -1.
        -11    1    4    4    0    0  0.60356535770E+02  0.14726916947E+02 -0.86200606591E+02  0.10625600251E+03  0.00000000000E+00 0.  1.
         11    1    4    4    0    0  0.27340773789E+02  0.46804940747E+02  0.25532039424E+01  0.54265451625E+02  0.00000000000E+00 0. -1.
</event>
<event>
 8    1  0.3541538E-009  0.8947278E+02  0.7561462E-02  0.1304133E+00
         -2   -1    0    0    0  501 -0.00000000000E+00  0.00000000000E+00  0.25216564359E+03  0.25216564359E+03  0.00000000000E+00 0. -1.
          2   -1    0    0  501    0  0.00000000000E+00 -0.00000000000E+00 -0.58101681073E+02  0.58101681073E+02  0.00000000000E+00 0.  1.
         25    2    1    2    0    0 -0.63617938103E+01 -0.43385549278E+02  0.13840661275E+03  0.19164513947E+03  0.12509472700E+03 0.  0.
         23    2    1    2    0    0  0.63617938103E+01  0.43385549278E+02  0.55657349767E+02  0.11862218519E+03  0.95135187651E+02 0.  0.
          5    1    3    3  502    0  0.50315685601E+01 -0.60360702011E+02  0.99734427417E+01  0.61527822889E+02  0.41800000000E+01 0. -1.
         -5    1    3    3    0  502 -0.11393362370E+02  0.16975152732E+02  0.12843317001E+03  0.13011731658E+03  0.41800000000E+01 0. -1.
        -11    1    4    4    0    0 -0.16285919281E+02 -0.22454071100E+02 -0.25706829792E+01  0.27857223242E+02  0.00000000000E+00 0.  1.
         11    1    4    4    0    0  0.22647713091E+02  0.65839620378E+02  0.58228032746E+02  0.90764961947E+02  0.00000000000E+00 0. -1.
</event>
<event>
 8    1  0.3541538E-009  0.3634273E+03  0.7561462E-02  0.1057235E+00
         -2   -1    0    0    0  501 -0.00000000000E+00  0.00000000000E+00  0.11516743719E+03  0.11516743719E+03  0.00000000000E+00 0.  1.
          2   -1    0    0  501    0  0.00000000000E+00 -0.00000000000E+00 -0.16290528194E+04  0.16290528194E+04  0.00000000000E+00 0. -1.
         25    2    1    2    0    0  0.12375492603E+02  0.35928382034E+03 -0.11959502862E+04  0.12550630301E+04  0.12509239011E+03 0.  0.
         23    2    1    2    0    0 -0.12375492603E+02 -0.35928382034E+03 -0.31793509604E+03  0.48915722654E+03  0.94625845317E+02 0.  0.
          5    1    3    3  502    0  0.30947489198E+02  0.20845115496E+03 -0.87349356449E+03  0.89856447220E+03  0.41800000000E+01 0. -1.
         -5    1    3    3    0  502 -0.18571996596E+02  0.15083266538E+03 -0.32245672171E+03  0.35649855789E+03  0.41800000000E+01 0. -1.
        -11    1    4    4    0    0  0.20519378630E+02 -0.21899234825E+03 -0.14227284807E+03  0.26195468461E+03  0.00000000000E+00 0. -1.
         11    1    4    4    0    0 -0.32894871233E+02 -0.14029147209E+03 -0.17566224798E+03  0.22720254193E+03  0.00000000000E+00 0.  1.
</event>
<event>
 8    1  0.3541538E-009  0.2630246E+03  0.7561462E-02  0.1105339E+00
         -1   -1    0    0    0  501 -0.00000000000E+00  0.00000000000E+00  0.65529150697E+03  0.65529150697E+03  0.00000000000E+00 0.  1.
          1   -1    0    0  501    0  0.00000000000E+00 -0.00000000000E+00 -0.11835233953E+03  0.11835233953E+03  0.00000000000E+00 0. -1.
         25    2    1    2    0    0  0.23731563319E+03  0.90430424021E+02  0.32750321159E+03  0.43290521912E+03  0.12510876787E+03 0.  0.
         23    2    1    2    0    0 -0.23731563319E+03 -0.90430424021E+02  0.20943595585E+03  0.34073862737E+03  0.87994438663E+02 0.  0.
          5    1    3    3  502    0  0.82320082203E+02  0.80076218923E+02  0.77733441656E+02  0.13873989016E+03  0.41800000000E+01 0. -1.
         -5    1    3    3    0  502  0.15499555099E+03  0.10354205099E+02  0.24976976993E+03  0.29416532896E+03  0.41800000000E+01 0. -1.
        -11    1    4    4    0    0 -0.16225054183E+03 -0.76523904133E+02  0.94501786873E+02  0.20276028692E+03  0.00000000000E+00 0.  1.
         11    1    4    4    0    0 -0.75065091356E+02 -0.13906519888E+02  0.11493416898E+03  0.13797834046E+03  0.00000000000E+00 0. -1.
</event>
<event>
 8    1  0.3541538E-009  0.8349178E+02  0.7561462E-02  0.1319424E+00
         -3   -1    0    0    0  501 -0.00000000000E+00  0.00000000000E+00  0.47302102766E+02  0.47302102766E+02  0.00000000000E+00 0.  1.
          3   -1    0    0  501    0  0.00000000000E+00 -0.00000000000E+00 -0.33874120243E+03  0.33874120243E+03  0.00000000000E+00 0. -1.
         25    2    1    2    0    0 -0.52154267899E+01  0.42813840160E+02 -0.23743066116E+03  0.27181420377E+03  0.12509762957E+03 0.  0.
         23    2    1    2    0    0  0.52154267899E+01 -0.42813840160E+02 -0.54008438501E+02  0.11422910143E+03  0.90945866304E+02 0.  0.
          5    1    3    3  502    0  0.11759768176E+02 -0.24701383421E+02 -0.37256594225E+01  0.27924960673E+02  0.41800000000E+01 0.  1.
         -5    1    3    3    0  502 -0.16975194966E+02  0.67515223581E+02 -0.23370500174E+03  0.24388924309E+03  0.41800000000E+01 0.  1.
        -11    1    4    4    0    0  0.50734192028E+01  0.12895086537E+02 -0.56784515274E+02  0.58450868378E+02  0.00000000000E+00 0. -1.
         11    1    4    4    0    0  0.14200758719E+00 -0.55708926697E+02  0.27760767731E+01  0.55778233050E+02  0.00000000000E+00 0.  1.
</event>
<event>
 8    1  0.3541538E-009  0.1025417E+03  0.7561462E-02  0.1275040E+00
         -2   -1    0    0    0  501 -0.00000000000E+00  0.00000000000E+00  0.11756386491E+03  0.11756386491E+03  0.00000000000E+00 0.  1.
          2   -1    0    0  501    0  0.00000000000E+00 -0.00000000000E+00 -0.11026909083E+03  0.11026909083E+03  0.00000000000E+00 0. -1.
         25    2    1    2    0    0  0.15695165816E+02  0.15179223062E+02 -0.17733304124E+02  0.12820997120E+03  0.12508628861E+03 0.  0.
         23    2    1    2    0    0 -0.15695165816E+02 -0.15179223062E+02  0.25028078208E+02  0.99622984539E+02  0.93923305451E+02 0.  0.
          5    1    3    3  502    0 -0.33661178743E+02  0.42808394601E+02 -0.39557747956E+02  0.67438278641E+02  0.41800000000E+01 0. -1.
         -5    1    3    3    0  502  0.49356344560E+02 -0.27629171538E+02  0.21824443832E+02  0.60771692561E+02  0.41800000000E+01 0. -1.
        -11    1    4    4    0    0  0.12526688718E+02  0.34449341535E+02  0.21332670382E+02  0.42411765916E+02  0.00000000000E+00 0.  1.
         11    1    4    4    0    0 -0.28221854534E+02 -0.49628564598E+02  0.36954078262E+01  0.57211218623E+02  0.00000000000E+00 0. -1.
</event>
<event>
 8    1  0.3541538E-009  0.9961472E+02  0.7561462E-02  0.1281108E+00
          1   -1    0    0  501    0  0.00000000000E+00  0.00000000000E+00  0.53217633557E+02  0.53217633557E+02  0.00000000000E+00 0. -1.
         -1   -1    0    0    0  501 -0.00000000000E+00 -0.00000000000E+00 -0.30219221704E+03  0.30219221704E+03  0.00000000000E+00 0.  1.
         25    2    1    2    0    0 -0.32303519282E+02  0.18215072669E+02 -0.21161322569E+03  0.24860284899E+03  0.12509161845E+03 0.  0.
         23    2    1    2    0    0  0.32303519282E+02 -0.18215072669E+02 -0.37361357787E+02  0.10680700161E+03  0.92933085099E+02 0.  0.
          5    1    3    3  502    0  0.20174837848E+02  0.45026751743E+02 -0.16806646806E+03  0.17520913944E+03  0.41800000000E+01 0. -1.
         -5    1    3    3    0  502 -0.52478357129E+02 -0.26811679075E+02 -0.43546757629E+02  0.73393709552E+02  0.41800000000E+01 0. -1.
        -11    1    4    4    0    0  0.45976911885E+02 -0.42598791995E+02 -0.33313751113E+01  0.62766484416E+02  0.00000000000E+00 0. -1.
         11    1    4    4    0    0 -0.13673392603E+02  0.24383719326E+02 -0.34029982675E+02  0.44040517190E+02  0.00000000000E+00 0.  1.
</event>
<event>
 8    1  0.3541538E-009  0.1128380E+03  0.7561462E-02  0.1255403E+00
          2   -1    0    0  501    0  0.00000000000E+00  0.00000000000E+00  0.33758274155E+03  0.33758274155E+03  0.00000000000E+00 0. -1.
         -2   -1    0    0    0  501 -0.00000000000E+00 -0.00000000000E+00 -0.54593772935E+02  0.54593772935E+02  0.00000000000E+00 0.  1.
         25    2    1    2    0    0 -0.35880999383E+02 -0.51325247942E+02  0.22897994741E+03  0.26832990671E+03  0.12508954924E+03 0.  0.
         23    2    1    2    0    0  0.35880999383E+02  0.51325247942E+02  0.54009021212E+02  0.12384660778E+03  0.92191543498E+02 0.  0.
          5    1    3    3  502    0  0.36330532387E+02  0.84242356752E+01  0.11349730677E+03  0.11954073103E+03  0.41800000000E+01 0. -1.
         -5    1    3    3    0  502 -0.72211531770E+02 -0.59749483617E+02  0.11548264064E+03  0.14878917569E+03  0.41800000000E+01 0. -1.
        -11    1    4    4    0    0 -0.20861346345E+02  0.22507161935E+02 -0.11257570518E+02  0.32687933610E+02  0.00000000000E+00 0.  1.
         11    1    4    4    0    0  0.56742345727E+02  0.28818086007E+02  0.65266591731E+02  0.91158674167E+02  0.00000000000E+00 0. -1.
</event>
<event>
 8    1  0.3541538E-009  0.1282931E+03  0.7561462E-02  0.1230011E+00
         -3   -1    0    0    0  501 -0.00000000000E+00  0.00000000000E+00  0.44978456190E+02  0.44978456190E+02  0.00000000000E+00 0.  1.
          3   -1    0    0  501    0  0.00000000000E+00 -0.00000000000E+00 -0.74433725401E+03  0.74433725401E+03  0.00000000000E+00 0. -1.
         25    2    1    2    0    0 -0.75385645673E+02 -0.62511681258E+02 -0.60205106433E+03  0.62265855294E+03  0.12508990216E+03 0.  0.
         23    2    1    2    0    0  0.75385645673E+02  0.62511681258E+02 -0.97307733490E+02  0.16665715726E+03  0.93354738505E+02 0.  0.
          5    1    3    3  502    0 -0.69655185224E+02 -0.99059324786E+02 -0.47984660563E+03  0.49490891282E+03  0.41800000000E+01 0.  1.
         -5    1    3    3    0  502 -0.57304604486E+01  0.36547643528E+02 -0.12220445871E+03  0.12774964013E+03  0.41800000000E+01 0.  1.
        -11    1    4    4    0    0  0.65719598786E+02  0.51211865502E+02 -0.17062979985E+02  0.85046258699E+02  0.00000000000E+00 0.  1.
         11    1    4    4    0    0  0.96660468870E+01  0.11299815757E+02 -0.80244753506E+02  0.81610898560E+02  0.00000000000E+00 0. -1.
</event>
<event>
 8    1  0.3541538E-009  0.1036766E+03  0.7561462E-02  0.1272749E+00
         -1   -1    0    0    0  501 -0.00000000000E+00  0.00000000000E+00  0.59386300082E+02  0.59386300082E+02  0.00000000000E+00 0.  1.
          1   -1    0    0  501    0  0.00000000000E+00 -0.00000000000E+00 -0.39715036424E+03  0.39715036424E+03  0.00000000000E+00 0. -1.
         25    2    1    2    0    0 -0.73117464738E+02  0.53938542271E+02 -0.97086739490E+02  0.18256580075E+03  0.12509558995E+03 0.  0.
         23    2    1    2    0    0  0.73117464738E+02 -0.53938542271E+02 -0.24067732467E+03  0.27397086358E+03  0.94228071647E+02 0.  0.
          5    1    3    3  502    0  0.47466512084E+01  0.30373440423E+02  0.22178152481E+02  0.38136851316E+02  0.41800000000E+01 0.  1.
         -5    1    3    3    0  502 -0.77864115946E+02  0.23565101848E+02 -0.11926489197E+03  0.14442894943E+03  0.41800000000E+01 0.  1.
        -11    1    4    4    0    0  0.13095746727E+02 -0.25028710678E+02 -0.45333874391E+01  0.28609203803E+02  0.00000000000E+00 0.  1.
         11    1    4    4    0    0  0.60021718011E+02 -0.28909831593E+02 -0.23614393723E+03  0.24536165978E+03  0.00000000000E+00 0. -1.
</event>
<event>
 8    1  0.3541538E-009  0.1153572E+03  0.7561462E-02  0.1250959E+00
          3   -1    0    0  501    0  0.00000000000E+00  0.00000000000E+00  0.85673522798E+03  0.85673522798E+03  0.00000000000E+00 0. -1.
         -3   -1    0    0    0  501 -0.00000000000E+00 -0.00000000000E+00 -0.18756393653E+02  0.18756393653E+02  0.00000000000E+00 0.  1.
         25    2    1    2    0    0  0.17823412363E+02 -0.36149756513E+02  0.63343096031E+03  0.64692138435E+03  0.12509203462E+03 0.  0.
         23    2    1    2    0    0 -0.17823412363E+02  0.36149756513E+02  0.20454787402E+03  0.22857023729E+03  0.93701876624E+02 0.  0.
          5    1    3    3  502    0 -0.36733927583E+02  0.28375027247E+02  0.20744726760E+03  0.21261788457E+03  0.41800000000E+01 0.  1.
         -5    1    3    3    0  502  0.54557339946E+02 -0.64524783760E+02  0.42598369271E+03  0.43430349978E+03  0.41800000000E+01 0.  1.
        -11    1    4    4    0    0 -0.15522387105E+02 -0.29756442942E+02  0.46777103757E+02  0.57571588773E+02  0.00000000000E+00 0.  1.
         11    1    4    4    0    0 -0.23010252582E+01  0.65906199455E+02  0.15777077026E+03  0.17099864851E+03  0.00000000000E+00 0. -1.
</event>
<event>
 8    1  0.3541538E-009  0.1669107E+03  0.7561462E-02  0.1181108E+00
         -2   -1    0    0    0  501 -0.00000000000E+00  0.00000000000E+00  0.53323213505E+02  0.53323213505E+02  0.00000000000E+00 0.  1.
          2   -1    0    0  501    0  0.00000000000E+00 -0.00000000000E+00 -0.53827610261E+03  0.53827610261E+03  0.00000000000E+00 0. -1.
         25    2    1    2    0    0  0.12896470598E+03 -0.13416737718E+02 -0.24821952490E+03  0.30671048434E+03  0.12508590815E+03 0.  0.
         23    2    1    2    0    0 -0.12896470598E+03  0.13416737718E+02 -0.23673336421E+03  0.28488883178E+03  0.91143055168E+02 0.  0.
          5    1    3    3  502    0  0.47404951862E+02 -0.67036699088E+02 -0.12158331737E+03  0.14676894749E+03  0.41800000000E+01 0. -1.
         -5    1    3    3    0  502  0.81559754122E+02  0.53619961369E+02 -0.12663620753E+03  0.15994153684E+03  0.41800000000E+01 0. -1.
        -11    1    4    4    0    0 -0.10144540993E+03  0.45895604528E+02 -0.19886125846E+03  0.22791089888E+03  0.00000000000E+00 0. -1.
         11    1    4    4    0    0 -0.27519296050E+02 -0.32478866809E+02 -0.37872105748E+02  0.56977932905E+02  0.00000000000E+00 0.  1.
</event>
<event>
 8    1  0.3541538E-009  0.8652688E+02  0.7561462E-02  0.1311487E+00
         -2   -1    0    0    0  501 -0.00000000000E+00  0.00000000000E+00  0.18420183445E+02  0.18420183445E+02  0.00000000000E+00 0.  1.
          2   -1    0    0  501    0  0.00000000000E+00 -0.00000000000E+00 -0.11215105996E+04  0.11215105996E+04  0.00000000000E+00 0. -1.
         25    2    1    2    0    0  0.51798192104E+02  0.47108103348E+02 -0.84733123142E+03  0.85937172046E+03  0.12508921645E+03 0.  0.
         23    2    1    2    0    0 -0.51798192104E+02 -0.47108103348E+02 -0.25575918477E+03  0.28055906262E+03  0.91642789785E+02 0.  0.
          5    1    3    3  502    0  0.13938755307E+02 -0.67239313606E+01 -0.66974568167E+03  0.66993749758E+03  0.41800000000E+01 0. -1.
         -5    1    3    3    0  502  0.37859436797E+02  0.53832034708E+02 -0.17758554976E+03  0.18943422288E+03  0.41800000000E+01 0. -1.
        -11    1    4    4    0    0  0.19754005753E+01 -0.36145035368E+02 -0.26603227686E+02  0.44923240227E+02  0.00000000000E+00 0.  1.
         11    1    4    4    0    0 -0.53773592679E+02 -0.10963067979E+02 -0.22915595708E+03  0.23563582239E+03  0.00000000000E+00 0. -1.
</event>
<event>
 8    1  0.3541538E-009  0.8328779E+02  0.7561462E-02  0.1319972E+00
          2   -1    0    0  501    0  0.00000000000E+00  0.00000000000E+00  0.12583501332E+03  0.12583501332E+03  0.00000000000E+00 0. -1.
         -2   -1    0    0    0  501 -0.00000000000E+00 -0.00000000000E+00 -0.99366400120E+02  0.99366400120E+02  0.00000000000E+00 0.  1.
         25    2    1    2    0    0  0.12647128837E+02 -0.28823457056E+02  0.96398125439E+01  0.12935088033E+03  0.12509189706E+03 0.  0.
         23    2    1    2    0    0 -0.12647128837E+02  0.28823457056E+02  0.16828800658E+02  0.95850533116E+02  0.88957150486E+02 0.  0.
          5    1    3    3  502    0  0.43874506340E+02 -0.11306450618E+02 -0.44932858925E+02  0.63947184013E+02  0.41800000000E+01 0.  1.
         -5    1    3    3    0  502 -0.31227377502E+02 -0.17517006439E+02  0.54572671468E+02  0.65403696313E+02  0.41800000000E+01 0.  1.
        -11    1    4    4    0    0  0.77406681705E+01  0.52908416193E+02  0.30390241593E+02  0.61504351325E+02  0.00000000000E+00 0.  1.
         11    1    4    4    0    0 -0.20387797008E+02 -0.24084959136E+02 -0.13561440935E+02  0.34346181791E+02  0.00000000000E+00 0. -1.
</event>
<event>
 8    1  0.3541538E-009  0.9790445E+02  0.7561462E-02  0.1284765E+00
         -1   -1    0    0    0  501 -0.00000000000E+00  0.00000000000E+00  0.66948659443E+02  0.66948659443E+02  0.00000000000E+00 0.  1.
          1   -1    0    0  501    0  0.00000000000E+00 -0.00000000000E+00 -0.23141132503E+03  0.23141132503E+03  0.00000000000E+00 0. -1.
         25    2    1    2    0    0 -0.39169334996E+01 -0.41186280802E+02 -0.47203001714E+02  0.13994976545E+03  0.12508461689E+03 0.  0.
         23    2    1    2    0    0  0.39169334996E+01  0.41186280802E+02 -0.11725966387E+03  0.15841021903E+03  0.98144366248E+02 0.  0.
          5    1    3    3  502    0  0.28239370136E+02 -0.50825562836E+02 -0.75820651946E+02  0.95639654562E+02  0.41800000000E+01 0. -1.
         -5    1    3    3    0  502 -0.32156303635E+02  0.96392820345E+01  0.28617650233E+02  0.44310110883E+02  0.41800000000E+01 0. -1.
        -11    1    4    4    0    0  0.17503639367E+02 -0.28085946398E+02 -0.21582227104E+02  0.39509369812E+02  0.00000000000E+00 0.  1.
         11    1    4    4    0    0 -0.13586705868E+02  0.69272227199E+02 -0.95677436770E+02  0.11890084922E+03  0.00000000000E+00 0. -1.
</event>
<event>
 8    1  0.3541538E-009  0.9322671E+02  0.7561462E-02  0.1295221E+00
         -1   -1    0    0    0  501 -0.00000000000E+00  0.00000000000E+00  0.24533110463E+03  0.24533110463E+03  0.00000000000E+00 0.  1.
          1   -1    0    0  501    0  0.00000000000E+00 -0.00000000000E+00 -0.65722151482E+02  0.65722151482E+02  0.00000000000E+00 0. -1.
         25    2    1    2    0    0 -0.42251736424E+01  0.28717036191E+02  0.17249730709E+03  0.21504575895E+03  0.12508731841E+03 0.  0.
         23    2    1    2    0    0  0.42251736424E+01 -0.28717036191E+02  0.71116460603E+01  0.96007497166E+02  0.91237841615E+02 0.  0.
          5    1    3    3  502    0  0.25628831188E+01 -0.30544866173E+02  0.14669352841E+03  0.14992004835E+03  0.41800000000E+01 0.  1.
         -5    1    3    3    0  502 -0.67880567611E+01  0.59261902364E+02  0.25803778674E+02  0.65125710593E+02  0.41800000000E+01 0.  1.
        -11    1    4    4    0    0  0.38713530056E+02 -0.43470690088E+02  0.33222376863E+01  0.58305021820E+02  0.00000000000E+00 0.  1.
         11    1    4    4    0    0 -0.34488356414E+02  0.14753653897E+02  0.37894083741E+01  0.37702475347E+02  0.00000000000E+00 0. -1.
</event>
<event>
 8    1  0.3541538E-009  0.1577222E+03  0.7561462E-02  0.1191293E+00
         -2   -1    0    0    0  501 -0.00000000000E+00  0.00000000000E+00  0.20196034589E+03  0.20196034589E+03  0.00000000000E+00 0. -1.
          2   -1    0    0  501    0  0.00000000000E+00 -0.00000000000E+00 -0.15393815492E+03  0.15393815492E+03  0.00000000000E+00 0.  1.
         25    2    1    2    0    0 -0.12146993717E+03  0.90832759515E+01  0.91643385265E+02  0.19718698050E+03  0.12508694448E+03 0.  0.
         23    2    1    2    0    0  0.12146993717E+03 -0.90832759515E+01 -0.43621194299E+02  0.15871152031E+03  0.91918912907E+02 0.  0.
          5    1    3    3  502    0  0.21615934276E+02  0.13682989674E+02  0.34110649738E+02  0.42842521478E+02  0.41800000000E+01 0.  1.
         -5    1    3    3    0  502 -0.14308587144E+03 -0.45997137229E+01  0.57532735527E+02  0.15434445902E+03  0.41800000000E+01 0.  1.
        -11    1    4    4    0    0  0.37142335546E+02  0.35097342795E+02  0.58313297709E+01  0.51433267133E+02  0.00000000000E+00 0. -1.
         11    1    4    4    0    0  0.84327601623E+02 -0.44180618747E+02 -0.49452524070E+02  0.10727825318E+03  0.00000000000E+00 0.  1.
</event>
<event>
 8    1  0.3541538E-009  0.1041648E+03  0.7561462E-02  0.1271774E+00
         -1   -1    0    0    0  501 -0.00000000000E+00  0.00000000000E+00  0.66460792798E+03  0.66460792798E+03  0.00000000000E+00 0.  1.
          1   -1    0    0  501    0  0.00000000000E+00 -0.00000000000E+00 -0.23336659518E+02  0.23336659518E+02  0.00000000000E+00 0. -1.
         25    2    1    2    0    0  0.37981513492E+02 -0.47424566171E+02  0.34892868860E+03  0.37561978075E+03  0.12508918867E+03 0.  0.
         23    2    1    2    0    0 -0.37981513492E+02  0.47424566171E+02  0.29234257987E+03  0.31232480675E+03  0.91601943561E+02 0.  0.
          5    1    3    3  502    0 -0.30871890771E+02 -0.30660425994E+02  0.25037258679E+03  0.25415947745E+03  0.41800000000E+01 0.  1.
         -5    1    3    3    0  502  0.68853404263E+02 -0.16764140177E+02  0.98556101805E+02  0.12146030330E+03  0.41800000000E+01 0.  1.
        -11    1    4    4    0    0  0.11062164449E+02  0.42986408654E+02  0.58942121083E+02  0.73786017978E+02  0.00000000000E+00 0. -1.
         11    1    4    4    0    0 -0.49043677941E+02  0.44381575171E+01  0.23340045878E+03  0.23853878877E+03  0.00000000000E+00 0.  1.
</event>
<event>
 8    1  0.3541538E-009  0.1238278E+03  0.7561462E-02  0.1236913E+00
         -1   -1    0    0    0  501 -0.00000000000E+00  0.00000000000E+00  0.55038267640E+03  0.55038267640E+03  0.00000000000E+00 0.  1.
          1   -1    0    0  501    0  0.00000000000E+00 -0.00000000000E+00 -0.42507680835E+02  0.42507680835E+02  0.00000000000E+00 0. -1.
         25    2    1    2    0    0  0.13692982408E+02 -0.10581809559E+03  0.25298919437E+03  0.30172216798E+03  0.12509103510E+03 0.  0.
         23    2    1    2    0    0 -0.13692982408E+02  0.10581809559E+03  0.25488580120E+03  0.29116818926E+03  0.91799649572E+02 0.  0.
          5    1    3    3  502    0  0.13795822543E+02 -0.29997898171E+02  0.21360252711E+03  0.21617981081E+03  0.41800000000E+01 0.  1.
         -5    1    3    3    0  502 -0.10284013478E+00 -0.75820197418E+02  0.39386667261E+02  0.85542357172E+02  0.41800000000E+01 0.  1.
        -11    1    4    4    0    0 -0.40826218379E+02  0.14741556001E+02  0.10594281444E+03  0.11449005858E+03  0.00000000000E+00 0.  1.
         11    1    4    4    0    0  0.27133235971E+02  0.91076539588E+02  0.14894298675E+03  0.17667813068E+03  0.00000000000E+00 0. -1.
</event>
<event>
 8    1  0.3541538E-009  0.1032716E+03  0.7561462E-02  0.1273563E+00
         -1   -1    0    0    0  501 -0.00000000000E+00  0.00000000000E+00  0.46289938529E+02  0.46289938529E+02  0.00000000000E+00 0.  1.
          1   -1    0    0  501    0  0.00000000000E+00 -0.00000000000E+00 -0.67533137501E+03  0.67533137501E+03  0.00000000000E+00 0. -1.
         25    2    1    2    0    0  0.25243188970E+01  0.10570475620E+02 -0.61826687468E+03  0.63088773920E+03  0.12508918417E+03 0.  0.
         23    2    1    2    0    0 -0.25243188970E+01 -0.10570475620E+02 -0.10774561803E+02  0.90733574347E+02  0.89433680407E+02 0.  0.
          5    1    3    3  502    0 -0.71427073869E+01 -0.54021961472E+02 -0.37540788423E+03  0.37936518360E+03  0.41800000000E+01 0. -1.
         -5    1    3    3    0  502  0.96670262839E+01  0.64592437092E+02 -0.24285899045E+03  0.25152255559E+03  0.41800000000E+01 0. -1.
        -11    1    4    4    0    0  0.10448194485E+02  0.36320396250E+02 -0.17446647718E+02  0.41625971080E+02  0.00000000000E+00 0. -1.
         11    1    4    4    0    0 -0.12972513382E+02 -0.46890871870E+02  0.66720859159E+01  0.49107603267E+02  0.00000000000E+00 0.  1.
</event>
<event>
 8    1  0.3541538E-009  0.1786304E+03  0.7561462E-02  0.1169135E+00
         -2   -1    0    0    0  501 -0.00000000000E+00  0.00000000000E+00  0.22490482708E+03  0.22490482708E+03  0.00000000000E+00 0.  1.
          2   -1    0    0  501    0  0.00000000000E+00 -0.00000000000E+00 -0.37186012537E+03  0.37186012537E+03  0.00000000000E+00 0. -1.
         25    2    1    2    0    0 -0.15373815643E+03 -0.70144252181E+02  0.13916293867E+03  0.25212874802E+03  0.12508775009E+03 0.  0.
         23    2    1    2    0    0  0.15373815643E+03  0.70144252181E+02 -0.28611823697E+03  0.34463620443E+03  0.91404764743E+02 0.  0.
          5    1    3    3  502    0 -0.67658216229E+02 -0.38181762414E+02  0.14004757102E+03  0.16020697785E+03  0.41800000000E+01 0.  1.
         -5    1    3    3    0  502 -0.86079940204E+02 -0.31962489767E+02 -0.88463234156E+00  0.91921770175E+02  0.41800000000E+01 0.  1.
        -11    1    4    4    0    0  0.91048829431E+02  0.83393957218E+02 -0.15066894731E+03  0.19479623488E+03  0.00000000000E+00 0. -1.
         11    1    4    4    0    0  0.62689327002E+02 -0.13249705037E+02 -0.13544928966E+03  0.14983996954E+03  0.00000000000E+00 0.  1.
</event>
<event>
 8    1  0.3541538E-009  0.9039689E+02  0.7561462E-02  0.1301893E+00
          4   -1    0    0  501    0  0.00000000000E+00  0.00000000000E+00  0.15743370010E+02  0.15743370010E+02  0.00000000000E+00 0. -1.
         -4   -1    0    0    0  501 -0.00000000000E+00 -0.00000000000E+00 -0.13536917561E+04  0.13536917561E+04  0.00000000000E+00 0.  1.
         25    2    1    2    0    0 -0.69108351373E+02 -0.18379186110E+02 -0.10284824659E+04  0.10385262309E+04  0.12508713287E+03 0.  0.
         23    2    1    2    0    0  0.69108351373E+02  0.18379186110E+02 -0.30946592013E+03  0.33090889520E+03  0.92832012169E+02 0.  0.
          5    1    3    3  502    0 -0.23976794092E+02  0.19946504026E+02 -0.84698552267E+03  0.84756987776E+03  0.41800000000E+01 0.  1.
         -5    1    3    3    0  502 -0.45131557281E+02 -0.38325690136E+02 -0.18149694327E+03  0.19095635314E+03  0.41800000000E+01 0.  1.
        -11    1    4    4    0    0  0.46774373558E+02  0.37981617057E+02 -0.28803813987E+03  0.29427268864E+03  0.00000000000E+00 0.  1.
         11    1    4    4    0    0  0.22333977815E+02 -0.19602430947E+02 -0.21427780262E+02  0.36636206560E+02  0.00000000000E+00 0. -1.
</event>
<event>
 8    1  0.3541538E-009  0.9129553E+02  0.7561462E-02  0.1299744E+00
         -1   -1    0    0    0  501 -0.00000000000E+00  0.00000000000E+00  0.10570913319E+03  0.10570913319E+03  0.00000000000E+00 0.  1.
          1   -1    0    0  501    0  0.00000000000E+00 -0.00000000000E+00 -0.11690345729E+03  0.11690345729E+03  0.00000000000E+00 0. -1.
         25    2    1    2    0    0  0.21925475281E+02 -0.12047122912E+02  0.16148346959E+02  0.12857245404E+03  0.12507696507E+03 0.  0.
         23    2    1    2    0    0 -0.21925475281E+02  0.12047122912E+02 -0.27342671053E+02  0.94040136446E+02  0.86429543362E+02 0.  0.
          5    1    3    3  502    0  0.56913987575E+02  0.10971797914E+02 -0.30593046542E+02  0.65673352494E+02  0.41800000000E+01 0. -1.
         -5    1    3    3    0  502 -0.34988512293E+02 -0.23018920826E+02  0.46741393501E+02  0.62899101543E+02  0.41800000000E+01 0. -1.
        -11    1    4    4    0    0 -0.17902545471E+02 -0.32796861352E+02 -0.31436676296E+02  0.48830317072E+02  0.00000000000E+00 0. -1.
         11    1    4    4    0    0 -0.40229298102E+01  0.44843984264E+02  0.40940052424E+01  0.45209819374E+02  0.00000000000E+00 0.  1.
</event>
<event>
 8    1  0.3541538E-009  0.1016352E+03  0.7561462E-02  0.1276894E+00
         -2   -1    0    0    0  501 -0.00000000000E+00  0.00000000000E+00  0.15562937052E+02  0.15562937052E+02  0.00000000000E+00 0.  1.
          2   -1    0    0  501    0  0.00000000000E+00 -0.00000000000E+00 -0.89354257587E+03  0.89354257587E+03  0.00000000000E+00 0. -1.
         25    2    1    2    0    0  0.41827577394E+02  0.22841565813E+02 -0.53022082529E+03  0.54685688330E+03  0.12508814447E+03 0.  0.
         23    2    1    2    0    0 -0.41827577394E+02 -0.22841565813E+02 -0.34775881353E+03  0.36224862962E+03  0.89535433846E+02 0.  0.
          5    1    3    3  502    0  0.11330411343E+01 -0.40563490035E+02 -0.74557432405E+02  0.84988020526E+02  0.41800000000E+01 0.  1.
         -5    1    3    3    0  502  0.40694536260E+02  0.63405055849E+02 -0.45566339288E+03  0.46186886278E+03  0.41800000000E+01 0.  1.
        -11    1    4    4    0    0 -0.40866758154E+02  0.19069932103E+02 -0.27155695218E+03  0.27527610232E+03  0.00000000000E+00 0.  1.
         11    1    4    4    0    0 -0.96081924052E+00 -0.41911497917E+02 -0.76201861347E+02  0.86972527295E+02  0.00000000000E+00 0. -1.
</event>
<event>
 8    1  0.3541538E-009  0.1379139E+03  0.7561462E-02  0.1216164E+00
         -2   -1    0    0    0  501 -0.00000000000E+00  0.00000000000E+00  0.40668690172E+02  0.40668690172E+02  0.00000000000E+00 0.  1.
          2   -1    0    0  501    0  0.00000000000E+00 -0.00000000000E+00 -0.60392493757E+03  0.60392493757E+03  0.00000000000E+00 0. -1.
         25    2    1    2    0    0 -0.68943239207E+02 -0.54238356266E+02 -0.44959563769E+03  0.47484459756E+03  0.12508471081E+03 0.  0.
         23    2    1    2    0    0  0.68943239207E+02  0.54238356266E+02 -0.11366060971E+03  0.16974903018E+03  0.90559535810E+02 0.  0.
          5    1    3    3  502    0 -0.10348594815E+03 -0.31766197967E+02 -0.27903832535E+03  0.29932973827E+03  0.41800000000E+01 0. -1.
         -5    1    3    3    0  502  0.34542708942E+02 -0.22472158299E+02 -0.17055731234E+03  0.17551485929E+03  0.41800000000E+01 0. -1.
        -11    1    4    4    0    0 -0.17669530629E+02 -0.80232839644E+01 -0.16980796485E+02  0.25786291852E+02  0.00000000000E+00 0.  1.
         11    1    4    4    0    0  0.86612769836E+02  0.62261640230E+02 -0.96679813224E+02  0.14396273833E+03  0.00000000000E+00 0. -1.
</event>
<event>
 8    1  0.3541538E-009  0.8473495E+02  0.7561462E-02  0.1316127E+00
         -1   -1    0    0    0  501 -0.00000000000E+00  0.00000000000E+00  0.82759781978E+02  0.82759781978E+02  0.00000000000E+00 0.  1.
          1   -1    0    0  501    0  0.00000000000E+00 -0.00000000000E+00 -0.16243521972E+03  0.16243521972E+03  0.00000000000E+00 0. -1.
         25    2    1    2    0    0 -0.22542180296E+02  0.13755415907E+02 -0.77997848512E+02  0.14976041227E+03  0.12508859002E+03 0.  0.
         23    2    1    2    0    0  0.22542180296E+02 -0.13755415907E+02 -0.16775892351E+01  0.95434589427E+02  0.91692885189E+02 0.  0.
          5    1    3    3  502    0  0.36059584287E+02 -0.37606808993E+01  0.14099471352E+02  0.39124210308E+02  0.41800000000E+01 0.  1.
         -5    1    3    3    0  502 -0.58601764584E+02  0.17516096807E+02 -0.92097319864E+02  0.11063620197E+03  0.41800000000E+01 0.  1.
        -11    1    4    4    0    0  0.31094004130E+02  0.19917679052E+02  0.30641783175E+02  0.47984058893E+02  0.00000000000E+00 0.  1.
         11    1    4    4    0    0 -0.85518238342E+01 -0.33673094959E+02 -0.32319372410E+02  0.47450530535E+02  0.00000000000E+00 0. -1.
</event>
<event>
 8    1  0.3541538E-009  0.1057870E+03  0.7561462E-02  0.1268577E+00
         -1   -1    0    0    0  501 -0.00000000000E+00  0.00000000000E+00  0.54014404836E+02  0.54014404836E+02  0.00000000000E+00 0.  1.
          1   -1    0    0  501    0  0.00000000000E+00 -0.00000000000E+00 -0.29997413236E+03  0.29997413236E+03  0.00000000000E+00 0. -1.
         25    2    1    2    0    0 -0.15469320644E+02  0.21587935417E+02 -0.54589394061E+02  0.13904470022E+03  0.12509231743E+03 0.  0.
         23    2    1    2    0    0  0.15469320644E+02 -0.21587935417E+02 -0.19137033347E+03  0.21494383698E+03  0.94196123521E+02 0.  0.
          5    1    3    3  502    0 -0.59801988308E+02  0.39749588830E+02 -0.84914911401E+01  0.72428485001E+02  0.41800000000E+01 0. -1.
         -5    1    3    3    0  502  0.44332667665E+02 -0.18161653412E+02 -0.46097902921E+02  0.66616215223E+02  0.41800000000E+01 0. -1.
        -11    1    4    4    0    0  0.91804788514E+00  0.34041285383E+02 -0.37369013387E+02  0.50557838996E+02  0.00000000000E+00 0.  1.
         11    1    4    4    0    0  0.14551272759E+02 -0.55629220800E+02 -0.15400132008E+03  0.16438599798E+03  0.00000000000E+00 0. -1.
</event>
<event>
 8    1  0.3541538E-009  0.9269292E+02  0.7561462E-02  0.1296458E+00
         -2   -1    0    0    0  501 -0.00000000000E+00  0.00000000000E+00  0.40071687524E+03  0.40071687524E+03  0.00000000000E+00 0.  1.
          2   -1    0    0  501    0  0.00000000000E+00 -0.00000000000E+00 -0.52393531466E+02  0.52393531466E+02  0.00000000000E+00 0. -1.
         25    2    1    2    0    0 -0.51353407393E+02 -0.74066719368E+02  0.26342364623E+03  0.30522838548E+03  0.12509715642E+03 0.  0.
         23    2    1    2    0    0  0.51353407393E+02  0.74066719368E+02  0.84899697549E+02  0.14788202122E+03  0.80858408274E+02 0.  0.
          5    1    3    3  502    0 -0.33500067704E+02 -0.59040611508E+02  0.27172756583E+03  0.28010960493E+03  0.41800000000E+01 0. -1.
         -5    1    3    3    0  502 -0.17853339690E+02 -0.15026107861E+02 -0.83039196045E+01  0.25118780550E+02  0.41800000000E+01 0. -1.
        -11    1    4    4    0    0  0.17868562572E+02  0.79532774142E+01  0.69486491859E+02  0.72186651819E+02  0.00000000000E+00 0.  1.
         11    1    4    4    0    0  0.33484844821E+02  0.66113441954E+02  0.15413205690E+02  0.75695369405E+02  0.00000000000E+00 0. -1.
</event>
<event>
 8    1  0.3541538E-009  0.1668605E+03  0.7561462E-02  0.1181162E+00
          2   -1    0    0  501    0  0.00000000000E+00  0.00000000000E+00  0.17470469814E+04  0.17470469814E+04  0.00000000000E+00 0.  1.
         -2   -1    0    0    0  501 -0.00000000000E+00 -0.00000000000E+00 -0.21904592251E+02  0.21904592251E+02  0.00000000000E+00 0. -1.
         25    2    1    2    0    0  0.13540286260E+03  0.70454216128E+02  0.11494941991E+04  0.11663115029E+04  0.12509147162E+03 0.  0.
         23    2    1    2    0    0 -0.13540286260E+03 -0.70454216128E+02  0.57564819012E+03  0.60264007082E+03  0.92230604448E+02 0.  0.
          5    1    3    3  502    0  0.14379241140E+03  0.55953993232E+02  0.11290499072E+04  0.11395517857E+04  0.41800000000E+01 0. -1.
         -5    1    3    3    0  502 -0.83895487985E+01  0.14500222895E+02  0.20444291839E+02  0.26759717149E+02  0.41800000000E+01 0. -1.
        -11    1    4    4    0    0 -0.37633541803E+02 -0.49383650475E+02  0.10945043689E+03  0.12583491781E+03  0.00000000000E+00 0. -1.
         11    1    4    4    0    0 -0.97769320794E+02 -0.21070565653E+02  0.46619775323E+03  0.47680515302E+03  0.00000000000E+00 0.  1.
</event>
<event>
 8    1  0.3541538E-009  0.1117296E+03  0.7561462E-02  0.1257400E+00
          1   -1    0    0  501    0  0.00000000000E+00  0.00000000000E+00  0.21553198041E+03  0.21553198041E+03  0.00000000000E+00 0. -1.
         -1   -1    0    0    0  501 -0.00000000000E+00 -0.00000000000E+00 -0.67651129660E+02  0.67651129660E+02  0.00000000000E+00 0.  1.
         25    2    1    2    0    0  0.23090521779E+02 -0.45704002275E+02  0.95680021730E+02  0.16560436035E+03  0.12509240421E+03 0.  0.
         23    2    1    2    0    0 -0.23090521779E+02  0.45704002275E+02  0.52200829022E+02  0.11757874972E+03  0.92075011892E+02 0.  0.
          5    1    3    3  502    0  0.65458046127E+02 -0.20438149827E+02  0.93531083229E+02  0.11605175441E+03  0.41800000000E+01 0. -1.
         -5    1    3    3    0  502 -0.42367524348E+02 -0.25265852448E+02  0.21489385005E+01  0.49552605945E+02  0.41800000000E+01 0. -1.
        -11    1    4    4    0    0 -0.58730482875E+02  0.33302465627E+02  0.30960582439E+02  0.74275712723E+02  0.00000000000E+00 0.  1.
         11    1    4    4    0    0  0.35639961096E+02  0.12401536648E+02  0.21240246583E+02  0.43303036996E+02  0.00000000000E+00 0. -1.
</event>
<event>
 8    1  0.3541538E-009  0.9287947E+02  0.7561462E-02  0.1296025E+00
         -1   -1    0    0    0  501 -0.00000000000E+00  0.00000000000E+00  0.12468361003E+02  0.12468361003E+02  0.00000000000E+00 0.  1.
          1   -1    0    0  501    0  0.00000000000E+00 -0.00000000000E+00 -0.98660729827E+03  0.98660729827E+03  0.00000000000E+00 0. -1.
         25    2    1    2    0    0 -0.15262890405E+01 -0.13927552347E+01 -0.54049821643E+03  0.55478468681E+03  0.12507380793E+03 0.  0.
         23    2    1    2    0    0  0.15262890405E+01  0.13927552347E+01 -0.43364072084E+03  0.44429097247E+03  0.96674319851E+02 0.  0.
          5    1    3    3  502    0 -0.42397900226E+02 -0.17987764385E+02 -0.46462360411E+03  0.46691938010E+03  0.41800000000E+01 0.  1.
         -5    1    3    3    0  502  0.40871611185E+02  0.16595009151E+02 -0.75874612313E+02  0.87865306710E+02  0.41800000000E+01 0.  1.
        -11    1    4    4    0    0 -0.46833136976E+02  0.93129005423E+00 -0.17459317026E+03  0.18076776571E+03  0.00000000000E+00 0.  1.
         11    1    4    4    0    0  0.48359426016E+02  0.46146518042E+00 -0.25904755059E+03  0.26352320676E+03  0.00000000000E+00 0. -1.
</event>
<event>
 8    1  0.3541538E-009  0.2553296E+03  0.7561462E-02  0.1109982E+00
         -1   -1    0    0    0  501 -0.00000000000E+00  0.00000000000E+00  0.14646455205E+03  0.14646455205E+03  0.00000000000E+00 0.  1.
          1   -1    0    0  501    0  0.00000000000E+00 -0.00000000000E+00 -0.46942458097E+03  0.46942458097E+03  0.00000000000E+00 0. -1.
         25    2    1    2    0    0 -0.18423195087E+03 -0.15063412837E+03 -0.15611797405E+03  0.31089003077E+03  0.12509091516E+03 0.  0.
         23    2    1    2    0    0  0.18423195087E+03  0.15063412837E+03 -0.16684205487E+03  0.30499910225E+03  0.92499344593E+02 0.  0.
          5    1    3    3  502    0 -0.18913017344E+03 -0.11993823134E+03 -0.97260934800E+02  0.24419779622E+03  0.41800000000E+01 0.  1.
         -5    1    3    3    0  502  0.48982225700E+01 -0.30695897030E+02 -0.58857039251E+02  0.66692234542E+02  0.41800000000E+01 0.  1.
        -11    1    4    4    0    0  0.10518574422E+03  0.27062685717E+02 -0.72747959992E+02  0.13072373705E+03  0.00000000000E+00 0.  1.
         11    1    4    4    0    0  0.79046206649E+02  0.12357144266E+03 -0.94094094875E+02  0.17427536520E+03  0.00000000000E+00 0. -1.
</event>
<event>
 8    1  0.3541538E-009  0.9771250E+02  0.7561462E-02  0.1285181E+00
         -2   -1    0    0    0  501 -0.00000000000E+00  0.00000000000E+00  0.58278180223E+02  0.58278180223E+02  0.00000000000E+00 0.  1.
          2   -1    0    0  501    0  0.00000000000E+00 -0.00000000000E+00 -0.26049674070E+03  0.26049674070E+03  0.00000000000E+00 0. -1.
         25    2    1    2    0    0  0.10876532507E+02 -0.46667419503E+02 -0.16281954390E+03  0.21084221266E+03  0.12509231696E+03 0.  0.
         23    2    1    2    0    0 -0.10876532507E+02  0.46667419503E+02 -0.39399016576E+02  0.10793270826E+03  0.88323496323E+02 0.  0.
          5    1    3    3  502    0  0.26616386290E+02 -0.76616119751E+02 -0.15629042325E+03  0.17613242355E+03  0.41800000000E+01 0.  1.
         -5    1    3    3    0  502 -0.15739853783E+02  0.29948700248E+02 -0.65291206455E+01  0.34709789110E+02  0.41800000000E+01 0.  1.
        -11    1    4    4    0    0  0.73666034480E+01 -0.14513795541E+02 -0.40954821511E+02  0.44070562878E+02  0.00000000000E+00 0. -1.
         11    1    4    4    0    0 -0.18243135955E+02  0.61181215045E+02  0.15558049356E+01  0.63862145382E+02  0.00000000000E+00 0.  1.
</event>
<event>
 8    1  0.3541538E-009  0.1043841E+03  0.7561462E-02  0.1271338E+00
         -2   -1    0    0    0  501 -0.00000000000E+00  0.00000000000E+00  0.27605895345E+03  0.27605895345E+03  0.00000000000E+00 0. -1.
          2   -1    0    0  501    0  0.00000000000E+00 -0.00000000000E+00 -0.51041817371E+02  0.51041817371E+02  0.00000000000E+00 0.  1.
         25    2    1    2    0    0  0.12194223133E+02 -0.42072249441E+02  0.94888242482E+02  0.16300635573E+03  0.12509404541E+03 0.  0.
         23    2    1    2    0    0 -0.12194223133E+02  0.42072249441E+02  0.13012889360E+03  0.16409441509E+03  0.89859194652E+02 0.  0.
          5    1    3    3  502    0 -0.56057256873E+02 -0.19217212685E+02  0.32808722874E+02  0.67864585817E+02  0.41800000000E+01 0.  1.
         -5    1    3    3    0  502  0.68251480005E+02 -0.22855036755E+02  0.62079519609E+02  0.95141769917E+02  0.41800000000E+01 0.  1.
        -11    1    4    4    0    0  0.13006773076E+02 -0.11943242040E+02  0.91221081997E+02  0.92914492825E+02  0.00000000000E+00 0. -1.
         11    1    4    4    0    0 -0.25200996208E+02  0.54015491481E+02  0.38907811600E+02  0.71179922263E+02  0.00000000000E+00 0.  1.
</event>
<event>
 8    1  0.3541538E-009  0.1795288E+03  0.7561462E-02  0.1168260E+00
         -1   -1    0    0    0  501 -0.00000000000E+00  0.00000000000E+00  0.82408437664E+02  0.82408437664E+02  0.00000000000E+00 0.  1.
          1   -1    0    0  501    0  0.00000000000E+00 -0.00000000000E+00 -0.59266952903E+03  0.59266952903E+03  0.00000000000E+00 0. -1.
         25    2    1    2    0    0  0.19845288991E+02 -0.15255199544E+03 -0.44198986682E+03  0.48442552025E+03  0.12508835074E+03 0.  0.
         23    2    1    2    0    0 -0.19845288991E+02  0.15255199544E+03 -0.68271224540E+02  0.19065244644E+03  0.89562539171E+02 0.  0.
          5    1    3    3  502    0  0.66847610738E+02 -0.96970141530E+02 -0.20487142341E+03  0.23635055308E+03  0.41800000000E+01 0.  1.
         -5    1    3    3    0  502 -0.47002321747E+02 -0.55581853914E+02 -0.23711844341E+03  0.24807496717E+03  0.41800000000E+01 0.  1.
        -11    1    4    4    0    0 -0.44251532399E+02  0.75988620095E+02 -0.66543334589E+02  0.11027458402E+03  0.00000000000E+00 0.  1.
         11    1    4    4    0    0  0.24406243408E+02  0.76563375349E+02 -0.17278899509E+01  0.80377862412E+02  0.00000000000E+00 0. -1.
</event>
<event>
 8    1  0.3541538E-009  0.1097627E+03  0.7561462E-02  0.1261010E+00
          2   -1    0    0  501    0  0.00000000000E+00  0.00000000000E+00  0.10305254924E+04  0.10305254924E+04  0.00000000000E+00 0. -1.
         -2   -1    0    0    0  501 -0.00000000000E+00 -0.00000000000E+00 -0.13343881624E+02  0.13343881624E+02  0.00000000000E+00 0.  1.
         25    2    1    2    0    0 -0.18310260113E+02 -0.24226424115E+02  0.71243864148E+03  0.72397361503E+03  0.12508713814E+03 0.  0.
         23    2    1    2    0    0  0.18310260113E+02  0.24226424115E+02  0.30474296925E+03  0.31989575895E+03  0.92427452831E+02 0.  0.
          5    1    3    3  502    0  0.23054391023E+02 -0.65775514588E+02  0.37127724641E+03  0.37778590414E+03  0.41800000000E+01 0. -1.
         -5    1    3    3    0  502 -0.41364651135E+02  0.41549090473E+02  0.34116139507E+03  0.34618771089E+03  0.41800000000E+01 0. -1.
        -11    1    4    4    0    0 -0.99535014233E+01  0.51017816687E+02  0.11506261918E+03  0.12625884580E+03  0.00000000000E+00 0.  1.
         11    1    4    4    0    0  0.28263761536E+02 -0.26791392573E+02  0.18968035007E+03  0.19363691315E+03  0.00000000000E+00 0. -1.
</event>
<event>
 8    1  0.3541538E-009  0.1848146E+03  0.7561462E-02  0.1163223E+00
          2   -1    0    0  501    0  0.00000000000E+00  0.00000000000E+00  0.11898400572E+03  0.11898400572E+03  0.00000000000E+00 0. -1.
         -2   -1    0    0    0  501 -0.00000000000E+00 -0.00000000000E+00 -0.35332839473E+03  0.35332839473E+03  0.00000000000E+00 0.  1.
         25    2    1    2    0    0  0.12421830654E+03  0.90310912977E+02 -0.21648464663E+03  0.29342821608E+03  0.12509303373E+03 0.  0.
         23    2    1    2    0    0 -0.12421830654E+03 -0.90310912977E+02 -0.17859742381E+02  0.17888418437E+03  0.89968507486E+02 0.  0.
          5    1    3    3  502    0  0.25486197931E+02  0.92135288218E+02 -0.78891056676E+02  0.12401503475E+03  0.41800000000E+01 0. -1.
         -5    1    3    3    0  502  0.98732108604E+02 -0.18243752412E+01 -0.13759358995E+03  0.16941318134E+03  0.41800000000E+01 0. -1.
        -11    1    4    4    0    0 -0.13247034861E+03 -0.63214898478E+02 -0.26747731035E+02  0.14919771368E+03  0.00000000000E+00 0. -1.
         11    1    4    4    0    0  0.82520420742E+01 -0.27096014499E+02  0.88879886541E+01  0.29686470697E+02  0.00000000000E+00 0.  1.
</event>
<event>
 8    1  0.3541538E-009  0.2845730E+03  0.7561462E-02  0.1093217E+00
         -2   -1    0    0    0  501 -0.00000000000E+00  0.00000000000E+00  0.42253154263E+02  0.42253154263E+02  0.00000000000E+00 0.  1.
          2   -1    0    0  501    0  0.00000000000E+00 -0.00000000000E+00 -0.21239214530E+04  0.21239214530E+04  0.00000000000E+00 0. -1.
         25    2    1    2    0    0  0.27349911718E+03  0.83188382960E+01 -0.12511685614E+04  0.12868337484E+04  0.12508939555E+03 0.  0.
         23    2    1    2    0    0 -0.27349911718E+03 -0.83188382960E+01 -0.83049973735E+03  0.87934085885E+03  0.92949244924E+02 0.  0.
          5    1    3    3  502    0  0.67405701705E+02 -0.45223036849E+02 -0.23717453827E+03  0.25071474964E+03  0.41800000000E+01 0. -1.
         -5    1    3    3    0  502  0.20609341548E+03  0.53541875145E+02 -0.10139940231E+04  0.10361189987E+04  0.41800000000E+01 0. -1.
        -11    1    4    4    0    0 -0.14433527386E+03  0.87765258441E+01 -0.29936604839E+03  0.33246011733E+03  0.00000000000E+00 0.  1.
         11    1    4    4    0    0 -0.12916384333E+03 -0.17095364140E+02 -0.53113368896E+03  0.54688074153E+03  0.00000000000E+00 0. -1.
</event>
<event>
 8    1  0.3541538E-009  0.1026486E+03  0.7561462E-02  0.1274823E+00
         -1   -1    0    0    0  501 -0.00000000000E+00  0.00000000000E+00  0.23526410377E+03  0.23526410377E+03  0.00000000000E+00 0.  1.
          1   -1    0    0  501    0  0.00000000000E+00 -0.00000000000E+00 -0.70659529987E+02  0.70659529987E+02  0.00000000000E+00 0. -1.
         25    2    1    2    0    0  0.33713061707E+02  0.25133377274E+02  0.24718050532E+02  0.13426583740E+03  0.12509226950E+03 0.  0.
         23    2    1    2    0    0 -0.33713061707E+02 -0.25133377274E+02  0.13988652325E+03  0.17165779635E+03  0.90165971847E+02 0.  0.
          5    1    3    3  502    0 -0.46031720752E+02  0.90211396905E+01  0.23871454205E+02  0.52797907180E+02  0.41800000000E+01 0.  1.
         -5    1    3    3    0  502  0.79744782459E+02  0.16112237584E+02  0.84659632680E+00  0.81467930222E+02  0.41800000000E+01 0.  1.
        -11    1    4    4    0    0  0.19111217164E+02 -0.25095999803E+01  0.99672815162E+02  0.10151948973E+03  0.00000000000E+00 0.  1.
         11    1    4    4    0    0 -0.52824278871E+02 -0.22623777294E+02  0.40213708087E+02  0.70138306619E+02  0.00000000000E+00 0. -1.
</event>
<event>
 8    1  0.3541538E-009  0.1206364E+03  0.7561462E-02  0.1242051E+00
         -2   -1    0    0    0  501 -0.00000000000E+00  0.00000000000E+00  0.32113997472E+02  0.32113997472E+02  0.00000000000E+00 0.  1.
          2   -1    0    0  501    0  0.00000000000E+00 -0.00000000000E+00 -0.70468469893E+03  0.70468469893E+03  0.00000000000E+00 0. -1.
         25    2    1    2    0    0  0.37808354048E+02 -0.86705005848E+02 -0.25813577434E+03  0.30203983329E+03  0.12508698265E+03 0.  0.
         23    2    1    2    0    0 -0.37808354048E+02  0.86705005848E+02 -0.41443492712E+03  0.43475886311E+03  0.91168692866E+02 0.  0.
          5    1    3    3  502    0 -0.59303082368E+01 -0.74837429222E+02 -0.24254381947E+03  0.25393067190E+03  0.41800000000E+01 0. -1.
         -5    1    3    3    0  502  0.43738662285E+02 -0.11867576626E+02 -0.15591954868E+02  0.48109161395E+02  0.41800000000E+01 0. -1.
        -11    1    4    4    0    0 -0.46026371493E+02  0.15016623253E+02 -0.87948250063E+02  0.10039332914E+03  0.00000000000E+00 0.  1.
         11    1    4    4    0    0  0.82180174443E+01  0.71688382595E+02 -0.32648667705E+03  0.33436553397E+03  0.00000000000E+00 0. -1.
</event>
<event>
 8    1  0.3541538E-009  0.1686425E+03  0.7561462E-02  0.1179271E+00
         -2   -1    0    0    0  501 -0.00000000000E+00  0.00000000000E+00  0.31056796669E+02  0.31056796669E+02  0.00000000000E+00 0.  1.
          2   -1    0    0  501    0  0.00000000000E+00 -0.00000000000E+00 -0.10304282645E+04  0.10304282645E+04  0.00000000000E+00 0. -1.
         25    2    1    2    0    0 -0.14377031548E+03 -0.12964520248E+01 -0.52702881953E+03  0.56042657729E+03  0.12508791917E+03 0.  0.
         23    2    1    2    0    0  0.14377031548E+03  0.12964520248E+01 -0.47234264834E+03  0.50105848391E+03  0.85325508861E+02 0.  0.
          5    1    3    3  502    0 -0.11993906871E+03 -0.53181875716E+02 -0.40259644823E+03  0.42345609529E+03  0.41800000000E+01 0. -1.
         -5    1    3    3    0  502 -0.23831246768E+02  0.51885423691E+02 -0.12443237130E+03  0.13697048201E+03  0.41800000000E+01 0. -1.
        -11    1    4    4    0    0  0.91780984616E+02  0.19227560040E+02 -0.17371395030E+03  0.19740816785E+03  0.00000000000E+00 0.  1.
         11    1    4    4    0    0  0.51989330860E+02 -0.17931108016E+02 -0.29862869804E+03  0.30365031607E+03  0.00000000000E+00 0. -1.
</event>
<event>
 8    1  0.3541538E-009  0.2340278E+03  0.7561462E-02  0.1123837E+00
          1   -1    0    0  501    0  0.00000000000E+00  0.00000000000E+00  0.36756440195E+03  0.36756440195E+03  0.00000000000E+00 0. -1.
         -1   -1    0    0    0  501 -0.00000000000E+00 -0.00000000000E+00 -0.25177906986E+03  0.25177906986E+03  0.00000000000E+00 0.  1.
         25    2    1    2    0    0 -0.21716608379E+03 -0.48361021588E+02  0.23796863846E+03  0.34896339866E+03  0.12508590790E+03 0.  0.
         23    2    1    2    0    0  0.21716608379E+03  0.48361021588E+02 -0.12218330638E+03  0.27038007314E+03  0.93148951886E+02 0.  0.
          5    1    3    3  502    0 -0.12905308300E+03  0.23118377842E+02  0.77393277730E+02  0.15230347818E+03  0.41800000000E+01 0. -1.
         -5    1    3    3    0  502 -0.88113000789E+02 -0.71479399430E+02  0.16057536073E+03  0.19665992049E+03  0.41800000000E+01 0. -1.
        -11    1    4    4    0    0  0.16398305870E+03  0.27787889300E+02 -0.13222885567E+03  0.21247842385E+03  0.00000000000E+00 0.  1.
         11    1    4    4    0    0  0.53183025093E+02  0.20573132288E+02  0.10045549289E+02  0.57901649292E+02  0.00000000000E+00 0. -1.
</event>
<event>
 8    1  0.3541538E-009  0.1138285E+03  0.7561462E-02  0.1253640E+00
         -4   -1    0    0    0  501 -0.00000000000E+00  0.00000000000E+00  0.35986537239E+02  0.35986537239E+02  0.00000000000E+00 0.  1.
          4   -1    0    0  501    0  0.00000000000E+00 -0.00000000000E+00 -0.45000117170E+03  0.45000117170E+03  0.00000000000E+00 0. -1.
         25    2    1    2    0    0  0.12523833923E+02 -0.57978520456E+02 -0.28766909256E+03  0.31924057265E+03  0.12507070465E+03 0.  0.
         23    2    1    2    0    0 -0.12523833923E+02  0.57978520456E+02 -0.12634554190E+03  0.16674713628E+03  0.91230785654E+02 0.  0.
          5    1    3    3  502    0 -0.15813339969E+02 -0.86866874166E+02 -0.13593274650E+03  0.16214530372E+03  0.41800000000E+01 0.  1.
         -5    1    3    3    0  502  0.28337173892E+02  0.28888353710E+02 -0.15173634606E+03  0.15709526893E+03  0.41800000000E+01 0.  1.
        -11    1    4    4    0    0 -0.28399321635E+02  0.72001604890E+02 -0.12296544882E+03  0.14529712378E+03  0.00000000000E+00 0.  1.
         11    1    4    4    0    0  0.15875487712E+02 -0.14023084434E+02 -0.33800930801E+01  0.21450012503E+02  0.00000000000E+00 0. -1.
</event>
<event>
 8    1  0.3541538E-009  0.8717403E+02  0.7561462E-02  0.1309843E+00
         -1   -1    0    0    0  501 -0.00000000000E+00  0.00000000000E+00  0.56390893503E+02  0.56390893503E+02  0.00000000000E+00 0.  1.
          1   -1    0    0  501    0  0.00000000000E+00 -0.00000000000E+00 -0.27189028596E+03  0.27189028596E+03  0.00000000000E+00 0. -1.
         25    2    1    2    0    0 -0.56875383502E+02 -0.15463886934E+02 -0.10424268712E+03  0.17316880600E+03  0.12508779519E+03 0.  0.
         23    2    1    2    0    0  0.56875383502E+02  0.15463886934E+02 -0.11125670534E+03  0.15511237347E+03  0.90597201239E+02 0.  0.
          5    1    3    3  502    0  0.11393242458E+02 -0.10286511939E+02 -0.10335367240E+03  0.10457089605E+03  0.41800000000E+01 0. -1.
         -5    1    3    3    0  502 -0.68268625960E+02 -0.51773749950E+01 -0.88901471938E+00  0.68597909950E+02  0.41800000000E+01 0. -1.
        -11    1    4    4    0    0  0.36182087872E+02 -0.25287338539E+02 -0.11855338431E+02  0.45707133168E+02  0.00000000000E+00 0.  1.
         11    1    4    4    0    0  0.20693295630E+02  0.40751225473E+02 -0.99401366912E+02  0.10940524030E+03  0.00000000000E+00 0. -1.
</event>
<event>
 8    1  0.3541538E-009  0.9863573E+02  0.7561462E-02  0.1283191E+00
          1   -1    0    0  501    0  0.00000000000E+00  0.00000000000E+00  0.11199034432E+04  0.11199034432E+04  0.00000000000E+00 0. -1.
         -1   -1    0    0    0  501 -0.00000000000E+00 -0.00000000000E+00 -0.11525331406E+02  0.11525331406E+02  0.00000000000E+00 0.  1.
         25    2    1    2    0    0  0.28095655066E+02  0.13732231684E+01  0.70742585205E+03  0.71895226946E+03  0.12509907288E+03 0.  0.
         23    2    1    2    0    0 -0.28095655066E+02 -0.13732231684E+01  0.40095225974E+03  0.41247650514E+03  0.92643948149E+02 0.  0.
          5    1    3    3  502    0 -0.35948277676E+02  0.16184960580E+02  0.94245935368E+02  0.10224480598E+03  0.41800000000E+01 0. -1.
         -5    1    3    3    0  502  0.64043932742E+02 -0.14811737411E+02  0.61317991668E+03  0.61670746348E+03  0.41800000000E+01 0. -1.
        -11    1    4    4    0    0 -0.32587455038E+02 -0.40721702834E+02  0.29035582828E+03  0.29500289206E+03  0.00000000000E+00 0.  1.
         11    1    4    4    0    0  0.44917999722E+01  0.39348479666E+02  0.11059643146E+03  0.11747361308E+03  0.00000000000E+00 0. -1.
</event>
<event>
 8    1  0.3541538E-009  0.1261888E+03  0.7561462E-02  0.1233223E+00
          2   -1    0    0  501    0  0.00000000000E+00  0.00000000000E+00  0.63581501144E+03  0.63581501144E+03  0.00000000000E+00 0.  1.
         -2   -1    0    0    0  501 -0.00000000000E+00 -0.00000000000E+00 -0.26757966431E+02  0.26757966431E+02  0.00000000000E+00 0. -1.
         25    2    1    2    0    0  0.67156226757E+02 -0.18145140271E+02  0.38039886761E+03  0.40643567083E+03  0.12508977230E+03 0.  0.
         23    2    1    2    0    0 -0.67156226757E+02  0.18145140271E+02  0.22865817740E+03  0.25613730705E+03  0.92100776655E+02 0.  0.
          5    1    3    3  502    0  0.54141734704E+02  0.48020018358E+02  0.15470140286E+03  0.17084275239E+03  0.41800000000E+01 0.  1.
         -5    1    3    3    0  502  0.13014492054E+02 -0.66165158629E+02  0.22569746475E+03  0.23559291843E+03  0.41800000000E+01 0.  1.
        -11    1    4    4    0    0 -0.71580346647E+02  0.45367384942E+02  0.14384948307E+03  0.16695693883E+03  0.00000000000E+00 0. -1.
         11    1    4    4    0    0  0.44241198901E+01 -0.27222244670E+02  0.84808694331E+02  0.89180368220E+02  0.00000000000E+00 0.  1.
</event>
<event>
 8    1  0.3541538E-009  0.8779107E+02  0.7561462E-02  0.1308291E+00
          2   -1    0    0  501    0  0.00000000000E+00  0.00000000000E+00  0.22767772247E+03  0.22767772247E+03  0.00000000000E+00 0.  1.
         -2   -1    0    0    0  501 -0.00000000000E+00 -0.00000000000E+00 -0.57453952577E+02  0.57453952577E+02  0.00000000000E+00 0. -1.
         25    2    1    2    0    0  0.10863073270E+02 -0.37121979343E+02  0.83504943185E+02  0.15529384862E+03  0.12508819357E+03 0.  0.
         23    2    1    2    0    0 -0.10863073270E+02  0.37121979343E+02  0.86718826713E+02  0.12983782644E+03  0.88553139728E+02 0.  0.
          5    1    3    3  502    0  0.59693773071E+02 -0.38015472506E+02  0.78882917807E+02  0.10605899215E+03  0.41800000000E+01 0.  1.
         -5    1    3    3    0  502 -0.48830699801E+02  0.89349316310E+00  0.46220253774E+01  0.49234856471E+02  0.41800000000E+01 0.  1.
        -11    1    4    4    0    0 -0.20092010593E+02  0.41001129551E+02  0.10189485796E+03  0.11165725948E+03  0.00000000000E+00 0.  1.
         11    1    4    4    0    0  0.92289373238E+01 -0.38791502087E+01 -0.15176031250E+02  0.18180566960E+02  0.00000000000E+00 0. -1.
</event>
<event>
 8    1  0.3541538E-009  0.2326302E+03  0.7561462E-02  0.1124802E+00
         -1   -1    0    0    0  501 -0.00000000000E+00  0.00000000000E+00  0.11168144369E+03  0.11168144369E+03  0.00000000000E+00 0.  1.
          1   -1    0    0  501    0  0.00000000000E+00 -0.00000000000E+00 -0.52074325148E+03  0.52074325148E+03  0.00000000000E+00 0. -1.
         25    2    1    2    0    0  0.93964654002E+02 -0.19302676395E+03 -0.22744232605E+03  0.33684721137E+03  0.12508934537E+03 0.  0.
         23    2    1    2    0    0 -0.93964654002E+02  0.19302676395E+03 -0.18161948173E+03  0.29557748380E+03  0.91058909399E+02 0.  0.
          5    1    3    3  502    0  0.11304082154E+03 -0.17653677818E+03 -0.22992244830E+03  0.31116758511E+03  0.41800000000E+01 0. -1.
         -5    1    3    3    0  502 -0.19076167539E+02 -0.16489985770E+02  0.24801222554E+01  0.25679626265E+02  0.41800000000E+01 0. -1.
        -11    1    4    4    0    0 -0.22789660075E+02  0.13852371248E+03 -0.13398123146E+03  0.19405967615E+03  0.00000000000E+00 0.  1.
         11    1    4    4    0    0 -0.71174993927E+02  0.54503051477E+02 -0.47638250274E+02  0.10151780765E+03  0.00000000000E+00 0. -1.
</event>
<event>
 8    1  0.3541538E-009  0.1264665E+03  0.7561462E-02  0.1232795E+00
          1   -1    0    0  501    0  0.00000000000E+00  0.00000000000E+00  0.56074932452E+03  0.56074932452E+03  0.00000000000E+00 0. -1.
         -1   -1    0    0    0  501 -0.00000000000E+00 -0.00000000000E+00 -0.37940890995E+02  0.37940890995E+02  0.00000000000E+00 0.  1.
         25    2    1    2    0    0 -0.57507570433E+02  0.58921183417E+02  0.17386139455E+03  0.22946435225E+03  0.12508907997E+03 0.  0.
         23    2    1    2    0    0  0.57507570433E+02 -0.58921183417E+02  0.34894703897E+03  0.36922586326E+03  0.88231941945E+02 0.  0.
          5    1    3    3  502    0  0.32445483482E+02  0.20146299705E+02  0.98737189639E+02  0.10594851489E+03  0.41800000000E+01 0. -1.
         -5    1    3    3    0  502 -0.89953053915E+02  0.38774883712E+02  0.75124204914E+02  0.12351583736E+03  0.41800000000E+01 0. -1.
        -11    1    4    4    0    0  0.14823694277E+02 -0.70662653116E+02  0.16642203468E+03  0.18140905734E+03  0.00000000000E+00 0.  1.
         11    1    4    4    0    0  0.42683876156E+02  0.11741469698E+02  0.18252500429E+03  0.18781680592E+03  0.00000000000E+00 0. -1.
</event>
<event>
 8    1  0.3541538E-009  0.1029075E+03  0.7561462E-02  0.1274298E+00
          4   -1    0    0  501    0  0.00000000000E+00  0.00000000000E+00  0.18175104310E+03  0.18175104310E+03  0.00000000000E+00 0. -1.
         -4   -1    0    0    0  501 -0.00000000000E+00 -0.00000000000E+00 -0.87767222265E+02  0.87767222265E+02  0.00000000000E+00 0.  1.
         25    2    1    2    0    0  0.24620663507E+02 -0.33228826331E+02  0.99521376083E+02  0.16511343043E+03  0.12509040188E+03 0.  0.
         23    2    1    2    0    0 -0.24620663507E+02  0.33228826331E+02 -0.55375552522E+01  0.10440483493E+03  0.95704613614E+02 0.  0.
          5    1    3    3  502    0  0.74609241800E+02 -0.23970124179E+02  0.45056699482E+02  0.90491349771E+02  0.41800000000E+01 0.  1.
         -5    1    3    3    0  502 -0.49988578293E+02 -0.92587021521E+01  0.54464676601E+02  0.74622080663E+02  0.41800000000E+01 0.  1.
        -11    1    4    4    0    0  0.19606294564E+02  0.24274946681E+02  0.32743147172E+02  0.45230448921E+02  0.00000000000E+00 0. -1.
         11    1    4    4    0    0 -0.44226958071E+02  0.89538796502E+01 -0.38280702424E+02  0.59174386005E+02  0.00000000000E+00 0.  1.
</event>
<event>
 8    1  0.3541538E-009  0.1187050E+03  0.7561462E-02  0.1245249E+00
          3   -1    0    0  501    0  0.00000000000E+00  0.00000000000E+00  0.67468127826E+02  0.67468127826E+02  0.00000000000E+00 0. -1.
         -3   -1    0    0    0  501 -0.00000000000E+00 -0.00000000000E+00 -0.21991247042E+03  0.21991247042E+03  0.00000000000E+00 0.  1.
         25    2    1    2    0    0  0.47272741716E+02  0.24666294343E+02 -0.80069211728E+02  0.15780259746E+03  0.12508973944E+03 0.  0.
         23    2    1    2    0    0 -0.47272741716E+02 -0.24666294343E+02 -0.72375130869E+02  0.12957800079E+03  0.93322883228E+02 0.  0.
          5    1    3    3  502    0 -0.24727009266E+02 -0.34529586065E+02 -0.24857824423E+02  0.49387256819E+02  0.41800000000E+01 0. -1.
         -5    1    3    3    0  502  0.71999750982E+02  0.59195880407E+02 -0.55211387305E+02  0.10841534064E+03  0.41800000000E+01 0. -1.
        -11    1    4    4    0    0  0.11087153537E+02  0.23355298865E+02 -0.13883040311E+01  0.25890584132E+02  0.00000000000E+00 0. -1.
         11    1    4    4    0    0 -0.58359895253E+02 -0.48021593208E+02 -0.70986826838E+02  0.10368741666E+03  0.00000000000E+00 0.  1.
</event>
<event>
 8    1  0.3541538E-009  0.9893108E+02  0.7561462E-02  0.1282560E+00
         -1   -1    0    0    0  501 -0.00000000000E+00  0.00000000000E+00  0.42108044508E+02  0.42108044508E+02  0.00000000000E+00 0.  1.
          1   -1    0    0  501    0  0.00000000000E+00 -0.00000000000E+00 -0.29797774046E+03  0.29797774046E+03  0.00000000000E+00 0. -1.
         25    2    1    2    0    0  0.65285164991E+01 -0.27985935255E+02 -0.13970099019E+03  0.18970752782E+03  0.12508695116E+03 0.  0.
         23    2    1    2    0    0 -0.65285164991E+01  0.27985935255E+02 -0.11616870577E+03  0.15037825715E+03  0.91063812378E+02 0.  0.
          5    1    3    3  502    0  0.40157571869E+02 -0.65966059615E+02 -0.87963501614E+02  0.11712899562E+03  0.41800000000E+01 0.  1.
         -5    1    3    3    0  502 -0.33629055370E+02  0.37980124360E+02 -0.51737488572E+02  0.72578532192E+02  0.41800000000E+01 0.  1.
        -11    1    4    4    0    0 -0.28825582774E+02  0.35828259282E+02 -0.17963396183E+02  0.49368633644E+02  0.00000000000E+00 0.  1.
         11    1    4    4    0    0  0.22297066275E+02 -0.78423240269E+01 -0.98205309585E+02  0.10100962351E+03  0.00000000000E+00 0. -1.
</event>
<event>
 8    1  0.3541538E-009  0.1263291E+03  0.7561462E-02  0.1233007E+00
          2   -1    0    0  501    0  0.00000000000E+00  0.00000000000E+00  0.53226627274E+02  0.53226627274E+02  0.00000000000E+00 0. -1.
         -2   -1    0    0    0  501 -0.00000000000E+00 -0.00000000000E+00 -0.32487489938E+03  0.32487489938E+03  0.00000000000E+00 0.  1.
         25    2    1    2    0    0  0.60094973478E+02  0.42859430625E+02 -0.14527845045E+03  0.20542962859E+03  0.12508863860E+03 0.  0.
         23    2    1    2    0    0 -0.60094973478E+02 -0.42859430625E+02 -0.12636982166E+03  0.17267189807E+03  0.91640143627E+02 0.  0.
          5    1    3    3  502    0  0.90544666497E+02  0.56548395049E+02 -0.85507844497E+02  0.13683976573E+03  0.41800000000E+01 0.  1.
         -5    1    3    3    0  502 -0.30449693019E+02 -0.13688964424E+02 -0.59770605951E+02  0.68589862864E+02  0.41800000000E+01 0.  1.
        -11    1    4    4    0    0 -0.45802726259E+02  0.18335561977E+02 -0.82167024546E+02  0.95841027168E+02  0.00000000000E+00 0.  1.
         11    1    4    4    0    0 -0.14292247219E+02 -0.61194992602E+02 -0.44202797115E+02  0.76830870898E+02  0.00000000000E+00 0. -1.
</event>
<event>
 8    1  0.3541538E-009  0.2041835E+03  0.7561462E-02  0.1146257E+00
         -2   -1    0    0    0  501 -0.00000000000E+00  0.00000000000E+00  0.13443224623E+03  0.13443224623E+03  0.00000000000E+00 0.  1.
          2   -1    0    0  501    0  0.00000000000E+00 -0.00000000000E+00 -0.31621994347E+03  0.31621994347E+03  0.00000000000E+00 0. -1.
         25    2    1    2    0    0  0.14035871907E+03  0.10292808618E+03 -0.73776814070E+02  0.22668190389E+03  0.12508759457E+03 0.  0.
         23    2    1    2    0    0 -0.14035871907E+03 -0.10292808618E+03 -0.10801088317E+03  0.22397028581E+03  0.90562559033E+02 0.  0.
          5    1    3    3  502    0 -0.17417151073E+02 -0.79060606586E+01 -0.16196709773E+02  0.25410012871E+02  0.41800000000E+01 0. -1.
         -5    1    3    3    0  502  0.15777587014E+03  0.11083414684E+03 -0.57580104297E+02  0.20127189102E+03  0.41800000000E+01 0. -1.
        -11    1    4    4    0    0 -0.64645040381E+02  0.41589838838E+01 -0.41356475204E+02  0.76854644844E+02  0.00000000000E+00 0. -1.
         11    1    4    4    0    0 -0.75713678691E+02 -0.10708707006E+03 -0.66654407963E+02  0.14711564096E+03  0.00000000000E+00 0.  1.
</event>
<event>
 8    1  0.3541538E-009  0.1168813E+03  0.7561462E-02  0.1248332E+00
         -2   -1    0    0    0  501 -0.00000000000E+00  0.00000000000E+00  0.22098506674E+02  0.22098506674E+02  0.00000000000E+00 0.  1.
          2   -1    0    0  501    0  0.00000000000E+00 -0.00000000000E+00 -0.81964028388E+03  0.81964028388E+03  0.00000000000E+00 0. -1.
         25    2    1    2    0    0 -0.76962770817E+01  0.63890449583E+02 -0.29716127579E+03  0.32877485017E+03  0.12508739363E+03 0.  0.
         23    2    1    2    0    0  0.76962770817E+01 -0.63890449583E+02 -0.50038050142E+03  0.51296394039E+03  0.92790816950E+02 0.  0.
          5    1    3    3  502    0  0.48102093028E+02  0.38422072598E+02 -0.69412513863E+02  0.92874304827E+02  0.41800000000E+01 0. -1.
         -5    1    3    3    0  502 -0.55798370109E+02  0.25468376986E+02 -0.22774876193E+03  0.23590054534E+03  0.41800000000E+01 0. -1.
        -11    1    4    4    0    0 -0.40964401957E+02 -0.35731936582E+02 -0.19418457964E+03  0.20164945944E+03  0.00000000000E+00 0.  1.
         11    1    4    4    0    0  0.48660679039E+02 -0.28158513002E+02 -0.30619592177E+03  0.31131448095E+03  0.00000000000E+00 0. -1.
</event>
<event>
 8    1  0.3541538E-009  0.3064536E+03  0.7561462E-02  0.1082058E+00
          1   -1    0    0  501    0  0.00000000000E+00  0.00000000000E+00  0.16590997347E+03  0.16590997347E+03  0.00000000000E+00 0. -1.
         -1   -1    0    0    0  501 -0.00000000000E+00 -0.00000000000E+00 -0.63466972423E+03  0.63466972423E+03  0.00000000000E+00 0.  1.
         25    2    1    2    0    0  0.26276115510E+03 -0.14539347038E+03 -0.16910411400E+03  0.36664124386E+03  0.12508762715E+03 0.  0.
         23    2    1    2    0    0 -0.26276115510E+03  0.14539347038E+03 -0.29965563676E+03  0.43393845384E+03  0.91249083403E+02 0.  0.
          5    1    3    3  502    0  0.84014165322E+02 -0.93876124182E+02 -0.12037847991E+03  0.17429732497E+03  0.41800000000E+01 0.  1.
         -5    1    3    3    0  502  0.17874698978E+03 -0.51517346201E+02 -0.48725634084E+02  0.19234391889E+03  0.41800000000E+01 0.  1.
        -11    1    4    4    0    0 -0.84644726338E+02  0.37845604319E+02 -0.39425187810E+02  0.10075398204E+03  0.00000000000E+00 0. -1.
         11    1    4    4    0    0 -0.17811642877E+03  0.10754786606E+03 -0.26023044895E+03  0.33318447180E+03  0.00000000000E+00 0.  1.
</event>
<event>
 8    1  0.3541538E-009  0.1354611E+03  0.7561462E-02  0.1219570E+00
          1   -1    0    0  501    0  0.00000000000E+00  0.00000000000E+00  0.76363710920E+03  0.76363710920E+03  0.00000000000E+00 0. -1.
         -1   -1    0    0    0  501 -0.00000000000E+00 -0.00000000000E+00 -0.38235630445E+02  0.38235630445E+02  0.00000000000E+00 0.  1.
         25    2    1    2    0    0 -0.34225661554E+02 -0.11534713603E+03  0.50968253257E+03  0.53842251288E+03  0.12508461407E+03 0.  0.
         23    2    1    2    0    0  0.34225661554E+02  0.11534713603E+03  0.21571894619E+03  0.26345022677E+03  0.91624235536E+02 0.  0.
          5    1    3    3  502    0 -0.50611871474E+02 -0.78173870208E+02  0.15124594325E+03  0.17766688849E+03  0.41800000000E+01 0. -1.
         -5    1    3    3    0  502  0.16386209920E+02 -0.37173265822E+02  0.35843658932E+03  0.36075562439E+03  0.41800000000E+01 0. -1.
        -11    1    4    4    0    0 -0.18083859329E+02  0.49918964727E+02  0.14294050933E+03  0.15248251774E+03  0.00000000000E+00 0. -1.
         11    1    4    4    0    0  0.52309520884E+02  0.65428171303E+02  0.72778436862E+02  0.11096770903E+03  0.00000000000E+00 0.  1.
</event>
<event>
 8    1  0.3541538E-009  0.5271708E+02  0.7561462E-02  0.1431214E+00
          1   -1    0    0  501    0  0.00000000000E+00  0.00000000000E+00  0.59744937282E+03  0.59744937282E+03  0.00000000000E+00 0. -1.
         -1   -1    0    0    0  501 -0.00000000000E+00 -0.00000000000E+00 -0.42688237041E+02  0.42688237041E+02  0.00000000000E+00 0.  1.
         25    2    1    2    0    0 -0.28655055868E+02 -0.39147694423E+01  0.53057394004E+03  0.54588758124E+03  0.12509239726E+03 0.  0.
         23    2    1    2    0    0  0.28655055868E+02  0.39147694423E+01  0.24187195736E+02  0.94250028623E+02  0.86380610158E+02 0.  0.
          5    1    3    3  502    0 -0.13128216032E+02  0.21282424686E+02  0.50748488863E+03  0.50811777792E+03  0.41800000000E+01 0.  1.
         -5    1    3    3    0  502 -0.15526839836E+02 -0.25197194129E+02  0.23089051415E+02  0.37769803315E+02  0.41800000000E+01 0.  1.
        -11    1    4    4    0    0  0.12683117385E+02  0.22412055203E+02 -0.27132983286E+02  0.37408026773E+02  0.00000000000E+00 0.  1.
         11    1    4    4    0    0  0.15971938483E+02 -0.18497285761E+02  0.51320179022E+02  0.56842001850E+02  0.00000000000E+00 0. -1.
</event>
<event>
 8    1  0.3541538E-009  0.9203745E+02  0.7561462E-02  0.1297991E+00
         -1   -1    0    0    0  501 -0.00000000000E+00  0.00000000000E+00  0.59438935513E+03  0.59438935513E+03  0.00000000000E+00 0.  1.
          1   -1    0    0  501    0  0.00000000000E+00 -0.00000000000E+00 -0.20374958605E+02  0.20374958605E+02  0.00000000000E+00 0. -1.
         25    2    1    2    0    0  0.79107498572E+01  0.12761300224E+02  0.28912427113E+03  0.31538170531E+03  0.12508934864E+03 0.  0.
         23    2    1    2    0    0 -0.79107498572E+01 -0.12761300224E+02  0.28489012540E+03  0.29938260842E+03  0.90786187991E+02 0.  0.
          5    1    3    3  502    0  0.27881704032E+02 -0.38890151623E+02  0.22711524471E+03  0.23213926875E+03  0.41800000000E+01 0. -1.
         -5    1    3    3    0  502 -0.19970954175E+02  0.51651451847E+02  0.62009026411E+02  0.83242436564E+02  0.41800000000E+01 0. -1.
        -11    1    4    4    0    0  0.35414582723E+02 -0.27248846436E+00  0.20144615264E+03  0.20453561874E+03  0.00000000000E+00 0.  1.
         11    1    4    4    0    0 -0.43325332580E+02 -0.12488811760E+02  0.83443972755E+02  0.94846989681E+02  0.00000000000E+00 0. -1.
</event>
<event>
 8    1  0.3541538E-009  0.1517215E+03  0.7561462E-02  0.1198373E+00
         -1   -1    0    0    0  501 -0.00000000000E+00  0.00000000000E+00  0.85306571144E+02  0.85306571144E+02  0.00000000000E+00 0.  1.
          1   -1    0    0  501    0  0.00000000000E+00 -0.00000000000E+00 -0.38703199752E+03  0.38703199752E+03  0.00000000000E+00 0. -1.
         25    2    1    2    0    0 -0.69827215462E+02 -0.91208095406E+02 -0.27549709243E+03  0.32363588622E+03  0.12508709855E+03 0.  0.
         23    2    1    2    0    0  0.69827215462E+02  0.91208095406E+02 -0.26228333946E+02  0.14870268245E+03  0.90718275877E+02 0.  0.
          5    1    3    3  502    0  0.36291029081E+02 -0.20768864639E+02 -0.59407523075E+02  0.72767511488E+02  0.41800000000E+01 0.  1.
         -5    1    3    3    0  502 -0.10611824454E+03 -0.70439230768E+02 -0.21608956935E+03  0.25086837473E+03  0.41800000000E+01 0.  1.
        -11    1    4    4    0    0  0.31691024744E+02 -0.35020349464E+01  0.18910212577E+02  0.37069953302E+02  0.00000000000E+00 0.  1.
         11    1    4    4    0    0  0.38136190719E+02  0.94710130353E+02 -0.45138546523E+02  0.11163272914E+03  0.00000000000E+00 0. -1.
</event>
<event>
 8    1  0.3541538E-009  0.1037883E+03  0.7561462E-02  0.1272526E+00
          1   -1    0    0  501    0  0.00000000000E+00  0.00000000000E+00  0.23414572154E+03  0.23414572154E+03  0.00000000000E+00 0. -1.
         -1   -1    0    0    0  501 -0.00000000000E+00 -0.00000000000E+00 -0.74433308541E+02  0.74433308541E+02  0.00000000000E+00 0.  1.
         25    2    1    2    0    0 -0.27909218242E+02  0.59223763228E+02  0.13003792530E+03  0.19193491206E+03  0.12507105924E+03 0.  0.
         23    2    1    2    0    0  0.27909218242E+02 -0.59223763228E+02  0.29674487695E+02  0.11664411802E+03  0.91863466372E+02 0.  0.
          5    1    3    3  502    0 -0.71249751539E+02  0.52221316258E+02  0.11556244796E+03  0.14551888106E+03  0.41800000000E+01 0.  1.
         -5    1    3    3    0  502  0.43340533297E+02  0.70024469707E+01  0.14475477344E+02  0.46416031007E+02  0.41800000000E+01 0.  1.
        -11    1    4    4    0    0 -0.17695969695E+00 -0.42190906633E+02 -0.27742696955E+02  0.50495159685E+02  0.00000000000E+00 0.  1.
         11    1    4    4    0    0  0.28086177939E+02 -0.17032856595E+02  0.57417184650E+02  0.66148958330E+02  0.00000000000E+00 0. -1.
</event>
<event>
 8    1  0.3541538E-009  0.1886605E+03  0.7561462E-02  0.1159675E+00
          2   -1    0    0  501    0  0.00000000000E+00  0.00000000000E+00  0.28568628149E+03  0.28568628149E+03  0.00000000000E+00 0. -1.
         -2   -1    0    0    0  501 -0.00000000000E+00 -0.00000000000E+00 -0.17358523253E+03  0.17358523253E+03  0.00000000000E+00 0.  1.
         25    2    1    2    0    0  0.10911039579E+03 -0.15085636457E+03  0.11561225149E+03  0.25234750204E+03  0.12510135046E+03 0.  0.
         23    2    1    2    0    0 -0.10911039579E+03  0.15085636457E+03 -0.35112025355E+01  0.20692401199E+03  0.90235785541E+02 0.  0.
          5    1    3    3  502    0  0.65721402406E+02 -0.12249516007E+03  0.16019252928E+02  0.13999448503E+03  0.41800000000E+01 0.  1.
         -5    1    3    3    0  502  0.43388993381E+02 -0.28361204510E+02  0.99592998567E+02  0.11235301701E+03  0.41800000000E+01 0.  1.
        -11    1    4    4    0    0 -0.26871792599E+02  0.33678745555E+02  0.38447023471E+02  0.57745343998E+02  0.00000000000E+00 0. -1.
         11    1    4    4    0    0 -0.82238603188E+02  0.11717761902E+03 -0.41958226007E+02  0.14917866799E+03  0.00000000000E+00 0.  1.
</event>
<event>
 8    1  0.3541538E-009  0.1477462E+03  0.7561462E-02  0.1203270E+00
         -2   -1    0    0    0  501 -0.00000000000E+00  0.00000000000E+00  0.10973903818E+03  0.10973903818E+03  0.00000000000E+00 0. -1.
          2   -1    0    0  501    0  0.00000000000E+00 -0.00000000000E+00 -0.39676840040E+03  0.39676840040E+03  0.00000000000E+00 0.  1.
         25    2    1    2    0    0  0.44972611442E+02  0.11611033942E+03  0.47171004291E+01  0.17655637278E+03  0.12508299257E+03 0.  0.
         23    2    1    2    0    0 -0.44972611442E+02 -0.11611033942E+03 -0.29174646265E+03  0.32995106580E+03  0.90816081462E+02 0.  0.
          5    1    3    3  502    0  0.95354354884E+01  0.10516619566E+03  0.50799041616E+02  0.11725556818E+03  0.41800000000E+01 0.  1.
         -5    1    3    3    0  502  0.35437175954E+02  0.10944143760E+02 -0.46081941187E+02  0.59300804596E+02  0.41800000000E+01 0.  1.
        -11    1    4    4    0    0  0.19161680929E+02 -0.72357206835E+02 -0.16717050878E+03  0.18316308145E+03  0.00000000000E+00 0. -1.
         11    1    4    4    0    0 -0.64134292372E+02 -0.43753132588E+02 -0.12457595387E+03  0.14678798436E+03  0.00000000000E+00 0.  1.
</event>
<event>
 8    1  0.3541538E-009  0.1599850E+03  0.7561462E-02  0.1188714E+00
          1   -1    0    0  501    0  0.00000000000E+00  0.00000000000E+00  0.50722469075E+02  0.50722469075E+02  0.00000000000E+00 0. -1.
         -1   -1    0    0    0  501 -0.00000000000E+00 -0.00000000000E+00 -0.66248458041E+03  0.66248458041E+03  0.00000000000E+00 0.  1.
         25    2    1    2    0    0  0.77537560913E+02  0.11041341494E+03 -0.20705717107E+03  0.27699528038E+03  0.12510202919E+03 0.  0.
         23    2    1    2    0    0 -0.77537560913E+02 -0.11041341494E+03 -0.40470494027E+03  0.43621176911E+03  0.91057252780E+02 0.  0.
          5    1    3    3  502    0  0.10039372623E+03  0.69638007860E+02 -0.92830812379E+02  0.15350369550E+03  0.41800000000E+01 0. -1.
         -5    1    3    3    0  502 -0.22856165317E+02  0.40775407080E+02 -0.11422635869E+03  0.12349158488E+03  0.41800000000E+01 0. -1.
        -11    1    4    4    0    0 -0.33235974130E+02 -0.15710150346E+01 -0.35051670327E+02  0.48329262950E+02  0.00000000000E+00 0. -1.
         11    1    4    4    0    0 -0.44301586783E+02 -0.10884239991E+03 -0.36965326994E+03  0.38788250616E+03  0.00000000000E+00 0.  1.
</event>
<event>
 8    1  0.3541538E-009  0.1240276E+03  0.7561462E-02  0.1236597E+00
         -1   -1    0    0    0  501 -0.00000000000E+00  0.00000000000E+00  0.70828224766E+02  0.70828224766E+02  0.00000000000E+00 0.  1.
          1   -1    0    0  501    0  0.00000000000E+00 -0.00000000000E+00 -0.26470595177E+03  0.26470595177E+03  0.00000000000E+00 0. -1.
         25    2    1    2    0    0 -0.63424355345E+02  0.56688975437E+02 -0.11274555915E+03  0.18866916758E+03  0.12509278517E+03 0.  0.
         23    2    1    2    0    0  0.63424355345E+02 -0.56688975437E+02 -0.81132167858E+02  0.14686500896E+03  0.88037568166E+02 0.  0.
          5    1    3    3  502    0 -0.77494372797E+02 -0.93405183521E+01 -0.35080971096E+02  0.85678293817E+02  0.41800000000E+01 0. -1.
         -5    1    3    3    0  502  0.14070017452E+02  0.66029493789E+02 -0.77664588054E+02  0.10299087376E+03  0.41800000000E+01 0. -1.
        -11    1    4    4    0    0  0.28299038034E+02  0.73228507340E+01  0.92636160695E+01  0.30663892108E+02  0.00000000000E+00 0.  1.
         11    1    4    4    0    0  0.35125317312E+02 -0.64011826171E+02 -0.90395783928E+02  0.11620111685E+03  0.00000000000E+00 0. -1.
</event>
<event>
 8    1  0.3541538E-009  0.2219551E+03  0.7561462E-02  0.1132434E+00
         -1   -1    0    0    0  501 -0.00000000000E+00  0.00000000000E+00  0.16171104317E+04  0.16171104317E+04  0.00000000000E+00 0.  1.
          1   -1    0    0  501    0  0.00000000000E+00 -0.00000000000E+00 -0.47346827182E+02  0.47346827182E+02  0.00000000000E+00 0. -1.
         25    2    1    2    0    0 -0.16475256508E+03  0.12378095580E+03  0.12494176007E+04  0.12724607479E+04  0.12508749422E+03 0.  0.
         23    2    1    2    0    0  0.16475256508E+03 -0.12378095580E+03  0.32034600384E+03  0.39199651103E+03  0.92598972812E+02 0.  0.
          5    1    3    3  502    0 -0.10376945282E+03  0.32471322754E+02  0.88985849656E+03  0.89648653222E+03  0.41800000000E+01 0. -1.
         -5    1    3    3    0  502 -0.60983112259E+02  0.91309633049E+02  0.35955910415E+03  0.37597421566E+03  0.41800000000E+01 0. -1.
        -11    1    4    4    0    0  0.71913936721E+02 -0.10991314573E+03  0.20189031468E+03  0.24085724623E+03  0.00000000000E+00 0. -1.
         11    1    4    4    0    0  0.92838628361E+02 -0.13867810078E+02  0.11845568916E+03  0.15113926481E+03  0.00000000000E+00 0.  1.
</event>
<event>
 8    1  0.3541538E-009  0.1120517E+03  0.7561462E-02  0.1256817E+00
          2   -1    0    0  501    0  0.00000000000E+00  0.00000000000E+00  0.10824256394E+03  0.10824256394E+03  0.00000000000E+00 0.  1.
         -2   -1    0    0    0  501 -0.00000000000E+00 -0.00000000000E+00 -0.14220843931E+03  0.14220843931E+03  0.00000000000E+00 0. -1.
         25    2    1    2    0    0  0.32491704157E+02  0.19977143352E+02  0.28582623981E+02  0.13386785651E+03  0.12509532172E+03 0.  0.
         23    2    1    2    0    0 -0.32491704157E+02 -0.19977143352E+02 -0.62548499349E+02  0.11658314674E+03  0.90689129650E+02 0.  0.
          5    1    3    3  502    0  0.74282374889E+02 -0.98725642644E+01  0.22205068259E+00  0.75052384711E+02  0.41800000000E+01 0. -1.
         -5    1    3    3    0  502 -0.41790670732E+02  0.29849707616E+02  0.28360573298E+02  0.58815471798E+02  0.41800000000E+01 0. -1.
        -11    1    4    4    0    0 -0.63004971722E+02 -0.41246869778E+01 -0.47682122749E+02  0.79121579447E+02  0.00000000000E+00 0.  1.
         11    1    4    4    0    0  0.30513267565E+02 -0.15852456374E+02 -0.14866376600E+02  0.37461567290E+02  0.00000000000E+00 0. -1.
</event>
<event>
 8    1  0.3541538E-009  0.9359356E+02  0.7561462E-02  0.1294376E+00
         -1   -1    0    0    0  501 -0.00000000000E+00  0.00000000000E+00  0.74624239063E+02  0.74624239063E+02  0.00000000000E+00 0.  1.
          1   -1    0    0  501    0  0.00000000000E+00 -0.00000000000E+00 -0.19290634856E+03  0.19290634856E+03  0.00000000000E+00 0. -1.
         25    2    1    2    0    0  0.23287183831E+02  0.50036942828E+02 -0.47840089720E+02  0.14485240494E+03  0.12509019327E+03 0.  0.
         23    2    1    2    0    0 -0.23287183831E+02 -0.50036942828E+02 -0.70442019780E+02  0.12267818269E+03  0.83915849393E+02 0.  0.
          5    1    3    3  502    0 -0.38709485543E+02  0.24374801098E+02  0.19313638778E+02  0.49830153947E+02  0.41800000000E+01 0. -1.
         -5    1    3    3    0  502  0.61996669374E+02  0.25662141730E+02 -0.67153728498E+02  0.95022250988E+02  0.41800000000E+01 0. -1.
        -11    1    4    4    0    0 -0.38502093477E+02 -0.29703071188E+02 -0.89162516530E+00  0.48636186483E+02  0.00000000000E+00 0.  1.
         11    1    4    4    0    0  0.15214909647E+02 -0.20333871639E+02 -0.69550394615E+02  0.74041996208E+02  0.00000000000E+00 0. -1.
</event>
<event>
 8    1  0.3541538E-009  0.1287217E+03  0.7561462E-02  0.1229365E+00
         -1   -1    0    0    0  501 -0.00000000000E+00  0.00000000000E+00  0.54396964314E+03  0.54396964314E+03  0.00000000000E+00 0.  1.
          1   -1    0    0  501    0  0.00000000000E+00 -0.00000000000E+00 -0.85355905994E+02  0.85355905994E+02  0.00000000000E+00 0. -1.
         25    2    1    2    0    0  0.72043044913E+02  0.11689146421E+02  0.48676841221E+03  0.50785615194E+03  0.12509015737E+03 0.  0.
         23    2    1    2    0    0 -0.72043044913E+02 -0.11689146421E+02 -0.28154675064E+02  0.12146939720E+03  0.92926273266E+02 0.  0.
          5    1    3    3  502    0  0.71795030398E+02  0.58995356838E+02  0.37602250953E+03  0.38735691370E+03  0.41800000000E+01 0. -1.
         -5    1    3    3    0  502  0.24801451554E+00 -0.47306210417E+02  0.11074590268E+03  0.12049923824E+03  0.41800000000E+01 0. -1.
        -11    1    4    4    0    0 -0.58695372481E+02  0.35024136172E+02 -0.77984099598E+01  0.68794273477E+02  0.00000000000E+00 0. -1.
         11    1    4    4    0    0 -0.13347672432E+02 -0.46713282593E+02 -0.20356265104E+02  0.52675123720E+02  0.00000000000E+00 0.  1.
</event>
<event>
 8    1  0.3541538E-009  0.1187466E+03  0.7561462E-02  0.1245179E+00
         -2   -1    0    0    0  501 -0.00000000000E+00  0.00000000000E+00  0.40840934286E+02  0.40840934286E+02  0.00000000000E+00 0.  1.
          2   -1    0    0  501    0  0.00000000000E+00 -0.00000000000E+00 -0.46491821845E+03  0.46491821845E+03  0.00000000000E+00 0. -1.
         25    2    1    2    0    0  0.49610750091E+02  0.65880721665E+02 -0.21859496475E+03  0.26501516836E+03  0.12509110615E+03 0.  0.
         23    2    1    2    0    0 -0.49610750091E+02 -0.65880721665E+02 -0.20548231942E+03  0.24074398437E+03  0.94515535272E+02 0.  0.
          5    1    3    3  502    0 -0.20792098478E+02  0.20971668723E+02  0.12040949094E+01  0.29850368384E+02  0.41800000000E+01 0. -1.
         -5    1    3    3    0  502  0.70402848569E+02  0.44909052942E+02 -0.21979905966E+03  0.23516479998E+03  0.41800000000E+01 0. -1.
        -11    1    4    4    0    0 -0.49866813564E+02  0.77146106823E+01 -0.10151457332E+03  0.11336411649E+03  0.00000000000E+00 0.  1.
         11    1    4    4    0    0  0.25606347282E+00 -0.73595332347E+02 -0.10396774610E+03  0.12737986788E+03  0.00000000000E+00 0. -1.
</event>
<event>
 8    1  0.3541538E-009  0.1627020E+03  0.7561462E-02  0.1185680E+00
          1   -1    0    0  501    0  0.00000000000E+00  0.00000000000E+00  0.19953711055E+04  0.19953711055E+04  0.00000000000E+00 0. -1.
         -1   -1    0    0    0  501 -0.00000000000E+00 -0.00000000000E+00 -0.18027285323E+02  0.18027285323E+02  0.00000000000E+00 0.  1.
         25    2    1    2    0    0  0.13328499057E+03  0.16317547767E+02  0.14509112309E+04  0.14624712841E+04  0.12509078987E+03 0.  0.
         23    2    1    2    0    0 -0.13328499057E+03 -0.16317547767E+02  0.52643258922E+03  0.55092710669E+03  0.91423491618E+02 0.  0.
          5    1    3    3  502    0  0.26689047223E+02 -0.49386827946E+02  0.35740176250E+03  0.36180776146E+03  0.41800000000E+01 0.  1.
         -5    1    3    3    0  502  0.10659594335E+03  0.65704375713E+02  0.10935094684E+04  0.11006635226E+04  0.41800000000E+01 0.  1.
        -11    1    4    4    0    0 -0.49993621534E+02 -0.31597194894E+02  0.10010014071E+03  0.11626600143E+03  0.00000000000E+00 0.  1.
         11    1    4    4    0    0 -0.83291369038E+02  0.15279647127E+02  0.42633244851E+03  0.43466110526E+03  0.00000000000E+00 0. -1.
</event>
<event>
 8    1  0.3541538E-009  0.8490098E+02  0.7561462E-02  0.1315692E+00
          2   -1    0    0  501    0  0.00000000000E+00  0.00000000000E+00  0.21620111878E+02  0.21620111878E+02  0.00000000000E+00 0.  1.
         -2   -1    0    0    0  501 -0.00000000000E+00 -0.00000000000E+00 -0.61606894185E+03  0.61606894185E+03  0.00000000000E+00 0. -1.
         25    2    1    2    0    0  0.25337960468E+02  0.25115681763E+02 -0.39533257816E+03  0.41618276018E+03  0.12508969906E+03 0.  0.
         23    2    1    2    0    0 -0.25337960468E+02 -0.25115681763E+02 -0.19911625182E+03  0.22150629355E+03  0.90249358072E+02 0.  0.
          5    1    3    3  502    0 -0.25619681093E+02 -0.45923298816E+01 -0.31670773910E+03  0.31780296091E+03  0.41800000000E+01 0. -1.
         -5    1    3    3    0  502  0.50957641561E+02  0.29708011645E+02 -0.78624839052E+02  0.98379799274E+02  0.41800000000E+01 0. -1.
        -11    1    4    4    0    0 -0.52255870289E+02 -0.23625039241E+02 -0.74549062761E+02  0.94055203032E+02  0.00000000000E+00 0.  1.
         11    1    4    4    0    0  0.26917909822E+02 -0.14906425220E+01 -0.12456718906E+03  0.12745109052E+03  0.00000000000E+00 0. -1.
</event>
<event>
 8    1  0.3541538E-009  0.1025452E+03  0.7561462E-02  0.1275033E+00
         -3   -1    0    0    0  501 -0.00000000000E+00  0.00000000000E+00  0.17864579708E+03  0.17864579708E+03  0.00000000000E+00 0.  1.
          3   -1    0    0  501    0  0.00000000000E+00 -0.00000000000E+00 -0.86787474612E+02  0.86787474612E+02  0.00000000000E+00 0. -1.
         25    2    1    2    0    0  0.20304294061E+02 -0.50633373524E+02  0.77953708611E+02  0.15717594931E+03  0.12510593705E+03 0.  0.
         23    2    1    2    0    0 -0.20304294061E+02  0.50633373524E+02  0.13904613854E+02  0.10825732237E+03  0.92467868417E+02 0.  0.
          5    1    3    3  502    0  0.66338480110E+02 -0.59734492110E+02  0.50438553468E+02  0.10261833933E+03  0.41800000000E+01 0.  1.
         -5    1    3    3    0  502 -0.46034186049E+02  0.91011185859E+01  0.27515155142E+02  0.54557609984E+02  0.41800000000E+01 0.  1.
        -11    1    4    4    0    0  0.78763449213E+01  0.36014154238E+02 -0.34420935568E+02  0.50436662461E+02  0.00000000000E+00 0. -1.
         11    1    4    4    0    0 -0.28180638983E+02  0.14619219286E+02  0.48325549422E+02  0.57820659914E+02  0.00000000000E+00 0.  1.
</event>
<event>
 8    1  0.3541538E-009  0.1129882E+03  0.7561462E-02  0.1255134E+00
          1   -1    0    0  501    0  0.00000000000E+00  0.00000000000E+00  0.79965935907E+02  0.79965935907E+02  0.00000000000E+00 0. -1.
         -1   -1    0    0    0  501 -0.00000000000E+00 -0.00000000000E+00 -0.30575079624E+03  0.30575079624E+03  0.00000000000E+00 0.  1.
         25    2    1    2    0    0 -0.21755460852E+02 -0.32292236225E+02  0.77991342132E+01  0.13124234756E+03  0.12509052202E+03 0.  0.
         23    2    1    2    0    0  0.21755460852E+02  0.32292236225E+02 -0.23358399455E+03  0.25447438459E+03  0.93164592561E+02 0.  0.
          5    1    3    3  502    0 -0.23716360413E+02  0.43671490810E+02 -0.14504277382E+02  0.51937571402E+02  0.41800000000E+01 0.  1.
         -5    1    3    3    0  502  0.19608995612E+01 -0.75963727035E+02  0.22303411596E+02  0.79304776155E+02  0.41800000000E+01 0.  1.
        -11    1    4    4    0    0  0.35128147998E+02  0.59834557548E+02 -0.14493264364E+03  0.16068488495E+03  0.00000000000E+00 0. -1.
         11    1    4    4    0    0 -0.13372687146E+02 -0.27542321323E+02 -0.88651350911E+02  0.93789499646E+02  0.00000000000E+00 0.  1.
</event>
<event>
 8    1  0.3541538E-009  0.2008281E+03  0.7561462E-02  0.1149042E+00
         -2   -1    0    0    0  501 -0.00000000000E+00  0.00000000000E+00  0.98663568320E+02  0.98663568320E+02  0.00000000000E+00 0. -1.
          2   -1    0    0  501    0  0.00000000000E+00 -0.00000000000E+00 -0.54446757902E+03  0.54446757902E+03  0.00000000000E+00 0.  1.
         25    2    1    2    0    0 -0.59385261575E+02  0.16110679976E+03 -0.38516553366E+03  0.43986514171E+03  0.12508734688E+03 0.  0.
         23    2    1    2    0    0  0.59385261575E+02 -0.16110679976E+03 -0.60638477041E+02  0.20326600563E+03  0.90321835262E+02 0.  0.
          5    1    3    3  502    0 -0.79958748739E+02  0.43130088600E+02 -0.13941634954E+03  0.16645719258E+03  0.41800000000E+01 0.  1.
         -5    1    3    3    0  502  0.20573487164E+02  0.11797671116E+03 -0.24574918413E+03  0.27340794914E+03  0.41800000000E+01 0.  1.
        -11    1    4    4    0    0 -0.15478405225E+02 -0.27519163374E+01 -0.16164277303E+02  0.22548568304E+02  0.00000000000E+00 0.  1.
         11    1    4    4    0    0  0.74863666800E+02 -0.15835488343E+03 -0.44474199737E+02  0.18071743733E+03  0.00000000000E+00 0. -1.
</event>
<event>
 8    1  0.3541538E-009  0.7627748E+02  0.7561462E-02  0.1339960E+00
         -1   -1    0    0    0  501 -0.00000000000E+00  0.00000000000E+00  0.39688681834E+02  0.39688681834E+02  0.00000000000E+00 0.  1.
          1   -1    0    0  501    0  0.00000000000E+00 -0.00000000000E+00 -0.33184297510E+03  0.33184297510E+03  0.00000000000E+00 0. -1.
         25    2    1    2    0    0 -0.10359874927E+02 -0.21807543609E+02 -0.20885555335E+03  0.24464410965E+03  0.12508877750E+03 0.  0.
         23    2    1    2    0    0  0.10359874927E+02  0.21807543609E+02 -0.83298739914E+02  0.12688754728E+03  0.92622209088E+02 0.  0.
          5    1    3    3  502    0 -0.24453294994E+02  0.61369432192E+01 -0.21142560988E+03  0.21296451963E+03  0.41800000000E+01 0.  1.
         -5    1    3    3    0  502  0.14093420067E+02 -0.27944486828E+02  0.25700565328E+01  0.31679590020E+02  0.41800000000E+01 0.  1.
        -11    1    4    4    0    0  0.29125310043E+02 -0.29097839180E+02 -0.31058804591E+02  0.51571477317E+02  0.00000000000E+00 0.  1.
         11    1    4    4    0    0 -0.18765435115E+02  0.50905382789E+02 -0.52239935324E+02  0.75316069962E+02  0.00000000000E+00 0. -1.
</event>
<event>
 8    1  0.3541538E-009  0.8400294E+02  0.7561462E-02  0.1318061E+00
         -2   -1    0    0    0  501 -0.00000000000E+00  0.00000000000E+00  0.10976989876E+03  0.10976989876E+03  0.00000000000E+00 0.  1.
          2   -1    0    0  501    0  0.00000000000E+00 -0.00000000000E+00 -0.13838146438E+03  0.13838146438E+03  0.00000000000E+00 0. -1.
         25    2    1    2    0    0  0.80210679456E+01  0.36365589642E+02  0.29640216561E+02  0.13384140979E+03  0.12509271321E+03 0.  0.
         23    2    1    2    0    0 -0.80210679456E+01 -0.36365589642E+02 -0.58251782181E+02  0.11430995335E+03  0.91031322445E+02 0.  0.
          5    1    3    3  502    0 -0.84960332157E+01 -0.35725231831E+02  0.44956014745E+02  0.58197855902E+02  0.41800000000E+01 0.  1.
         -5    1    3    3    0  502  0.16517101161E+02  0.72090821474E+02 -0.15315798184E+02  0.75643553893E+02  0.41800000000E+01 0.  1.
        -11    1    4    4    0    0 -0.21968935876E+02 -0.36975057292E+02 -0.78620588857E+02  0.89615768688E+02  0.00000000000E+00 0. -1.
         11    1    4    4    0    0  0.13947867931E+02  0.60946765001E+00  0.20368806676E+02  0.24694184660E+02  0.00000000000E+00 0.  1.
</event>
<event>
 8    1  0.3541538E-009  0.8571891E+02  0.7561462E-02  0.1313563E+00
          1   -1    0    0  501    0  0.00000000000E+00  0.00000000000E+00  0.45653727312E+02  0.45653727312E+02  0.00000000000E+00 0. -1.
         -1   -1    0    0    0  501 -0.00000000000E+00 -0.00000000000E+00 -0.35853085836E+03  0.35853085836E+03  0.00000000000E+00 0.  1.
         25    2    1    2    0    0 -0.29822415867E+02  0.36027410854E+02 -0.96731227850E+02  0.16489071596E+03  0.12507864305E+03 0.  0.
         23    2    1    2    0    0  0.29822415867E+02 -0.36027410854E+02 -0.21614590320E+03  0.23929386971E+03  0.91406530349E+02 0.  0.
          5    1    3    3  502    0  0.28923711000E+02 -0.33505951480E+00  0.15462314809E+02  0.33064314632E+02  0.41800000000E+01 0. -1.
         -5    1    3    3    0  502 -0.58746126867E+02  0.36362470368E+02 -0.11219354266E+03  0.13182640133E+03  0.41800000000E+01 0. -1.
        -11    1    4    4    0    0  0.41365442779E+02 -0.72580610529E+01 -0.32644242620E+02  0.53192347972E+02  0.00000000000E+00 0. -1.
         11    1    4    4    0    0 -0.11543026912E+02 -0.28769349801E+02 -0.18350166058E+03  0.18610152174E+03  0.00000000000E+00 0.  1.
</event>
<event>
 8    1  0.3541538E-009  0.1822054E+03  0.7561462E-02  0.1165686E+00
         -3   -1    0    0    0  501 -0.00000000000E+00  0.00000000000E+00  0.97306061506E+02  0.97306061506E+02  0.00000000000E+00 0.  1.
          3   -1    0    0  501    0  0.00000000000E+00 -0.00000000000E+00 -0.43590084764E+03  0.43590084764E+03  0.00000000000E+00 0. -1.
         25    2    1    2    0    0  0.46422966545E+00 -0.16433364288E+03 -0.24221292331E+03  0.31830834885E+03  0.12508934025E+03 0.  0.
         23    2    1    2    0    0 -0.46422966545E+00  0.16433364288E+03 -0.96381862822E+02  0.21489856029E+03  0.99429201157E+02 0.  0.
          5    1    3    3  502    0  0.35979795585E+02 -0.75191479173E+02 -0.36137055438E+02  0.90948685567E+02  0.41800000000E+01 0. -1.
         -5    1    3    3    0  502 -0.35515565919E+02 -0.89142163702E+02 -0.20607586787E+03  0.22735966329E+03  0.41800000000E+01 0. -1.
        -11    1    4    4    0    0 -0.41071853678E+02  0.10727457332E+03 -0.87301864938E+02  0.14427871245E+03  0.00000000000E+00 0.  1.
         11    1    4    4    0    0  0.40607624013E+02  0.57059069557E+02 -0.90799978839E+01  0.70619847835E+02  0.00000000000E+00 0. -1.
</event>
<event>
 8    1  0.3541538E-009  0.9793291E+02  0.7561462E-02  0.1284704E+00
          2   -1    0    0  501    0  0.00000000000E+00  0.00000000000E+00  0.39963951360E+03  0.39963951360E+03  0.00000000000E+00 0. -1.
         -2   -1    0    0    0  501 -0.00000000000E+00 -0.00000000000E+00 -0.45921120544E+02  0.45921120544E+02  0.00000000000E+00 0.  1.
         25    2    1    2    0    0 -0.74894838962E+02  0.61896470232E+01  0.14631565828E+03  0.20664747643E+03  0.12508940412E+03 0.  0.
         23    2    1    2    0    0  0.74894838962E+02 -0.61896470232E+01  0.20740273478E+03  0.23891315772E+03  0.91739053313E+02 0.  0.
          5    1    3    3  502    0 -0.52161787158E+02 -0.18228205074E+02  0.16076823072E+03  0.17005003942E+03  0.41800000000E+01 0. -1.
         -5    1    3    3    0  502 -0.22733051805E+02  0.24417852097E+02 -0.14452572438E+02  0.36597437007E+02  0.41800000000E+01 0. -1.
        -11    1    4    4    0    0  0.37996416300E+02 -0.41143230946E+02  0.15959490214E+03  0.16913611646E+03  0.00000000000E+00 0. -1.
         11    1    4    4    0    0  0.36898422662E+02  0.34953583923E+02  0.47807832642E+02  0.69777041252E+02  0.00000000000E+00 0.  1.
</event>
<event>
 8    1  0.3541538E-009  0.8321527E+02  0.7561462E-02  0.1320167E+00
         -3   -1    0    0    0  501 -0.00000000000E+00  0.00000000000E+00  0.13841856354E+03  0.13841856354E+03  0.00000000000E+00 0.  1.
          3   -1    0    0  501    0  0.00000000000E+00 -0.00000000000E+00 -0.11123774351E+03  0.11123774351E+03  0.00000000000E+00 0. -1.
         25    2    1    2    0    0 -0.31342985044E+02  0.11126167484E+02 -0.39288412489E+02  0.13526606240E+03  0.12508858447E+03 0.  0.
         23    2    1    2    0    0  0.31342985044E+02 -0.11126167484E+02  0.66469232526E+02  0.11439024465E+03  0.86952831380E+02 0.  0.
          5    1    3    3  502    0 -0.73033938763E+02  0.77176093947E+01  0.55928227016E+01  0.73771741011E+02  0.41800000000E+01 0.  1.
         -5    1    3    3    0  502  0.41690953719E+02  0.34085580898E+01 -0.44881235191E+02  0.61494321384E+02  0.41800000000E+01 0.  1.
        -11    1    4    4    0    0  0.26433365898E+02 -0.24835878032E+02  0.84061621806E+02  0.91552716678E+02  0.00000000000E+00 0.  1.
         11    1    4    4    0    0  0.49096191457E+01  0.13709710548E+02 -0.17592389281E+02  0.22837527976E+02  0.00000000000E+00 0. -1.
</event>
<event>
 8    1  0.3541538E-009  0.1200976E+03  0.7561462E-02  0.1242936E+00
          2   -1    0    0  501    0  0.00000000000E+00  0.00000000000E+00  0.19094739104E+03  0.19094739104E+03  0.00000000000E+00 0.  1.
         -2   -1    0    0    0  501 -0.00000000000E+00 -0.00000000000E+00 -0.84021218633E+02  0.84021218633E+02  0.00000000000E+00 0. -1.
         25    2    1    2    0    0 -0.58286405956E+02  0.26002101957E+02  0.72156408520E+02  0.15787289862E+03  0.12507553879E+03 0.  0.
         23    2    1    2    0    0  0.58286405956E+02 -0.26002101957E+02  0.34769763882E+02  0.11709571105E+03  0.91809883127E+02 0.  0.
          5    1    3    3  502    0 -0.90584358085E+02 -0.91544978764E+00  0.71721448580E+02  0.11561921365E+03  0.41800000000E+01 0. -1.
         -5    1    3    3    0  502  0.32297952130E+02  0.26917551744E+02  0.43495994009E+00  0.42253684973E+02  0.41800000000E+01 0. -1.
        -11    1    4    4    0    0  0.49861894818E+02  0.24851356255E+02  0.14748874588E+01  0.55731263718E+02  0.00000000000E+00 0.  1.
         11    1    4    4    0    0  0.84245111374E+01 -0.50853458212E+02  0.33294876423E+02  0.61364447329E+02  0.00000000000E+00 0. -1.
</event>
<event>
 8    1  0.3541538E-009  0.1092776E+03  0.7561462E-02  0.1261914E+00
          1   -1    0    0  501    0  0.00000000000E+00  0.00000000000E+00  0.90364549521E+03  0.90364549521E+03  0.00000000000E+00 0. -1.
         -1   -1    0    0    0  501 -0.00000000000E+00 -0.00000000000E+00 -0.21903795106E+02  0.21903795106E+02  0.00000000000E+00 0.  1.
         25    2    1    2    0    0  0.79412214284E+02  0.39404092394E+02  0.55379462726E+03  0.57462608137E+03  0.12509061486E+03 0.  0.
         23    2    1    2    0    0 -0.79412214284E+02 -0.39404092394E+02  0.32794707284E+03  0.35092320895E+03  0.87970641236E+02 0.  0.
          5    1    3    3  502    0  0.81992150677E+02  0.63401757613E+02  0.26173026704E+03  0.28153632222E+03  0.41800000000E+01 0.  1.
         -5    1    3    3    0  502 -0.25799363925E+01 -0.23997665220E+02  0.29206436022E+03  0.29308975915E+03  0.41800000000E+01 0.  1.
        -11    1    4    4    0    0 -0.52402196020E+02 -0.34865082938E+02  0.31388903832E+03  0.32013730263E+03  0.00000000000E+00 0. -1.
         11    1    4    4    0    0 -0.27010018264E+02 -0.45390094559E+01  0.14058034520E+02  0.30785906321E+02  0.00000000000E+00 0.  1.
</event>
<event>
 8    1  0.3541538E-009  0.1720315E+03  0.7561462E-02  0.1175746E+00
         -1   -1    0    0    0  501 -0.00000000000E+00  0.00000000000E+00  0.35452969885E+03  0.35452969885E+03  0.00000000000E+00 0.  1.
          1   -1    0    0  501    0  0.00000000000E+00 -0.00000000000E+00 -0.98383515724E+02  0.98383515724E+02  0.00000000000E+00 0. -1.
         25    2    1    2    0    0 -0.10574469395E+02  0.14901678993E+03  0.17085069657E+03  0.25914146207E+03  0.12508602543E+03 0.  0.
         23    2    1    2    0    0  0.10574469395E+02 -0.14901678993E+03  0.85295486554E+02  0.19377175251E+03  0.89187156915E+02 0.  0.
          5    1    3    3  502    0  0.57071636759E+02  0.74263941641E+02  0.76616603691E+02  0.12107799598E+03  0.41800000000E+01 0.  1.
         -5    1    3    3    0  502 -0.67646106153E+02  0.74752848291E+02  0.94234092882E+02  0.13806346608E+03  0.41800000000E+01 0.  1.
        -11    1    4    4    0    0  0.58948980614E+01 -0.97042974919E+02  0.41692869570E+01  0.97311210855E+02  0.00000000000E+00 0.  1.
         11    1    4    4    0    0  0.46795713335E+01 -0.51973815013E+02  0.81126199597E+02  0.96460541653E+02  0.00000000000E+00 0. -1.
</event>
<event>
 8    1  0.3541538E-009  0.1542434E+03  0.7561462E-02  0.1195354E+00
         -2   -1    0    0    0  501 -0.00000000000E+00  0.00000000000E+00  0.23237586228E+02  0.23237586228E+02  0.00000000000E+00 0. -1.
          2   -1    0    0  501    0  0.00000000000E+00 -0.00000000000E+00 -0.10992674665E+04  0.10992674665E+04  0.00000000000E+00 0.  1.
         25    2    1    2    0    0  0.11149613553E+03  0.17996858258E+02 -0.47195919787E+03  0.50114694311E+03  0.12508996359E+03 0.  0.
         23    2    1    2    0    0 -0.11149613553E+03 -0.17996858258E+02 -0.60407068237E+03  0.62135810958E+03  0.91810870283E+02 0.  0.
          5    1    3    3  502    0  0.13652832960E+03  0.12304754195E+02 -0.33942885543E+03  0.36608853036E+03  0.41800000000E+01 0.  1.
         -5    1    3    3    0  502 -0.25032194071E+02  0.56921040636E+01 -0.13253034244E+03  0.13505841275E+03  0.41800000000E+01 0.  1.
        -11    1    4    4    0    0 -0.14565316269E+02 -0.42856645414E+02 -0.17277063832E+03  0.17860160682E+03  0.00000000000E+00 0.  1.
         11    1    4    4    0    0 -0.96930819264E+02  0.24859787156E+02 -0.43130004405E+03  0.44275650276E+03  0.00000000000E+00 0. -1.
</event>
<event>
 8    1  0.3541538E-009  0.1841280E+03  0.7561462E-02  0.1163867E+00
          1   -1    0    0  501    0  0.00000000000E+00  0.00000000000E+00  0.92725122320E+03  0.92725122320E+03  0.00000000000E+00 0.  1.
         -1   -1    0    0    0  501 -0.00000000000E+00 -0.00000000000E+00 -0.56839706490E+02  0.56839706490E+02  0.00000000000E+00 0. -1.
         25    2    1    2    0    0 -0.40532327491E+02  0.14814654354E+03  0.73480387248E+03  0.76103383239E+03  0.12508195353E+03 0.  0.
         23    2    1    2    0    0  0.40532327491E+02 -0.14814654354E+03  0.13560764423E+03  0.22305709730E+03  0.88174642323E+02 0.  0.
          5    1    3    3  502    0 -0.42187542816E+02 -0.64133523879E+01  0.13674081396E+03  0.14330541672E+03  0.41800000000E+01 0.  1.
         -5    1    3    3    0  502  0.16552153245E+01  0.15455989592E+03  0.59806305852E+03  0.61772841567E+03  0.41800000000E+01 0.  1.
        -11    1    4    4    0    0  0.61610456946E+02 -0.91461576470E+02  0.11458388596E+03  0.15902998239E+03  0.00000000000E+00 0.  1.
         11    1    4    4    0    0 -0.21078129455E+02 -0.56684967065E+02  0.21023758270E+02  0.64027114915E+02  0.00000000000E+00 0. -1.
</event>
<event>
 8    1  0.3541538E-009  0.1060752E+03  0.7561462E-02  0.1268015E+00
         -1   -1    0    0    0  501 -0.00000000000E+00  0.00000000000E+00  0.16266746983E+02  0.16266746983E+02  0.00000000000E+00 0.  1.
          1   -1    0    0  501    0  0.00000000000E+00 -0.00000000000E+00 -0.86792972815E+03  0.86792972815E+03  0.00000000000E+00 0. -1.
         25    2    1    2    0    0  0.26738399265E+02 -0.11308814438E+02 -0.38978077360E+03  0.41038680419E+03  0.12508175849E+03 0.  0.
         23    2    1    2    0    0 -0.26738399265E+02  0.11308814438E+02 -0.46188220757E+03  0.47380967095E+03  0.10157558432E+03 0.  0.
          5    1    3    3  502    0  0.54710543564E+02 -0.39263805819E+02 -0.34021192384E+03  0.34683788078E+03  0.41800000000E+01 0. -1.
         -5    1    3    3    0  502 -0.27972144299E+02  0.27954991381E+02 -0.49568849763E+02  0.63548923410E+02  0.41800000000E+01 0. -1.
        -11    1    4    4    0    0 -0.16932224473E+02  0.56338259453E+02 -0.23099856105E+03  0.23837163193E+03  0.00000000000E+00 0.  1.
         11    1    4    4    0    0 -0.98061747923E+01 -0.45029445014E+02 -0.23088364653E+03  0.23543803901E+03  0.00000000000E+00 0. -1.
</event>
<event>
 8    1  0.3541538E-009  0.1245580E+03  0.7561462E-02  0.1235762E+00
         -2   -1    0    0    0  501 -0.00000000000E+00  0.00000000000E+00  0.34997338502E+02  0.34997338502E+02  0.00000000000E+00 0. -1.
          2   -1    0    0  501    0  0.00000000000E+00 -0.00000000000E+00 -0.46252421759E+03  0.46252421759E+03  0.00000000000E+00 0.  1.
         25    2    1    2    0    0 -0.42599965571E+02 -0.48369382222E+02 -0.26654941284E+03  0.30141458595E+03  0.12509120248E+03 0.  0.
         23    2    1    2    0    0  0.42599965571E+02  0.48369382222E+02 -0.16097746625E+03  0.19610697014E+03  0.91596096502E+02 0.  0.
          5    1    3    3  502    0 -0.30282814280E+02  0.38566807773E+02 -0.13014955040E+03  0.13914318299E+03  0.41800000000E+01 0. -1.
         -5    1    3    3    0  502 -0.12317151290E+02 -0.86936189995E+02 -0.13639986243E+03  0.16227140296E+03  0.41800000000E+01 0. -1.
        -11    1    4    4    0    0  0.69668667261E+02  0.19330763210E+02 -0.10338538921E+03  0.12615839372E+03  0.00000000000E+00 0.  1.
         11    1    4    4    0    0 -0.27068701691E+02  0.29038619012E+02 -0.57592077041E+02  0.69948576421E+02  0.00000000000E+00 0. -1.
</event>
<event>
 8    1  0.3541538E-009  0.1031107E+03  0.7561462E-02  0.1273887E+00
          2   -1    0    0  501    0  0.00000000000E+00  0.00000000000E+00  0.27715349465E+03  0.27715349465E+03  0.00000000000E+00 0. -1.
         -2   -1    0    0    0  501 -0.00000000000E+00 -0.00000000000E+00 -0.50516425386E+02  0.50516425386E+02  0.00000000000E+00 0.  1.
         25    2    1    2    0    0 -0.35974757685E+02 -0.81714430330E+01  0.97519046831E+02  0.16284554379E+03  0.12509097076E+03 0.  0.
         23    2    1    2    0    0  0.35974757685E+02  0.81714430330E+01  0.12911802244E+03  0.16482437625E+03  0.95575392316E+02 0.  0.
          5    1    3    3  502    0 -0.20484691219E+02 -0.64625497755E+02  0.71585593753E+02  0.98681544209E+02  0.41800000000E+01 0. -1.
         -5    1    3    3    0  502 -0.15490066466E+02  0.56454054722E+02  0.25933453078E+02  0.64163999581E+02  0.41800000000E+01 0. -1.
        -11    1    4    4    0    0  0.11527230246E+02 -0.31201723088E+02  0.67053387982E+01  0.33932081121E+02  0.00000000000E+00 0.  1.
         11    1    4    4    0    0  0.24447527440E+02  0.39373166121E+02  0.12241268364E+03  0.13089229513E+03  0.00000000000E+00 0. -1.
</event>
<event>
 8    1  0.3541538E-009  0.1118055E+03  0.7561462E-02  0.1257262E+00
          3   -1    0    0  501    0  0.00000000000E+00  0.00000000000E+00  0.12034989624E+03  0.12034989624E+03  0.00000000000E+00 0. -1.
         -3   -1    0    0    0  501 -0.00000000000E+00 -0.00000000000E+00 -0.11432356062E+03  0.11432356062E+03  0.00000000000E+00 0.  1.
         25    2    1    2    0    0  0.25747314723E+02  0.31849659863E+02 -0.13818439509E+02  0.13235037818E+03  0.12509335828E+03 0.  0.
         23    2    1    2    0    0 -0.25747314723E+02 -0.31849659863E+02  0.19844775130E+02  0.10232307867E+03  0.91645361479E+02 0.  0.
          5    1    3    3  502    0  0.71552278833E+02  0.52890075190E+01 -0.28391667111E+02  0.77273937185E+02  0.41800000000E+01 0.  1.
         -5    1    3    3    0  502 -0.45804964110E+02  0.26560652344E+02  0.14573227602E+02  0.55076440996E+02  0.41800000000E+01 0.  1.
        -11    1    4    4    0    0  0.33767529270E+02 -0.98079189572E+01 -0.19567744654E+01  0.35217471141E+02  0.00000000000E+00 0. -1.
         11    1    4    4    0    0 -0.59514843993E+02 -0.22041740906E+02  0.21801549596E+02  0.67105607534E+02  0.00000000000E+00 0.  1.
</event>
<event>
 8    1  0.3541538E-009  0.9026000E+02  0.7561462E-02  0.1302223E+00
          2   -1    0    0  501    0  0.00000000000E+00  0.00000000000E+00  0.17794888753E+03  0.17794888753E+03  0.00000000000E+00 0. -1.
         -2   -1    0    0    0  501 -0.00000000000E+00 -0.00000000000E+00 -0.76321059200E+02  0.76321059200E+02  0.00000000000E+00 0.  1.
         25    2    1    2    0    0  0.20852642980E+02 -0.21736378320E+02  0.87882051832E+02  0.15581428738E+03  0.12509010454E+03 0.  0.
         23    2    1    2    0    0 -0.20852642980E+02  0.21736378320E+02  0.13745776497E+02  0.98455659351E+02  0.92721451806E+02 0.  0.
          5    1    3    3  502    0 -0.27551156979E+02 -0.21656223747E+02  0.99743652507E+02  0.10580324614E+03  0.41800000000E+01 0. -1.
         -5    1    3    3    0  502  0.48403799959E+02 -0.80154572332E-01 -0.11861600675E+02  0.50011041239E+02  0.41800000000E+01 0. -1.
        -11    1    4    4    0    0 -0.26838648989E+02 -0.32459713469E+02 -0.41833973802E+00  0.42120316787E+02  0.00000000000E+00 0. -1.
         11    1    4    4    0    0  0.59860060088E+01  0.54196091789E+02  0.14164116235E+02  0.56335342564E+02  0.00000000000E+00 0.  1.
</event>
<event>
 8    1  0.3541538E-009  0.7817546E+02  0.7561462E-02  0.1334310E+00
         -1   -1    0    0    0  501 -0.00000000000E+00  0.00000000000E+00  0.12608539352E+03  0.12608539352E+03  0.00000000000E+00 0.  1.
          1   -1    0    0  501    0  0.00000000000E+00 -0.00000000000E+00 -0.11341338815E+03  0.11341338815E+03  0.00000000000E+00 0. -1.
         25    2    1    2    0    0  0.13156605834E+02  0.43997718412E+02 -0.13834474869E+02  0.13396901521E+03  0.12508960324E+03 0.  0.
         23    2    1    2    0    0 -0.13156605834E+02 -0.43997718412E+02  0.26506480240E+02  0.10552976646E+03  0.91241671465E+02 0.  0.
          5    1    3    3  502    0  0.16740688919E+02  0.96372557325E+01 -0.67319072384E+02  0.70160225699E+02  0.41800000000E+01 0.  1.
         -5    1    3    3    0  502 -0.35840830849E+01  0.34360462679E+02  0.53484597515E+02  0.63808789508E+02  0.41800000000E+01 0.  1.
        -11    1    4    4    0    0 -0.12066938988E+02  0.27631243307E+02  0.38551201795E+01  0.30396686905E+02  0.00000000000E+00 0.  1.
         11    1    4    4    0    0 -0.10896668459E+01 -0.71628961719E+02  0.22651360060E+02  0.75133079554E+02  0.00000000000E+00 0. -1.
</event>
<event>
 8    1  0.3541538E-009  0.3135916E+03  0.7561462E-02  0.1078637E+00
         -1   -1    0    0    0  501 -0.00000000000E+00  0.00000000000E+00  0.29560774469E+03  0.29560774469E+03  0.00000000000E+00 0.  1.
          1   -1    0    0  501    0  0.00000000000E+00 -0.00000000000E+00 -0.38909844574E+03  0.38909844574E+03  0.00000000000E+00 0. -1.
         25    2    1    2    0    0  0.19242106245E+03  0.22532892913E+03 -0.17265769247E+03  0.36504310277E+03  0.12508715576E+03 0.  0.
         23    2    1    2    0    0 -0.19242106245E+03 -0.22532892913E+03  0.79166991415E+02  0.31966308766E+03  0.90100419016E+02 0.  0.
          5    1    3    3  502    0  0.21563512339E+02  0.10872953145E+03 -0.34141193228E+02  0.11606114573E+03  0.41800000000E+01 0.  1.
         -5    1    3    3    0  502  0.17085755011E+03  0.11659939768E+03 -0.13851649924E+03  0.24898195704E+03  0.41800000000E+01 0.  1.
        -11    1    4    4    0    0 -0.10664878963E+03 -0.58166336386E+02  0.38437498594E+02  0.12741557329E+03  0.00000000000E+00 0. -1.
         11    1    4    4    0    0 -0.85772272819E+02 -0.16716259274E+03  0.40729492821E+02  0.19224751437E+03  0.00000000000E+00 0.  1.
</event>
<event>
 8    1  0.3541538E-009  0.1637893E+03  0.7561462E-02  0.1184484E+00
         -1   -1    0    0    0  501 -0.00000000000E+00  0.00000000000E+00  0.27074380830E+03  0.27074380830E+03  0.00000000000E+00 0.  1.
          1   -1    0    0  501    0  0.00000000000E+00 -0.00000000000E+00 -0.16439095295E+03  0.16439095295E+03  0.00000000000E+00 0. -1.
         25    2    1    2    0    0 -0.12252817021E+03  0.81417062101E+02 -0.53250912946E+02  0.20031352260E+03  0.12509179473E+03 0.  0.
         23    2    1    2    0    0  0.12252817021E+03 -0.81417062101E+02  0.15960376830E+03  0.23482123864E+03  0.89586610422E+02 0.  0.
          5    1    3    3  502    0 -0.13551940966E+02  0.39495095157E+02  0.34393513342E+02  0.54257753413E+02  0.41800000000E+01 0. -1.
         -5    1    3    3    0  502 -0.10897622925E+03  0.41921966944E+02 -0.87644426288E+02  0.14605576919E+03  0.41800000000E+01 0. -1.
        -11    1    4    4    0    0  0.32256842735E+02 -0.70903917699E+02  0.97272163964E+02  0.12461839082E+03  0.00000000000E+00 0.  1.
         11    1    4    4    0    0  0.90271327478E+02 -0.10513144402E+02  0.62331604332E+02  0.11020284782E+03  0.00000000000E+00 0. -1.
</event>
<event>
 8    1  0.3541538E-009  0.1223542E+03  0.7561462E-02  0.1239263E+00
          4   -1    0    0  501    0  0.00000000000E+00  0.00000000000E+00  0.16355669887E+02  0.16355669887E+02  0.00000000000E+00 0. -1.
         -4   -1    0    0    0  501 -0.00000000000E+00 -0.00000000000E+00 -0.22899826041E+04  0.22899826041E+04  0.00000000000E+00 0.  1.
         25    2    1    2    0    0 -0.80535003806E+02  0.77219949869E+02 -0.18739483420E+04  0.18814298172E+04  0.12508781448E+03 0.  0.
         23    2    1    2    0    0  0.80535003806E+02 -0.77219949869E+02 -0.39967859227E+03  0.42490845677E+03  0.91407942892E+02 0.  0.
          5    1    3    3  502    0 -0.29363859560E+02  0.27229909126E+02 -0.13190813634E+03  0.13791639871E+03  0.41800000000E+01 0.  1.
         -5    1    3    3    0  502 -0.51171144247E+02  0.49990040743E+02 -0.17420402056E+04  0.17435134185E+04  0.41800000000E+01 0.  1.
        -11    1    4    4    0    0  0.53060103003E+02 -0.88417753596E+02 -0.36491966332E+03  0.37920895870E+03  0.00000000000E+00 0.  1.
         11    1    4    4    0    0  0.27474900803E+02  0.11197803727E+02 -0.34758928952E+02  0.45699498075E+02  0.00000000000E+00 0. -1.
</event>
<event>
 8    1  0.3541538E-009  0.1013578E+03  0.7561462E-02  0.1277466E+00
          2   -1    0    0  501    0  0.00000000000E+00  0.00000000000E+00  0.14407671247E+04  0.14407671247E+04  0.00000000000E+00 0. -1.
         -2   -1    0    0    0  501 -0.00000000000E+00 -0.00000000000E+00 -0.11999463622E+02  0.11999463622E+02  0.00000000000E+00 0.  1.
         25    2    1    2    0    0  0.21602698619E+02  0.69112691174E+02  0.79025629417E+03  0.80336507493E+03  0.12508873837E+03 0.  0.
         23    2    1    2    0    0 -0.21602698619E+02 -0.69112691174E+02  0.63851136690E+03  0.64940151339E+03  0.93714029153E+02 0.  0.
          5    1    3    3  502    0  0.35836356796E+02  0.46858651735E+02  0.13289261240E+03  0.14545754206E+03  0.41800000000E+01 0.  1.
         -5    1    3    3    0  502 -0.14233658178E+02  0.22254039439E+02  0.65736368177E+03  0.65790753287E+03  0.41800000000E+01 0.  1.
        -11    1    4    4    0    0 -0.37937724856E+01 -0.89602885880E+02  0.53071170084E+03  0.53823598846E+03  0.00000000000E+00 0. -1.
         11    1    4    4    0    0 -0.17808926133E+02  0.20490194706E+02  0.10779966606E+03  0.11116552493E+03  0.00000000000E+00 0.  1.
</event>
<event>
 8    1  0.3541538E-009  0.1284003E+03  0.7561462E-02  0.1229849E+00
         -4   -1    0    0    0  501 -0.00000000000E+00  0.00000000000E+00  0.36214177648E+03  0.36214177648E+03  0.00000000000E+00 0.  1.
          4   -1    0    0  501    0  0.00000000000E+00 -0.00000000000E+00 -0.49907837652E+02  0.49907837652E+02  0.00000000000E+00 0. -1.
         25    2    1    2    0    0 -0.74790470240E+02 -0.14684288953E+02  0.19364758165E+03  0.24281419429E+03  0.12510037686E+03 0.  0.
         23    2    1    2    0    0  0.74790470240E+02  0.14684288953E+02  0.11858635718E+03  0.16923541984E+03  0.93641125788E+02 0.  0.
          5    1    3    3  502    0 -0.39485725066E+02 -0.69870245456E+02  0.96752714632E+02  0.12577572847E+03  0.41800000000E+01 0.  1.
         -5    1    3    3    0  502 -0.35304745174E+02  0.55185956503E+02  0.96894867022E+02  0.11703846582E+03  0.41800000000E+01 0.  1.
        -11    1    4    4    0    0  0.92263765016E+02  0.13845650607E+02  0.11963216887E+03  0.15171077814E+03  0.00000000000E+00 0.  1.
         11    1    4    4    0    0 -0.17473294776E+02  0.83863834543E+00 -0.10458116912E+01  0.17524641699E+02  0.00000000000E+00 0. -1.
</event>
<event>
 8    1  0.3541538E-009  0.9220784E+02  0.7561462E-02  0.1297591E+00
          2   -1    0    0  501    0  0.00000000000E+00  0.00000000000E+00  0.31404269023E+03  0.31404269023E+03  0.00000000000E+00 0. -1.
         -2   -1    0    0    0  501 -0.00000000000E+00 -0.00000000000E+00 -0.85854852420E+02  0.85854852420E+02  0.00000000000E+00 0.  1.
         25    2    1    2    0    0 -0.38102781984E+02 -0.42246756782E+01 -0.20453214999E+02  0.13242120567E+03  0.12508945531E+03 0.  0.
         23    2    1    2    0    0  0.38102781984E+02  0.42246756782E+01  0.24864105281E+03  0.26747633698E+03  0.90838030698E+02 0.  0.
          5    1    3    3  502    0 -0.10654054813E+01  0.55619296138E+02  0.80716244619E+01  0.56367230846E+02  0.41800000000E+01 0.  1.
         -5    1    3    3    0  502 -0.37037376503E+02 -0.59843971816E+02 -0.28524839460E+02  0.76053974828E+02  0.41800000000E+01 0.  1.
        -11    1    4    4    0    0  0.40392370637E+02  0.17957978985E+02  0.24963450686E+03  0.25351808541E+03  0.00000000000E+00 0. -1.
         11    1    4    4    0    0 -0.22895886536E+01 -0.13733303307E+02 -0.99345404858E+00  0.13958251569E+02  0.00000000000E+00 0.  1.
</event>
<event>
 8    1  0.3541538E-009  0.3370912E+03  0.7561462E-02  0.1068042E+00
         -1   -1    0    0    0  501 -0.00000000000E+00  0.00000000000E+00  0.24399473349E+03  0.24399473349E+03  0.00000000000E+00 0.  1.
          1   -1    0    0  501    0  0.00000000000E+00 -0.00000000000E+00 -0.47800657831E+03  0.47800657831E+03  0.00000000000E+00 0. -1.
         25    2    1    2    0    0  0.29096679129E+03 -0.14112408629E+03 -0.11353610410E+03  0.36484911076E+03  0.12508695106E+03 0.  0.
         23    2    1    2    0    0 -0.29096679129E+03  0.14112408629E+03 -0.12047574072E+03  0.35715220104E+03  0.92008745479E+02 0.  0.
          5    1    3    3  502    0  0.14165496779E+03 -0.13165645614E+03 -0.89972170084E+02  0.21333545446E+03  0.41800000000E+01 0. -1.
         -5    1    3    3    0  502  0.14931182350E+03 -0.94676301499E+01 -0.23563934021E+02  0.15151365630E+03  0.41800000000E+01 0. -1.
        -11    1    4    4    0    0 -0.21309274201E+03  0.66518856407E+02 -0.10981616298E+03  0.24878276590E+03  0.00000000000E+00 0. -1.
         11    1    4    4    0    0 -0.77874049277E+02  0.74605229882E+02 -0.10659577741E+02  0.10836943515E+03  0.00000000000E+00 0.  1.
</event>
<event>
 8    1  0.3541538E-009  0.8963692E+02  0.7561462E-02  0.1303733E+00
         -2   -1    0    0    0  501 -0.00000000000E+00  0.00000000000E+00  0.94663366138E+02  0.94663366138E+02  0.00000000000E+00 0.  1.
          2   -1    0    0  501    0  0.00000000000E+00 -0.00000000000E+00 -0.16173394498E+03  0.16173394498E+03  0.00000000000E+00 0. -1.
         25    2    1    2    0    0 -0.32345393652E+02  0.10030670365E+02  0.97642861926E+01  0.12994252123E+03  0.12507149436E+03 0.  0.
         23    2    1    2    0    0  0.32345393652E+02 -0.10030670365E+02 -0.76834865038E+02  0.12645478989E+03  0.94553575089E+02 0.  0.
          5    1    3    3  502    0 -0.44202879760E+02  0.53072101035E+02 -0.24611188055E+02  0.73441987070E+02  0.41800000000E+01 0. -1.
         -5    1    3    3    0  502  0.11857486107E+02 -0.43041430670E+02  0.34375474247E+02  0.56500534163E+02  0.41800000000E+01 0. -1.
        -11    1    4    4    0    0  0.41417230373E+02  0.10556075521E+02 -0.90533343669E+02  0.10011545344E+03  0.00000000000E+00 0. -1.
         11    1    4    4    0    0 -0.90718367208E+01 -0.20586745886E+02  0.13698478631E+02  0.26339336447E+02  0.00000000000E+00 0.  1.
</event>
<event>
 8    1  0.3541538E-009  0.1081417E+03  0.7561462E-02  0.1264050E+00
         -2   -1    0    0    0  501 -0.00000000000E+00  0.00000000000E+00  0.41821471964E+03  0.41821471964E+03  0.00000000000E+00 0.  1.
          2   -1    0    0  501    0  0.00000000000E+00 -0.00000000000E+00 -0.34212081142E+02  0.34212081142E+02  0.00000000000E+00 0. -1.
         25    2    1    2    0    0  0.24579854586E+02 -0.46254269901E+02  0.17379129765E+03  0.22043737599E+03  0.12508235232E+03 0.  0.
         23    2    1    2    0    0 -0.24579854586E+02  0.46254269901E+02  0.21021134085E+03  0.23198942479E+03  0.82985894321E+02 0.  0.
          5    1    3    3  502    0  0.29157731433E+02  0.30784865287E+02  0.17462610466E+02  0.46046676290E+02  0.41800000000E+01 0.  1.
         -5    1    3    3    0  502 -0.45778768470E+01 -0.77039135189E+02  0.15632868718E+03  0.17439069970E+03  0.41800000000E+01 0.  1.
        -11    1    4    4    0    0  0.25092876885E+02 -0.43629643642E+01  0.76598565148E+02  0.80721918406E+02  0.00000000000E+00 0.  1.
         11    1    4    4    0    0 -0.49672731471E+02  0.50617234266E+02  0.13361277571E+03  0.15126750639E+03  0.00000000000E+00 0. -1.
</event>
<event>
 8    1  0.3541538E-009  0.1658391E+03  0.7561462E-02  0.1182258E+00
          2   -1    0    0  501    0  0.00000000000E+00  0.00000000000E+00  0.21561787295E+04  0.21561787295E+04  0.00000000000E+00 0. -1.
         -2   -1    0    0    0  501 -0.00000000000E+00 -0.00000000000E+00 -0.16059384808E+02  0.16059384808E+02  0.00000000000E+00 0.  1.
         25    2    1    2    0    0  0.26480855153E+01  0.12647507016E+03  0.16147879889E+04  0.16245585178E+04  0.12508865988E+03 0.  0.
         23    2    1    2    0    0 -0.26480855153E+01 -0.12647507016E+03  0.52533135576E+03  0.54767959651E+03  0.89313780329E+02 0.  0.
          5    1    3    3  502    0 -0.41795428754E+02  0.12580659384E+03  0.12645175999E+04  0.12714544388E+04  0.41800000000E+01 0.  1.
         -5    1    3    3    0  502  0.44443514270E+02  0.66847631871E+00  0.35027038898E+03  0.35310407901E+03  0.41800000000E+01 0.  1.
        -11    1    4    4    0    0  0.42859669829E+02 -0.56220039085E+02  0.21977335577E+03  0.23086353544E+03  0.00000000000E+00 0.  1.
         11    1    4    4    0    0 -0.45507755344E+02 -0.70255031073E+02  0.30555799999E+03  0.31681606106E+03  0.00000000000E+00 0. -1.
</event>
<event>
 8    1  0.3541538E-009  0.1186534E+03  0.7561462E-02  0.1245335E+00
         -3   -1    0    0    0  501 -0.00000000000E+00  0.00000000000E+00  0.86544307657E+02  0.86544307657E+02  0.00000000000E+00 0.  1.
          3   -1    0    0  501    0  0.00000000000E+00 -0.00000000000E+00 -0.22016404658E+03  0.22016404658E+03  0.00000000000E+00 0. -1.
         25    2    1    2    0    0  0.79231396726E+02  0.88220186392E+01 -0.10274962619E+03  0.18044656296E+03  0.12509210271E+03 0.  0.
         23    2    1    2    0    0 -0.79231396726E+02 -0.88220186392E+01 -0.30870112731E+02  0.12626179128E+03  0.92917349495E+02 0.  0.
          5    1    3    3  502    0  0.10018913521E+03  0.82767186598E+01 -0.30556494817E+02  0.10515483185E+03  0.41800000000E+01 0. -1.
         -5    1    3    3    0  502 -0.20957738488E+02  0.54529997942E+00 -0.72193131376E+02  0.75291731103E+02  0.41800000000E+01 0. -1.
        -11    1    4    4    0    0 -0.83120115660E+02  0.20599429905E+02 -0.40946450066E+02  0.94920503121E+02  0.00000000000E+00 0. -1.
         11    1    4    4    0    0  0.38887189332E+01 -0.29421448544E+02  0.10076337335E+02  0.31341288159E+02  0.00000000000E+00 0.  1.
</event>
<event>
 8    1  0.3541538E-009  0.1983615E+03  0.7561462E-02  0.1151129E+00
         -2   -1    0    0    0  501 -0.00000000000E+00  0.00000000000E+00  0.14211673177E+03  0.14211673177E+03  0.00000000000E+00 0.  1.
          2   -1    0    0  501    0  0.00000000000E+00 -0.00000000000E+00 -0.29158088345E+03  0.29158088345E+03  0.00000000000E+00 0. -1.
         25    2    1    2    0    0 -0.12085871372E+03 -0.12207085056E+03 -0.10957228422E+03  0.23908197253E+03  0.12508390337E+03 0.  0.
         23    2    1    2    0    0  0.12085871372E+03  0.12207085056E+03 -0.39891867460E+02  0.19461564268E+03  0.82315041447E+02 0.  0.
          5    1    3    3  502    0 -0.73987049329E+01 -0.92684727604E+02 -0.65433588197E+02  0.11377269633E+03  0.41800000000E+01 0. -1.
         -5    1    3    3    0  502 -0.11346000878E+03 -0.29386122960E+02 -0.44138696027E+02  0.12530927620E+03  0.41800000000E+01 0. -1.
        -11    1    4    4    0    0  0.83937692613E+02  0.12361324581E+03 -0.15237794139E+02  0.15019307957E+03  0.00000000000E+00 0.  1.
         11    1    4    4    0    0  0.36921021102E+02 -0.15423952409E+01 -0.24654073321E+02  0.44422563114E+02  0.00000000000E+00 0. -1.
</event>
<event>
 8    1  0.3541538E-009  0.1761084E+03  0.7561462E-02  0.1171623E+00
          1   -1    0    0  501    0  0.00000000000E+00  0.00000000000E+00  0.76305841350E+03  0.76305841350E+03  0.00000000000E+00 0. -1.
         -1   -1    0    0    0  501 -0.00000000000E+00 -0.00000000000E+00 -0.44304216624E+02  0.44304216624E+02  0.00000000000E+00 0.  1.
         25    2    1    2    0    0 -0.12984398410E+03  0.64819780209E+02  0.44867151011E+03  0.48786767145E+03  0.12509067409E+03 0.  0.
         23    2    1    2    0    0  0.12984398410E+03 -0.64819780209E+02  0.27008268677E+03  0.31949495868E+03  0.89840452015E+02 0.  0.
          5    1    3    3  502    0 -0.67794486161E+02 -0.29787312756E+02  0.12982777519E+03  0.14951956382E+03  0.41800000000E+01 0.  1.
         -5    1    3    3    0  502 -0.62049497937E+02  0.94607092965E+02  0.31884373493E+03  0.33834810763E+03  0.41800000000E+01 0.  1.
        -11    1    4    4    0    0  0.71664657323E+02  0.74536507330E+01  0.16036037498E+03  0.17580338416E+03  0.00000000000E+00 0.  1.
         11    1    4    4    0    0  0.58179326775E+02 -0.72273430942E+02  0.10972231178E+03  0.14369157452E+03  0.00000000000E+00 0. -1.
</event>
<event>
 8    1  0.3541538E-009  0.1047578E+03  0.7561462E-02  0.1270598E+00
         -1   -1    0    0    0  501 -0.00000000000E+00  0.00000000000E+00  0.30022565544E+02  0.30022565544E+02  0.00000000000E+00 0.  1.
          1   -1    0    0  501    0  0.00000000000E+00 -0.00000000000E+00 -0.47948403808E+03  0.47948403808E+03  0.00000000000E+00 0. -1.
         25    2    1    2    0    0 -0.48303059346E+01 -0.51021536548E+02 -0.23664295047E+03  0.27253280838E+03  0.12509083337E+03 0.  0.
         23    2    1    2    0    0  0.48303059346E+01  0.51021536548E+02 -0.21281852207E+03  0.23697379524E+03  0.90765231487E+02 0.  0.
          5    1    3    3  502    0  0.49250783875E+02 -0.12532046132E+02 -0.39585454399E+02  0.64553640428E+02  0.41800000000E+01 0. -1.
         -5    1    3    3    0  502 -0.54081089809E+02 -0.38489490417E+02 -0.19705749607E+03  0.20797916796E+03  0.41800000000E+01 0. -1.
        -11    1    4    4    0    0  0.83016806954E+01  0.71127101966E+02 -0.10406556575E+03  0.12632349153E+03  0.00000000000E+00 0.  1.
         11    1    4    4    0    0 -0.34713747608E+01 -0.20105565418E+02 -0.10875295632E+03  0.11065030372E+03  0.00000000000E+00 0. -1.
</event>
<event>
 8    1  0.3541538E-009  0.1160537E+03  0.7561462E-02  0.1249753E+00
         -1   -1    0    0    0  501 -0.00000000000E+00  0.00000000000E+00  0.65059709233E+02  0.65059709233E+02  0.00000000000E+00 0.  1.
          1   -1    0    0  501    0  0.00000000000E+00 -0.00000000000E+00 -0.30237723735E+03  0.30237723735E+03  0.00000000000E+00 0. -1.
         25    2    1    2    0    0 -0.13003880559E+02 -0.68863757499E+02 -0.57855315799E+02  0.15462973727E+03  0.12510715437E+03 0.  0.
         23    2    1    2    0    0  0.13003880559E+02  0.68863757499E+02 -0.17946221231E+03  0.21280720931E+03  0.90381993110E+02 0.  0.
          5    1    3    3  502    0 -0.21029169354E+02 -0.10437654823E+03 -0.46531115963E+02  0.11627255453E+03  0.41800000000E+01 0. -1.
         -5    1    3    3    0  502  0.80252887947E+01  0.35512790732E+02 -0.11324199836E+02  0.38357182740E+02  0.41800000000E+01 0. -1.
        -11    1    4    4    0    0  0.34070586074E+02  0.50721070458E+02 -0.46004348861E+02  0.76484194040E+02  0.00000000000E+00 0.  1.
         11    1    4    4    0    0 -0.21066705515E+02  0.18142687041E+02 -0.13345786345E+03  0.13632301527E+03  0.00000000000E+00 0. -1.
</event>
<event>
 8    1  0.3541538E-009  0.1223653E+03  0.7561462E-02  0.1239245E+00
          2   -1    0    0  501    0  0.00000000000E+00  0.00000000000E+00  0.40333408791E+03  0.40333408791E+03  0.00000000000E+00 0. -1.
         -2   -1    0    0    0  501 -0.00000000000E+00 -0.00000000000E+00 -0.37693908262E+02  0.37693908262E+02  0.00000000000E+00 0.  1.
         25    2    1    2    0    0 -0.47875678506E+02  0.30350168527E+02  0.22543963652E+03  0.26397331446E+03  0.12508264353E+03 0.  0.
         23    2    1    2    0    0  0.47875678506E+02 -0.30350168527E+02  0.14020054313E+03  0.17705468171E+03  0.92081239676E+02 0.  0.
          5    1    3    3  502    0 -0.81098593536E+02  0.52830294906E+02  0.16407715167E+03  0.19054344920E+03  0.41800000000E+01 0.  1.
         -5    1    3    3    0  502  0.33222915031E+02 -0.22480126379E+02  0.61362484844E+02  0.73429865255E+02  0.41800000000E+01 0.  1.
        -11    1    4    4    0    0  0.98212599920E+01 -0.59047520331E+02  0.87289017213E+02  0.10584157657E+03  0.00000000000E+00 0. -1.
         11    1    4    4    0    0  0.38054418514E+02  0.28697351804E+02  0.52911525919E+02  0.71213105143E+02  0.00000000000E+00 0.  1.
</event>
<event>
 8    1  0.3541538E-009  0.1338255E+03  0.7561462E-02  0.1221887E+00
         -1   -1    0    0    0  501 -0.00000000000E+00  0.00000000000E+00  0.49713909368E+02  0.49713909368E+02  0.00000000000E+00 0.  1.
          1   -1    0    0  501    0  0.00000000000E+00 -0.00000000000E+00 -0.36633757182E+03  0.36633757182E+03  0.00000000000E+00 0. -1.
         25    2    1    2    0    0 -0.60040544945E+02 -0.51412659912E+02 -0.15249137205E+03  0.21248371361E+03  0.12509029284E+03 0.  0.
         23    2    1    2    0    0  0.60040544945E+02  0.51412659912E+02 -0.16413229039E+03  0.20356776757E+03  0.90842163160E+02 0.  0.
          5    1    3    3  502    0  0.19443022751E+02 -0.64306617862E+02 -0.71493220522E+02  0.98194323743E+02  0.41800000000E+01 0. -1.
         -5    1    3    3    0  502 -0.79483567696E+02  0.12893957951E+02 -0.80998151533E+02  0.11428938987E+03  0.41800000000E+01 0. -1.
        -11    1    4    4    0    0  0.34969492486E+02  0.76578722605E+02 -0.10494403541E+03  0.13453778922E+03  0.00000000000E+00 0.  1.
         11    1    4    4    0    0  0.25071052458E+02 -0.25166062694E+02 -0.59188254987E+02  0.69029978351E+02  0.00000000000E+00 0. -1.
</event>
<event>
 8    1  0.3541538E-009  0.1085706E+03  0.7561462E-02  0.1263240E+00
          1   -1    0    0  501    0  0.00000000000E+00  0.00000000000E+00  0.62550383457E+03  0.62550383457E+03  0.00000000000E+00 0. -1.
         -1   -1    0    0    0  501 -0.00000000000E+00 -0.00000000000E+00 -0.36785215663E+02  0.36785215663E+02  0.00000000000E+00 0.  1.
         25    2    1    2    0    0 -0.84616779212E+02 -0.40443485633E+02  0.20542008456E+03  0.25814942488E+03  0.12509212433E+03 0.  0.
         23    2    1    2    0    0  0.84616779212E+02  0.40443485633E+02  0.38329853435E+03  0.40413962536E+03  0.87266233419E+02 0.  0.
          5    1    3    3  502    0 -0.50131287608E+01 -0.86493141626E+01  0.16127946863E+03  0.16164306820E+03  0.41800000000E+01 0.  1.
         -5    1    3    3    0  502 -0.79603650452E+02 -0.31794171470E+02  0.44140615932E+02  0.96506356680E+02  0.41800000000E+01 0.  1.
        -11    1    4    4    0    0  0.62795760951E+01  0.41668073511E+02  0.74848983059E+02  0.85895469560E+02  0.00000000000E+00 0.  1.
         11    1    4    4    0    0  0.78337203117E+02 -0.12245878780E+01  0.30844955129E+03  0.31824415580E+03  0.00000000000E+00 0. -1.
</event>
<event>
 8    1  0.3541538E-009  0.1510658E+03  0.7561462E-02  0.1199169E+00
         -3   -1    0    0    0  501 -0.00000000000E+00  0.00000000000E+00  0.37604331184E+02  0.37604331184E+02  0.00000000000E+00 0.  1.
          3   -1    0    0  501    0  0.00000000000E+00 -0.00000000000E+00 -0.76394284306E+03  0.76394284306E+03  0.00000000000E+00 0. -1.
         25    2    1    2    0    0  0.72044321246E+02  0.10071031646E+03 -0.29215143626E+03  0.34107620474E+03  0.12509022211E+03 0.  0.
         23    2    1    2    0    0 -0.72044321246E+02 -0.10071031646E+03 -0.43418707562E+03  0.46047096951E+03  0.90455210213E+02 0.  0.
          5    1    3    3  502    0  0.66726833847E+02  0.11757529515E+03 -0.16837107951E+03  0.21596924133E+03  0.41800000000E+01 0.  1.
         -5    1    3    3    0  502  0.53174873986E+01 -0.16864978686E+02 -0.12378035675E+03  0.12510696342E+03  0.41800000000E+01 0.  1.
        -11    1    4    4    0    0 -0.18459833773E+01 -0.73335766743E+02 -0.27056957231E+03  0.28033807411E+03  0.00000000000E+00 0. -1.
         11    1    4    4    0    0 -0.70198337869E+02 -0.27374549717E+02 -0.16361750332E+03  0.18013289539E+03  0.00000000000E+00 0.  1.
</event>
<event>
 8    1  0.3541538E-009  0.1083986E+03  0.7561462E-02  0.1263564E+00
         -1   -1    0    0    0  501 -0.00000000000E+00  0.00000000000E+00  0.87812040569E+02  0.87812040569E+02  0.00000000000E+00 0.  1.
          1   -1    0    0  501    0  0.00000000000E+00 -0.00000000000E+00 -0.15890755107E+03  0.15890755107E+03  0.00000000000E+00 0. -1.
         25    2    1    2    0    0  0.31090241962E+02  0.35966477949E+02 -0.51252739250E+02  0.14330281883E+03  0.12509461988E+03 0.  0.
         23    2    1    2    0    0 -0.31090241962E+02 -0.35966477949E+02 -0.19842771254E+02  0.10341677281E+03  0.89672195502E+02 0.  0.
          5    1    3    3  502    0  0.46039920783E+01  0.80275968876E+02 -0.41569713584E+02  0.90614245069E+02  0.41800000000E+01 0. -1.
         -5    1    3    3    0  502  0.26486249884E+02 -0.44309490927E+02 -0.96830256654E+01  0.52688573762E+02  0.41800000000E+01 0. -1.
        -11    1    4    4    0    0  0.21356683242E+02 -0.85319845310E+00 -0.32641040450E+02  0.39016322076E+02  0.00000000000E+00 0. -1.
         11    1    4    4    0    0 -0.52446925205E+02 -0.35113279496E+02  0.12798269196E+02  0.64400450734E+02  0.00000000000E+00 0.  1.
</event>
<event>
 8    1  0.3541538E-009  0.7982316E+02  0.7561462E-02  0.1329554E+00
         -1   -1    0    0    0  501 -0.00000000000E+00  0.00000000000E+00  0.30165330199E+02  0.30165330199E+02  0.00000000000E+00 0.  1.
          1   -1    0    0  501    0  0.00000000000E+00 -0.00000000000E+00 -0.56354357552E+03  0.56354357552E+03  0.00000000000E+00 0. -1.
         25    2    1    2    0    0 -0.30917625535E+02 -0.64449160990E+02 -0.32284270713E+03  0.35353030225E+03  0.12508663854E+03 0.  0.
         23    2    1    2    0    0  0.30917625535E+02  0.64449160990E+02 -0.21053553819E+03  0.24017860346E+03  0.90834766481E+02 0.  0.
          5    1    3    3  502    0 -0.11764242349E+02 -0.40830263331E+02 -0.16689699383E+02  0.45842406866E+02  0.41800000000E+01 0. -1.
         -5    1    3    3    0  502 -0.19153383187E+02 -0.23618897659E+02 -0.30615300775E+03  0.30768789539E+03  0.41800000000E+01 0. -1.
        -11    1    4    4    0    0 -0.11643609675E+02  0.39714650403E+01  0.42519772443E+01  0.13016354763E+02  0.00000000000E+00 0.  1.
         11    1    4    4    0    0  0.42561235211E+02  0.60477695950E+02 -0.21478751543E+03  0.22716224870E+03  0.00000000000E+00 0. -1.
</event>
<event>
 8    1  0.3541538E-009  0.1089384E+03  0.7561462E-02  0.1262548E+00
          1   -1    0    0  501    0  0.00000000000E+00  0.00000000000E+00  0.12033737228E+03  0.12033737228E+03  0.00000000000E+00 0. -1.
         -1   -1    0    0    0  501 -0.00000000000E+00 -0.00000000000E+00 -0.12342561862E+03  0.12342561862E+03  0.00000000000E+00 0.  1.
         25    2    1    2    0    0  0.28116455263E+02 -0.46141946970E+02  0.97841625387E+01  0.13661244796E+03  0.12509043438E+03 0.  0.
         23    2    1    2    0    0 -0.28116455263E+02  0.46141946970E+02 -0.12872408876E+02  0.10715054295E+03  0.91629283626E+02 0.  0.
          5    1    3    3  502    0  0.48818489783E+02  0.27192613259E+02 -0.11878599093E+02  0.57282254468E+02  0.41800000000E+01 0. -1.
         -5    1    3    3    0  502 -0.20702034520E+02 -0.73334560229E+02  0.21662761632E+02  0.79330193487E+02  0.41800000000E+01 0. -1.
        -11    1    4    4    0    0 -0.80574859453E+00 -0.16848858456E+02 -0.31744219393E+02  0.35947583047E+02  0.00000000000E+00 0.  1.
         11    1    4    4    0    0 -0.27310706668E+02  0.62990805426E+02  0.18871810517E+02  0.71202959904E+02  0.00000000000E+00 0. -1.
</event>
<event>
 8    1  0.3541538E-009  0.1438784E+03  0.7561462E-02  0.1208204E+00
          2   -1    0    0  501    0  0.00000000000E+00  0.00000000000E+00  0.98196173485E+03  0.98196173485E+03  0.00000000000E+00 0. -1.
         -2   -1    0    0    0  501 -0.00000000000E+00 -0.00000000000E+00 -0.25620521190E+02  0.25620521190E+02  0.00000000000E+00 0.  1.
         25    2    1    2    0    0  0.63999729611E+02 -0.91940477806E+02  0.42419207693E+03  0.45621706613E+03  0.12508427737E+03 0.  0.
         23    2    1    2    0    0 -0.63999729611E+02  0.91940477806E+02  0.53214913673E+03  0.55136518991E+03  0.90949722794E+02 0.  0.
          5    1    3    3  502    0  0.99107903753E+02 -0.87413139875E+02  0.33875880000E+03  0.36364602374E+03  0.41800000000E+01 0.  1.
         -5    1    3    3    0  502 -0.35108174143E+02 -0.45273379309E+01  0.85433276937E+02  0.92571042387E+02  0.41800000000E+01 0.  1.
        -11    1    4    4    0    0  0.29741761639E+01  0.25099383005E+02  0.25308972343E+02  0.35768265713E+02  0.00000000000E+00 0.  1.
         11    1    4    4    0    0 -0.66973905774E+02  0.66841094801E+02  0.50684016438E+03  0.51559692420E+03  0.00000000000E+00 0. -1.
</event>
<event>
 8    1  0.3541538E-009  0.8734298E+02  0.7561462E-02  0.1309417E+00
          1   -1    0    0  501    0  0.00000000000E+00  0.00000000000E+00  0.29110807142E+03  0.29110807142E+03  0.00000000000E+00 0. -1.
         -1   -1    0    0    0  501 -0.00000000000E+00 -0.00000000000E+00 -0.73556043992E+02  0.73556043992E+02  0.00000000000E+00 0.  1.
         25    2    1    2    0    0  0.62466347769E+01 -0.22874293228E+02  0.27706503968E+00  0.12732357284E+03  0.12509581008E+03 0.  0.
         23    2    1    2    0    0 -0.62466347769E+01  0.22874293228E+02  0.21727496239E+03  0.23734054257E+03  0.92519566200E+02 0.  0.
          5    1    3    3  502    0 -0.38664078501E+02 -0.48482042872E+02 -0.28090932669E+02  0.68205515507E+02  0.41800000000E+01 0.  1.
         -5    1    3    3    0  502  0.44910713278E+02  0.25607749644E+02  0.28367997709E+02  0.59118057334E+02  0.41800000000E+01 0.  1.
        -11    1    4    4    0    0 -0.19655002908E+02  0.36559223274E+02  0.21389576257E+03  0.21788596373E+03  0.00000000000E+00 0. -1.
         11    1    4    4    0    0  0.13408368131E+02 -0.13684930046E+02  0.33791998162E+01  0.19454578837E+02  0.00000000000E+00 0.  1.
</event>
<event>
 8    1  0.3541538E-009  0.2682680E+03  0.7561462E-02  0.1102275E+00
          1   -1    0    0  501    0  0.00000000000E+00  0.00000000000E+00  0.11745905922E+04  0.11745905922E+04  0.00000000000E+00 0. -1.
         -1   -1    0    0    0  501 -0.00000000000E+00 -0.00000000000E+00 -0.81225485879E+02  0.81225485879E+02  0.00000000000E+00 0.  1.
         25    2    1    2    0    0 -0.24622838561E+03 -0.93788985567E+02  0.79430334114E+03  0.84616186003E+03  0.12508918393E+03 0.  0.
         23    2    1    2    0    0  0.24622838561E+03  0.93788985567E+02  0.29906176520E+03  0.40965421806E+03  0.94624770978E+02 0.  0.
          5    1    3    3  502    0 -0.13273597662E+03 -0.48457556766E+02  0.24007963611E+03  0.27860846788E+03  0.41800000000E+01 0. -1.
         -5    1    3    3    0  502 -0.11349240899E+03 -0.45331428801E+02  0.55422370503E+03  0.56755339216E+03  0.41800000000E+01 0. -1.
        -11    1    4    4    0    0  0.52477412235E+01  0.20274756253E+02  0.34181845351E+01  0.21220002700E+02  0.00000000000E+00 0.  1.
         11    1    4    4    0    0  0.24098064438E+03  0.73514229314E+02  0.29564358066E+03  0.38843421536E+03  0.00000000000E+00 0. -1.
</event>
<event>
 8    1  0.3541538E-009  0.1181281E+03  0.7561462E-02  0.1246217E+00
          1   -1    0    0  501    0  0.00000000000E+00  0.00000000000E+00  0.14739428003E+03  0.14739428003E+03  0.00000000000E+00 0. -1.
         -1   -1    0    0    0  501 -0.00000000000E+00 -0.00000000000E+00 -0.14647965952E+03  0.14647965952E+03  0.00000000000E+00 0.  1.
         25    2    1    2    0    0  0.67437200086E+02 -0.56585239694E+02 -0.48614151232E+02  0.16050769855E+03  0.12509884207E+03 0.  0.
         23    2    1    2    0    0 -0.67437200086E+02  0.56585239694E+02  0.49528771741E+02  0.13336624100E+03  0.87084956808E+02 0.  0.
          5    1    3    3  502    0  0.88066231059E+02 -0.43453135059E+02  0.80795606324E+01  0.98623464243E+02  0.41800000000E+01 0. -1.
         -5    1    3    3    0  502 -0.20629030972E+02 -0.13132104635E+02 -0.56693711864E+02  0.61884234309E+02  0.41800000000E+01 0. -1.
        -11    1    4    4    0    0 -0.28672385325E+02  0.67117296916E+02  0.56876291643E+02  0.92529723747E+02  0.00000000000E+00 0. -1.
         11    1    4    4    0    0 -0.38764814761E+02 -0.10532057223E+02 -0.73475199029E+01  0.40836517255E+02  0.00000000000E+00 0.  1.
</event>
<event>
 8    1  0.3541538E-009  0.1236621E+03  0.7561462E-02  0.1237175E+00
         -2   -1    0    0    0  501 -0.00000000000E+00  0.00000000000E+00  0.11012602166E+02  0.11012602166E+02  0.00000000000E+00 0.  1.
          2   -1    0    0  501    0  0.00000000000E+00 -0.00000000000E+00 -0.24006977704E+04  0.24006977704E+04  0.00000000000E+00 0. -1.
         25    2    1    2    0    0  0.56869077092E+02 -0.25135285504E+02 -0.20553154337E+04  0.20600558761E+04  0.12507120442E+03 0.  0.
         23    2    1    2    0    0 -0.56869077092E+02  0.25135285504E+02 -0.33436973454E+03  0.35165449646E+03  0.89397376923E+02 0.  0.
          5    1    3    3  502    0 -0.38033033180E+02  0.54538991912E+01 -0.70418271269E+03  0.70524252699E+03  0.41800000000E+01 0.  1.
         -5    1    3    3    0  502  0.94902110272E+02 -0.30589184695E+02 -0.13511327210E+04  0.13548133491E+04  0.41800000000E+01 0.  1.
        -11    1    4    4    0    0  0.16368715506E+01  0.46547766458E+02 -0.14009908200E+03  0.14763850002E+03  0.00000000000E+00 0.  1.
         11    1    4    4    0    0 -0.58505948642E+02 -0.21412480954E+02 -0.19427065254E+03  0.20401599644E+03  0.00000000000E+00 0. -1.
</event>
<event>
 8    1  0.3541538E-009  0.1210542E+03  0.7561462E-02  0.1241368E+00
          1   -1    0    0  501    0  0.00000000000E+00  0.00000000000E+00  0.96982951715E+02  0.96982951715E+02  0.00000000000E+00 0. -1.
         -1   -1    0    0    0  501 -0.00000000000E+00 -0.00000000000E+00 -0.16565771185E+03  0.16565771185E+03  0.00000000000E+00 0.  1.
         25    2    1    2    0    0  0.52525990550E+02 -0.43215157579E+02 -0.29045105579E+02  0.14531623434E+03  0.12508661110E+03 0.  0.
         23    2    1    2    0    0 -0.52525990550E+02  0.43215157579E+02 -0.39629654553E+02  0.11732442922E+03  0.86994152935E+02 0.  0.
          5    1    3    3  502    0  0.49086238620E+02  0.35163166109E+02 -0.28136100243E+02  0.66745933281E+02  0.41800000000E+01 0.  1.
         -5    1    3    3    0  502  0.34397519305E+01 -0.78378323688E+02 -0.90900533596E+00  0.78570301057E+02  0.41800000000E+01 0.  1.
        -11    1    4    4    0    0  0.52277618357E+01  0.44935130781E+02  0.32760908344E+01  0.45356678045E+02  0.00000000000E+00 0. -1.
         11    1    4    4    0    0 -0.57753752386E+02 -0.17199732020E+01 -0.42905745387E+02  0.71967751179E+02  0.00000000000E+00 0.  1.
</event>
<event>
 8    1  0.3541538E-009  0.1492069E+03  0.7561462E-02  0.1201451E+00
         -1   -1    0    0    0  501 -0.00000000000E+00  0.00000000000E+00  0.13684223587E+02  0.13684223587E+02  0.00000000000E+00 0.  1.
          1   -1    0    0  501    0  0.00000000000E+00 -0.00000000000E+00 -0.16591105140E+04  0.16591105140E+04  0.00000000000E+00 0. -1.
         25    2    1    2    0    0  0.36243370125E+02  0.97792209534E+02 -0.94456523449E+03  0.95850306933E+03  0.12509098128E+03 0.  0.
         23    2    1    2    0    0 -0.36243370125E+02 -0.97792209534E+02 -0.70086105595E+03  0.71429166827E+03  0.90163570800E+02 0.  0.
          5    1    3    3  502    0  0.60843783551E+02  0.11547039110E+03 -0.81372380747E+03  0.82413547701E+03  0.41800000000E+01 0.  1.
         -5    1    3    3    0  502 -0.24600413426E+02 -0.17678181562E+02 -0.13084142701E+03  0.13436759232E+03  0.41800000000E+01 0.  1.
        -11    1    4    4    0    0 -0.35115080079E+02  0.40951533982E+01 -0.15249266013E+03  0.15653705799E+03  0.00000000000E+00 0.  1.
         11    1    4    4    0    0 -0.11282900463E+01 -0.10188736293E+03 -0.54836839582E+03  0.55775461029E+03  0.00000000000E+00 0. -1.
</event>
<event>
 8    1  0.3541538E-009  0.1029828E+03  0.7561462E-02  0.1274146E+00
          1   -1    0    0  501    0  0.00000000000E+00  0.00000000000E+00  0.39524898639E+03  0.39524898639E+03  0.00000000000E+00 0. -1.
         -1   -1    0    0    0  501 -0.00000000000E+00 -0.00000000000E+00 -0.36608015117E+02  0.36608015117E+02  0.00000000000E+00 0.  1.
         25    2    1    2    0    0 -0.17890587551E+02 -0.23254339889E+02  0.27760492090E+03  0.30589677026E+03  0.12508998559E+03 0.  0.
         23    2    1    2    0    0  0.17890587551E+02  0.23254339889E+02  0.81036050369E+02  0.12596023125E+03  0.91860225076E+02 0.  0.
          5    1    3    3  502    0  0.35374396790E+02 -0.41544410140E+02  0.21378758790E+03  0.22068051818E+03  0.41800000000E+01 0. -1.
         -5    1    3    3    0  502 -0.53264984341E+02  0.18290070251E+02  0.63817333002E+02  0.85216252077E+02  0.41800000000E+01 0. -1.
        -11    1    4    4    0    0 -0.36796676692E+02  0.13636004520E+02  0.45273615517E+02  0.59913573561E+02  0.00000000000E+00 0. -1.
         11    1    4    4    0    0  0.54687264243E+02  0.96183353690E+01  0.35762434852E+02  0.66046657692E+02  0.00000000000E+00 0.  1.
</event>
<event>
 8    1  0.3541538E-009  0.1286384E+03  0.7561462E-02  0.1229490E+00
         -2   -1    0    0    0  501 -0.00000000000E+00  0.00000000000E+00  0.21107899541E+02  0.21107899541E+02  0.00000000000E+00 0. -1.
          2   -1    0    0  501    0  0.00000000000E+00 -0.00000000000E+00 -0.14113779802E+04  0.14113779802E+04  0.00000000000E+00 0.  1.
         25    2    1    2    0    0  0.84713543567E+02 -0.55975373886E+01 -0.11758607540E+04  0.11855395281E+04  0.12509093889E+03 0.  0.
         23    2    1    2    0    0 -0.84713543567E+02  0.55975373886E+01 -0.21440932665E+03  0.24694635164E+03  0.88336993062E+02 0.  0.
          5    1    3    3  502    0  0.11715144873E+03 -0.85485438677E-01 -0.86292552829E+03  0.87085154247E+03  0.41800000000E+01 0.  1.
         -5    1    3    3    0  502 -0.32437905159E+02 -0.55120519500E+01 -0.31293522568E+03  0.31468798560E+03  0.41800000000E+01 0.  1.
        -11    1    4    4    0    0 -0.26935533037E+02 -0.28967587895E+02 -0.14479225034E+03  0.15009810075E+03  0.00000000000E+00 0.  1.
         11    1    4    4    0    0 -0.57778010530E+02  0.34565125284E+02 -0.69617076307E+02  0.96848250888E+02  0.00000000000E+00 0. -1.
</event>
<event>
 8    1  0.3541538E-009  0.1345842E+03  0.7561462E-02  0.1220808E+00
          2   -1    0    0  501    0  0.00000000000E+00  0.00000000000E+00  0.76487382346E+03  0.76487382346E+03  0.00000000000E+00 0. -1.
         -2   -1    0    0    0  501 -0.00000000000E+00 -0.00000000000E+00 -0.25815652402E+02  0.25815652402E+02  0.00000000000E+00 0.  1.
         25    2    1    2    0    0 -0.34351099565E+02 -0.81550801230E+02  0.38009634289E+03  0.40981853957E+03  0.12508986480E+03 0.  0.
         23    2    1    2    0    0  0.34351099565E+02  0.81550801230E+02  0.35896182816E+03  0.38087093629E+03  0.91534391394E+02 0.  0.
          5    1    3    3  502    0 -0.57646482325E+02  0.59059434741E+00  0.22935264153E+03  0.23652393601E+03  0.41800000000E+01 0. -1.
         -5    1    3    3    0  502  0.23295382760E+02 -0.82141395578E+02  0.15074370136E+03  0.17329460357E+03  0.41800000000E+01 0. -1.
        -11    1    4    4    0    0  0.17698587803E+02  0.99696841759E+02  0.30902326170E+03  0.32518929340E+03  0.00000000000E+00 0. -1.
         11    1    4    4    0    0  0.16652511761E+02 -0.18146040529E+02  0.49938566460E+02  0.55681642890E+02  0.00000000000E+00 0.  1.
</event>
<event>
 8    1  0.3541538E-009  0.1382146E+03  0.7561462E-02  0.1215752E+00
         -2   -1    0    0    0  501 -0.00000000000E+00  0.00000000000E+00  0.99693685449E+02  0.99693685449E+02  0.00000000000E+00 0.  1.
          2   -1    0    0  501    0  0.00000000000E+00 -0.00000000000E+00 -0.27910657840E+03  0.27910657840E+03  0.00000000000E+00 0. -1.
         25    2    1    2    0    0 -0.15424076624E+02 -0.99086780450E+02 -0.94134217244E+01  0.16060147728E+03  0.12509248498E+03 0.  0.
         23    2    1    2    0    0  0.15424076624E+02  0.99086780450E+02 -0.16999947122E+03  0.21819878656E+03  0.93031167040E+02 0.  0.
          5    1    3    3  502    0 -0.56636193767E+02 -0.52790551200E+02 -0.44354036309E+02  0.89326668343E+02  0.41800000000E+01 0.  1.
         -5    1    3    3    0  502  0.41212117143E+02 -0.46296229249E+02  0.34940614585E+02  0.71274808942E+02  0.41800000000E+01 0.  1.
        -11    1    4    4    0    0  0.51855803808E+02  0.33475915546E+02 -0.74946144935E+02  0.97090606913E+02  0.00000000000E+00 0.  1.
         11    1    4    4    0    0 -0.36431727184E+02  0.65610864904E+02 -0.95053326287E+02  0.12110817965E+03  0.00000000000E+00 0. -1.
</event>
<event>
 8    1  0.3541538E-009  0.9851898E+02  0.7561462E-02  0.1283441E+00
          2   -1    0    0  501    0  0.00000000000E+00  0.00000000000E+00  0.91600335403E+03  0.91600335403E+03  0.00000000000E+00 0.  1.
         -2   -1    0    0    0  501 -0.00000000000E+00 -0.00000000000E+00 -0.15223100359E+02  0.15223100359E+02  0.00000000000E+00 0. -1.
         25    2    1    2    0    0 -0.24103286404E+02  0.19423363820E+02  0.65173792863E+03  0.66435582090E+03  0.12509234060E+03 0.  0.
         23    2    1    2    0    0  0.24103286404E+02 -0.19423363820E+02  0.24904232504E+03  0.26687063349E+03  0.90772351945E+02 0.  0.
          5    1    3    3  502    0 -0.49052267168E+02  0.61929348435E+02  0.42230413883E+03  0.42965058732E+03  0.41800000000E+01 0. -1.
         -5    1    3    3    0  502  0.24948980764E+02 -0.42505984615E+02  0.22943378980E+03  0.23470523359E+03  0.41800000000E+01 0. -1.
        -11    1    4    4    0    0  0.18444808492E+02 -0.41636267418E+02  0.23629331254E+03  0.24064147455E+03  0.00000000000E+00 0.  1.
         11    1    4    4    0    0  0.56584779120E+01  0.22212903599E+02  0.12749012505E+02  0.26229158935E+02  0.00000000000E+00 0. -1.
</event>
<event>
 8    1  0.3541538E-009  0.1073402E+03  0.7561462E-02  0.1265576E+00
         -3   -1    0    0    0  501 -0.00000000000E+00  0.00000000000E+00  0.19926253380E+02  0.19926253380E+02  0.00000000000E+00 0.  1.
          3   -1    0    0  501    0  0.00000000000E+00 -0.00000000000E+00 -0.91296068606E+03  0.91296068606E+03  0.00000000000E+00 0. -1.
         25    2    1    2    0    0 -0.12191587918E+02  0.43726539043E+02 -0.69190718272E+03  0.70458746365E+03  0.12508916582E+03 0.  0.
         23    2    1    2    0    0  0.12191587918E+02 -0.43726539043E+02 -0.20112724996E+03  0.22829947579E+03  0.98019564044E+02 0.  0.
          5    1    3    3  502    0  0.10956951832E+02 -0.40780398550E+02 -0.16180490313E+03  0.16727640233E+03  0.41800000000E+01 0. -1.
         -5    1    3    3    0  502 -0.23148539750E+02  0.84506937593E+02 -0.53010227959E+03  0.53731106132E+03  0.41800000000E+01 0. -1.
        -11    1    4    4    0    0  0.35967636222E+02 -0.14174740718E+01 -0.20837567186E+02  0.41591877745E+02  0.00000000000E+00 0.  1.
         11    1    4    4    0    0 -0.23776048304E+02 -0.42309064971E+02 -0.18028968278E+03  0.18670759804E+03  0.00000000000E+00 0. -1.
</event>
<event>
 8    1  0.3541538E-009  0.1328128E+03  0.7561462E-02  0.1223341E+00
         -1   -1    0    0    0  501 -0.00000000000E+00  0.00000000000E+00  0.18272744581E+02  0.18272744581E+02  0.00000000000E+00 0.  1.
          1   -1    0    0  501    0  0.00000000000E+00 -0.00000000000E+00 -0.19912265887E+04  0.19912265887E+04  0.00000000000E+00 0. -1.
         25    2    1    2    0    0  0.77709023194E+02  0.82808317919E+02 -0.16039590033E+04  0.16128324377E+04  0.12509227834E+03 0.  0.
         23    2    1    2    0    0 -0.77709023194E+02 -0.82808317919E+02 -0.36899484087E+03  0.39666689561E+03  0.91057804071E+02 0.  0.
          5    1    3    3  502    0 -0.23267218955E+02  0.44852516664E+01 -0.63730219524E+03  0.63775625550E+03  0.41800000000E+01 0. -1.
         -5    1    3    3    0  502  0.10097624215E+03  0.78323066252E+02 -0.96665680801E+03  0.97507618218E+03  0.41800000000E+01 0. -1.
        -11    1    4    4    0    0 -0.36176275228E+02 -0.34400014129E+02 -0.29403558220E+03  0.29824320187E+03  0.00000000000E+00 0. -1.
         11    1    4    4    0    0 -0.41532747966E+02 -0.48408303790E+02 -0.74959258673E+02  0.98423693744E+02  0.00000000000E+00 0.  1.
</event>
<event>
 8    1  0.3541538E-009  0.1013811E+03  0.7561462E-02  0.1277418E+00
         -1   -1    0    0    0  501 -0.00000000000E+00  0.00000000000E+00  0.90477633621E+02  0.90477633621E+02  0.00000000000E+00 0.  1.
          1   -1    0    0  501    0  0.00000000000E+00 -0.00000000000E+00 -0.27332964899E+03  0.27332964899E+03  0.00000000000E+00 0. -1.
         25    2    1    2    0    0  0.66284631379E+02  0.68403055326E+02 -0.17100226393E+03  0.23230032675E+03  0.12509611186E+03 0.  0.
         23    2    1    2    0    0 -0.66284631379E+02 -0.68403055326E+02 -0.11849751439E+02  0.13150695586E+03  0.89894563215E+02 0.  0.
          5    1    3    3  502    0 -0.70004372136E+01  0.31377521117E+01  0.17602678287E+02  0.19651419602E+02  0.41800000000E+01 0.  1.
         -5    1    3    3    0  502  0.73285068593E+02  0.65265303214E+02 -0.18860494221E+03  0.21264890715E+03  0.41800000000E+01 0.  1.
        -11    1    4    4    0    0 -0.13084841633E+02 -0.19869499247E+02  0.37356450014E+02  0.44288987780E+02  0.00000000000E+00 0.  1.
         11    1    4    4    0    0 -0.53199789747E+02 -0.48533556079E+02 -0.49206201453E+02  0.87217968081E+02  0.00000000000E+00 0. -1.
</event>
<event>
 8    1  0.3541538E-009  0.1283569E+03  0.7561462E-02  0.1229914E+00
          3   -1    0    0  501    0  0.00000000000E+00  0.00000000000E+00  0.55124170150E+03  0.55124170150E+03  0.00000000000E+00 0. -1.
         -3   -1    0    0    0  501 -0.00000000000E+00 -0.00000000000E+00 -0.64347886035E+02  0.64347886035E+02  0.00000000000E+00 0.  1.
         25    2    1    2    0    0  0.92768924558E+02 -0.10734670745E+01  0.44435259817E+03  0.47085358083E+03  0.12508651961E+03 0.  0.
         23    2    1    2    0    0 -0.92768924558E+02  0.10734670745E+01  0.42541217302E+02  0.14473600671E+03  0.10262324675E+03 0.  0.
          5    1    3    3  502    0  0.97661829746E+02 -0.45274589594E+02  0.26584884821E+03  0.28684613287E+03  0.41800000000E+01 0.  1.
         -5    1    3    3    0  502 -0.48929051884E+01  0.44201122519E+02  0.17850374996E+03  0.18400744796E+03  0.41800000000E+01 0.  1.
        -11    1    4    4    0    0 -0.31581325713E+02 -0.22469606011E+02  0.64793919590E+02  0.75501757224E+02  0.00000000000E+00 0. -1.
         11    1    4    4    0    0 -0.61187598845E+02  0.23543073086E+02 -0.22252702288E+02  0.69234249486E+02  0.00000000000E+00 0.  1.
</event>
<event>
 8    1  0.3541538E-009  0.1156797E+03  0.7561462E-02  0.1250399E+00
          2   -1    0    0  501    0  0.00000000000E+00  0.00000000000E+00  0.67721011430E+03  0.67721011430E+03  0.00000000000E+00 0. -1.
         -2   -1    0    0    0  501 -0.00000000000E+00 -0.00000000000E+00 -0.27780050540E+02  0.27780050540E+02  0.00000000000E+00 0.  1.
         25    2    1    2    0    0 -0.59271315682E+02  0.42773598993E+02  0.49524117875E+03  0.51599879122E+03  0.12509299653E+03 0.  0.
         23    2    1    2    0    0  0.59271315682E+02 -0.42773598993E+02  0.15418888501E+03  0.18899137362E+03  0.81245660853E+02 0.  0.
          5    1    3    3  502    0 -0.95611754829E+02  0.12729547645E+02  0.35960609582E+03  0.37234079228E+03  0.41800000000E+01 0.  1.
         -5    1    3    3    0  502  0.36340439147E+02  0.30044051348E+02  0.13563508293E+03  0.14365799894E+03  0.41800000000E+01 0.  1.
        -11    1    4    4    0    0  0.22803665872E+02  0.86892185907E+01  0.22810372518E+01  0.24509443646E+02  0.00000000000E+00 0.  1.
         11    1    4    4    0    0  0.36467649811E+02 -0.51462817583E+02  0.15190784776E+03  0.16448192997E+03  0.00000000000E+00 0. -1.
</event>
<event>
 8    1  0.3541538E-009  0.7973797E+02  0.7561462E-02  0.1329797E+00
         -2   -1    0    0    0  501 -0.00000000000E+00  0.00000000000E+00  0.47034004776E+02  0.47034004776E+02  0.00000000000E+00 0. -1.
          2   -1    0    0  501    0  0.00000000000E+00 -0.00000000000E+00 -0.29822618322E+03  0.29822618322E+03  0.00000000000E+00 0.  1.
         25    2    1    2    0    0  0.13931125509E+02  0.26406076684E+01 -0.20789905811E+03  0.24303778620E+03  0.12507716855E+03 0.  0.
         23    2    1    2    0    0 -0.13931125509E+02 -0.26406076684E+01 -0.43293120335E+02  0.10222240180E+03  0.91509978110E+02 0.  0.
          5    1    3    3  502    0 -0.37741195449E+02 -0.78687523435E+01 -0.17820893092E+03  0.18237930408E+03  0.41800000000E+01 0.  1.
         -5    1    3    3    0  502  0.51672320958E+02  0.10509360012E+02 -0.29690127197E+02  0.60658482128E+02  0.41800000000E+01 0.  1.
        -11    1    4    4    0    0  0.21035864639E+02  0.17575023150E+02 -0.53893832602E+02  0.60464321979E+02  0.00000000000E+00 0.  1.
         11    1    4    4    0    0 -0.34966990148E+02 -0.20215630818E+02  0.10600712267E+02  0.41758079817E+02  0.00000000000E+00 0. -1.
</event>
<event>
 8    1  0.3541538E-009  0.9690039E+02  0.7561462E-02  0.1286952E+00
         -2   -1    0    0    0  501 -0.00000000000E+00  0.00000000000E+00  0.44658853711E+02  0.44658853711E+02  0.00000000000E+00 0.  1.
          2   -1    0    0  501    0  0.00000000000E+00 -0.00000000000E+00 -0.27187957882E+03  0.27187957882E+03  0.00000000000E+00 0. -1.
         25    2    1    2    0    0  0.11848662771E+02  0.14435422134E+02 -0.13620344095E+03  0.18587105714E+03  0.12509156779E+03 0.  0.
         23    2    1    2    0    0 -0.11848662771E+02 -0.14435422134E+02 -0.91017284164E+02  0.13066737540E+03  0.91875158535E+02 0.  0.
          5    1    3    3  502    0  0.38863390936E+02  0.50297579025E+02 -0.12360155335E+03  0.13905044409E+03  0.41800000000E+01 0.  1.
         -5    1    3    3    0  502 -0.27014728165E+02 -0.35862156892E+02 -0.12601887597E+02  0.46820613043E+02  0.41800000000E+01 0.  1.
        -11    1    4    4    0    0 -0.38757896641E+02 -0.34144618004E+02 -0.80586416519E+02  0.95719381622E+02  0.00000000000E+00 0. -1.
         11    1    4    4    0    0  0.26909233870E+02  0.19709195870E+02 -0.10430867645E+02  0.34947993779E+02  0.00000000000E+00 0.  1.
</event>
<event>
 8    1  0.3541538E-009  0.2216926E+03  0.7561462E-02  0.1132627E+00
          1   -1    0    0  501    0  0.00000000000E+00  0.00000000000E+00  0.14186855993E+03  0.14186855993E+03  0.00000000000E+00 0. -1.
         -1   -1    0    0    0  501 -0.00000000000E+00 -0.00000000000E+00 -0.42190277268E+03  0.42190277268E+03  0.00000000000E+00 0.  1.
         25    2    1    2    0    0  0.20212827542E+03  0.26174591442E+02 -0.52396382350E+02  0.24481557546E+03  0.12509330976E+03 0.  0.
         23    2    1    2    0    0 -0.20212827542E+03 -0.26174591442E+02 -0.22763783040E+03  0.31895575714E+03  0.91503247055E+02 0.  0.
          5    1    3    3  502    0  0.86381054012E+02 -0.29811728321E+02  0.24810835966E+02  0.94781198658E+02  0.41800000000E+01 0. -1.
         -5    1    3    3    0  502  0.11574722140E+03  0.55986319764E+02 -0.77207218316E+02  0.15003437681E+03  0.41800000000E+01 0. -1.
        -11    1    4    4    0    0 -0.19588021478E+03  0.48693580809E+00 -0.19577527156E+03  0.27694268831E+03  0.00000000000E+00 0. -1.
         11    1    4    4    0    0 -0.62480606323E+01 -0.26661527250E+02 -0.31862558839E+02  0.42013068833E+02  0.00000000000E+00 0.  1.
</event>
<event>
 8    1  0.3541538E-009  0.1060105E+03  0.7561462E-02  0.1268141E+00
         -2   -1    0    0    0  501 -0.00000000000E+00  0.00000000000E+00  0.88621448048E+02  0.88621448048E+02  0.00000000000E+00 0.  1.
          2   -1    0    0  501    0  0.00000000000E+00 -0.00000000000E+00 -0.21050726839E+03  0.21050726839E+03  0.00000000000E+00 0. -1.
         25    2    1    2    0    0  0.33086328812E+02 -0.73999881681E+02 -0.93540082327E+02  0.17597979943E+03  0.12509378546E+03 0.  0.
         23    2    1    2    0    0 -0.33086328812E+02  0.73999881681E+02 -0.28345738013E+02  0.12314891701E+03  0.88269401571E+02 0.  0.
          5    1    3    3  502    0  0.42570286934E+02 -0.93611960322E+02 -0.27817555051E+02  0.10661480767E+03  0.41800000000E+01 0. -1.
         -5    1    3    3    0  502 -0.94839581221E+01  0.19612078641E+02 -0.65722527276E+02  0.69364991760E+02  0.41800000000E+01 0. -1.
        -11    1    4    4    0    0 -0.18843164780E+02  0.99625508488E+01  0.29017265470E+02  0.36004429917E+02  0.00000000000E+00 0.  1.
         11    1    4    4    0    0 -0.14243164032E+02  0.64037330832E+02 -0.57363003483E+02  0.87144487091E+02  0.00000000000E+00 0. -1.
</event>
<event>
 8    1  0.3541538E-009  0.8845130E+02  0.7561462E-02  0.1306646E+00
         -2   -1    0    0    0  501 -0.00000000000E+00  0.00000000000E+00  0.69003886040E+02  0.69003886040E+02  0.00000000000E+00 0.  1.
          2   -1    0    0  501    0  0.00000000000E+00 -0.00000000000E+00 -0.21358115872E+03  0.21358115872E+03  0.00000000000E+00 0. -1.
         25    2    1    2    0    0 -0.42293283542E+02  0.39463349112E+02 -0.97683496873E+02  0.16892471128E+03  0.12508962693E+03 0.  0.
         23    2    1    2    0    0  0.42293283542E+02 -0.39463349112E+02 -0.46893775806E+02  0.11366033348E+03  0.85869479099E+02 0.  0.
          5    1    3    3  502    0 -0.15788242610E+02  0.56889161849E+02 -0.11730623830E+03  0.13139205183E+03  0.41800000000E+01 0. -1.
         -5    1    3    3    0  502 -0.26505040932E+02 -0.17425812737E+02  0.19622741427E+02  0.37532659451E+02  0.41800000000E+01 0. -1.
        -11    1    4    4    0    0  0.30982243862E+02 -0.56986565882E+02 -0.60547416264E+02  0.88731943188E+02  0.00000000000E+00 0. -1.
         11    1    4    4    0    0  0.11311039680E+02  0.17523216770E+02  0.13653640458E+02  0.24928390288E+02  0.00000000000E+00 0.  1.
</event>
<event>
 8    1  0.3541538E-009  0.1472375E+03  0.7561462E-02  0.1203909E+00
          2   -1    0    0  501    0  0.00000000000E+00  0.00000000000E+00  0.26294265255E+03  0.26294265255E+03  0.00000000000E+00 0.  1.
         -2   -1    0    0    0  501 -0.00000000000E+00 -0.00000000000E+00 -0.97624378966E+02  0.97624378966E+02  0.00000000000E+00 0. -1.
         25    2    1    2    0    0 -0.88354510598E+02  0.67402863975E+02  0.49683534502E+02  0.17454455480E+03  0.12509069667E+03 0.  0.
         23    2    1    2    0    0  0.88354510598E+02 -0.67402863975E+02  0.11563473908E+03  0.18602247672E+03  0.94251277690E+02 0.  0.
          5    1    3    3  502    0 -0.48673367334E+02  0.10047171560E+03  0.50761359683E+02  0.12271043297E+03  0.41800000000E+01 0. -1.
         -5    1    3    3    0  502 -0.39681143264E+02 -0.33068851625E+02 -0.10778251811E+01  0.51834121827E+02  0.41800000000E+01 0. -1.
        -11    1    4    4    0    0  0.64418083811E+02 -0.80930899115E+02  0.11973068954E+03  0.15822432800E+03  0.00000000000E+00 0.  1.
         11    1    4    4    0    0  0.23936426787E+02  0.13528035140E+02 -0.40959504549E+01  0.27798148719E+02  0.00000000000E+00 0. -1.
</event>
<event>
 8    1  0.3541538E-009  0.4816875E+02  0.7561462E-02  0.1455477E+00
         -1   -1    0    0    0  501 -0.00000000000E+00  0.00000000000E+00  0.11476391447E+03  0.11476391447E+03  0.00000000000E+00 0.  1.
          1   -1    0    0  501    0  0.00000000000E+00 -0.00000000000E+00 -0.11695882376E+03  0.11695882376E+03  0.00000000000E+00 0. -1.
         25    2    1    2    0    0  0.31801800565E+02 -0.12156503774E+02 -0.41947370607E+01  0.12971155559E+03  0.12509339204E+03 0.  0.
         23    2    1    2    0    0 -0.31801800565E+02  0.12156503774E+02  0.19998277771E+01  0.10201118264E+03  0.96141286493E+02 0.  0.
          5    1    3    3  502    0 -0.19042874733E+00  0.23635196880E+01  0.57977856630E+02  0.58176685604E+02  0.41800000000E+01 0. -1.
         -5    1    3    3    0  502  0.31992229313E+02 -0.14520023462E+02 -0.62172593691E+02  0.71534869986E+02  0.41800000000E+01 0. -1.
        -11    1    4    4    0    0  0.82668993308E+01  0.13757503077E+02  0.42249097560E+02  0.45195096638E+02  0.00000000000E+00 0.  1.
         11    1    4    4    0    0 -0.40068699896E+02 -0.16009993036E+01 -0.40249269783E+02  0.56816085999E+02  0.00000000000E+00 0. -1.
</event>
<event>
 8    1  0.3541538E-009  0.1031091E+03  0.7561462E-02  0.1273891E+00
          2   -1    0    0  501    0  0.00000000000E+00  0.00000000000E+00  0.10665192615E+03  0.10665192615E+03  0.00000000000E+00 0. -1.
         -2   -1    0    0    0  501 -0.00000000000E+00 -0.00000000000E+00 -0.11780406350E+03  0.11780406350E+03  0.00000000000E+00 0.  1.
         25    2    1    2    0    0  0.20953695544E+02 -0.11193365081E+02 -0.31451486310E+02  0.13116334951E+03  0.12510107707E+03 0.  0.
         23    2    1    2    0    0 -0.20953695544E+02  0.11193365081E+02  0.20299348969E+02  0.93292640138E+02  0.87903949607E+02 0.  0.
          5    1    3    3  502    0 -0.20423409287E+02 -0.52591298043E+02  0.12391468397E+02  0.57913566337E+02  0.41800000000E+01 0. -1.
         -5    1    3    3    0  502  0.41377104831E+02  0.41397932963E+02 -0.43842954707E+02  0.73249783175E+02  0.41800000000E+01 0. -1.
        -11    1    4    4    0    0  0.18434670727E+02  0.38738796824E+02  0.11662259451E+02  0.44458292361E+02  0.00000000000E+00 0.  1.
         11    1    4    4    0    0 -0.39388366271E+02 -0.27545431743E+02  0.86370895180E+01  0.48834347776E+02  0.00000000000E+00 0. -1.
</event>
<event>
 8    1  0.3541538E-009  0.1012599E+03  0.7561462E-02  0.1277669E+00
         -2   -1    0    0    0  501 -0.00000000000E+00  0.00000000000E+00  0.22396977219E+03  0.22396977219E+03  0.00000000000E+00 0. -1.
          2   -1    0    0  501    0  0.00000000000E+00 -0.00000000000E+00 -0.12961409984E+03  0.12961409984E+03  0.00000000000E+00 0.  1.
         25    2    1    2    0    0  0.26871926760E+02  0.19641137691E+02  0.18298010582E+03  0.22413568872E+03  0.12508882081E+03 0.  0.
         23    2    1    2    0    0 -0.26871926760E+02 -0.19641137691E+02 -0.88624433466E+02  0.12944818331E+03  0.88287412571E+02 0.  0.
          5    1    3    3  502    0  0.66714777125E+02  0.24838288685E+02  0.16532501904E+03  0.18004898332E+03  0.41800000000E+01 0.  1.
         -5    1    3    3    0  502 -0.39842850365E+02 -0.51971509939E+01  0.17655086781E+02  0.44086705398E+02  0.41800000000E+01 0.  1.
        -11    1    4    4    0    0 -0.45198173825E+02  0.18232372353E+02 -0.29800288944E+02  0.57125751985E+02  0.00000000000E+00 0.  1.
         11    1    4    4    0    0  0.18326247065E+02 -0.37873510044E+02 -0.58824144523E+02  0.72322431329E+02  0.00000000000E+00 0. -1.
</event>
<event>
 8    1  0.3541538E-009  0.9593694E+02  0.7561462E-02  0.1289080E+00
         -2   -1    0    0    0  501 -0.00000000000E+00  0.00000000000E+00  0.50853742644E+02  0.50853742644E+02  0.00000000000E+00 0.  1.
          2   -1    0    0  501    0  0.00000000000E+00 -0.00000000000E+00 -0.37088698948E+03  0.37088698948E+03  0.00000000000E+00 0. -1.
         25    2    1    2    0    0 -0.29830909947E+02 -0.71537174153E+02 -0.22031601014E+03  0.26494403052E+03  0.12509494199E+03 0.  0.
         23    2    1    2    0    0  0.29830909947E+02  0.71537174153E+02 -0.99717236699E+02  0.15679670160E+03  0.92920545975E+02 0.  0.
          5    1    3    3  502    0 -0.25726804415E+02 -0.71966301146E+02 -0.43515428965E+02  0.88045908048E+02  0.41800000000E+01 0.  1.
         -5    1    3    3    0  502 -0.41041055323E+01  0.42912699250E+00 -0.17680058117E+03  0.17689812248E+03  0.41800000000E+01 0.  1.
        -11    1    4    4    0    0  0.56145633115E+02  0.43653660440E+02 -0.94244966964E+02  0.11806814975E+03  0.00000000000E+00 0. -1.
         11    1    4    4    0    0 -0.26314723168E+02  0.27883513713E+02 -0.54722697355E+01  0.38728551851E+02  0.00000000000E+00 0.  1.
</event>
<event>
 8    1  0.3541538E-009  0.1118629E+03  0.7561462E-02  0.1257158E+00
          2   -1    0    0  501    0  0.00000000000E+00  0.00000000000E+00  0.89442883577E+03  0.89442883577E+03  0.00000000000E+00 0. -1.
         -2   -1    0    0    0  501 -0.00000000000E+00 -0.00000000000E+00 -0.21504144965E+02  0.21504144965E+02  0.00000000000E+00 0.  1.
         25    2    1    2    0    0  0.23702047287E+01  0.73681234060E+02  0.63819167202E+03  0.65450085667E+03  0.12509284160E+03 0.  0.
         23    2    1    2    0    0 -0.23702047287E+01 -0.73681234060E+02  0.23473301878E+03  0.26143212406E+03  0.88389044928E+02 0.  0.
          5    1    3    3  502    0 -0.37378269280E+02  0.63839423009E+02  0.57039325834E+03  0.57518566438E+03  0.41800000000E+01 0. -1.
         -5    1    3    3    0  502  0.39748474008E+02  0.98418110515E+01  0.67798413683E+02  0.79315192294E+02  0.41800000000E+01 0. -1.
        -11    1    4    4    0    0  0.37080339114E+02 -0.50700862607E+02  0.17708218639E+03  0.18789260165E+03  0.00000000000E+00 0.  1.
         11    1    4    4    0    0 -0.39450543842E+02 -0.22980371454E+02  0.57650832392E+02  0.73539522415E+02  0.00000000000E+00 0. -1.
</event>
<event>
 8    1  0.3541538E-009  0.1512147E+03  0.7561462E-02  0.1198988E+00
          2   -1    0    0  501    0  0.00000000000E+00  0.00000000000E+00  0.69186184111E+03  0.69186184111E+03  0.00000000000E+00 0.  1.
         -2   -1    0    0    0  501 -0.00000000000E+00 -0.00000000000E+00 -0.38913420658E+02  0.38913420658E+02  0.00000000000E+00 0. -1.
         25    2    1    2    0    0 -0.18392741743E+02  0.10882202935E+03  0.23514889243E+03  0.28831023130E+03  0.12508901168E+03 0.  0.
         23    2    1    2    0    0  0.18392741743E+02 -0.10882202935E+03  0.41779952802E+03  0.44246503046E+03  0.95070134898E+02 0.  0.
          5    1    3    3  502    0  0.47838781354E+02  0.16605402592E+02  0.96481366629E+02  0.10904317908E+03  0.41800000000E+01 0.  1.
         -5    1    3    3    0  502 -0.66231523097E+02  0.92216626755E+02  0.13866752580E+03  0.17926705223E+03  0.41800000000E+01 0.  1.
        -11    1    4    4    0    0  0.47359711759E+02 -0.94472154849E+02  0.36973317428E+03  0.38453940046E+03  0.00000000000E+00 0.  1.
         11    1    4    4    0    0 -0.28966970016E+02 -0.14349874498E+02  0.48066353741E+02  0.57925630009E+02  0.00000000000E+00 0. -1.
</event>
<event>
 8    1  0.3541538E-009  0.1046807E+03  0.7561462E-02  0.1270750E+00
          4   -1    0    0  501    0  0.00000000000E+00  0.00000000000E+00  0.21871285813E+03  0.21871285813E+03  0.00000000000E+00 0. -1.
         -4   -1    0    0    0  501 -0.00000000000E+00 -0.00000000000E+00 -0.61344216116E+02  0.61344216116E+02  0.00000000000E+00 0.  1.
         25    2    1    2    0    0  0.34409572285E+02 -0.23049949984E+02  0.90386881410E+02  0.15978829367E+03  0.12508873492E+03 0.  0.
         23    2    1    2    0    0 -0.34409572285E+02  0.23049949984E+02  0.66981760602E+02  0.12026878057E+03  0.90899419515E+02 0.  0.
          5    1    3    3  502    0  0.79855320420E+01  0.47082612210E+02  0.84670322281E+01  0.48679606914E+02  0.41800000000E+01 0.  1.
         -5    1    3    3    0  502  0.26424040243E+02 -0.70132562194E+02  0.81919849182E+02  0.11110868676E+03  0.41800000000E+01 0.  1.
        -11    1    4    4    0    0  0.23445173226E+02 -0.15457713424E+01 -0.56934887798E+01  0.24176049535E+02  0.00000000000E+00 0.  1.
         11    1    4    4    0    0 -0.57854745511E+02  0.24595721326E+02  0.72675249382E+02  0.96092731038E+02  0.00000000000E+00 0. -1.
</event>
<event>
 8    1  0.3541538E-009  0.1090222E+03  0.7561462E-02  0.1262391E+00
          3   -1    0    0  501    0  0.00000000000E+00  0.00000000000E+00  0.53949458660E+02  0.53949458660E+02  0.00000000000E+00 0. -1.
         -3   -1    0    0    0  501 -0.00000000000E+00 -0.00000000000E+00 -0.34620328739E+03  0.34620328739E+03  0.00000000000E+00 0.  1.
         25    2    1    2    0    0 -0.10421873400E+02 -0.76163940459E+02 -0.19950883153E+03  0.24771712483E+03  0.12510171382E+03 0.  0.
         23    2    1    2    0    0  0.10421873400E+02  0.76163940459E+02 -0.92744997193E+02  0.15243562122E+03  0.93409971852E+02 0.  0.
          5    1    3    3  502    0 -0.53981792376E+02 -0.40725504129E+02 -0.17237364162E+03  0.18521000329E+03  0.41800000000E+01 0.  1.
         -5    1    3    3    0  502  0.43559918976E+02 -0.35438436330E+02 -0.27135189914E+02  0.62507121533E+02  0.41800000000E+01 0.  1.
        -11    1    4    4    0    0  0.32709823258E+02  0.47550880505E+02 -0.99988534110E+02  0.11545010060E+03  0.00000000000E+00 0.  1.
         11    1    4    4    0    0 -0.22287949858E+02  0.28613059954E+02  0.72435369163E+01  0.36985520625E+02  0.00000000000E+00 0. -1.
</event>
<event>
 8    1  0.3541538E-009  0.1563492E+03  0.7561462E-02  0.1192881E+00
          2   -1    0    0  501    0  0.00000000000E+00  0.00000000000E+00  0.36348521652E+03  0.36348521652E+03  0.00000000000E+00 0.  1.
         -2   -1    0    0    0  501 -0.00000000000E+00 -0.00000000000E+00 -0.76307208874E+02  0.76307208874E+02  0.00000000000E+00 0. -1.
         25    2    1    2    0    0  0.66230305029E+02  0.10199701269E+03  0.11081262967E+03  0.20668053646E+03  0.12509021287E+03 0.  0.
         23    2    1    2    0    0 -0.66230305029E+02 -0.10199701269E+03  0.17636537797E+03  0.23311188893E+03  0.91905181094E+02 0.  0.
          5    1    3    3  502    0 -0.23279407059E+02 -0.11970537862E+02  0.32384004399E+02  0.41849978621E+02  0.41800000000E+01 0.  1.
         -5    1    3    3    0  502  0.89509712087E+02  0.11396755055E+03  0.78428625274E+02  0.16483055784E+03  0.41800000000E+01 0.  1.
        -11    1    4    4    0    0 -0.66661756275E+01 -0.75885570689E+02  0.50379538938E+02  0.91329927625E+02  0.00000000000E+00 0. -1.
         11    1    4    4    0    0 -0.59564129401E+02 -0.26111441998E+02  0.12598583903E+03  0.14178196130E+03  0.00000000000E+00 0.  1.
</event>
<event>
 8    1  0.3541538E-009  0.8108979E+02  0.7561462E-02  0.1325987E+00
         -1   -1    0    0    0  501 -0.00000000000E+00  0.00000000000E+00  0.42778034424E+03  0.42778034424E+03  0.00000000000E+00 0.  1.
          1   -1    0    0  501    0  0.00000000000E+00 -0.00000000000E+00 -0.39290172123E+02  0.39290172123E+02  0.00000000000E+00 0. -1.
         25    2    1    2    0    0 -0.58325055749E+02  0.30817449081E+01  0.30095605797E+03  0.33110947041E+03  0.12509046041E+03 0.  0.
         23    2    1    2    0    0  0.58325055749E+02 -0.30817449081E+01  0.87534114147E+02  0.13596104595E+03  0.86092250508E+02 0.  0.
          5    1    3    3  502    0 -0.14519371382E+02  0.21499018999E+01  0.28325993856E+03  0.28367075883E+03  0.41800000000E+01 0.  1.
         -5    1    3    3    0  502 -0.43805684368E+02  0.93184300819E+00  0.17696119415E+02  0.47438711583E+02  0.41800000000E+01 0.  1.
        -11    1    4    4    0    0  0.25995859857E+02 -0.43786843885E+02  0.53321424264E+02  0.73730907445E+02  0.00000000000E+00 0.  1.
         11    1    4    4    0    0  0.32329195893E+02  0.40705098977E+02  0.34212689883E+02  0.62230138509E+02  0.00000000000E+00 0. -1.
</event>
<event>
 8    1  0.3541538E-009  0.9028764E+02  0.7561462E-02  0.1302157E+00
         -2   -1    0    0    0  501 -0.00000000000E+00  0.00000000000E+00  0.29193635456E+02  0.29193635456E+02  0.00000000000E+00 0.  1.
          2   -1    0    0  501    0  0.00000000000E+00 -0.00000000000E+00 -0.54372684234E+03  0.54372684234E+03  0.00000000000E+00 0. -1.
         25    2    1    2    0    0 -0.38558226540E+02  0.46615419881E+02 -0.23922804394E+03  0.27665435813E+03  0.12509133726E+03 0.  0.
         23    2    1    2    0    0  0.38558226540E+02 -0.46615419881E+02 -0.27530516295E+03  0.29626611967E+03  0.91219223389E+02 0.  0.
          5    1    3    3  502    0  0.19182699715E+02  0.46684709569E+02 -0.28488531511E+02  0.58107718106E+02  0.41800000000E+01 0. -1.
         -5    1    3    3    0  502 -0.57740926254E+02 -0.69289687145E-01 -0.21073951243E+03  0.21854664002E+03  0.41800000000E+01 0. -1.
        -11    1    4    4    0    0  0.14921995718E+02 -0.46037014177E+02 -0.26677813409E+03  0.27113215497E+03  0.00000000000E+00 0. -1.
         11    1    4    4    0    0  0.23636230822E+02 -0.57840570448E+00 -0.85270288617E+01  0.25133964706E+02  0.00000000000E+00 0.  1.
</event>
<event>
 8    1  0.3541538E-009  0.1355583E+03  0.7561462E-02  0.1219434E+00
         -3   -1    0    0    0  501 -0.00000000000E+00  0.00000000000E+00  0.23559613990E+03  0.23559613990E+03  0.00000000000E+00 0.  1.
          3   -1    0    0  501    0  0.00000000000E+00 -0.00000000000E+00 -0.10298062130E+03  0.10298062130E+03  0.00000000000E+00 0. -1.
         25    2    1    2    0    0 -0.10706089416E+03 -0.15815731980E+02  0.36643118452E+02  0.16941795763E+03  0.12509018267E+03 0.  0.
         23    2    1    2    0    0  0.10706089416E+03  0.15815731980E+02  0.95972400151E+02  0.16915880357E+03  0.87703060371E+02 0.  0.
          5    1    3    3  502    0 -0.51838544501E+02 -0.68763844773E+02  0.34225468463E+02  0.92760746739E+02  0.41800000000E+01 0. -1.
         -5    1    3    3    0  502 -0.55222349655E+02  0.52948112793E+02  0.24176499889E+01  0.76657210889E+02  0.41800000000E+01 0. -1.
        -11    1    4    4    0    0  0.74388496276E+02  0.12647448720E+02  0.11005649319E+03  0.13343926720E+03  0.00000000000E+00 0.  1.
         11    1    4    4    0    0  0.32672397881E+02  0.31682832599E+01 -0.14084093035E+02  0.35719536373E+02  0.00000000000E+00 0. -1.
</event>
<event>
 8    1  0.3541538E-009  0.1029942E+03  0.7561462E-02  0.1274123E+00
         -1   -1    0    0    0  501 -0.00000000000E+00  0.00000000000E+00  0.19800364905E+03  0.19800364905E+03  0.00000000000E+00 0.  1.
          1   -1    0    0  501    0  0.00000000000E+00 -0.00000000000E+00 -0.93327365700E+02  0.93327365700E+02  0.00000000000E+00 0. -1.
         25    2    1    2    0    0 -0.39317125034E+02  0.52235486976E+02  0.11728095716E+02  0.14163635390E+03  0.12509566778E+03 0.  0.
         23    2    1    2    0    0  0.39317125034E+02 -0.52235486976E+02  0.92948187634E+02  0.14969466085E+03  0.97440974346E+02 0.  0.
          5    1    3    3  502    0  0.95546577556E+01 -0.10398851381E+02  0.50880450640E+02  0.52969049947E+02  0.41800000000E+01 0.  1.
         -5    1    3    3    0  502 -0.48871782790E+02  0.62634338358E+02 -0.39152354924E+02  0.88667303955E+02  0.41800000000E+01 0.  1.
        -11    1    4    4    0    0  0.14133978584E+02 -0.75866435466E+02  0.41198840318E+02  0.87480453956E+02  0.00000000000E+00 0. -1.
         11    1    4    4    0    0  0.25183146450E+02  0.23630948489E+02  0.51749347316E+02  0.62214206892E+02  0.00000000000E+00 0.  1.
</event>
<event>
 8    1  0.3541538E-009  0.6984713E+02  0.7561462E-02  0.1360614E+00
          1   -1    0    0  501    0  0.00000000000E+00  0.00000000000E+00  0.81746463684E+03  0.81746463684E+03  0.00000000000E+00 0. -1.
         -1   -1    0    0    0  501 -0.00000000000E+00 -0.00000000000E+00 -0.14504045336E+02  0.14504045336E+02  0.00000000000E+00 0.  1.
         25    2    1    2    0    0  0.85271883224E+01  0.17520213469E+02  0.48361827535E+03  0.49991319095E+03  0.12508753499E+03 0.  0.
         23    2    1    2    0    0 -0.85271883224E+01 -0.17520213469E+02  0.31934231615E+03  0.33205549123E+03  0.88891301872E+02 0.  0.
          5    1    3    3  502    0 -0.18721354622E+02  0.98931451708E+01  0.46561735549E+03  0.46611732169E+03  0.41800000000E+01 0. -1.
         -5    1    3    3    0  502  0.27248542944E+02  0.76270682980E+01  0.18000919861E+02  0.33795869263E+02  0.41800000000E+01 0. -1.
        -11    1    4    4    0    0  0.30716749758E+02 -0.34982694956E+02  0.13595018394E+03  0.14370024417E+03  0.00000000000E+00 0.  1.
         11    1    4    4    0    0 -0.39243938080E+02  0.17462481487E+02  0.18339213221E+03  0.18835524706E+03  0.00000000000E+00 0. -1.
</event>
<event>
 8    1  0.3541538E-009  0.1090466E+03  0.7561462E-02  0.1262346E+00
         -2   -1    0    0    0  501 -0.00000000000E+00  0.00000000000E+00  0.46332116743E+02  0.46332116743E+02  0.00000000000E+00 0.  1.
          2   -1    0    0  501    0  0.00000000000E+00 -0.00000000000E+00 -0.34330917527E+03  0.34330917527E+03  0.00000000000E+00 0. -1.
         25    2    1    2    0    0 -0.15884370506E+02  0.39050366541E+02 -0.91025670332E+02  0.16034421185E+03  0.12508936509E+03 0.  0.
         23    2    1    2    0    0  0.15884370506E+02 -0.39050366541E+02 -0.20595138820E+03  0.22929708017E+03  0.91563815564E+02 0.  0.
          5    1    3    3  502    0  0.47839624803E+02  0.89349296585E+01 -0.72376427001E+02  0.87317136089E+02  0.41800000000E+01 0. -1.
         -5    1    3    3    0  502 -0.63723995309E+02  0.30115436883E+02 -0.18649243330E+02  0.73027075756E+02  0.41800000000E+01 0. -1.
        -11    1    4    4    0    0 -0.16831515599E+02  0.22996384615E+02 -0.39841184806E+02  0.48984218168E+02  0.00000000000E+00 0.  1.
         11    1    4    4    0    0  0.32715886105E+02 -0.62046751157E+02 -0.16611020339E+03  0.18031286200E+03  0.00000000000E+00 0. -1.
</event>
<event>
 8    1  0.3541538E-009  0.1645130E+03  0.7561462E-02  0.1183694E+00
         -2   -1    0    0    0  501 -0.00000000000E+00  0.00000000000E+00  0.28472819542E+02  0.28472819542E+02  0.00000000000E+00 0.  1.
          2   -1    0    0  501    0  0.00000000000E+00 -0.00000000000E+00 -0.10695799349E+04  0.10695799349E+04  0.00000000000E+00 0. -1.
         25    2    1    2    0    0  0.93595077196E+02  0.87451214531E+02 -0.72075089284E+03  0.74265513963E+03  0.12508818283E+03 0.  0.
         23    2    1    2    0    0 -0.93595077196E+02 -0.87451214531E+02 -0.32035622256E+03  0.35539761486E+03  0.85273688300E+02 0.  0.
          5    1    3    3  502    0 -0.22681230257E+02  0.49992548579E+02 -0.27448824176E+03  0.27995528283E+03  0.41800000000E+01 0.  1.
         -5    1    3    3    0  502  0.11627630745E+03  0.37458665952E+02 -0.44626265108E+03  0.46269985679E+03  0.41800000000E+01 0.  1.
        -11    1    4    4    0    0 -0.59911799947E+02 -0.20646537258E+01 -0.98577453726E+02  0.11537417801E+03  0.00000000000E+00 0.  1.
         11    1    4    4    0    0 -0.33683277249E+02 -0.85386560805E+02 -0.22177876883E+03  0.24002343685E+03  0.00000000000E+00 0. -1.
</event>
<event>
 8    1  0.3541538E-009  0.1642488E+03  0.7561462E-02  0.1183982E+00
         -1   -1    0    0    0  501 -0.00000000000E+00  0.00000000000E+00  0.10371290052E+03  0.10371290052E+03  0.00000000000E+00 0.  1.
          1   -1    0    0  501    0  0.00000000000E+00 -0.00000000000E+00 -0.28822935059E+03  0.28822935059E+03  0.00000000000E+00 0. -1.
         25    2    1    2    0    0 -0.11931311504E+03 -0.41637282758E+02 -0.42238049881E+02  0.18276158535E+03  0.12509381075E+03 0.  0.
         23    2    1    2    0    0  0.11931311504E+03  0.41637282758E+02 -0.14227840019E+03  0.20918066575E+03  0.86856922745E+02 0.  0.
          5    1    3    3  502    0 -0.12637027800E+03 -0.72131884599E+02 -0.28534286666E+02  0.14833790431E+03  0.41800000000E+01 0.  1.
         -5    1    3    3    0  502  0.70571629663E+01  0.30494601841E+02 -0.13703763214E+02  0.34423681046E+02  0.41800000000E+01 0.  1.
        -11    1    4    4    0    0  0.99684772593E+02  0.66383729928E+02 -0.97779775780E+02  0.15461157149E+03  0.00000000000E+00 0.  1.
         11    1    4    4    0    0  0.19628342446E+02 -0.24746447169E+02 -0.44498624410E+02  0.54569094267E+02  0.00000000000E+00 0. -1.
</event>
<event>
 8    1  0.3541538E-009  0.1624491E+03  0.7561462E-02  0.1185959E+00
          2   -1    0    0  501    0  0.00000000000E+00  0.00000000000E+00  0.16116660554E+04  0.16116660554E+04  0.00000000000E+00 0. -1.
         -2   -1    0    0    0  501 -0.00000000000E+00 -0.00000000000E+00 -0.18706454365E+02  0.18706454365E+02  0.00000000000E+00 0.  1.
         25    2    1    2    0    0 -0.13034403236E+03  0.12226186789E+02  0.10114645668E+04  0.10275441190E+04  0.12508916926E+03 0.  0.
         23    2    1    2    0    0  0.13034403236E+03 -0.12226186789E+02  0.58149503419E+03  0.60282839068E+03  0.90147364954E+02 0.  0.
          5    1    3    3  502    0 -0.25794394399E+02 -0.50194166004E+02  0.24455404406E+03  0.25101585199E+03  0.41800000000E+01 0. -1.
         -5    1    3    3    0  502 -0.10454963796E+03  0.62420352793E+02  0.76691052274E+03  0.77652826705E+03  0.41800000000E+01 0. -1.
        -11    1    4    4    0    0  0.35441609622E+02 -0.33989590265E+02  0.97858022836E+02  0.10948786495E+03  0.00000000000E+00 0.  1.
         11    1    4    4    0    0  0.94902422735E+02  0.21763403476E+02  0.48363701136E+03  0.49334052573E+03  0.00000000000E+00 0. -1.
</event>
<event>
 8    1  0.3541538E-009  0.8496608E+02  0.7561462E-02  0.1315521E+00
          1   -1    0    0  501    0  0.00000000000E+00  0.00000000000E+00  0.76707029416E+02  0.76707029416E+02  0.00000000000E+00 0. -1.
         -1   -1    0    0    0  501 -0.00000000000E+00 -0.00000000000E+00 -0.22445485924E+03  0.22445485924E+03  0.00000000000E+00 0.  1.
         25    2    1    2    0    0 -0.26211444369E+01 -0.58450085769E+02 -0.13508141650E+03  0.19317462985E+03  0.12508463378E+03 0.  0.
         23    2    1    2    0    0  0.26211444369E+01  0.58450085769E+02 -0.12666413318E+02  0.10798725881E+03  0.89875063914E+02 0.  0.
          5    1    3    3  502    0  0.36674337649E+01 -0.12612845727E+01 -0.13536871671E+03  0.13548875515E+03  0.41800000000E+01 0. -1.
         -5    1    3    3    0  502 -0.62885782018E+01 -0.57188801197E+02  0.28730020521E+00  0.57685874697E+02  0.41800000000E+01 0. -1.
        -11    1    4    4    0    0  0.32768277685E+02  0.67529777691E+02 -0.32746500282E+01  0.75131579447E+02  0.00000000000E+00 0.  1.
         11    1    4    4    0    0 -0.30147133248E+02 -0.90796919215E+01 -0.93917632899E+01  0.32855679359E+02  0.00000000000E+00 0. -1.
</event>
<event>
 8    1  0.3541538E-009  0.8288543E+02  0.7561462E-02  0.1321057E+00
         -1   -1    0    0    0  501 -0.00000000000E+00  0.00000000000E+00  0.78559659209E+02  0.78559659209E+02  0.00000000000E+00 0.  1.
          1   -1    0    0  501    0  0.00000000000E+00 -0.00000000000E+00 -0.16970775496E+03  0.16970775496E+03  0.00000000000E+00 0. -1.
         25    2    1    2    0    0 -0.27187203748E+01 -0.12032624235E+02 -0.10532685738E+02  0.12612125539E+03  0.12507381063E+03 0.  0.
         23    2    1    2    0    0  0.27187203748E+01  0.12032624235E+02 -0.80615410015E+02  0.12214615878E+03  0.90932196095E+02 0.  0.
          5    1    3    3  502    0  0.47461485785E+02 -0.42965660188E+02  0.68496424403E+01  0.64521551360E+02  0.41800000000E+01 0. -1.
         -5    1    3    3    0  502 -0.50180206160E+02  0.30933035953E+02 -0.17382328179E+02  0.61599704029E+02  0.41800000000E+01 0. -1.
        -11    1    4    4    0    0  0.11140518244E+01  0.27221442211E+02  0.10915609881E+02  0.29349592273E+02  0.00000000000E+00 0.  1.
         11    1    4    4    0    0  0.16046685504E+01 -0.15188817976E+02 -0.91531019896E+02  0.92796566509E+02  0.00000000000E+00 0. -1.
</event>
<event>
 8    1  0.3541538E-009  0.9155584E+02  0.7561462E-02  0.1299127E+00
          2   -1    0    0  501    0  0.00000000000E+00  0.00000000000E+00  0.18802116135E+02  0.18802116135E+02  0.00000000000E+00 0. -1.
         -2   -1    0    0    0  501 -0.00000000000E+00 -0.00000000000E+00 -0.69107168307E+03  0.69107168307E+03  0.00000000000E+00 0.  1.
         25    2    1    2    0    0  0.14704732449E+02 -0.40126313426E+01 -0.48695233604E+03  0.50299317395E+03  0.12508886883E+03 0.  0.
         23    2    1    2    0    0 -0.14704732449E+02  0.40126313426E+01 -0.18531723090E+03  0.20688062526E+03  0.90690609608E+02 0.  0.
          5    1    3    3  502    0 -0.40464733687E+01  0.43144012898E+02 -0.66590018818E+02  0.79558046745E+02  0.41800000000E+01 0. -1.
         -5    1    3    3    0  502  0.18751205818E+02 -0.47156644240E+02 -0.42036231722E+03  0.42343512721E+03  0.41800000000E+01 0. -1.
        -11    1    4    4    0    0 -0.57985620874E+01  0.45681134846E+02 -0.12346181650E+03  0.13176953190E+03  0.00000000000E+00 0.  1.
         11    1    4    4    0    0 -0.89061703620E+01 -0.41668503504E+02 -0.61855414398E+02  0.75111093356E+02  0.00000000000E+00 0. -1.
</event>
<event>
 8    1  0.3541538E-009  0.9218148E+02  0.7561462E-02  0.1297653E+00
         -2   -1    0    0    0  501 -0.00000000000E+00  0.00000000000E+00  0.13875412407E+02  0.13875412407E+02  0.00000000000E+00 0.  1.
          2   -1    0    0  501    0  0.00000000000E+00 -0.00000000000E+00 -0.10631117330E+04  0.10631117330E+04  0.00000000000E+00 0. -1.
         25    2    1    2    0    0 -0.33052139695E+02 -0.42083254266E+02 -0.52909202397E+03  0.54630560772E+03  0.12509197805E+03 0.  0.
         23    2    1    2    0    0  0.33052139695E+02  0.42083254266E+02 -0.52014429665E+03  0.53068153771E+03  0.90605523582E+02 0.  0.
          5    1    3    3  502    0 -0.44916165868E+02 -0.49912832871E+02 -0.52707620749E+03  0.53135257009E+03  0.41800000000E+01 0. -1.
         -5    1    3    3    0  502  0.11864026173E+02  0.78295786053E+01 -0.20158164757E+01  0.14953037625E+02  0.41800000000E+01 0. -1.
        -11    1    4    4    0    0 -0.27366490130E+02  0.30086754146E+02 -0.14857913263E+03  0.15404511096E+03  0.00000000000E+00 0.  1.
         11    1    4    4    0    0  0.60418629825E+02  0.11996500120E+02 -0.37156516402E+03  0.37663642675E+03  0.00000000000E+00 0. -1.
</event>
<event>
 8    1  0.3541538E-009  0.9500047E+02  0.7561462E-02  0.1291175E+00
         -2   -1    0    0    0  501 -0.00000000000E+00  0.00000000000E+00  0.18690894066E+03  0.18690894066E+03  0.00000000000E+00 0.  1.
          2   -1    0    0  501    0  0.00000000000E+00 -0.00000000000E+00 -0.66023420639E+02  0.66023420639E+02  0.00000000000E+00 0. -1.
         25    2    1    2    0    0  0.25632207228E+01 -0.11427052840E+02  0.81029784666E+02  0.14950048716E+03  0.12508965593E+03 0.  0.
         23    2    1    2    0    0 -0.25632207228E+01  0.11427052840E+02  0.39855735358E+02  0.10343187415E+03  0.94723414799E+02 0.  0.
          5    1    3    3  502    0  0.55831749605E+02 -0.11262526979E+02  0.60489802821E+01  0.57429011312E+02  0.41800000000E+01 0. -1.
         -5    1    3    3    0  502 -0.53268528882E+02 -0.16452586166E+00  0.74980804384E+02  0.92071475844E+02  0.41800000000E+01 0. -1.
        -11    1    4    4    0    0  0.36259910494E+02  0.17331868469E+02 -0.85618893499E+01  0.41091127058E+02  0.00000000000E+00 0. -1.
         11    1    4    4    0    0 -0.38823131217E+02 -0.59048156289E+01  0.48417624708E+02  0.62340747087E+02  0.00000000000E+00 0.  1.
</event>
<event>
 8    1  0.3541538E-009  0.1060822E+03  0.7561462E-02  0.1268002E+00
          1   -1    0    0  501    0  0.00000000000E+00  0.00000000000E+00  0.95544914586E+02  0.95544914586E+02  0.00000000000E+00 0. -1.
         -1   -1    0    0    0  501 -0.00000000000E+00 -0.00000000000E+00 -0.13537887073E+03  0.13537887073E+03  0.00000000000E+00 0.  1.
         25    2    1    2    0    0 -0.11697070299E+02  0.20746186877E+02  0.38159574775E+01  0.12738018563E+03  0.12507567483E+03 0.  0.
         23    2    1    2    0    0  0.11697070299E+02 -0.20746186877E+02 -0.43649913621E+02  0.10354359969E+03  0.90822554215E+02 0.  0.
          5    1    3    3  502    0  0.12481479247E+02 -0.47289649750E+02  0.20433387152E+02  0.53170424187E+02  0.41800000000E+01 0.  1.
         -5    1    3    3    0  502 -0.24178549546E+02  0.68035836628E+02 -0.16617429675E+02  0.74209761439E+02  0.41800000000E+01 0.  1.
        -11    1    4    4    0    0 -0.33681307556E+02  0.10930973907E+02 -0.30324655260E+02  0.46620825667E+02  0.00000000000E+00 0.  1.
         11    1    4    4    0    0  0.45378377855E+02 -0.31677160784E+02 -0.13325258360E+02  0.56922774023E+02  0.00000000000E+00 0. -1.
</event>
<event>
 8    1  0.3541538E-009  0.9677142E+02  0.7561462E-02  0.1287236E+00
          1   -1    0    0  501    0  0.00000000000E+00  0.00000000000E+00  0.18780260389E+03  0.18780260389E+03  0.00000000000E+00 0. -1.
         -1   -1    0    0    0  501 -0.00000000000E+00 -0.00000000000E+00 -0.66480471044E+02  0.66480471044E+02  0.00000000000E+00 0.  1.
         25    2    1    2    0    0 -0.23456949274E+02  0.55420716703E+01  0.66681232534E+02  0.14378785063E+03  0.12509043204E+03 0.  0.
         23    2    1    2    0    0  0.23456949274E+02 -0.55420716703E+01  0.54640900316E+02  0.11049522431E+03  0.92965711853E+02 0.  0.
          5    1    3    3  502    0  0.15200107340E+02 -0.53872255089E+02  0.33958393519E+02  0.65604176863E+02  0.41800000000E+01 0. -1.
         -5    1    3    3    0  502 -0.38657056614E+02  0.59414326759E+02  0.32722839015E+02  0.78183673766E+02  0.41800000000E+01 0. -1.
        -11    1    4    4    0    0 -0.13198652951E+02  0.18384446396E+02 -0.15771868563E+02  0.27585216094E+02  0.00000000000E+00 0.  1.
         11    1    4    4    0    0  0.36655602225E+02 -0.23926518066E+02  0.70412768879E+02  0.82910008216E+02  0.00000000000E+00 0. -1.
</event>
<event>
 8    1  0.3541538E-009  0.1758733E+03  0.7561462E-02  0.1171858E+00
          2   -1    0    0  501    0  0.00000000000E+00  0.00000000000E+00  0.21185634916E+03  0.21185634916E+03  0.00000000000E+00 0. -1.
         -2   -1    0    0    0  501 -0.00000000000E+00 -0.00000000000E+00 -0.18565540892E+03  0.18565540892E+03  0.00000000000E+00 0.  1.
         25    2    1    2    0    0  0.15058157802E+03 -0.23703804804E+02  0.79849224716E+02  0.21274284302E+03  0.12508771548E+03 0.  0.
         23    2    1    2    0    0 -0.15058157802E+03  0.23703804804E+02 -0.53648284482E+02  0.18476891506E+03  0.89580865945E+02 0.  0.
          5    1    3    3  502    0  0.77078876850E+02  0.47654270512E+02  0.58710891930E+02  0.10805796586E+03  0.41800000000E+01 0.  1.
         -5    1    3    3    0  502  0.73502701173E+02 -0.71358075316E+02  0.21138332786E+02  0.10468487716E+03  0.41800000000E+01 0.  1.
        -11    1    4    4    0    0 -0.10315784590E+03  0.36426676666E+02 -0.73509646138E+02  0.13180330807E+03  0.00000000000E+00 0.  1.
         11    1    4    4    0    0 -0.47423732124E+02 -0.12722871862E+02  0.19861361656E+02  0.52965606990E+02  0.00000000000E+00 0. -1.
</event>
<event>
 8    1  0.3541538E-009  0.1502706E+03  0.7561462E-02  0.1200141E+00
          1   -1    0    0  501    0  0.00000000000E+00  0.00000000000E+00  0.55058603598E+02  0.55058603598E+02  0.00000000000E+00 0. -1.
         -1   -1    0    0    0  501 -0.00000000000E+00 -0.00000000000E+00 -0.48078766675E+03  0.48078766675E+03  0.00000000000E+00 0.  1.
         25    2    1    2    0    0  0.38429645019E+02  0.11781020410E+03 -0.20992437886E+03  0.27399129204E+03  0.12508757520E+03 0.  0.
         23    2    1    2    0    0 -0.38429645019E+02 -0.11781020410E+03 -0.21580468429E+03  0.26185497830E+03  0.81487950611E+02 0.  0.
          5    1    3    3  502    0  0.57134512920E+02  0.28298538160E+02 -0.15397605201E+03  0.16670709889E+03  0.41800000000E+01 0.  1.
         -5    1    3    3    0  502 -0.18704867900E+02  0.89511665940E+02 -0.55948326849E+02  0.10728419315E+03  0.41800000000E+01 0.  1.
        -11    1    4    4    0    0 -0.54942266329E+01 -0.11142019098E+03 -0.18645782780E+03  0.21728130853E+03  0.00000000000E+00 0.  1.
         11    1    4    4    0    0 -0.32935418386E+02 -0.63900131154E+01 -0.29346856486E+02  0.44573669779E+02  0.00000000000E+00 0. -1.
</event>
<event>
 8    1  0.3541538E-009  0.1040652E+03  0.7561462E-02  0.1271972E+00
          2   -1    0    0  501    0  0.00000000000E+00  0.00000000000E+00  0.59998890929E+03  0.59998890929E+03  0.00000000000E+00 0. -1.
         -2   -1    0    0    0  501 -0.00000000000E+00 -0.00000000000E+00 -0.23307369315E+02  0.23307369315E+02  0.00000000000E+00 0.  1.
         25    2    1    2    0    0  0.33384944707E+02  0.22495603263E+02  0.38329481162E+03  0.40519441899E+03  0.12508796049E+03 0.  0.
         23    2    1    2    0    0 -0.33384944707E+02 -0.22495603263E+02  0.19338672835E+03  0.21810185962E+03  0.92462899415E+02 0.  0.
          5    1    3    3  502    0  0.60832367688E+02 -0.28819787623E+02  0.14588498220E+03  0.16072043289E+03  0.41800000000E+01 0.  1.
         -5    1    3    3    0  502 -0.27447422981E+02  0.51315390886E+02  0.23740982942E+03  0.24447398609E+03  0.41800000000E+01 0.  1.
        -11    1    4    4    0    0 -0.53237006233E+02 -0.30013220479E+02  0.70095466401E+02  0.92996487279E+02  0.00000000000E+00 0.  1.
         11    1    4    4    0    0  0.19852061526E+02  0.75176172159E+01  0.12329126195E+03  0.12510537234E+03  0.00000000000E+00 0. -1.
</event>
<event>
 8    1  0.3541538E-009  0.1087810E+03  0.7561462E-02  0.1262844E+00
          2   -1    0    0  501    0  0.00000000000E+00  0.00000000000E+00  0.75972515060E+03  0.75972515060E+03  0.00000000000E+00 0. -1.
         -2   -1    0    0    0  501 -0.00000000000E+00 -0.00000000000E+00 -0.17073431455E+02  0.17073431455E+02  0.00000000000E+00 0.  1.
         25    2    1    2    0    0 -0.67683972013E+00  0.19793486530E+02  0.40300405278E+03  0.42243530231E+03  0.12508828026E+03 0.  0.
         23    2    1    2    0    0  0.67683972013E+00 -0.19793486530E+02  0.33964766636E+03  0.35436327974E+03  0.99098721197E+02 0.  0.
          5    1    3    3  502    0 -0.61152507223E+02  0.45629002772E+01  0.24308537115E+03  0.25073575586E+03  0.41800000000E+01 0.  1.
         -5    1    3    3    0  502  0.60475667503E+02  0.15230586253E+02  0.15991868163E+03  0.17169954646E+03  0.41800000000E+01 0.  1.
        -11    1    4    4    0    0 -0.33471087889E+02  0.21673497604E+02  0.82077101246E+02  0.91250779568E+02  0.00000000000E+00 0.  1.
         11    1    4    4    0    0  0.34147927610E+02 -0.41466984134E+02  0.25757056511E+03  0.26311250017E+03  0.00000000000E+00 0. -1.
</event>
<event>
 8    1  0.3541538E-009  0.9436682E+02  0.7561462E-02  0.1292609E+00
         -1   -1    0    0    0  501 -0.00000000000E+00  0.00000000000E+00  0.54273785725E+02  0.54273785725E+02  0.00000000000E+00 0.  1.
          1   -1    0    0  501    0  0.00000000000E+00 -0.00000000000E+00 -0.25458484031E+03  0.25458484031E+03  0.00000000000E+00 0. -1.
         25    2    1    2    0    0 -0.11397339417E+01  0.40743445907E+02 -0.14301522914E+03  0.19432518932E+03  0.12509035159E+03 0.  0.
         23    2    1    2    0    0  0.11397339417E+01 -0.40743445907E+02 -0.57295825446E+02  0.11453343672E+03  0.90408899643E+02 0.  0.
          5    1    3    3  502    0  0.42147052141E+02  0.42066218359E+02 -0.13821248203E+03  0.15055265963E+03  0.41800000000E+01 0.  1.
         -5    1    3    3    0  502 -0.43286786082E+02 -0.13227724518E+01 -0.48027471125E+01  0.43772529697E+02  0.41800000000E+01 0.  1.
        -11    1    4    4    0    0 -0.30223446222E+02 -0.44658586549E+02 -0.59666064234E+01  0.54253538560E+02  0.00000000000E+00 0.  1.
         11    1    4    4    0    0  0.31363180164E+02  0.39151406415E+01 -0.51329219023E+02  0.60279898156E+02  0.00000000000E+00 0. -1.
</event>
<event>
 8    1  0.3541538E-009  0.1359038E+03  0.7561462E-02  0.1218949E+00
          2   -1    0    0  501    0  0.00000000000E+00  0.00000000000E+00  0.83349225330E+03  0.83349225330E+03  0.00000000000E+00 0. -1.
         -2   -1    0    0    0  501 -0.00000000000E+00 -0.00000000000E+00 -0.27087293735E+02  0.27087293735E+02  0.00000000000E+00 0.  1.
         25    2    1    2    0    0 -0.10040760979E+03 -0.23342016990E+02  0.39759993546E+03  0.42937148006E+03  0.12509045269E+03 0.  0.
         23    2    1    2    0    0  0.10040760979E+03  0.23342016990E+02  0.40880502411E+03  0.43120806697E+03  0.90511388371E+02 0.  0.
          5    1    3    3  502    0 -0.24803465954E+02 -0.68530854698E+02  0.20294679657E+03  0.21567699137E+03  0.41800000000E+01 0.  1.
         -5    1    3    3    0  502 -0.75604143837E+02  0.45188837708E+02  0.19465313889E+03  0.21369448869E+03  0.41800000000E+01 0.  1.
        -11    1    4    4    0    0  0.13661236600E+02  0.19483427501E+02  0.15423035959E+02  0.28356716503E+02  0.00000000000E+00 0.  1.
         11    1    4    4    0    0  0.86746373191E+02  0.38585894888E+01  0.39338198815E+03  0.40285135047E+03  0.00000000000E+00 0. -1.
</event>
<event>
 8    1  0.3541538E-009  0.9818887E+02  0.7561462E-02  0.1284151E+00
         -1   -1    0    0    0  501 -0.00000000000E+00  0.00000000000E+00  0.25023554062E+03  0.25023554062E+03  0.00000000000E+00 0.  1.
          1   -1    0    0  501    0  0.00000000000E+00 -0.00000000000E+00 -0.57576231954E+02  0.57576231954E+02  0.00000000000E+00 0. -1.
         25    2    1    2    0    0  0.48898471095E+02 -0.18476201710E+02  0.10500199503E+03  0.17148081003E+03  0.12509124167E+03 0.  0.
         23    2    1    2    0    0 -0.48898471095E+02  0.18476201710E+02  0.87657313634E+02  0.13633096255E+03  0.90387478170E+02 0.  0.
          5    1    3    3  502    0  0.66285085697E+02 -0.30261155120E+02  0.12331982840E+03  0.14329934602E+03  0.41800000000E+01 0. -1.
         -5    1    3    3    0  502 -0.17386614601E+02  0.11784953410E+02 -0.18317833366E+02  0.28181464004E+02  0.41800000000E+01 0. -1.
        -11    1    4    4    0    0  0.21946232336E+02  0.21958820573E+02  0.13942916554E+02  0.34032805302E+02  0.00000000000E+00 0. -1.
         11    1    4    4    0    0 -0.70844703432E+02 -0.34826188631E+01  0.73714397081E+02  0.10229815724E+03  0.00000000000E+00 0.  1.
</event>
<event>
 8    1  0.3541538E-009  0.6974595E+02  0.7561462E-02  0.1360959E+00
          2   -1    0    0  501    0  0.00000000000E+00  0.00000000000E+00  0.75840113759E+02  0.75840113759E+02  0.00000000000E+00 0. -1.
         -2   -1    0    0    0  501 -0.00000000000E+00 -0.00000000000E+00 -0.17434366032E+03  0.17434366032E+03  0.00000000000E+00 0.  1.
         25    2    1    2    0    0 -0.33996289013E+02  0.24375399157E+02 -0.61314876706E+02  0.14545131489E+03  0.12508662257E+03 0.  0.
         23    2    1    2    0    0  0.33996289013E+02 -0.24375399157E+02 -0.37188669855E+02  0.10473245919E+03  0.88521088402E+02 0.  0.
          5    1    3    3  502    0 -0.21513308551E+01 -0.14623381523E+02  0.34148020246E+02  0.37443707059E+02  0.41800000000E+01 0.  1.
         -5    1    3    3    0  502 -0.31844958158E+02  0.38998780680E+02 -0.95462896952E+02  0.10800760783E+03  0.41800000000E+01 0.  1.
        -11    1    4    4    0    0  0.49903012256E+02 -0.28102510885E+02 -0.55804831380E+02  0.79963997872E+02  0.00000000000E+00 0.  1.
         11    1    4    4    0    0 -0.15906723244E+02  0.37271117280E+01  0.18616161525E+02  0.24768461319E+02  0.00000000000E+00 0. -1.
</event>
<event>
 8    1  0.3541538E-009  0.2226638E+03  0.7561462E-02  0.1131912E+00
          1   -1    0    0  501    0  0.00000000000E+00  0.00000000000E+00  0.17666882659E+03  0.17666882659E+03  0.00000000000E+00 0. -1.
         -1   -1    0    0    0  501 -0.00000000000E+00 -0.00000000000E+00 -0.34098382746E+03  0.34098382746E+03  0.00000000000E+00 0.  1.
         25    2    1    2    0    0 -0.16306447266E+03 -0.11299856896E+03  0.15160390893E+02  0.23502633444E+03  0.12509533005E+03 0.  0.
         23    2    1    2    0    0  0.16306447266E+03  0.11299856896E+03 -0.17947539176E+03  0.28262631960E+03  0.91145605784E+02 0.  0.
          5    1    3    3  502    0  0.13981265351E+02  0.63453223346E+01  0.14413942364E+02  0.21470282504E+02  0.41800000000E+01 0.  1.
         -5    1    3    3    0  502 -0.17704573801E+03 -0.11934389129E+03  0.74644852947E+00  0.21355605194E+03  0.41800000000E+01 0.  1.
        -11    1    4    4    0    0  0.44651831435E+02 -0.93212291634E+01 -0.21701372995E+02  0.50513571973E+02  0.00000000000E+00 0.  1.
         11    1    4    4    0    0  0.11841264122E+03  0.12231979812E+03 -0.15777401877E+03  0.23211274763E+03  0.00000000000E+00 0. -1.
</event>
<event>
 8    1  0.3541538E-009  0.1552964E+03  0.7561462E-02  0.1194112E+00
         -2   -1    0    0    0  501 -0.00000000000E+00  0.00000000000E+00  0.75942364550E+02  0.75942364550E+02  0.00000000000E+00 0.  1.
          2   -1    0    0  501    0  0.00000000000E+00 -0.00000000000E+00 -0.42033882047E+03  0.42033882047E+03  0.00000000000E+00 0. -1.
         25    2    1    2    0    0  0.81503104824E+01 -0.11700703796E+03 -0.29289476571E+03  0.33939349373E+03  0.12507407929E+03 0.  0.
         23    2    1    2    0    0 -0.81503104824E+01  0.11700703796E+03 -0.51501690214E+02  0.15688769130E+03  0.90577310025E+02 0.  0.
          5    1    3    3  502    0 -0.51593675159E+02 -0.40602096767E+02 -0.68886249779E+02  0.95253479657E+02  0.41800000000E+01 0.  1.
         -5    1    3    3    0  502  0.59743985641E+02 -0.76404941198E+02 -0.22400851593E+03  0.24414001407E+03  0.41800000000E+01 0.  1.
        -11    1    4    4    0    0  0.39547334112E+02  0.71999922849E+02 -0.34808517310E+02  0.89216665500E+02  0.00000000000E+00 0.  1.
         11    1    4    4    0    0 -0.47697644594E+02  0.45007115116E+02 -0.16693172903E+02  0.67671025797E+02  0.00000000000E+00 0. -1.
</event>
<event>
 8    1  0.3541538E-009  0.1085484E+03  0.7561462E-02  0.1263282E+00
         -2   -1    0    0    0  501 -0.00000000000E+00  0.00000000000E+00  0.35085709163E+02  0.35085709163E+02  0.00000000000E+00 0.  1.
          2   -1    0    0  501    0  0.00000000000E+00 -0.00000000000E+00 -0.57322317882E+03  0.57322317882E+03  0.00000000000E+00 0. -1.
         25    2    1    2    0    0  0.60982656165E+02  0.67139816856E+02 -0.30696289280E+03  0.34366014745E+03  0.12509772193E+03 0.  0.
         23    2    1    2    0    0 -0.60982656165E+02 -0.67139816856E+02 -0.23117457686E+03  0.26464874052E+03  0.91491155400E+02 0.  0.
          5    1    3    3  502    0  0.10447711929E+02  0.48906738085E+02 -0.24029287877E+02  0.55640837435E+02  0.41800000000E+01 0. -1.
         -5    1    3    3    0  502  0.50534944237E+02  0.18233078771E+02 -0.28293360492E+03  0.28801931002E+03  0.41800000000E+01 0. -1.
        -11    1    4    4    0    0 -0.90950109996E+01 -0.59957987615E+02 -0.18546151969E+03  0.19512471599E+03  0.00000000000E+00 0. -1.
         11    1    4    4    0    0 -0.51887645166E+02 -0.71818292412E+01 -0.45713057161E+02  0.69524024532E+02  0.00000000000E+00 0.  1.
</event>
<event>
 8    1  0.3541538E-009  0.1082975E+03  0.7561462E-02  0.1263756E+00
         -2   -1    0    0    0  501 -0.00000000000E+00  0.00000000000E+00  0.76590236834E+02  0.76590236834E+02  0.00000000000E+00 0.  1.
          2   -1    0    0  501    0  0.00000000000E+00 -0.00000000000E+00 -0.42837349194E+03  0.42837349194E+03  0.00000000000E+00 0. -1.
         25    2    1    2    0    0  0.11963832773E+02 -0.79292931216E+02 -0.35266459795E+03  0.38268571937E+03  0.12508212873E+03 0.  0.
         23    2    1    2    0    0 -0.11963832773E+02  0.79292931216E+02  0.88134285285E+00  0.12227800940E+03  0.92307272633E+02 0.  0.
          5    1    3    3  502    0  0.43071851737E+02 -0.91838463489E+02 -0.17921588831E+03  0.20597401489E+03  0.41800000000E+01 0. -1.
         -5    1    3    3    0  502 -0.31108018964E+02  0.12545532273E+02 -0.17344870964E+03  0.17671170448E+03  0.41800000000E+01 0. -1.
        -11    1    4    4    0    0 -0.14651084278E+02  0.58629759369E+02  0.43754520211E+02  0.74609389443E+02  0.00000000000E+00 0.  1.
         11    1    4    4    0    0  0.26872515045E+01  0.20663171848E+02 -0.42873177358E+02  0.47668619953E+02  0.00000000000E+00 0. -1.
</event>
<event>
 8    1  0.3541538E-009  0.1302963E+03  0.7561462E-02  0.1227017E+00
          1   -1    0    0  501    0  0.00000000000E+00  0.00000000000E+00  0.67549648528E+03  0.67549648528E+03  0.00000000000E+00 0. -1.
         -1   -1    0    0    0  501 -0.00000000000E+00 -0.00000000000E+00 -0.36279370859E+02  0.36279370859E+02  0.00000000000E+00 0.  1.
         25    2    1    2    0    0 -0.14694660296E+02 -0.11112918301E+03  0.31998295525E+03  0.36139374308E+03  0.12510282781E+03 0.  0.
         23    2    1    2    0    0  0.14694660296E+02  0.11112918301E+03  0.31923415916E+03  0.35038211306E+03  0.91057939886E+02 0.  0.
          5    1    3    3  502    0  0.23559865700E+01 -0.83677570736E+02  0.69730874220E+02  0.10902914168E+03  0.41800000000E+01 0.  1.
         -5    1    3    3    0  502 -0.17050646866E+02 -0.27451612273E+02  0.25025208103E+03  0.25236460139E+03  0.41800000000E+01 0.  1.
        -11    1    4    4    0    0 -0.33797541878E+02  0.79261148505E+02  0.20031172336E+03  0.21805822620E+03  0.00000000000E+00 0.  1.
         11    1    4    4    0    0  0.48492202174E+02  0.31868034504E+02  0.11892243581E+03  0.13232388686E+03  0.00000000000E+00 0. -1.
</event>
<event>
 8    1  0.3541538E-009  0.2439657E+03  0.7561462E-02  0.1117179E+00
         -2   -1    0    0    0  501 -0.00000000000E+00  0.00000000000E+00  0.29891002752E+03  0.29891002752E+03  0.00000000000E+00 0.  1.
          2   -1    0    0  501    0  0.00000000000E+00 -0.00000000000E+00 -0.20053729989E+03  0.20053729989E+03  0.00000000000E+00 0. -1.
         25    2    1    2    0    0 -0.11277019715E+03 -0.18596490621E+03  0.36355488161E+02  0.25350939862E+03  0.12508089368E+03 0.  0.
         23    2    1    2    0    0  0.11277019715E+03  0.18596490621E+03  0.62017239469E+02  0.24593792879E+03  0.96639862989E+02 0.  0.
          5    1    3    3  502    0  0.26219028063E+02 -0.46411668233E+02  0.18124415049E+01  0.53499885280E+02  0.41800000000E+01 0. -1.
         -5    1    3    3    0  502 -0.13898922521E+03 -0.13955323797E+03  0.34543046656E+02  0.20000951334E+03  0.41800000000E+01 0. -1.
        -11    1    4    4    0    0  0.26114595810E+02  0.13377462555E+03  0.43704933244E+02  0.14313540353E+03  0.00000000000E+00 0.  1.
         11    1    4    4    0    0  0.86655601341E+02  0.52190280657E+02  0.18312306225E+02  0.10280252525E+03  0.00000000000E+00 0. -1.
</event>
<event>
 8    1  0.3541538E-009  0.1215248E+03  0.7561462E-02  0.1240603E+00
          1   -1    0    0  501    0  0.00000000000E+00  0.00000000000E+00  0.15943767335E+04  0.15943767335E+04  0.00000000000E+00 0. -1.
         -1   -1    0    0    0  501 -0.00000000000E+00 -0.00000000000E+00 -0.22790173842E+02  0.22790173842E+02  0.00000000000E+00 0.  1.
         25    2    1    2    0    0 -0.96722437855E+02 -0.17321749402E+02  0.13406790950E+04  0.13500830079E+04  0.12509364314E+03 0.  0.
         23    2    1    2    0    0  0.96722437855E+02  0.17321749402E+02  0.23090746467E+03  0.26708389942E+03  0.91434561859E+02 0.  0.
          5    1    3    3  502    0 -0.15876100227E+02 -0.36467726330E+02  0.11831201024E+03  0.12488854947E+03  0.41800000000E+01 0.  1.
         -5    1    3    3    0  502 -0.80846337628E+02  0.19145976928E+02  0.12223670847E+04  0.12251944584E+04  0.41800000000E+01 0.  1.
        -11    1    4    4    0    0  0.10743949588E+03  0.18730857628E+02  0.23186403577E+03  0.25623235820E+03  0.00000000000E+00 0. -1.
         11    1    4    4    0    0 -0.10717058022E+02 -0.14091082261E+01 -0.95657110408E+00  0.10851541223E+02  0.00000000000E+00 0.  1.
</event>
<event>
 8    1  0.3541538E-009  0.1300156E+03  0.7561462E-02  0.1227433E+00
         -2   -1    0    0    0  501 -0.00000000000E+00  0.00000000000E+00  0.12171107962E+03  0.12171107962E+03  0.00000000000E+00 0.  1.
          2   -1    0    0  501    0  0.00000000000E+00 -0.00000000000E+00 -0.17932209116E+03  0.17932209116E+03  0.00000000000E+00 0. -1.
         25    2    1    2    0    0 -0.26283534393E+02 -0.95632998528E+02 -0.17355214855E+02  0.16057762791E+03  0.12508987375E+03 0.  0.
         23    2    1    2    0    0  0.26283534393E+02  0.95632998528E+02 -0.40255796692E+02  0.14045554287E+03  0.90943585638E+02 0.  0.
          5    1    3    3  502    0  0.47715899478E+02 -0.33678624473E+02 -0.25015635688E+02  0.63673473584E+02  0.41800000000E+01 0. -1.
         -5    1    3    3    0  502 -0.73999433871E+02 -0.61954374056E+02  0.76604208332E+01  0.96904154324E+02  0.41800000000E+01 0. -1.
        -11    1    4    4    0    0 -0.31095659159E+01  0.53012165377E+02  0.23715628444E+02  0.58158319359E+02  0.00000000000E+00 0.  1.
         11    1    4    4    0    0  0.29393100309E+02  0.42620833152E+02 -0.63971425136E+02  0.82297223515E+02  0.00000000000E+00 0. -1.
</event>
<event>
 8    1  0.3541538E-009  0.6875895E+02  0.7561462E-02  0.1364365E+00
          2   -1    0    0  501    0  0.00000000000E+00  0.00000000000E+00  0.23072294043E+03  0.23072294043E+03  0.00000000000E+00 0. -1.
         -2   -1    0    0    0  501 -0.00000000000E+00 -0.00000000000E+00 -0.50654769798E+02  0.50654769798E+02  0.00000000000E+00 0.  1.
         25    2    1    2    0    0  0.15877708599E+02 -0.20303932741E+02  0.94706754157E+02  0.15899712825E+03  0.12508543558E+03 0.  0.
         23    2    1    2    0    0 -0.15877708599E+02  0.20303932741E+02  0.85361416474E+02  0.12238058197E+03  0.83821740061E+02 0.  0.
          5    1    3    3  502    0  0.25111401187E+02 -0.31773481194E+02 -0.18528838214E+02  0.44731720538E+02  0.41800000000E+01 0.  1.
         -5    1    3    3    0  502 -0.92336925880E+01  0.11469548453E+02  0.11323559237E+03  0.11426540771E+03  0.41800000000E+01 0.  1.
        -11    1    4    4    0    0 -0.34199864416E+02 -0.18284251219E+02  0.18328703573E+02  0.42893891679E+02  0.00000000000E+00 0.  1.
         11    1    4    4    0    0  0.18322155817E+02  0.38588183960E+02  0.67032712901E+02  0.79486690295E+02  0.00000000000E+00 0. -1.
</event>
<event>
 8    1  0.3541538E-009  0.1025411E+03  0.7561462E-02  0.1275041E+00
         -1   -1    0    0    0  501 -0.00000000000E+00  0.00000000000E+00  0.78172356821E+02  0.78172356821E+02  0.00000000000E+00 0.  1.
          1   -1    0    0  501    0  0.00000000000E+00 -0.00000000000E+00 -0.23106612435E+03  0.23106612435E+03  0.00000000000E+00 0. -1.
         25    2    1    2    0    0  0.13523771149E+02 -0.75975148047E+02 -0.69188212278E+02  0.16244819681E+03  0.12508913791E+03 0.  0.
         23    2    1    2    0    0 -0.13523771149E+02  0.75975148047E+02 -0.83705555252E+02  0.14679028436E+03  0.92658793947E+02 0.  0.
          5    1    3    3  502    0  0.17327371114E+02  0.68146403457E+01 -0.76783141096E+02  0.79118899571E+02  0.41800000000E+01 0.  1.
         -5    1    3    3    0  502 -0.38035999659E+01 -0.82789788393E+02  0.75949288184E+01  0.83329297240E+02  0.41800000000E+01 0.  1.
        -11    1    4    4    0    0  0.11497980044E+02 -0.88938588743E+01  0.10206716870E+02  0.17761794392E+02  0.00000000000E+00 0.  1.
         11    1    4    4    0    0 -0.25021751192E+02  0.84869006921E+02 -0.93912272122E+02  0.12902848997E+03  0.00000000000E+00 0. -1.
</event>
<event>
 8    1  0.3541538E-009  0.8041076E+02  0.7561462E-02  0.1327890E+00
          1   -1    0    0  501    0  0.00000000000E+00  0.00000000000E+00  0.18386395986E+03  0.18386395986E+03  0.00000000000E+00 0. -1.
         -1   -1    0    0    0  501 -0.00000000000E+00 -0.00000000000E+00 -0.91571813641E+02  0.91571813641E+02  0.00000000000E+00 0.  1.
         25    2    1    2    0    0  0.33152010513E+01  0.80353391134E+01  0.12419360630E+03  0.17648236465E+03  0.12508563448E+03 0.  0.
         23    2    1    2    0    0 -0.33152010513E+01 -0.80353391134E+01 -0.31901460087E+02  0.98953408848E+02  0.93265839053E+02 0.  0.
          5    1    3    3  502    0 -0.27719205388E+02 -0.42554498838E+02  0.16705732200E+02  0.53626426387E+02  0.41800000000E+01 0.  1.
         -5    1    3    3    0  502  0.31034406440E+02  0.50589837951E+02  0.10748787410E+03  0.12285593826E+03  0.41800000000E+01 0.  1.
        -11    1    4    4    0    0  0.17330209030E+02  0.12406068901E+02 -0.56815034375E+02  0.60681091138E+02  0.00000000000E+00 0.  1.
         11    1    4    4    0    0 -0.20645410082E+02 -0.20441408015E+02  0.24913574288E+02  0.38272317710E+02  0.00000000000E+00 0. -1.
</event>
<event>
 8    1  0.3541538E-009  0.9851682E+02  0.7561462E-02  0.1283446E+00
          2   -1    0    0  501    0  0.00000000000E+00  0.00000000000E+00  0.42785424650E+03  0.42785424650E+03  0.00000000000E+00 0. -1.
         -2   -1    0    0    0  501 -0.00000000000E+00 -0.00000000000E+00 -0.30540765287E+02  0.30540765287E+02  0.00000000000E+00 0.  1.
         25    2    1    2    0    0 -0.17082277115E+02 -0.37740602761E+02  0.22471682527E+03  0.26049923428E+03  0.12508414052E+03 0.  0.
         23    2    1    2    0    0  0.17082277115E+02  0.37740602761E+02  0.17259665594E+03  0.19789577751E+03  0.87504147481E+02 0.  0.
          5    1    3    3  502    0 -0.41564745727E+02  0.12983789972E+02  0.19938551296E+02  0.48075202726E+02  0.41800000000E+01 0. -1.
         -5    1    3    3    0  502  0.24482468612E+02 -0.50724392733E+02  0.20477827398E+03  0.21242403155E+03  0.41800000000E+01 0. -1.
        -11    1    4    4    0    0  0.51639620989E+02  0.34492566023E+02  0.10970263566E+03  0.12605973123E+03  0.00000000000E+00 0.  1.
         11    1    4    4    0    0 -0.34557343874E+02  0.32480367376E+01  0.62894020278E+02  0.71836046279E+02  0.00000000000E+00 0. -1.
</event>
<event>
 8    1  0.3541538E-009  0.9505984E+02  0.7561462E-02  0.1291041E+00
          1   -1    0    0  501    0  0.00000000000E+00  0.00000000000E+00  0.78082157344E+02  0.78082157344E+02  0.00000000000E+00 0. -1.
         -1   -1    0    0    0  501 -0.00000000000E+00 -0.00000000000E+00 -0.21528987131E+03  0.21528987131E+03  0.00000000000E+00 0.  1.
         25    2    1    2    0    0 -0.62404897362E+02 -0.26571143629E+02 -0.97292182674E+02  0.17237683528E+03  0.12509039789E+03 0.  0.
         23    2    1    2    0    0  0.62404897362E+02  0.26571143629E+02 -0.39915531288E+02  0.12099519337E+03  0.91903157134E+02 0.  0.
          5    1    3    3  502    0 -0.69150538805E+02 -0.29593274292E+02 -0.62297977676E+00  0.75335379498E+02  0.41800000000E+01 0.  1.
         -5    1    3    3    0  502  0.67456414427E+01  0.30221306625E+01 -0.96669202897E+02  0.97041455786E+02  0.41800000000E+01 0.  1.
        -11    1    4    4    0    0  0.11257210642E+02 -0.28796322193E+02  0.76688042756E+01  0.31855353119E+02  0.00000000000E+00 0. -1.
         11    1    4    4    0    0  0.51147686720E+02  0.55367465822E+02 -0.47584335564E+02  0.89139840248E+02  0.00000000000E+00 0.  1.
</event>
<event>
 8    1  0.3541538E-009  0.1195082E+03  0.7561462E-02  0.1243911E+00
          2   -1    0    0  501    0  0.00000000000E+00  0.00000000000E+00  0.24347629925E+03  0.24347629925E+03  0.00000000000E+00 0. -1.
         -2   -1    0    0    0  501 -0.00000000000E+00 -0.00000000000E+00 -0.90120194166E+02  0.90120194166E+02  0.00000000000E+00 0.  1.
         25    2    1    2    0    0 -0.12781591289E+02 -0.66299846977E+02 -0.11288508481E+01  0.14216601417E+03  0.12510340721E+03 0.  0.
         23    2    1    2    0    0  0.12781591289E+02  0.66299846977E+02  0.15448495593E+03  0.19143047924E+03  0.90669664106E+02 0.  0.
          5    1    3    3  502    0 -0.23687826502E+01  0.37120090728E+02 -0.65477850284E+01  0.37998133582E+02  0.41800000000E+01 0.  1.
         -5    1    3    3    0  502 -0.10412808639E+02 -0.10341993771E+03  0.54189341803E+01  0.10416788059E+03  0.41800000000E+01 0.  1.
        -11    1    4    4    0    0 -0.24341245220E+02  0.52654649913E+02  0.40417395066E+02  0.70700595473E+02  0.00000000000E+00 0.  1.
         11    1    4    4    0    0  0.37122836510E+02  0.13645197064E+02  0.11406756086E+03  0.12072988377E+03  0.00000000000E+00 0. -1.
</event>
<event>
 8    1  0.3541538E-009  0.8391475E+02  0.7561462E-02  0.1318295E+00
         -2   -1    0    0    0  501 -0.00000000000E+00  0.00000000000E+00  0.80879809611E+02  0.80879809611E+02  0.00000000000E+00 0.  1.
          2   -1    0    0  501    0  0.00000000000E+00 -0.00000000000E+00 -0.28292743002E+03  0.28292743002E+03  0.00000000000E+00 0. -1.
         25    2    1    2    0    0  0.38426019362E+02  0.49142443167E+02 -0.72837314130E+01  0.13996257264E+03  0.12507969584E+03 0.  0.
         23    2    1    2    0    0 -0.38426019362E+02 -0.49142443167E+02 -0.19476388899E+03  0.22384466699E+03  0.91005075684E+02 0.  0.
          5    1    3    3  502    0  0.12117898903E+02  0.47828723614E+02  0.53915879426E+02  0.73203993953E+02  0.41800000000E+01 0. -1.
         -5    1    3    3    0  502  0.26308120459E+02  0.13137195532E+01 -0.61199610839E+02  0.66758578685E+02  0.41800000000E+01 0. -1.
        -11    1    4    4    0    0  0.19181930321E+02 -0.76681643408E+01 -0.11595340098E+03  0.11777919338E+03  0.00000000000E+00 0. -1.
         11    1    4    4    0    0 -0.57607949682E+02 -0.41474278826E+02 -0.78810488011E+02  0.10606547361E+03  0.00000000000E+00 0.  1.
</event>
<event>
 8    1  0.3541538E-009  0.1788871E+03  0.7561462E-02  0.1168884E+00
          1   -1    0    0  501    0  0.00000000000E+00  0.00000000000E+00  0.84463369634E+03  0.84463369634E+03  0.00000000000E+00 0. -1.
         -1   -1    0    0    0  501 -0.00000000000E+00 -0.00000000000E+00 -0.46073222909E+02  0.46073222909E+02  0.00000000000E+00 0.  1.
         25    2    1    2    0    0 -0.14395730828E+02  0.14115981741E+03  0.23100783962E+03  0.29857158461E+03  0.12508812114E+03 0.  0.
         23    2    1    2    0    0  0.14395730828E+02 -0.14115981741E+03  0.56755263380E+03  0.59213533464E+03  0.91514650599E+02 0.  0.
          5    1    3    3  502    0  0.40994257798E+02  0.12453238926E+03  0.16073108482E+03  0.20746276575E+03  0.41800000000E+01 0.  1.
         -5    1    3    3    0  502 -0.55389988626E+02  0.16627428151E+02  0.70276754803E+02  0.91108818852E+02  0.41800000000E+01 0.  1.
        -11    1    4    4    0    0  0.48856535349E+02 -0.11624498444E+03  0.41076371021E+03  0.42968207209E+03  0.00000000000E+00 0.  1.
         11    1    4    4    0    0 -0.34460804520E+02 -0.24914832971E+02  0.15678892360E+03  0.16245326255E+03  0.00000000000E+00 0. -1.
</event>
<event>
 8    1  0.3541538E-009  0.1066849E+03  0.7561462E-02  0.1266835E+00
         -2   -1    0    0    0  501 -0.00000000000E+00  0.00000000000E+00  0.39308431700E+03  0.39308431700E+03  0.00000000000E+00 0.  1.
          2   -1    0    0  501    0  0.00000000000E+00 -0.00000000000E+00 -0.50092221578E+02  0.50092221578E+02  0.00000000000E+00 0. -1.
         25    2    1    2    0    0 -0.68086473921E+02  0.44264730589E+02  0.24561418209E+03  0.28734766235E+03  0.12508884167E+03 0.  0.
         23    2    1    2    0    0  0.68086473921E+02 -0.44264730589E+02  0.97377913334E+02  0.15582887623E+03  0.90581710938E+02 0.  0.
          5    1    3    3  502    0 -0.79431411372E+02  0.46831029540E+02  0.82600532550E+02  0.12386611650E+03  0.41800000000E+01 0.  1.
         -5    1    3    3    0  502  0.11344937451E+02 -0.25662989514E+01  0.16301364954E+03  0.16348154584E+03  0.41800000000E+01 0.  1.
        -11    1    4    4    0    0 -0.66378353007E+01 -0.32367117503E+02  0.68295348380E+00  0.33047807467E+02  0.00000000000E+00 0. -1.
         11    1    4    4    0    0  0.74724309222E+02 -0.11897613086E+02  0.96694959850E+02  0.12278106876E+03  0.00000000000E+00 0.  1.
</event>
<event>
 8    1  0.3541538E-009  0.1498281E+03  0.7561462E-02  0.1200684E+00
         -2   -1    0    0    0  501 -0.00000000000E+00  0.00000000000E+00  0.21462705377E+02  0.21462705377E+02  0.00000000000E+00 0.  1.
          2   -1    0    0  501    0  0.00000000000E+00 -0.00000000000E+00 -0.17884689345E+04  0.17884689345E+04  0.00000000000E+00 0. -1.
         25    2    1    2    0    0  0.11665738547E+03  0.71763283601E+02 -0.13343328663E+04  0.13471638431E+04  0.12508919826E+03 0.  0.
         23    2    1    2    0    0 -0.11665738547E+03 -0.71763283601E+02 -0.43267336283E+03  0.46276779682E+03  0.90492432901E+02 0.  0.
          5    1    3    3  502    0  0.91994249161E+02  0.91487022087E+02 -0.69378025813E+03  0.70581962005E+03  0.41800000000E+01 0. -1.
         -5    1    3    3    0  502  0.24663136306E+02 -0.19723738486E+02 -0.64055260821E+03  0.64134422304E+03  0.41800000000E+01 0. -1.
        -11    1    4    4    0    0 -0.99260634562E+02 -0.67632417434E+02 -0.42764665725E+03  0.44419419280E+03  0.00000000000E+00 0. -1.
         11    1    4    4    0    0 -0.17396750905E+02 -0.41308661670E+01 -0.50267055860E+01  0.18573604022E+02  0.00000000000E+00 0.  1.
</event>
<event>
 8    1  0.3541538E-009  0.9995592E+02  0.7561462E-02  0.1280389E+00
         -1   -1    0    0    0  501 -0.00000000000E+00  0.00000000000E+00  0.37884810047E+02  0.37884810047E+02  0.00000000000E+00 0.  1.
          1   -1    0    0  501    0  0.00000000000E+00 -0.00000000000E+00 -0.49121695128E+03  0.49121695128E+03  0.00000000000E+00 0. -1.
         25    2    1    2    0    0  0.28065126657E+02  0.38484448519E+01 -0.40050347902E+03  0.42053836116E+03  0.12508802755E+03 0.  0.
         23    2    1    2    0    0 -0.28065126657E+02 -0.38484448519E+01 -0.52828662218E+02  0.10856340017E+03  0.90513437918E+02 0.  0.
          5    1    3    3  502    0  0.50525184587E+02  0.53425283179E+02 -0.23336597509E+03  0.24471249639E+03  0.41800000000E+01 0.  1.
         -5    1    3    3    0  502 -0.22460057930E+02 -0.49576838327E+02 -0.16713750393E+03  0.17582586477E+03  0.41800000000E+01 0.  1.
        -11    1    4    4    0    0  0.21603975056E+02  0.18249986836E+01  0.13473307267E+02  0.25526307354E+02  0.00000000000E+00 0.  1.
         11    1    4    4    0    0 -0.49669101713E+02 -0.56734435355E+01 -0.66301969485E+02  0.83037092821E+02  0.00000000000E+00 0. -1.
</event>
<event>
 8    1  0.3541538E-009  0.1084255E+03  0.7561462E-02  0.1263514E+00
          1   -1    0    0  501    0  0.00000000000E+00  0.00000000000E+00  0.54702617175E+03  0.54702617175E+03  0.00000000000E+00 0. -1.
         -1   -1    0    0    0  501 -0.00000000000E+00 -0.00000000000E+00 -0.63261576120E+02  0.63261576120E+02  0.00000000000E+00 0.  1.
         25    2    1    2    0    0 -0.42211551610E+02  0.86076157766E+02  0.63833330204E+02  0.17004011819E+03  0.12509207698E+03 0.  0.
         23    2    1    2    0    0  0.42211551610E+02 -0.86076157766E+02  0.41993126543E+03  0.44024762968E+03  0.91020809334E+02 0.  0.
          5    1    3    3  502    0  0.10202420906E+02  0.13350331530E+02  0.77368715116E+02  0.79282477402E+02  0.41800000000E+01 0. -1.
         -5    1    3    3    0  502 -0.52413972515E+02  0.72725826237E+02 -0.13535384911E+02  0.90757640788E+02  0.41800000000E+01 0. -1.
        -11    1    4    4    0    0  0.42301121530E+00 -0.61117998412E+02  0.34843800763E+03  0.35375787458E+03  0.00000000000E+00 0. -1.
         11    1    4    4    0    0  0.41788540394E+02 -0.24958159355E+02  0.71493257802E+02  0.86489755103E+02  0.00000000000E+00 0.  1.
</event>
<event>
 8    1  0.3541538E-009  0.1049240E+03  0.7561462E-02  0.1270270E+00
         -2   -1    0    0    0  501 -0.00000000000E+00  0.00000000000E+00  0.97403393892E+01  0.97403393892E+01  0.00000000000E+00 0.  1.
          2   -1    0    0  501    0  0.00000000000E+00 -0.00000000000E+00 -0.18364932680E+04  0.18364932680E+04  0.00000000000E+00 0. -1.
         25    2    1    2    0    0 -0.70531226616E+02  0.33073841375E+01 -0.12574161449E+04  0.12655939929E+04  0.12508877062E+03 0.  0.
         23    2    1    2    0    0  0.70531226616E+02 -0.33073841375E+01 -0.56933678365E+03  0.58063961449E+03  0.89511987914E+02 0.  0.
          5    1    3    3  502    0 -0.35567270790E+02 -0.30771141435E+02 -0.15366048132E+03  0.16075108030E+03  0.41800000000E+01 0.  1.
         -5    1    3    3    0  502 -0.34963955826E+02  0.34078525572E+02 -0.11037556636E+04  0.11048429126E+04  0.41800000000E+01 0.  1.
        -11    1    4    4    0    0  0.84206196965E+02 -0.25129460385E+02 -0.41940745608E+03  0.42851462939E+03  0.00000000000E+00 0.  1.
         11    1    4    4    0    0 -0.13674970349E+02  0.21822076248E+02 -0.14992932757E+03  0.15212498510E+03  0.00000000000E+00 0. -1.
</event>
<event>
 8    1  0.3541538E-009  0.1339786E+03  0.7561462E-02  0.1221669E+00
          2   -1    0    0  501    0  0.00000000000E+00  0.00000000000E+00  0.48168837888E+03  0.48168837888E+03  0.00000000000E+00 0. -1.
         -2   -1    0    0    0  501 -0.00000000000E+00 -0.00000000000E+00 -0.52985216981E+02  0.52985216981E+02  0.00000000000E+00 0.  1.
         25    2    1    2    0    0 -0.75111760152E+02 -0.39459463944E+02  0.96566717851E+02  0.17936533935E+03  0.12509183889E+03 0.  0.
         23    2    1    2    0    0  0.75111760152E+02  0.39459463944E+02  0.33213644404E+03  0.35530825650E+03  0.93437218873E+02 0.  0.
          5    1    3    3  502    0 -0.10049419748E+03 -0.20800780423E+01  0.86974839107E+02  0.13298686209E+03  0.41800000000E+01 0. -1.
         -5    1    3    3    0  502  0.25382437327E+02 -0.37379385901E+02  0.95918787443E+01  0.46378477259E+02  0.41800000000E+01 0. -1.
        -11    1    4    4    0    0  0.85874223628E+02  0.55801033208E+02  0.23700058536E+03  0.25818097345E+03  0.00000000000E+00 0.  1.
         11    1    4    4    0    0 -0.10762463476E+02 -0.16341569264E+02  0.95135858681E+02  0.97127283052E+02  0.00000000000E+00 0. -1.
</event>
<event>
 8    1  0.3541538E-009  0.1433460E+03  0.7561462E-02  0.1208896E+00
         -1   -1    0    0    0  501 -0.00000000000E+00  0.00000000000E+00  0.58706674050E+02  0.58706674050E+02  0.00000000000E+00 0.  1.
          1   -1    0    0  501    0  0.00000000000E+00 -0.00000000000E+00 -0.46298954813E+03  0.46298954813E+03  0.00000000000E+00 0. -1.
         25    2    1    2    0    0  0.10629556150E+03  0.13458761361E+02 -0.31815237715E+03  0.35825718878E+03  0.12508954222E+03 0.  0.
         23    2    1    2    0    0 -0.10629556150E+03 -0.13458761361E+02 -0.86130496934E+02  0.16343903341E+03  0.88396665587E+02 0.  0.
          5    1    3    3  502    0  0.93184128123E+02  0.52363948599E+02 -0.28777929968E+03  0.30701736526E+03  0.41800000000E+01 0. -1.
         -5    1    3    3    0  502  0.13111433377E+02 -0.38905187238E+02 -0.30373077474E+02  0.51239823521E+02  0.41800000000E+01 0. -1.
        -11    1    4    4    0    0  0.83983532245E+01  0.17709787964E+02 -0.16982649292E+02  0.25934133948E+02  0.00000000000E+00 0.  1.
         11    1    4    4    0    0 -0.11469391472E+03 -0.31168549326E+02 -0.69147847641E+02  0.13750489946E+03  0.00000000000E+00 0. -1.
</event>
<event>
 8    1  0.3541538E-009  0.1463366E+03  0.7561462E-02  0.1205048E+00
          2   -1    0    0  501    0  0.00000000000E+00  0.00000000000E+00  0.17398523420E+03  0.17398523420E+03  0.00000000000E+00 0. -1.
         -2   -1    0    0    0  501 -0.00000000000E+00 -0.00000000000E+00 -0.15724079325E+03  0.15724079325E+03  0.00000000000E+00 0.  1.
         25    2    1    2    0    0  0.33416752700E+02  0.97794964446E+02 -0.61429661199E+02  0.17349768675E+03  0.12508920657E+03 0.  0.
         23    2    1    2    0    0 -0.33416752700E+02 -0.97794964446E+02  0.78174102155E+02  0.15772834070E+03  0.89924995300E+02 0.  0.
          5    1    3    3  502    0 -0.20177700355E+02 -0.20551061856E+02  0.13788594949E+01  0.29135191582E+02  0.41800000000E+01 0.  1.
         -5    1    3    3    0  502  0.53594453055E+02  0.11834602630E+03 -0.62808520694E+02  0.14436249517E+03  0.41800000000E+01 0.  1.
        -11    1    4    4    0    0 -0.53899377800E+02 -0.27778433174E+02  0.18256856243E+02  0.63325327293E+02  0.00000000000E+00 0.  1.
         11    1    4    4    0    0  0.20482625100E+02 -0.70016531272E+02  0.59917245912E+02  0.94403013406E+02  0.00000000000E+00 0. -1.
</event>
<event>
 8    1  0.3541538E-009  0.1050830E+03  0.7561462E-02  0.1269956E+00
         -2   -1    0    0    0  501 -0.00000000000E+00  0.00000000000E+00  0.49176937389E+02  0.49176937389E+02  0.00000000000E+00 0.  1.
          2   -1    0    0  501    0  0.00000000000E+00 -0.00000000000E+00 -0.34094451247E+03  0.34094451247E+03  0.00000000000E+00 0. -1.
         25    2    1    2    0    0  0.60596340230E+02 -0.29447863461E+02 -0.13189447223E+03  0.19386030284E+03  0.12508625864E+03 0.  0.
         23    2    1    2    0    0 -0.60596340230E+02  0.29447863461E+02 -0.15987310285E+03  0.19626114702E+03  0.91760207618E+02 0.  0.
          5    1    3    3  502    0  0.75238970192E+02 -0.41544996016E+02 -0.31552557413E+02  0.91651108061E+02  0.41800000000E+01 0.  1.
         -5    1    3    3    0  502 -0.14642629962E+02  0.12097132555E+02 -0.10034191482E+03  0.10220919478E+03  0.41800000000E+01 0.  1.
        -11    1    4    4    0    0 -0.31452697002E+01  0.45032472413E+02 -0.10892230171E+03  0.11790625133E+03  0.00000000000E+00 0.  1.
         11    1    4    4    0    0 -0.57451070530E+02 -0.15584608952E+02 -0.50950801139E+02  0.78354895685E+02  0.00000000000E+00 0. -1.
</event>
<event>
 8    1  0.3541538E-009  0.1319936E+03  0.7561462E-02  0.1224527E+00
          2   -1    0    0  501    0  0.00000000000E+00  0.00000000000E+00  0.54548012944E+03  0.54548012944E+03  0.00000000000E+00 0. -1.
         -2   -1    0    0    0  501 -0.00000000000E+00 -0.00000000000E+00 -0.66449171023E+02  0.66449171023E+02  0.00000000000E+00 0.  1.
         25    2    1    2    0    0  0.73705648864E+00 -0.93214151386E+02  0.45444497389E+03  0.48047280698E+03  0.12507782650E+03 0.  0.
         23    2    1    2    0    0 -0.73705648864E+00  0.93214151386E+02  0.24585984527E+02  0.13145649348E+03  0.89369557305E+02 0.  0.
          5    1    3    3  502    0  0.51746418646E+01 -0.11574422363E+03  0.43472040068E+03  0.44991421559E+03  0.41800000000E+01 0. -1.
         -5    1    3    3    0  502 -0.44375853759E+01  0.22530072247E+02  0.19724573214E+02  0.30558591393E+02  0.41800000000E+01 0. -1.
        -11    1    4    4    0    0  0.40942045169E+02  0.50825124816E+02  0.29869566754E+02  0.71774893892E+02  0.00000000000E+00 0. -1.
         11    1    4    4    0    0 -0.41679101658E+02  0.42389026570E+02 -0.52835822266E+01  0.59681599591E+02  0.00000000000E+00 0.  1.
</event>
<event>
 8    1  0.3541538E-009  0.2199350E+03  0.7561462E-02  0.1133931E+00
          2   -1    0    0  501    0  0.00000000000E+00  0.00000000000E+00  0.14038032116E+04  0.14038032116E+04  0.00000000000E+00 0. -1.
         -2   -1    0    0    0  501 -0.00000000000E+00 -0.00000000000E+00 -0.39259638973E+02  0.39259638973E+02  0.00000000000E+00 0.  1.
         25    2    1    2    0    0 -0.17839959218E+03  0.77957722567E+02  0.92949528361E+03  0.95786864961E+03  0.12508815552E+03 0.  0.
         23    2    1    2    0    0  0.17839959218E+03 -0.77957722567E+02  0.43504828903E+03  0.48519420098E+03  0.90788643973E+02 0.  0.
          5    1    3    3  502    0 -0.10381944474E+03  0.10351681809E+03  0.69917623135E+03  0.71439420744E+03  0.41800000000E+01 0. -1.
         -5    1    3    3    0  502 -0.74580147441E+02 -0.25559095528E+02  0.23031905226E+03  0.24347444217E+03  0.41800000000E+01 0. -1.
        -11    1    4    4    0    0  0.45245204688E+02  0.19474320362E+02  0.11544624011E+03  0.12551578409E+03  0.00000000000E+00 0.  1.
         11    1    4    4    0    0  0.13315438750E+03 -0.97432042929E+02  0.31960204892E+03  0.35967841689E+03  0.00000000000E+00 0. -1.
</event>
<event>
 8    1  0.3541538E-009  0.1152752E+03  0.7561462E-02  0.1251102E+00
          1   -1    0    0  501    0  0.00000000000E+00  0.00000000000E+00  0.74806997544E+03  0.74806997544E+03  0.00000000000E+00 0. -1.
         -1   -1    0    0    0  501 -0.00000000000E+00 -0.00000000000E+00 -0.26627117637E+02  0.26627117637E+02  0.00000000000E+00 0.  1.
         25    2    1    2    0    0 -0.32866682182E+02 -0.81986197384E+02  0.42788675299E+03  0.45446302281E+03  0.12509040871E+03 0.  0.
         23    2    1    2    0    0  0.32866682182E+02  0.81986197384E+02  0.29355610481E+03  0.32023407027E+03  0.92588971978E+02 0.  0.
          5    1    3    3  502    0  0.98724582716E+01 -0.54309328239E+02  0.38137854249E+03  0.38537518555E+03  0.41800000000E+01 0.  1.
         -5    1    3    3    0  502 -0.42739140454E+02 -0.27676869145E+02  0.46508210502E+02  0.69087837255E+02  0.41800000000E+01 0.  1.
        -11    1    4    4    0    0  0.16050399027E+02  0.98934687859E+02  0.20039433594E+03  0.22406154880E+03  0.00000000000E+00 0.  1.
         11    1    4    4    0    0  0.16816283155E+02 -0.16948490475E+02  0.93161768867E+02  0.96172521475E+02  0.00000000000E+00 0. -1.
</event>
<event>
 8    1  0.3541538E-009  0.9030679E+02  0.7561462E-02  0.1302110E+00
         -1   -1    0    0    0  501 -0.00000000000E+00  0.00000000000E+00  0.26665155756E+03  0.26665155756E+03  0.00000000000E+00 0.  1.
          1   -1    0    0  501    0  0.00000000000E+00 -0.00000000000E+00 -0.25022067694E+03  0.25022067694E+03  0.00000000000E+00 0. -1.
         25    2    1    2    0    0  0.57359541028E+02 -0.29128354906E+02 -0.21576891097E+03  0.25756934142E+03  0.12508862734E+03 0.  0.
         23    2    1    2    0    0 -0.57359541028E+02  0.29128354906E+02  0.23219979160E+03  0.25930289308E+03  0.95826244510E+02 0.  0.
          5    1    3    3  502    0  0.60801469110E+02 -0.29659145567E+02 -0.34198937147E+02  0.75917871833E+02  0.41800000000E+01 0.  1.
         -5    1    3    3    0  502 -0.34419280816E+01  0.53079066103E+00 -0.18156997383E+03  0.18165146959E+03  0.41800000000E+01 0.  1.
        -11    1    4    4    0    0 -0.23612641987E+02  0.58228030168E+02  0.86306130941E+02  0.10675583636E+03  0.00000000000E+00 0. -1.
         11    1    4    4    0    0 -0.33746899041E+02 -0.29099675262E+02  0.14589366066E+03  0.15254705672E+03  0.00000000000E+00 0.  1.
</event>
<event>
 8    1  0.3541538E-009  0.2138862E+03  0.7561462E-02  0.1138525E+00
         -2   -1    0    0    0  501 -0.00000000000E+00  0.00000000000E+00  0.11461499464E+03  0.11461499464E+03  0.00000000000E+00 0.  1.
          2   -1    0    0  501    0  0.00000000000E+00 -0.00000000000E+00 -0.58578884638E+03  0.58578884638E+03  0.00000000000E+00 0. -1.
         25    2    1    2    0    0 -0.15071971125E+03 -0.12265490334E+03 -0.63217279161E+02  0.23958926746E+03  0.12508371606E+03 0.  0.
         23    2    1    2    0    0  0.15071971125E+03  0.12265490334E+03 -0.40795657258E+03  0.46081457356E+03  0.90337419826E+02 0.  0.
          5    1    3    3  502    0 -0.14774858680E+03 -0.73214596536E+02 -0.77780849521E+01  0.16513023058E+03  0.41800000000E+01 0.  1.
         -5    1    3    3    0  502 -0.29711244476E+01 -0.49440306809E+02 -0.55439194209E+02  0.74459036875E+02  0.41800000000E+01 0.  1.
        -11    1    4    4    0    0  0.11878154513E+03  0.41360385818E+02 -0.21667454045E+03  0.25053461529E+03  0.00000000000E+00 0. -1.
         11    1    4    4    0    0  0.31938166117E+02  0.81294517527E+02 -0.19128203212E+03  0.21027995827E+03  0.00000000000E+00 0.  1.
</event>
<event>
 8    1  0.3541538E-009  0.1105875E+03  0.7561462E-02  0.1259486E+00
          2   -1    0    0  501    0  0.00000000000E+00  0.00000000000E+00  0.32230165759E+03  0.32230165759E+03  0.00000000000E+00 0. -1.
         -2   -1    0    0    0  501 -0.00000000000E+00 -0.00000000000E+00 -0.61263856240E+02  0.61263856240E+02  0.00000000000E+00 0.  1.
         25    2    1    2    0    0 -0.16368017764E+02  0.81794164214E+02  0.99723388979E+02  0.18041726773E+03  0.12508972333E+03 0.  0.
         23    2    1    2    0    0  0.16368017764E+02 -0.81794164214E+02  0.16131441237E+03  0.20314824610E+03  0.91042149294E+02 0.  0.
          5    1    3    3  502    0 -0.34726832231E+02  0.46386018611E+02  0.12157838549E+03  0.13474565603E+03  0.41800000000E+01 0.  1.
         -5    1    3    3    0  502  0.18358814467E+02  0.35408145603E+02 -0.21854996510E+02  0.45671611709E+02  0.41800000000E+01 0.  1.
        -11    1    4    4    0    0  0.53952017895E+02 -0.43318052778E+02  0.81601974149E+02  0.10698671000E+03  0.00000000000E+00 0.  1.
         11    1    4    4    0    0 -0.37584000131E+02 -0.38476111436E+02  0.79712438223E+02  0.96161536097E+02  0.00000000000E+00 0. -1.
</event>
<event>
 8    1  0.3541538E-009  0.1489951E+03  0.7561462E-02  0.1201713E+00
         -3   -1    0    0    0  501 -0.00000000000E+00  0.00000000000E+00  0.34854992612E+02  0.34854992612E+02  0.00000000000E+00 0.  1.
          3   -1    0    0  501    0  0.00000000000E+00 -0.00000000000E+00 -0.73131937066E+03  0.73131937066E+03  0.00000000000E+00 0. -1.
         25    2    1    2    0    0 -0.79193412971E+02 -0.85448513814E+02 -0.35530856977E+03  0.39428658800E+03  0.12507872943E+03 0.  0.
         23    2    1    2    0    0  0.79193412971E+02  0.85448513814E+02 -0.34115580829E+03  0.37188777528E+03  0.91324622656E+02 0.  0.
          5    1    3    3  502    0 -0.10829172370E+03 -0.89138293061E+02 -0.27595718019E+03  0.30958451255E+03  0.41800000000E+01 0. -1.
         -5    1    3    3    0  502  0.29098310725E+02  0.36897792468E+01 -0.79351389574E+02  0.84702075449E+02  0.41800000000E+01 0. -1.
        -11    1    4    4    0    0  0.47106139566E+02  0.13096494493E+02 -0.49077578081E+02  0.69275646681E+02  0.00000000000E+00 0.  1.
         11    1    4    4    0    0  0.32087273405E+02  0.72352019321E+02 -0.29207823021E+03  0.30261212860E+03  0.00000000000E+00 0. -1.
</event>
<event>
 8    1  0.3541538E-009  0.5552997E+02  0.7561462E-02  0.1417609E+00
         -2   -1    0    0    0  501 -0.00000000000E+00  0.00000000000E+00  0.27435322972E+02  0.27435322972E+02  0.00000000000E+00 0.  1.
          2   -1    0    0  501    0  0.00000000000E+00 -0.00000000000E+00 -0.50932546980E+03  0.50932546980E+03  0.00000000000E+00 0. -1.
         25    2    1    2    0    0  0.31937051751E+02 -0.27973377718E+01 -0.34654686695E+03  0.36981885359E+03  0.12507379065E+03 0.  0.
         23    2    1    2    0    0 -0.31937051751E+02  0.27973377718E+01 -0.13534327988E+03  0.16694193918E+03  0.92325550502E+02 0.  0.
          5    1    3    3  502    0  0.17053526624E+02  0.33103928846E+01  0.44621979320E+01  0.18416435099E+02  0.41800000000E+01 0.  1.
         -5    1    3    3    0  502  0.14883525127E+02 -0.61077306564E+01 -0.35100906488E+03  0.35140241849E+03  0.41800000000E+01 0.  1.
        -11    1    4    4    0    0 -0.48002004748E+02  0.20910845426E+02 -0.33266543515E+02  0.62033207507E+02  0.00000000000E+00 0.  1.
         11    1    4    4    0    0  0.16064952997E+02 -0.18113507654E+02 -0.10207673636E+03  0.10490873167E+03  0.00000000000E+00 0. -1.
</event>
<event>
 8    1  0.3541538E-009  0.9943402E+02  0.7561462E-02  0.1281491E+00
          2   -1    0    0  501    0  0.00000000000E+00  0.00000000000E+00  0.68379375046E+03  0.68379375046E+03  0.00000000000E+00 0. -1.
         -2   -1    0    0    0  501 -0.00000000000E+00 -0.00000000000E+00 -0.24764524121E+02  0.24764524121E+02  0.00000000000E+00 0.  1.
         25    2    1    2    0    0 -0.10179894152E+02  0.24383223471E+02  0.55023543799E+03  0.56489462285E+03  0.12509486746E+03 0.  0.
         23    2    1    2    0    0  0.10179894152E+02 -0.24383223471E+02  0.10879378834E+03  0.14366365173E+03  0.90027688046E+02 0.  0.
          5    1    3    3  502    0  0.52286390781E+02 -0.27835450739E+01  0.33516065582E+03  0.33925175370E+03  0.41800000000E+01 0. -1.
         -5    1    3    3    0  502 -0.62466284933E+02  0.27166768545E+02  0.21507478218E+03  0.22564286914E+03  0.41800000000E+01 0. -1.
        -11    1    4    4    0    0 -0.87712877122E+01 -0.47442926038E+02  0.24235271632E+02  0.53991805955E+02  0.00000000000E+00 0.  1.
         11    1    4    4    0    0  0.18951181864E+02  0.23059702568E+02  0.84558516711E+02  0.89671845776E+02  0.00000000000E+00 0. -1.
</event>
<event>
 8    1  0.3541538E-009  0.1142581E+03  0.7561462E-02  0.1252882E+00
          1   -1    0    0  501    0  0.00000000000E+00  0.00000000000E+00  0.78767806317E+03  0.78767806317E+03  0.00000000000E+00 0. -1.
         -1   -1    0    0    0  501 -0.00000000000E+00 -0.00000000000E+00 -0.23348930085E+02  0.23348930085E+02  0.00000000000E+00 0.  1.
         25    2    1    2    0    0  0.61344206525E+02 -0.52477157436E+02  0.41502938947E+03  0.44092349442E+03  0.12508864888E+03 0.  0.
         23    2    1    2    0    0 -0.61344206525E+02  0.52477157436E+02  0.34929974361E+03  0.37010349883E+03  0.91920211243E+02 0.  0.
          5    1    3    3  502    0  0.84575326507E+02 -0.75295155097E+02  0.28226222129E+03  0.30415749243E+03  0.41800000000E+01 0.  1.
         -5    1    3    3    0  502 -0.23231119982E+02  0.22817997661E+02  0.13276716818E+03  0.13676600199E+03  0.41800000000E+01 0.  1.
        -11    1    4    4    0    0 -0.10209651112E+02  0.18024012241E+02  0.63660815294E+01  0.21670924925E+02  0.00000000000E+00 0.  1.
         11    1    4    4    0    0 -0.51134555413E+02  0.34453145196E+02  0.34293366208E+03  0.34843257391E+03  0.00000000000E+00 0. -1.
</event>
<event>
 8    1  0.3541538E-009  0.4847074E+02  0.7561462E-02  0.1453769E+00
          2   -1    0    0  501    0  0.00000000000E+00  0.00000000000E+00  0.39855397978E+03  0.39855397978E+03  0.00000000000E+00 0. -1.
         -2   -1    0    0    0  501 -0.00000000000E+00 -0.00000000000E+00 -0.31904059069E+02  0.31904059069E+02  0.00000000000E+00 0.  1.
         25    2    1    2    0    0  0.47990936692E+00 -0.32002397265E+02  0.18673705253E+03  0.22702959171E+03  0.12508926804E+03 0.  0.
         23    2    1    2    0    0 -0.47990936692E+00  0.32002397265E+02  0.17991286817E+03  0.20342844714E+03  0.89387410898E+02 0.  0.
          5    1    3    3  502    0  0.37232102055E+01 -0.21304080368E+02 -0.13894511851E+02  0.26043348366E+02  0.41800000000E+01 0. -1.
         -5    1    3    3    0  502 -0.32433008386E+01 -0.10698316897E+02  0.20063156438E+03  0.20098624334E+03  0.41800000000E+01 0. -1.
        -11    1    4    4    0    0  0.26243161465E+02  0.90730196119E+01  0.16115925270E+03  0.16353387398E+03  0.00000000000E+00 0. -1.
         11    1    4    4    0    0 -0.26723070831E+02  0.22929377653E+02  0.18753615478E+02  0.39894573161E+02  0.00000000000E+00 0.  1.
</event>
<event>
 8    1  0.3541538E-009  0.1162897E+03  0.7561462E-02  0.1249346E+00
         -2   -1    0    0    0  501 -0.00000000000E+00  0.00000000000E+00  0.10061923470E+03  0.10061923470E+03  0.00000000000E+00 0.  1.
          2   -1    0    0  501    0  0.00000000000E+00 -0.00000000000E+00 -0.21417078170E+03  0.21417078170E+03  0.00000000000E+00 0. -1.
         25    2    1    2    0    0 -0.51445411309E+02  0.84596028138E+02 -0.54291573548E+02  0.16851531565E+03  0.12508684315E+03 0.  0.
         23    2    1    2    0    0  0.51445411309E+02 -0.84596028138E+02 -0.59259973448E+02  0.14627470075E+03  0.89896748017E+02 0.  0.
          5    1    3    3  502    0 -0.46455365149E+02  0.23558447251E+01  0.25952254729E+02  0.53428858129E+02  0.41800000000E+01 0.  1.
         -5    1    3    3    0  502 -0.49900461599E+01  0.82240183412E+02 -0.80243828277E+02  0.11508645752E+03  0.41800000000E+01 0.  1.
        -11    1    4    4    0    0  0.35700970821E+02 -0.30232654781E+02  0.18322152781E+02  0.50242153768E+02  0.00000000000E+00 0.  1.
         11    1    4    4    0    0  0.15744440488E+02 -0.54363373357E+02 -0.77582126229E+02  0.96032546978E+02  0.00000000000E+00 0. -1.
</event>
<event>
 8    1  0.3541538E-009  0.1035670E+03  0.7561462E-02  0.1272969E+00
          2   -1    0    0  501    0  0.00000000000E+00  0.00000000000E+00  0.13032653664E+03  0.13032653664E+03  0.00000000000E+00 0. -1.
         -2   -1    0    0    0  501 -0.00000000000E+00 -0.00000000000E+00 -0.11275141280E+03  0.11275141280E+03  0.00000000000E+00 0.  1.
         25    2    1    2    0    0 -0.17071325355E+02  0.48267320724E+02 -0.71967791902E+00  0.13516348821E+03  0.12508991250E+03 0.  0.
         23    2    1    2    0    0  0.17071325355E+02 -0.48267320724E+02  0.18294801753E+02  0.10791446122E+03  0.93218382150E+02 0.  0.
          5    1    3    3  502    0  0.27874621109E+02  0.76736415440E+02  0.12638787713E+01  0.81759046876E+02  0.41800000000E+01 0. -1.
         -5    1    3    3    0  502 -0.44945946463E+02 -0.28469094716E+02 -0.19835566903E+01  0.53404441337E+02  0.41800000000E+01 0. -1.
        -11    1    4    4    0    0  0.10410128242E+02 -0.58712698822E+02 -0.23673424044E+02  0.64155925517E+02  0.00000000000E+00 0.  1.
         11    1    4    4    0    0  0.66611971128E+01  0.10445378098E+02  0.41968225797E+02  0.43758535706E+02  0.00000000000E+00 0. -1.
</event>
<event>
 8    1  0.3541538E-009  0.2664213E+03  0.7561462E-02  0.1103345E+00
          2   -1    0    0  501    0  0.00000000000E+00  0.00000000000E+00  0.75088585667E+03  0.75088585667E+03  0.00000000000E+00 0. -1.
         -2   -1    0    0    0  501 -0.00000000000E+00 -0.00000000000E+00 -0.11802660496E+03  0.11802660496E+03  0.00000000000E+00 0.  1.
         25    2    1    2    0    0  0.39713329737E+02 -0.25976010680E+03  0.19935322576E+03  0.35276569199E+03  0.12509781446E+03 0.  0.
         23    2    1    2    0    0 -0.39713329737E+02  0.25976010680E+03  0.43350602595E+03  0.51614676963E+03  0.97095579852E+02 0.  0.
          5    1    3    3  502    0 -0.66603738891E+01 -0.12237289431E+03  0.16162240794E+03  0.20287622086E+03  0.41800000000E+01 0. -1.
         -5    1    3    3    0  502  0.46373703626E+02 -0.13738721249E+03  0.37730817820E+02  0.14988947113E+03  0.41800000000E+01 0. -1.
        -11    1    4    4    0    0 -0.46101250924E+02  0.23999494352E+03  0.43067815465E+03  0.49518337123E+03  0.00000000000E+00 0. -1.
         11    1    4    4    0    0  0.63879211880E+01  0.19765163274E+02  0.28278712976E+01  0.20963398398E+02  0.00000000000E+00 0.  1.
</event>
<event>
 8    1  0.3541538E-009  0.1111986E+03  0.7561462E-02  0.1258366E+00
          2   -1    0    0  501    0  0.00000000000E+00  0.00000000000E+00  0.11027467599E+04  0.11027467599E+04  0.00000000000E+00 0. -1.
         -2   -1    0    0    0  501 -0.00000000000E+00 -0.00000000000E+00 -0.14891434350E+02  0.14891434350E+02  0.00000000000E+00 0.  1.
         25    2    1    2    0    0  0.43301492807E+02  0.49013328208E+02  0.62382815059E+03  0.63959751977E+03  0.12508437232E+03 0.  0.
         23    2    1    2    0    0 -0.43301492807E+02 -0.49013328208E+02  0.46402717494E+03  0.47804067447E+03  0.94468734199E+02 0.  0.
          5    1    3    3  502    0  0.66804139310E+02  0.50235718281E+02  0.22510587113E+03  0.24015941796E+03  0.41800000000E+01 0.  1.
         -5    1    3    3    0  502 -0.23502646504E+02 -0.12223900728E+01  0.39872227947E+03  0.39943810180E+03  0.41800000000E+01 0.  1.
        -11    1    4    4    0    0 -0.32560679486E+02 -0.77660819059E+02  0.33167727743E+03  0.34220055089E+03  0.00000000000E+00 0.  1.
         11    1    4    4    0    0 -0.10740813321E+02  0.28647490851E+02  0.13234989752E+03  0.13584012358E+03  0.00000000000E+00 0. -1.
</event>
<event>
 8    1  0.3541538E-009  0.9158553E+02  0.7561462E-02  0.1299057E+00
         -2   -1    0    0    0  501 -0.00000000000E+00  0.00000000000E+00  0.54206367473E+02  0.54206367473E+02  0.00000000000E+00 0.  1.
          2   -1    0    0  501    0  0.00000000000E+00 -0.00000000000E+00 -0.34720085551E+03  0.34720085551E+03  0.00000000000E+00 0. -1.
         25    2    1    2    0    0 -0.68027700784E+02 -0.59889804081E+00 -0.22807638737E+03  0.26887652278E+03  0.12509044437E+03 0.  0.
         23    2    1    2    0    0  0.68027700784E+02  0.59889804081E+00 -0.64918100660E+02  0.13253070020E+03  0.93391112797E+02 0.  0.
          5    1    3    3  502    0  0.63581803744E+00 -0.12295143123E+02  0.12710746049E+02  0.18182691608E+02  0.41800000000E+01 0.  1.
         -5    1    3    3    0  502 -0.68663518821E+02  0.11696245082E+02 -0.24078713342E+03  0.25069383117E+03  0.41800000000E+01 0.  1.
        -11    1    4    4    0    0 -0.47460006124E+01  0.23597492605E+02 -0.48962928476E+02  0.54559458795E+02  0.00000000000E+00 0. -1.
         11    1    4    4    0    0  0.72773701396E+02 -0.22998594564E+02 -0.15955172184E+02  0.77971241405E+02  0.00000000000E+00 0.  1.
</event>
<event>
 8    1  0.3541538E-009  0.2550921E+03  0.7561462E-02  0.1110128E+00
         -1   -1    0    0    0  501 -0.00000000000E+00  0.00000000000E+00  0.94758050170E+02  0.94758050170E+02  0.00000000000E+00 0.  1.
          1   -1    0    0  501    0  0.00000000000E+00 -0.00000000000E+00 -0.76726144939E+03  0.76726144939E+03  0.00000000000E+00 0. -1.
         25    2    1    2    0    0  0.12329826732E+03 -0.21329467528E+03 -0.36048545493E+03  0.45419982425E+03  0.12510250163E+03 0.  0.
         23    2    1    2    0    0 -0.12329826732E+03  0.21329467528E+03 -0.31201794429E+03  0.40781967531E+03  0.90909893747E+02 0.  0.
          5    1    3    3  502    0  0.93464409992E+02 -0.13947060539E+03 -0.13641555598E+03  0.21636617577E+03  0.41800000000E+01 0.  1.
         -5    1    3    3    0  502  0.29833857323E+02 -0.73824069883E+02 -0.22406989895E+03  0.23783364849E+03  0.41800000000E+01 0.  1.
        -11    1    4    4    0    0 -0.86130778096E+01  0.10310461449E+03 -0.12848187774E+03  0.16496163053E+03  0.00000000000E+00 0.  1.
         11    1    4    4    0    0 -0.11468518951E+03  0.11019006079E+03 -0.18353606655E+03  0.24285804478E+03  0.00000000000E+00 0. -1.
</event>
<event>
 8    1  0.3541538E-009  0.9900268E+02  0.7561462E-02  0.1282407E+00
         -3   -1    0    0    0  501 -0.00000000000E+00  0.00000000000E+00  0.48408681664E+02  0.48408681664E+02  0.00000000000E+00 0.  1.
          3   -1    0    0  501    0  0.00000000000E+00 -0.00000000000E+00 -0.30834645248E+03  0.30834645248E+03  0.00000000000E+00 0. -1.
         25    2    1    2    0    0  0.49980540194E+02  0.12346645318E+02 -0.13183571998E+03  0.18888835630E+03  0.12509060730E+03 0.  0.
         23    2    1    2    0    0 -0.49980540194E+02 -0.12346645318E+02 -0.12810205084E+03  0.16786677784E+03  0.95491495049E+02 0.  0.
          5    1    3    3  502    0  0.29871664419E+02  0.57966890504E+02 -0.12126954401E+03  0.13775431548E+03  0.41800000000E+01 0.  1.
         -5    1    3    3    0  502  0.20108875775E+02 -0.45620245186E+02 -0.10566175972E+02  0.51134040819E+02  0.41800000000E+01 0.  1.
        -11    1    4    4    0    0  0.78280147206E+01 -0.22601730030E+02  0.31081846453E+01  0.24120050303E+02  0.00000000000E+00 0.  1.
         11    1    4    4    0    0 -0.57808554915E+02  0.10255084712E+02 -0.13121023548E+03  0.14374672754E+03  0.00000000000E+00 0. -1.
</event>
<event>
 8    1  0.3541538E-009  0.1325640E+03  0.7561462E-02  0.1223700E+00
          2   -1    0    0  501    0  0.00000000000E+00  0.00000000000E+00  0.26791328334E+03  0.26791328334E+03  0.00000000000E+00 0. -1.
         -2   -1    0    0    0  501 -0.00000000000E+00 -0.00000000000E+00 -0.79404547241E+02  0.79404547241E+02  0.00000000000E+00 0.  1.
         25    2    1    2    0    0 -0.56026194767E+02 -0.83363120730E+02  0.88596685722E+02  0.18326474031E+03  0.12509295712E+03 0.  0.
         23    2    1    2    0    0  0.56026194767E+02  0.83363120730E+02  0.99912050382E+02  0.16405309028E+03  0.82720337400E+02 0.  0.
          5    1    3    3  502    0 -0.83746343590E+02 -0.35086926164E+02  0.89317394539E+02  0.12743473553E+03  0.41800000000E+01 0. -1.
         -5    1    3    3    0  502  0.27720148823E+02 -0.48276194566E+02 -0.72070881662E+00  0.55830004780E+02  0.41800000000E+01 0. -1.
        -11    1    4    4    0    0  0.34382063706E+02  0.22497630613E+01  0.12096433719E+01  0.34476817945E+02  0.00000000000E+00 0.  1.
         11    1    4    4    0    0  0.21644131062E+02  0.81113357669E+02  0.98702407010E+02  0.12957627233E+03  0.00000000000E+00 0. -1.
</event>
<event>
 8    1  0.3541538E-009  0.1468337E+03  0.7561462E-02  0.1204419E+00
         -2   -1    0    0    0  501 -0.00000000000E+00  0.00000000000E+00  0.93412586182E+02  0.93412586182E+02  0.00000000000E+00 0. -1.
          2   -1    0    0  501    0  0.00000000000E+00 -0.00000000000E+00 -0.27684673653E+03  0.27684673653E+03  0.00000000000E+00 0.  1.
         25    2    1    2    0    0  0.33962747371E+01 -0.11647879876E+03 -0.79964562905E+02  0.18873465062E+03  0.12509033448E+03 0.  0.
         23    2    1    2    0    0 -0.33962747371E+01  0.11647879876E+03 -0.10346958744E+03  0.18152467209E+03  0.93093532583E+02 0.  0.
          5    1    3    3  502    0 -0.40013501868E+02 -0.41193458625E+02 -0.83765818242E+02  0.10164726298E+03  0.41800000000E+01 0.  1.
         -5    1    3    3    0  502  0.43409776605E+02 -0.75285340138E+02  0.38012553366E+01  0.87087387644E+02  0.41800000000E+01 0.  1.
        -11    1    4    4    0    0  0.43166102970E+02  0.36462564178E+02 -0.41836717218E+02  0.70307481392E+02  0.00000000000E+00 0.  1.
         11    1    4    4    0    0 -0.46562377707E+02  0.80016234584E+02 -0.61632870224E+02  0.11121719070E+03  0.00000000000E+00 0. -1.
</event>
<event>
 8    1  0.3541538E-009  0.1092554E+03  0.7561462E-02  0.1261955E+00
          2   -1    0    0  501    0  0.00000000000E+00  0.00000000000E+00  0.84918610143E+03  0.84918610143E+03  0.00000000000E+00 0. -1.
         -2   -1    0    0    0  501 -0.00000000000E+00 -0.00000000000E+00 -0.14263503786E+02  0.14263503786E+02  0.00000000000E+00 0.  1.
         25    2    1    2    0    0 -0.22187455339E+02  0.29507243236E+01  0.50820395787E+03  0.52385109476E+03  0.12509083394E+03 0.  0.
         23    2    1    2    0    0  0.22187455339E+02 -0.29507243236E+01  0.32671863977E+03  0.33959851046E+03  0.89894876275E+02 0.  0.
          5    1    3    3  502    0  0.15835737629E+02  0.57401588118E+02  0.27053094476E+03  0.27703822367E+03  0.41800000000E+01 0. -1.
         -5    1    3    3    0  502 -0.38023192968E+02 -0.54450863795E+02  0.23767301312E+03  0.24681287109E+03  0.41800000000E+01 0. -1.
        -11    1    4    4    0    0  0.52428325458E+02 -0.21645899527E+02  0.21520779987E+03  0.22255711941E+03  0.00000000000E+00 0. -1.
         11    1    4    4    0    0 -0.30240870119E+02  0.18695175203E+02  0.11151083990E+03  0.11704139104E+03  0.00000000000E+00 0.  1.
</event>
<event>
 8    1  0.3541538E-009  0.8979105E+02  0.7561462E-02  0.1303358E+00
          1   -1    0    0  501    0  0.00000000000E+00  0.00000000000E+00  0.62858225595E+03  0.62858225595E+03  0.00000000000E+00 0. -1.
         -1   -1    0    0    0  501 -0.00000000000E+00 -0.00000000000E+00 -0.22587814704E+02  0.22587814704E+02  0.00000000000E+00 0.  1.
         25    2    1    2    0    0 -0.28433145583E+02  0.91366210227E-01  0.44792906021E+03  0.46593444947E+03  0.12508403618E+03 0.  0.
         23    2    1    2    0    0  0.28433145583E+02 -0.91366210227E-01  0.15806538104E+03  0.18523562119E+03  0.92299071273E+02 0.  0.
          5    1    3    3  502    0 -0.20522805946E+02  0.41767824847E+02  0.61880396884E+02  0.77539620033E+02  0.41800000000E+01 0. -1.
         -5    1    3    3    0  502 -0.79103396371E+01 -0.41676458637E+02  0.38604866332E+03  0.38839482944E+03  0.41800000000E+01 0. -1.
        -11    1    4    4    0    0  0.59206071727E+02  0.31394117648E+01  0.13227458452E+03  0.14495440851E+03  0.00000000000E+00 0.  1.
         11    1    4    4    0    0 -0.30772926144E+02 -0.32307779750E+01  0.25790796517E+02  0.40281212678E+02  0.00000000000E+00 0. -1.
</event>
<event>
 8    1  0.3541538E-009  0.1332076E+03  0.7561462E-02  0.1222772E+00
         -1   -1    0    0    0  501 -0.00000000000E+00  0.00000000000E+00  0.17141070851E+03  0.17141070851E+03  0.00000000000E+00 0.  1.
          1   -1    0    0  501    0  0.00000000000E+00 -0.00000000000E+00 -0.16349783345E+03  0.16349783345E+03  0.00000000000E+00 0. -1.
         25    2    1    2    0    0  0.10425092141E+03  0.11779081542E+02  0.73391339259E+02  0.17899946073E+03  0.12509003512E+03 0.  0.
         23    2    1    2    0    0 -0.10425092141E+03 -0.11779081542E+02 -0.65478464197E+02  0.15590908123E+03  0.94937932145E+02 0.  0.
          5    1    3    3  502    0  0.29871058432E+02  0.63232036277E+02  0.48148392580E+02  0.85007709366E+02  0.41800000000E+01 0.  1.
         -5    1    3    3    0  502  0.74379862975E+02 -0.51452954735E+02  0.25242946680E+02  0.93991751362E+02  0.41800000000E+01 0.  1.
        -11    1    4    4    0    0 -0.62184660876E+02 -0.18721897208E+00 -0.87251883531E+02  0.10714410053E+03  0.00000000000E+00 0. -1.
         11    1    4    4    0    0 -0.42066260530E+02 -0.11591862570E+02  0.21773419334E+02  0.48764980696E+02  0.00000000000E+00 0.  1.
</event>
<event>
 8    1  0.3541538E-009  0.1599851E+03  0.7561462E-02  0.1188714E+00
          1   -1    0    0  501    0  0.00000000000E+00  0.00000000000E+00  0.11295876506E+04  0.11295876506E+04  0.00000000000E+00 0. -1.
         -1   -1    0    0    0  501 -0.00000000000E+00 -0.00000000000E+00 -0.28535920315E+02  0.28535920315E+02  0.00000000000E+00 0.  1.
         25    2    1    2    0    0  0.13729958518E+03 -0.25687631982E+02  0.67733886332E+03  0.70281343540E+03  0.12509100161E+03 0.  0.
         23    2    1    2    0    0 -0.13729958518E+03  0.25687631982E+02  0.42371286697E+03  0.45531013553E+03  0.90904869762E+02 0.  0.
          5    1    3    3  502    0  0.93510526071E+01  0.16197587368E+02  0.92467643245E+01  0.21278605966E+02  0.41800000000E+01 0.  1.
         -5    1    3    3    0  502  0.12794853257E+03 -0.41885219350E+02  0.66809209899E+03  0.68153482943E+03  0.41800000000E+01 0.  1.
        -11    1    4    4    0    0 -0.97169336296E+02 -0.26082001270E+02  0.27434531359E+03  0.29221139915E+03  0.00000000000E+00 0.  1.
         11    1    4    4    0    0 -0.40130248884E+02  0.51769633252E+02  0.14936755339E+03  0.16309873637E+03  0.00000000000E+00 0. -1.
</event>
<event>
 8    1  0.3541538E-009  0.1383534E+03  0.7561462E-02  0.1215562E+00
          2   -1    0    0  501    0  0.00000000000E+00  0.00000000000E+00  0.81902659968E+03  0.81902659968E+03  0.00000000000E+00 0.  1.
         -2   -1    0    0    0  501 -0.00000000000E+00 -0.00000000000E+00 -0.38528163289E+02  0.38528163289E+02  0.00000000000E+00 0. -1.
         25    2    1    2    0    0 -0.75842661462E+02  0.49958959746E+02  0.67667686654E+03  0.69410931010E+03  0.12509254855E+03 0.  0.
         23    2    1    2    0    0  0.75842661462E+02 -0.49958959746E+02  0.10382156984E+03  0.16344545286E+03  0.87678336774E+02 0.  0.
          5    1    3    3  502    0  0.21192237928E+02  0.48911332572E+02  0.32034071134E+03  0.32477234049E+03  0.41800000000E+01 0.  1.
         -5    1    3    3    0  502 -0.97034899390E+02  0.10476271738E+01  0.35633615520E+03  0.36933696962E+03  0.41800000000E+01 0.  1.
        -11    1    4    4    0    0 -0.17371764884E+02 -0.23475238447E+02  0.27209583559E+02  0.39915241109E+02  0.00000000000E+00 0.  1.
         11    1    4    4    0    0  0.93214426346E+02 -0.26483721298E+02  0.76611986286E+02  0.12353021175E+03  0.00000000000E+00 0. -1.
</event>
<event>
 8    1  0.3541538E-009  0.1224780E+03  0.7561462E-02  0.1239064E+00
          1   -1    0    0  501    0  0.00000000000E+00  0.00000000000E+00  0.10003577518E+04  0.10003577518E+04  0.00000000000E+00 0. -1.
         -1   -1    0    0    0  501 -0.00000000000E+00 -0.00000000000E+00 -0.19518210514E+02  0.19518210514E+02  0.00000000000E+00 0.  1.
         25    2    1    2    0    0  0.62419411242E+02 -0.18751666498E+02  0.75416921023E+03  0.76724633305E+03  0.12509168648E+03 0.  0.
         23    2    1    2    0    0 -0.62419411242E+02  0.18751666498E+02  0.22667033110E+03  0.25262962931E+03  0.90523382096E+02 0.  0.
          5    1    3    3  502    0 -0.23958623198E+02  0.27770516329E+02  0.31935540489E+03  0.32148182567E+03  0.41800000000E+01 0. -1.
         -5    1    3    3    0  502  0.86378034439E+02 -0.46522182826E+02  0.43481380534E+03  0.44576450738E+03  0.41800000000E+01 0. -1.
        -11    1    4    4    0    0 -0.20051231194E+02 -0.35642248521E+02  0.10654435827E+03  0.11412327559E+03  0.00000000000E+00 0.  1.
         11    1    4    4    0    0 -0.42368180047E+02  0.54393915019E+02  0.12012597283E+03  0.13850635372E+03  0.00000000000E+00 0. -1.
</event>
<event>
 8    1  0.3541538E-009  0.1610537E+03  0.7561462E-02  0.1187512E+00
          2   -1    0    0  501    0  0.00000000000E+00  0.00000000000E+00  0.86977904448E+03  0.86977904448E+03  0.00000000000E+00 0. -1.
         -2   -1    0    0    0  501 -0.00000000000E+00 -0.00000000000E+00 -0.47033013269E+02  0.47033013269E+02  0.00000000000E+00 0.  1.
         25    2    1    2    0    0  0.15042860674E+03 -0.20706590998E+02  0.25683088368E+03  0.32352201191E+03  0.12508741242E+03 0.  0.
         23    2    1    2    0    0 -0.15042860674E+03  0.20706590998E+02  0.56591514754E+03  0.59329004584E+03  0.93142877555E+02 0.  0.
          5    1    3    3  502    0  0.12011622813E+03 -0.99417598188E+01  0.26405329770E+03  0.29029013637E+03  0.41800000000E+01 0. -1.
         -5    1    3    3    0  502  0.30312378619E+02 -0.10764831179E+02 -0.72224140249E+01  0.33231875544E+02  0.41800000000E+01 0. -1.
        -11    1    4    4    0    0 -0.65042424547E+02  0.46406484630E+02  0.17567243159E+03  0.19298933138E+03  0.00000000000E+00 0.  1.
         11    1    4    4    0    0 -0.85386182197E+02 -0.25699893632E+02  0.39024271595E+03  0.40030071446E+03  0.00000000000E+00 0. -1.
</event>
<event>
 8    1  0.3541538E-009  0.1220476E+03  0.7561462E-02  0.1239757E+00
         -1   -1    0    0    0  501 -0.00000000000E+00  0.00000000000E+00  0.28844833596E+03  0.28844833596E+03  0.00000000000E+00 0.  1.
          1   -1    0    0  501    0  0.00000000000E+00 -0.00000000000E+00 -0.52783324020E+02  0.52783324020E+02  0.00000000000E+00 0. -1.
         25    2    1    2    0    0 -0.44759731413E+02 -0.27713884026E+02  0.13994998909E+03  0.19494867720E+03  0.12508994512E+03 0.  0.
         23    2    1    2    0    0  0.44759731413E+02  0.27713884026E+02  0.95715022847E+02  0.14628298278E+03  0.97292612922E+02 0.  0.
          5    1    3    3  502    0  0.33343819679E+02  0.24392605295E+02  0.47963014993E+02  0.63440781136E+02  0.41800000000E+01 0.  1.
         -5    1    3    3    0  502 -0.78103551091E+02 -0.52106489322E+02  0.91986974098E+02  0.13150789606E+03  0.41800000000E+01 0.  1.
        -11    1    4    4    0    0  0.73818296749E+02  0.98368635973E+01  0.77994856862E+02  0.10783831655E+03  0.00000000000E+00 0.  1.
         11    1    4    4    0    0 -0.29058565337E+02  0.17877020429E+02  0.17720165986E+02  0.38444666228E+02  0.00000000000E+00 0. -1.
</event>
<event>
 8    1  0.3541538E-009  0.8943550E+02  0.7561462E-02  0.1304224E+00
         -4   -1    0    0    0  501 -0.00000000000E+00  0.00000000000E+00  0.49573519724E+02  0.49573519724E+02  0.00000000000E+00 0.  1.
          4   -1    0    0  501    0  0.00000000000E+00 -0.00000000000E+00 -0.43170943014E+03  0.43170943014E+03  0.00000000000E+00 0. -1.
         25    2    1    2    0    0 -0.49800296775E+02 -0.31939834913E+02 -0.33357040236E+03  0.36113220584E+03  0.12508810555E+03 0.  0.
         23    2    1    2    0    0  0.49800296775E+02  0.31939834913E+02 -0.48565508062E+02  0.12015074403E+03  0.92614092364E+02 0.  0.
          5    1    3    3  502    0 -0.18945585936E+02 -0.68652114049E+02 -0.10113976916E+03  0.12376903205E+03  0.41800000000E+01 0.  1.
         -5    1    3    3    0  502 -0.30854710839E+02  0.36712279135E+02 -0.23243063320E+03  0.23736317378E+03  0.41800000000E+01 0.  1.
        -11    1    4    4    0    0  0.21729832913E+02  0.10891116705E+02  0.27307505170E+02  0.36558198809E+02  0.00000000000E+00 0.  1.
         11    1    4    4    0    0  0.28070463862E+02  0.21048718209E+02 -0.75873013232E+02  0.83592545221E+02  0.00000000000E+00 0. -1.
</event>
<event>
 8    1  0.3541538E-009  0.8752129E+02  0.7561462E-02  0.1308968E+00
          1   -1    0    0  501    0  0.00000000000E+00  0.00000000000E+00  0.21739844681E+03  0.21739844681E+03  0.00000000000E+00 0. -1.
         -1   -1    0    0    0  501 -0.00000000000E+00 -0.00000000000E+00 -0.60944973472E+02  0.60944973472E+02  0.00000000000E+00 0.  1.
         25    2    1    2    0    0  0.11844170224E+02 -0.31510206085E+02  0.67537678607E+02  0.14608976550E+03  0.12509078341E+03 0.  0.
         23    2    1    2    0    0 -0.11844170224E+02  0.31510206085E+02  0.88915794729E+02  0.13225365478E+03  0.91933852284E+02 0.  0.
          5    1    3    3  502    0 -0.42643836413E+02  0.25120499816E+02  0.16709478890E+02  0.52404345047E+02  0.41800000000E+01 0. -1.
         -5    1    3    3    0  502  0.54488006637E+02 -0.56630705901E+02  0.50828199717E+02  0.93685420449E+02  0.41800000000E+01 0. -1.
        -11    1    4    4    0    0  0.10843810746E+02  0.15459973605E+02 -0.15357530554E+02  0.24340352505E+02  0.00000000000E+00 0.  1.
         11    1    4    4    0    0 -0.22687980970E+02  0.16050232480E+02  0.10427332528E+03  0.10791330228E+03  0.00000000000E+00 0. -1.
</event>
<event>
 8    1  0.3541538E-009  0.1170450E+03  0.7561462E-02  0.1248053E+00
         -2   -1    0    0    0  501 -0.00000000000E+00  0.00000000000E+00  0.29643756837E+02  0.29643756837E+02  0.00000000000E+00 0.  1.
          2   -1    0    0  501    0  0.00000000000E+00 -0.00000000000E+00 -0.57150787816E+03  0.57150787816E+03  0.00000000000E+00 0. -1.
         25    2    1    2    0    0 -0.50682845613E+02 -0.38422931372E+02 -0.36907090096E+03  0.39484952052E+03  0.12509093261E+03 0.  0.
         23    2    1    2    0    0  0.50682845613E+02  0.38422931372E+02 -0.17279322036E+03  0.20630211448E+03  0.93048336586E+02 0.  0.
          5    1    3    3  502    0 -0.64652949582E+02  0.16229404745E+02 -0.29023374441E+03  0.29781956998E+03  0.41800000000E+01 0.  1.
         -5    1    3    3    0  502  0.13970103969E+02 -0.54652336117E+02 -0.78837156549E+02  0.97029950535E+02  0.41800000000E+01 0.  1.
        -11    1    4    4    0    0  0.76974049546E+02  0.33681924485E+02 -0.11301321039E+03  0.14082422399E+03  0.00000000000E+00 0.  1.
         11    1    4    4    0    0 -0.26291203933E+02  0.47410068869E+01 -0.59780009966E+02  0.65477890483E+02  0.00000000000E+00 0. -1.
</event>
<event>
 8    1  0.3541538E-009  0.1137281E+03  0.7561462E-02  0.1253818E+00
          1   -1    0    0  501    0  0.00000000000E+00  0.00000000000E+00  0.24111686400E+03  0.24111686400E+03  0.00000000000E+00 0. -1.
         -1   -1    0    0    0  501 -0.00000000000E+00 -0.00000000000E+00 -0.72748266814E+02  0.72748266814E+02  0.00000000000E+00 0.  1.
         25    2    1    2    0    0 -0.69176075187E+02 -0.24394732630E+02  0.11313056676E+03  0.18392202712E+03  0.12509338339E+03 0.  0.
         23    2    1    2    0    0  0.69176075187E+02  0.24394732630E+02  0.55238030427E+02  0.12994310369E+03  0.91943122816E+02 0.  0.
          5    1    3    3  502    0  0.15305503011E+02 -0.32773986148E+02 -0.66826809666E+01  0.37020578269E+02  0.41800000000E+01 0.  1.
         -5    1    3    3    0  502 -0.84481578199E+02  0.83792535183E+01  0.11981324773E+03  0.14690144885E+03  0.41800000000E+01 0.  1.
        -11    1    4    4    0    0  0.84059693558E+02  0.31220939989E+02  0.21156885741E+02  0.92132475215E+02  0.00000000000E+00 0.  1.
         11    1    4    4    0    0 -0.14883618371E+02 -0.68262073595E+01  0.34081144685E+02  0.37810628477E+02  0.00000000000E+00 0. -1.
</event>
<event>
 8    1  0.3541538E-009  0.1297570E+03  0.7561462E-02  0.1227817E+00
          1   -1    0    0  501    0  0.00000000000E+00  0.00000000000E+00  0.12649936682E+04  0.12649936682E+04  0.00000000000E+00 0. -1.
         -1   -1    0    0    0  501 -0.00000000000E+00 -0.00000000000E+00 -0.13656684708E+02  0.13656684708E+02  0.00000000000E+00 0.  1.
         25    2    1    2    0    0 -0.22187368945E+02 -0.71348484874E+02  0.67169917901E+03  0.68732068960E+03  0.12508819945E+03 0.  0.
         23    2    1    2    0    0  0.22187368945E+02  0.71348484874E+02  0.57963780448E+03  0.59132966330E+03  0.90043881979E+02 0.  0.
          5    1    3    3  502    0  0.15175687926E+02  0.30323823489E+02  0.22946808473E+03  0.23199765104E+03  0.41800000000E+01 0.  1.
         -5    1    3    3    0  502 -0.37363056871E+02 -0.10167230836E+03  0.44223109427E+03  0.45532303857E+03  0.41800000000E+01 0.  1.
        -11    1    4    4    0    0  0.45479953157E+01  0.90670526191E+02  0.45771689097E+03  0.46663324020E+03  0.00000000000E+00 0. -1.
         11    1    4    4    0    0  0.17639373629E+02 -0.19322041317E+02  0.12192091351E+03  0.12469642310E+03  0.00000000000E+00 0.  1.
</event>
<event>
 8    1  0.3541538E-009  0.1128325E+03  0.7561462E-02  0.1255413E+00
          1   -1    0    0  501    0  0.00000000000E+00  0.00000000000E+00  0.25033325824E+03  0.25033325824E+03  0.00000000000E+00 0. -1.
         -1   -1    0    0    0  501 -0.00000000000E+00 -0.00000000000E+00 -0.70785037651E+02  0.70785037651E+02  0.00000000000E+00 0.  1.
         25    2    1    2    0    0  0.39990013754E+02 -0.21953485368E+02  0.23372916027E+02  0.13518192658E+03  0.12508678327E+03 0.  0.
         23    2    1    2    0    0 -0.39990013754E+02  0.21953485368E+02  0.15617530457E+03  0.18593636932E+03  0.90002505293E+02 0.  0.
          5    1    3    3  502    0  0.80559586821E+02 -0.37214975556E+02  0.22426286358E+02  0.91625390336E+02  0.41800000000E+01 0.  1.
         -5    1    3    3    0  502 -0.40569573067E+02  0.15261490188E+02  0.94662966943E+00  0.43556536241E+02  0.41800000000E+01 0.  1.
        -11    1    4    4    0    0 -0.11240412059E+02  0.51111156735E+02  0.51008831364E+02  0.73079395750E+02  0.00000000000E+00 0.  1.
         11    1    4    4    0    0 -0.28749601696E+02 -0.29157671367E+02  0.10516647320E+03  0.11285697357E+03  0.00000000000E+00 0. -1.
</event>
<event>
 8    1  0.3541538E-009  0.9787229E+02  0.7561462E-02  0.1284835E+00
         -2   -1    0    0    0  501 -0.00000000000E+00  0.00000000000E+00  0.21775147298E+02  0.21775147298E+02  0.00000000000E+00 0.  1.
          2   -1    0    0  501    0  0.00000000000E+00 -0.00000000000E+00 -0.75516218579E+03  0.75516218579E+03  0.00000000000E+00 0. -1.
         25    2    1    2    0    0 -0.18228885469E+02  0.16732137395E+02 -0.60294210038E+03  0.61627894987E+03  0.12509320910E+03 0.  0.
         23    2    1    2    0    0  0.18228885469E+02 -0.16732137395E+02 -0.13044493811E+03  0.16065838321E+03  0.90459811686E+02 0.  0.
          5    1    3    3  502    0 -0.51310590767E+02  0.38059552353E+02 -0.17209925641E+03  0.18362171088E+03  0.41800000000E+01 0.  1.
         -5    1    3    3    0  502  0.33081705297E+02 -0.21327414958E+02 -0.43084284397E+03  0.43265723900E+03  0.41800000000E+01 0.  1.
        -11    1    4    4    0    0 -0.78726254723E+01 -0.49571075982E+02 -0.55947359088E+02  0.75162336278E+02  0.00000000000E+00 0.  1.
         11    1    4    4    0    0  0.26101510942E+02  0.32838938587E+02 -0.74497579027E+02  0.85496046937E+02  0.00000000000E+00 0. -1.
</event>
<event>
 8    1  0.3541538E-009  0.2379207E+03  0.7561462E-02  0.1121186E+00
         -1   -1    0    0    0  501 -0.00000000000E+00  0.00000000000E+00  0.18446828658E+03  0.18446828658E+03  0.00000000000E+00 0.  1.
          1   -1    0    0  501    0  0.00000000000E+00 -0.00000000000E+00 -0.36942987647E+03  0.36942987647E+03  0.00000000000E+00 0. -1.
         25    2    1    2    0    0 -0.31511956199E+02 -0.21990131223E+03 -0.18293832076E+03  0.31378862796E+03  0.12508910155E+03 0.  0.
         23    2    1    2    0    0  0.31511956199E+02  0.21990131223E+03 -0.20232691313E+01  0.24010953508E+03  0.91098324439E+02 0.  0.
          5    1    3    3  502    0 -0.39966973217E+01 -0.21691002564E+03 -0.12747193418E+03  0.25165949062E+03  0.41800000000E+01 0.  1.
         -5    1    3    3    0  502 -0.27515258877E+02 -0.29912865884E+01 -0.55466386574E+02  0.62129137336E+02  0.41800000000E+01 0.  1.
        -11    1    4    4    0    0 -0.19010245089E+02  0.46051063801E+02 -0.28099777679E+02  0.57198666079E+02  0.00000000000E+00 0. -1.
         11    1    4    4    0    0  0.50522201287E+02  0.17385024843E+03  0.26076508548E+02  0.18291086901E+03  0.00000000000E+00 0.  1.
</event>
<event>
 8    1  0.3541538E-009  0.2348832E+03  0.7561462E-02  0.1123249E+00
          1   -1    0    0  501    0  0.00000000000E+00  0.00000000000E+00  0.42812925723E+03  0.42812925723E+03  0.00000000000E+00 0. -1.
         -1   -1    0    0    0  501 -0.00000000000E+00 -0.00000000000E+00 -0.15042190258E+03  0.15042190258E+03  0.00000000000E+00 0.  1.
         25    2    1    2    0    0 -0.18802701496E+03  0.12280295135E+03  0.18786553822E+03  0.31839601217E+03  0.12509131424E+03 0.  0.
         23    2    1    2    0    0  0.18802701496E+03 -0.12280295135E+03  0.89841816434E+02  0.26015514765E+03  0.95783222185E+02 0.  0.
          5    1    3    3  502    0 -0.35096196389E+02  0.56590271245E+02 -0.67944400826E+00  0.66724327233E+02  0.41800000000E+01 0.  1.
         -5    1    3    3    0  502 -0.15293081857E+03  0.66212680108E+02  0.18854498222E+03  0.25167168493E+03  0.41800000000E+01 0.  1.
        -11    1    4    4    0    0  0.13320219622E+03 -0.43873138800E+02  0.84873596036E+02  0.16392438711E+03  0.00000000000E+00 0. -1.
         11    1    4    4    0    0  0.54824818739E+02 -0.78929812553E+02  0.49682203982E+01  0.96230760536E+02  0.00000000000E+00 0.  1.
</event>
<event>
 8    1  0.3541538E-009  0.1401205E+03  0.7561462E-02  0.1213167E+00
         -2   -1    0    0    0  501 -0.00000000000E+00  0.00000000000E+00  0.80968326406E+03  0.80968326406E+03  0.00000000000E+00 0.  1.
          2   -1    0    0  501    0  0.00000000000E+00 -0.00000000000E+00 -0.41035125125E+02  0.41035125125E+02  0.00000000000E+00 0. -1.
         25    2    1    2    0    0 -0.10201935918E+03  0.51631767432E+02  0.62124716487E+03  0.64394530537E+03  0.12507488717E+03 0.  0.
         23    2    1    2    0    0  0.10201935918E+03 -0.51631767432E+02  0.14740097407E+03  0.20677308382E+03  0.89186725341E+02 0.  0.
          5    1    3    3  502    0 -0.53547566910E+02 -0.22232960944E+02  0.42152989149E+03  0.42551917501E+03  0.41800000000E+01 0. -1.
         -5    1    3    3    0  502 -0.48471792273E+02  0.73864728376E+02  0.19971727337E+03  0.21842613037E+03  0.41800000000E+01 0. -1.
        -11    1    4    4    0    0  0.23060452389E+02 -0.49576762869E+02  0.22788049829E+02  0.59236265041E+02  0.00000000000E+00 0. -1.
         11    1    4    4    0    0  0.78958906793E+02 -0.20550045629E+01  0.12461292424E+03  0.14753681878E+03  0.00000000000E+00 0.  1.
</event>
<event>
 8    1  0.3541538E-009  0.8425350E+02  0.7561462E-02  0.1317396E+00
          1   -1    0    0  501    0  0.00000000000E+00  0.00000000000E+00  0.62818624324E+03  0.62818624324E+03  0.00000000000E+00 0. -1.
         -1   -1    0    0    0  501 -0.00000000000E+00 -0.00000000000E+00 -0.36688259962E+02  0.36688259962E+02  0.00000000000E+00 0.  1.
         25    2    1    2    0    0 -0.30283580100E+02 -0.24162265042E+02  0.54638784131E+03  0.56186103952E+03  0.12508894564E+03 0.  0.
         23    2    1    2    0    0  0.30283580100E+02  0.24162265042E+02  0.45110141960E+02  0.10301346367E+03  0.84118597914E+02 0.  0.
          5    1    3    3  502    0 -0.56423191716E+02  0.34966951004E+01  0.49253415191E+03  0.49578540381E+03  0.41800000000E+01 0. -1.
         -5    1    3    3    0  502  0.26139611616E+02 -0.27658960142E+02  0.53853689407E+02  0.66075635709E+02  0.41800000000E+01 0. -1.
        -11    1    4    4    0    0  0.47412543498E+02  0.47545744118E+01 -0.36691230489E+01  0.47791397999E+02  0.00000000000E+00 0.  1.
         11    1    4    4    0    0 -0.17128963398E+02  0.19407690630E+02  0.48779265009E+02  0.55222065676E+02  0.00000000000E+00 0. -1.
</event>
<event>
 8    1  0.3541538E-009  0.1043109E+03  0.7561462E-02  0.1271483E+00
          2   -1    0    0  501    0  0.00000000000E+00  0.00000000000E+00  0.67210410862E+02  0.67210410862E+02  0.00000000000E+00 0. -1.
         -2   -1    0    0    0  501 -0.00000000000E+00 -0.00000000000E+00 -0.29839229838E+03  0.29839229838E+03  0.00000000000E+00 0.  1.
         25    2    1    2    0    0 -0.71232346606E+02  0.24051078815E+02 -0.19143499386E+03  0.24072030696E+03  0.12508560154E+03 0.  0.
         23    2    1    2    0    0  0.71232346606E+02 -0.24051078815E+02 -0.39746893661E+02  0.12488240229E+03  0.91451064782E+02 0.  0.
          5    1    3    3  502    0  0.19221925908E+02  0.12492493666E+02 -0.12666544583E+03  0.12879111926E+03  0.41800000000E+01 0. -1.
         -5    1    3    3    0  502 -0.90454272514E+02  0.11558585149E+02 -0.64769548032E+02  0.11192918770E+03  0.41800000000E+01 0. -1.
        -11    1    4    4    0    0  0.32903020662E+02  0.17695723521E+02 -0.54726148386E+02  0.66262347656E+02  0.00000000000E+00 0.  1.
         11    1    4    4    0    0  0.38329325944E+02 -0.41746802336E+02  0.14979254726E+02  0.58620054630E+02  0.00000000000E+00 0. -1.
</event>
<event>
 8    1  0.3541538E-009  0.5813237E+02  0.7561462E-02  0.1405841E+00
         -2   -1    0    0    0  501 -0.00000000000E+00  0.00000000000E+00  0.27820042915E+02  0.27820042915E+02  0.00000000000E+00 0.  1.
          2   -1    0    0  501    0  0.00000000000E+00 -0.00000000000E+00 -0.47068219723E+03  0.47068219723E+03  0.00000000000E+00 0. -1.
         25    2    1    2    0    0 -0.14450446073E+02  0.27113245078E+02 -0.27716113890E+03  0.30563004301E+03  0.12508989898E+03 0.  0.
         23    2    1    2    0    0  0.14450446073E+02 -0.27113245078E+02 -0.16570101541E+03  0.19287219713E+03  0.93802529102E+02 0.  0.
          5    1    3    3  502    0 -0.19450650599E+02  0.21998656098E+02 -0.28936429507E+03  0.29088045026E+03  0.41800000000E+01 0.  1.
         -5    1    3    3    0  502  0.50002045264E+01  0.51145889798E+01  0.12203156177E+02  0.14749592754E+02  0.41800000000E+01 0.  1.
        -11    1    4    4    0    0  0.29632685722E+02 -0.45609505637E+02 -0.15896557938E+03  0.16801303073E+03  0.00000000000E+00 0. -1.
         11    1    4    4    0    0 -0.15182239649E+02  0.18496260559E+02 -0.67354360323E+01  0.24859166398E+02  0.00000000000E+00 0.  1.
</event>
<event>
 8    1  0.3541538E-009  0.1204157E+03  0.7561462E-02  0.1242413E+00
          3   -1    0    0  501    0  0.00000000000E+00  0.00000000000E+00  0.36535165185E+02  0.36535165185E+02  0.00000000000E+00 0. -1.
         -3   -1    0    0    0  501 -0.00000000000E+00 -0.00000000000E+00 -0.44894487652E+03  0.44894487652E+03  0.00000000000E+00 0.  1.
         25    2    1    2    0    0 -0.21578357866E+02 -0.48220667486E+02 -0.28694098685E+03  0.31745636675E+03  0.12511017766E+03 0.  0.
         23    2    1    2    0    0  0.21578357866E+02  0.48220667486E+02 -0.12546872448E+03  0.16802367495E+03  0.98481958858E+02 0.  0.
          5    1    3    3  502    0  0.34868243387E+02 -0.61728512625E+02 -0.10771264928E+03  0.12901818043E+03  0.41800000000E+01 0.  1.
         -5    1    3    3    0  502 -0.56446601253E+02  0.13507845139E+02 -0.17922833758E+03  0.18843818632E+03  0.41800000000E+01 0.  1.
        -11    1    4    4    0    0  0.19570253071E+02  0.78689683510E+02 -0.87398136567E+02  0.11922036475E+03  0.00000000000E+00 0. -1.
         11    1    4    4    0    0  0.20081047954E+01 -0.30469016024E+02 -0.38070587915E+02  0.48803310201E+02  0.00000000000E+00 0.  1.
</event>
<event>
 8    1  0.3541538E-009  0.1059637E+03  0.7561462E-02  0.1268232E+00
          1   -1    0    0  501    0  0.00000000000E+00  0.00000000000E+00  0.40486076965E+03  0.40486076965E+03  0.00000000000E+00 0. -1.
         -1   -1    0    0    0  501 -0.00000000000E+00 -0.00000000000E+00 -0.39134273555E+02  0.39134273555E+02  0.00000000000E+00 0.  1.
         25    2    1    2    0    0  0.16856420557E+02  0.23267804219E+02  0.30230945819E+03  0.32842769627E+03  0.12509281971E+03 0.  0.
         23    2    1    2    0    0 -0.16856420557E+02 -0.23267804219E+02  0.63417037909E+02  0.11556734693E+03  0.92241863344E+02 0.  0.
          5    1    3    3  502    0  0.64641217050E+02 -0.11639131797E+01  0.22557546482E+03  0.23469470459E+03  0.41800000000E+01 0. -1.
         -5    1    3    3    0  502 -0.47784796494E+02  0.24431717399E+02  0.76733993369E+02  0.93732991680E+02  0.41800000000E+01 0. -1.
        -11    1    4    4    0    0  0.23218975734E+02 -0.42826834804E+02  0.18048088372E+02  0.51951824871E+02  0.00000000000E+00 0.  1.
         11    1    4    4    0    0 -0.40075396291E+02  0.19559030585E+02  0.45368949537E+02  0.63615522064E+02  0.00000000000E+00 0. -1.
</event>
<event>
 8    1  0.3541538E-009  0.8763346E+02  0.7561462E-02  0.1308686E+00
          2   -1    0    0  501    0  0.00000000000E+00  0.00000000000E+00  0.27170028667E+03  0.27170028667E+03  0.00000000000E+00 0. -1.
         -2   -1    0    0    0  501 -0.00000000000E+00 -0.00000000000E+00 -0.63688622632E+02  0.63688622632E+02  0.00000000000E+00 0.  1.
         25    2    1    2    0    0 -0.52391612506E+02 -0.26764872928E+02  0.16980598060E+03  0.21896350040E+03  0.12509877687E+03 0.  0.
         23    2    1    2    0    0  0.52391612506E+02  0.26764872928E+02  0.38205683436E+02  0.11642540891E+03  0.92919115946E+02 0.  0.
          5    1    3    3  502    0 -0.70390574084E+01 -0.48225143857E+02  0.80751274634E+01  0.49577141031E+02  0.41800000000E+01 0. -1.
         -5    1    3    3    0  502 -0.45352555098E+02  0.21460270929E+02  0.16173085314E+03  0.16938635937E+03  0.41800000000E+01 0. -1.
        -11    1    4    4    0    0  0.31158876619E+02  0.40212307270E+02  0.63098568183E+02  0.81051431541E+02  0.00000000000E+00 0. -1.
         11    1    4    4    0    0  0.21232735888E+02 -0.13447434342E+02 -0.24892884746E+02  0.35373977365E+02  0.00000000000E+00 0.  1.
</event>
<event>
 8    1  0.3541538E-009  0.8260493E+02  0.7561462E-02  0.1321817E+00
         -2   -1    0    0    0  501 -0.00000000000E+00  0.00000000000E+00  0.50606134161E+02  0.50606134161E+02  0.00000000000E+00 0.  1.
          2   -1    0    0  501    0  0.00000000000E+00 -0.00000000000E+00 -0.25343981928E+03  0.25343981928E+03  0.00000000000E+00 0. -1.
         25    2    1    2    0    0  0.15544210805E+02  0.31101770641E+02 -0.12634343497E+03  0.18115416817E+03  0.12508087967E+03 0.  0.
         23    2    1    2    0    0 -0.15544210805E+02 -0.31101770641E+02 -0.76490250156E+02  0.12289178527E+03  0.89681045333E+02 0.  0.
          5    1    3    3  502    0 -0.33160870075E+02  0.58709969150E+02 -0.95850961140E+02  0.11726629069E+03  0.41800000000E+01 0. -1.
         -5    1    3    3    0  502  0.48705080880E+02 -0.27608198509E+02 -0.30492473826E+02  0.63887877476E+02  0.41800000000E+01 0. -1.
        -11    1    4    4    0    0 -0.16070185794E+02 -0.72098405935E+01  0.18143794681E+02  0.25286952332E+02  0.00000000000E+00 0.  1.
         11    1    4    4    0    0  0.52597498905E+00 -0.23891930048E+02 -0.94634044837E+02  0.97604832940E+02  0.00000000000E+00 0. -1.
</event>
<event>
 8    1  0.3541538E-009  0.1813585E+03  0.7561462E-02  0.1166495E+00
          1   -1    0    0  501    0  0.00000000000E+00  0.00000000000E+00  0.17875352581E+03  0.17875352581E+03  0.00000000000E+00 0. -1.
         -1   -1    0    0    0  501 -0.00000000000E+00 -0.00000000000E+00 -0.21851969832E+03  0.21851969832E+03  0.00000000000E+00 0.  1.
         25    2    1    2    0    0  0.61972432462E+02 -0.13818683820E+03 -0.86431670979E+02  0.21460172769E+03  0.12508910081E+03 0.  0.
         23    2    1    2    0    0 -0.61972432462E+02  0.13818683820E+03  0.46665498473E+02  0.18267149644E+03  0.90857152856E+02 0.  0.
          5    1    3    3  502    0  0.67947699715E+02 -0.15829606592E+03 -0.64565688445E+02  0.18401286615E+03  0.41800000000E+01 0.  1.
         -5    1    3    3    0  502 -0.59752672535E+01  0.20109227720E+02 -0.21865982534E+02  0.30588861542E+02  0.41800000000E+01 0.  1.
        -11    1    4    4    0    0 -0.79501780263E+02  0.11791803340E+03  0.57984113051E+02  0.15358174707E+03  0.00000000000E+00 0. -1.
         11    1    4    4    0    0  0.17529347801E+02  0.20268804803E+02 -0.11318614577E+02  0.29089749370E+02  0.00000000000E+00 0.  1.
</event>
<event>
 8    1  0.3541538E-009  0.1950389E+03  0.7561462E-02  0.1153993E+00
          3   -1    0    0  501    0  0.00000000000E+00  0.00000000000E+00  0.76362300390E+02  0.76362300390E+02  0.00000000000E+00 0.  1.
         -3   -1    0    0    0  501 -0.00000000000E+00 -0.00000000000E+00 -0.72875162062E+03  0.72875162062E+03  0.00000000000E+00 0. -1.
         25    2    1    2    0    0  0.87000614879E+02 -0.14242265805E+03 -0.55240731546E+03  0.59047048226E+03  0.12509287643E+03 0.  0.
         23    2    1    2    0    0 -0.87000614879E+02  0.14242265805E+03 -0.99982004774E+02  0.21464343875E+03  0.90675707910E+02 0.  0.
          5    1    3    3  502    0 -0.29029490195E+02 -0.53486954823E+02 -0.13379011370E+03  0.14704024130E+03  0.41800000000E+01 0. -1.
         -5    1    3    3    0  502  0.11603010507E+03 -0.88935703227E+02 -0.41861720176E+03  0.44343024096E+03  0.41800000000E+01 0. -1.
        -11    1    4    4    0    0 -0.58450493981E+02  0.27846858194E+02 -0.64399698050E+02  0.91319378376E+02  0.00000000000E+00 0.  1.
         11    1    4    4    0    0 -0.28550120898E+02  0.11457579986E+03 -0.35582306724E+02  0.12332406038E+03  0.00000000000E+00 0. -1.
</event>
<event>
 8    1  0.3541538E-009  0.1011110E+03  0.7561462E-02  0.1277977E+00
          3   -1    0    0  501    0  0.00000000000E+00  0.00000000000E+00  0.36651895489E+03  0.36651895489E+03  0.00000000000E+00 0. -1.
         -3   -1    0    0    0  501 -0.00000000000E+00 -0.00000000000E+00 -0.46028584730E+02  0.46028584730E+02  0.00000000000E+00 0.  1.
         25    2    1    2    0    0  0.66052698168E+02  0.24662263419E+02  0.19841739540E+03  0.24492338005E+03  0.12508722207E+03 0.  0.
         23    2    1    2    0    0 -0.66052698168E+02 -0.24662263419E+02  0.12207297476E+03  0.16762415957E+03  0.90691022331E+02 0.  0.
          5    1    3    3  502    0 -0.16502026427E+02  0.33556544242E+02  0.99308057661E+01  0.38915958690E+02  0.41800000000E+01 0. -1.
         -5    1    3    3    0  502  0.82554724595E+02 -0.88942808221E+01  0.18848658963E+03  0.20600742136E+03  0.41800000000E+01 0. -1.
        -11    1    4    4    0    0 -0.19197173441E+01 -0.16724652627E+02  0.96772123126E+02  0.98225470905E+02  0.00000000000E+00 0. -1.
         11    1    4    4    0    0 -0.64132980824E+02 -0.79376107925E+01  0.25300851632E+02  0.69398688661E+02  0.00000000000E+00 0.  1.
</event>
<event>
 8    1  0.3541538E-009  0.2485964E+03  0.7561462E-02  0.1114195E+00
          1   -1    0    0  501    0  0.00000000000E+00  0.00000000000E+00  0.42903888634E+03  0.42903888634E+03  0.00000000000E+00 0. -1.
         -1   -1    0    0    0  501 -0.00000000000E+00 -0.00000000000E+00 -0.21221051352E+03  0.21221051352E+03  0.00000000000E+00 0.  1.
         25    2    1    2    0    0 -0.14951123224E+03  0.17571017163E+03 -0.60431658079E+02  0.26931020556E+03  0.12509327937E+03 0.  0.
         23    2    1    2    0    0  0.14951123224E+03 -0.17571017163E+03  0.27726003090E+03  0.37193919429E+03  0.90763244403E+02 0.  0.
          5    1    3    3  502    0 -0.13018181246E+03  0.57277403492E+02 -0.29394085479E+02  0.14529105240E+03  0.41800000000E+01 0. -1.
         -5    1    3    3    0  502 -0.19329419775E+02  0.11843276814E+03 -0.31037572600E+02  0.12401915316E+03  0.41800000000E+01 0. -1.
        -11    1    4    4    0    0  0.63176043542E+02 -0.10797153610E+03  0.20627738592E+03  0.24124556997E+03  0.00000000000E+00 0.  1.
         11    1    4    4    0    0  0.86335188696E+02 -0.67738635528E+02  0.70982644976E+02  0.13069362432E+03  0.00000000000E+00 0. -1.
</event>
<event>
 8    1  0.3541538E-009  0.1236179E+03  0.7561462E-02  0.1237245E+00
         -2   -1    0    0    0  501 -0.00000000000E+00  0.00000000000E+00  0.11247985971E+03  0.11247985971E+03  0.00000000000E+00 0.  1.
          2   -1    0    0  501    0  0.00000000000E+00 -0.00000000000E+00 -0.24587749410E+03  0.24587749410E+03  0.00000000000E+00 0. -1.
         25    2    1    2    0    0  0.10209251769E+03  0.27015425619E+02  0.27281156302E+01  0.16373200378E+03  0.12509201037E+03 0.  0.
         23    2    1    2    0    0 -0.10209251769E+03 -0.27015425619E+02 -0.13612575002E+03  0.19462535002E+03  0.90532268627E+02 0.  0.
          5    1    3    3  502    0  0.25395164032E+02 -0.34431559769E+01  0.58525594122E+02  0.64027238318E+02  0.41800000000E+01 0. -1.
         -5    1    3    3    0  502  0.76697353653E+02  0.30458581596E+02 -0.55797478491E+02  0.99704765464E+02  0.41800000000E+01 0. -1.
        -11    1    4    4    0    0 -0.80857362188E+02  0.23199262072E+02 -0.90226121421E+02  0.12335668513E+03  0.00000000000E+00 0. -1.
         11    1    4    4    0    0 -0.21235155497E+02 -0.50214687691E+02 -0.45899628599E+02  0.71268664885E+02  0.00000000000E+00 0.  1.
</event>
<event>
 8    1  0.3541538E-009  0.1211068E+03  0.7561462E-02  0.1241282E+00
          2   -1    0    0  501    0  0.00000000000E+00  0.00000000000E+00  0.60261096361E+03  0.60261096361E+03  0.00000000000E+00 0.  1.
         -2   -1    0    0    0  501 -0.00000000000E+00 -0.00000000000E+00 -0.37725054054E+02  0.37725054054E+02  0.00000000000E+00 0. -1.
         25    2    1    2    0    0  0.83923814583E+02 -0.58955922327E+02  0.25858063752E+03  0.30500066378E+03  0.12506978602E+03 0.  0.
         23    2    1    2    0    0 -0.83923814583E+02  0.58955922327E+02  0.30630527204E+03  0.33533535389E+03  0.90043725246E+02 0.  0.
          5    1    3    3  502    0  0.29283907320E+02 -0.73381982535E+01  0.21674080334E+03  0.21887312446E+03  0.41800000000E+01 0.  1.
         -5    1    3    3    0  502  0.54639907264E+02 -0.51617724073E+02  0.41839834184E+02  0.86127539317E+02  0.41800000000E+01 0.  1.
        -11    1    4    4    0    0  0.32070956698E+01 -0.19164137501E+02  0.41369919612E+02  0.45705796980E+02  0.00000000000E+00 0. -1.
         11    1    4    4    0    0 -0.87130910253E+02  0.78120059828E+02  0.26493535243E+03  0.28962955691E+03  0.00000000000E+00 0.  1.
</event>
<event>
 8    1  0.3541538E-009  0.1069298E+03  0.7561462E-02  0.1266363E+00
         -1   -1    0    0    0  501 -0.00000000000E+00  0.00000000000E+00  0.33206506351E+02  0.33206506351E+02  0.00000000000E+00 0.  1.
          1   -1    0    0  501    0  0.00000000000E+00 -0.00000000000E+00 -0.37099077837E+03  0.37099077837E+03  0.00000000000E+00 0. -1.
         25    2    1    2    0    0 -0.20730982737E+02 -0.80936441282E+00 -0.15976510925E+03  0.20396814398E+03  0.12509070673E+03 0.  0.
         23    2    1    2    0    0  0.20730982737E+02  0.80936441282E+00 -0.17801916276E+03  0.20022914074E+03  0.89277420282E+02 0.  0.
          5    1    3    3  502    0 -0.48220252149E+02 -0.49672557494E+02 -0.74013163874E+02  0.10142966288E+03  0.41800000000E+01 0.  1.
         -5    1    3    3    0  502  0.27489269412E+02  0.48863193081E+02 -0.85751945377E+02  0.10253848110E+03  0.41800000000E+01 0.  1.
        -11    1    4    4    0    0  0.17375518952E+02  0.42783225570E+02 -0.11969348113E+03  0.12829202030E+03  0.00000000000E+00 0. -1.
         11    1    4    4    0    0  0.33554637852E+01 -0.41973861158E+02 -0.58325681639E+02  0.71937120434E+02  0.00000000000E+00 0.  1.
</event>
<event>
 8    1  0.3541538E-009  0.1955534E+03  0.7561462E-02  0.1153546E+00
          2   -1    0    0  501    0  0.00000000000E+00  0.00000000000E+00  0.10854336041E+04  0.10854336041E+04  0.00000000000E+00 0. -1.
         -2   -1    0    0    0  501 -0.00000000000E+00 -0.00000000000E+00 -0.38402159286E+02  0.38402159286E+02  0.00000000000E+00 0.  1.
         25    2    1    2    0    0 -0.10523236782E+03  0.13665324137E+03  0.53338977751E+03  0.57436873298E+03  0.12508727774E+03 0.  0.
         23    2    1    2    0    0  0.10523236782E+03 -0.13665324137E+03  0.51364166725E+03  0.54946703036E+03  0.91314267798E+02 0.  0.
          5    1    3    3  502    0 -0.55648888199E+02  0.14229769697E+03  0.46587599182E+03  0.49030943850E+03  0.41800000000E+01 0. -1.
         -5    1    3    3    0  502 -0.49583479618E+02 -0.56444556055E+01  0.67513785693E+02  0.84059294481E+02  0.41800000000E+01 0. -1.
        -11    1    4    4    0    0  0.91275061436E+02 -0.57659691762E+02  0.36409552193E+03  0.37976482984E+03  0.00000000000E+00 0. -1.
         11    1    4    4    0    0  0.13957306381E+02 -0.78993549608E+02  0.14954614532E+03  0.16970220052E+03  0.00000000000E+00 0.  1.
</event>
<event>
 8    1  0.3541538E-009  0.1112382E+03  0.7561462E-02  0.1258294E+00
          2   -1    0    0  501    0  0.00000000000E+00  0.00000000000E+00  0.15285732398E+03  0.15285732398E+03  0.00000000000E+00 0.  1.
         -2   -1    0    0    0  501 -0.00000000000E+00 -0.00000000000E+00 -0.11041908537E+03  0.11041908537E+03  0.00000000000E+00 0. -1.
         25    2    1    2    0    0  0.64547311023E+02  0.31017472479E+02  0.24612636095E+02  0.14622260582E+03  0.12508728807E+03 0.  0.
         23    2    1    2    0    0 -0.64547311023E+02 -0.31017472479E+02  0.17825602520E+02  0.11705380353E+03  0.90859241996E+02 0.  0.
          5    1    3    3  502    0  0.88648022415E+02  0.59297399035E+02  0.19039350126E+02  0.10841873760E+03  0.41800000000E+01 0.  1.
         -5    1    3    3    0  502 -0.24100711392E+02 -0.28279926556E+02  0.55732859698E+01  0.37803868216E+02  0.41800000000E+01 0.  1.
        -11    1    4    4    0    0 -0.43618345627E+02 -0.34706932871E+01  0.52316165647E+02  0.68202543758E+02  0.00000000000E+00 0.  1.
         11    1    4    4    0    0 -0.20928965396E+02 -0.27546779192E+02 -0.34490563126E+02  0.48851259771E+02  0.00000000000E+00 0. -1.
</event>
<event>
 8    1  0.3541538E-009  0.1660950E+03  0.7561462E-02  0.1181982E+00
         -2   -1    0    0    0  501 -0.00000000000E+00  0.00000000000E+00  0.33361389473E+03  0.33361389473E+03  0.00000000000E+00 0. -1.
          2   -1    0    0  501    0  0.00000000000E+00 -0.00000000000E+00 -0.10894950099E+03  0.10894950099E+03  0.00000000000E+00 0.  1.
         25    2    1    2    0    0 -0.14428753048E+03 -0.60076897811E+02  0.10491308579E+03  0.22601511559E+03  0.12509177352E+03 0.  0.
         23    2    1    2    0    0  0.14428753048E+03  0.60076897811E+02  0.11975130796E+03  0.21654828014E+03  0.90136877969E+02 0.  0.
          5    1    3    3  502    0 -0.12240784349E+03 -0.15884357301E+02  0.16376646354E+02  0.12458595387E+03  0.41800000000E+01 0.  1.
         -5    1    3    3    0  502 -0.21879686981E+02 -0.44192540509E+02  0.88536439433E+02  0.10142916172E+03  0.41800000000E+01 0.  1.
        -11    1    4    4    0    0  0.85639653006E+02  0.19362874229E+02  0.13936619283E+02  0.88900508561E+02  0.00000000000E+00 0.  1.
         11    1    4    4    0    0  0.58647877470E+02  0.40714023582E+02  0.10581468868E+03  0.12764777157E+03  0.00000000000E+00 0. -1.
</event>
<event>
 8    1  0.3541538E-009  0.1224883E+03  0.7561462E-02  0.1239048E+00
         -2   -1    0    0    0  501 -0.00000000000E+00  0.00000000000E+00  0.30998602585E+02  0.30998602585E+02  0.00000000000E+00 0.  1.
          2   -1    0    0  501    0  0.00000000000E+00 -0.00000000000E+00 -0.62358421117E+03  0.62358421117E+03  0.00000000000E+00 0. -1.
         25    2    1    2    0    0 -0.99934165971E+01 -0.85393845874E+02 -0.32230503507E+03  0.35626092651E+03  0.12509730150E+03 0.  0.
         23    2    1    2    0    0  0.99934165971E+01  0.85393845874E+02 -0.27028057352E+03  0.29832188724E+03  0.92479093302E+02 0.  0.
          5    1    3    3  502    0  0.17409330611E+02  0.26820183262E+02 -0.41199513469E+02  0.52319015019E+02  0.41800000000E+01 0.  1.
         -5    1    3    3    0  502 -0.27402747208E+02 -0.11221402914E+03 -0.28110552160E+03  0.30394191149E+03  0.41800000000E+01 0.  1.
        -11    1    4    4    0    0 -0.17962142317E+02  0.27407278353E+02 -0.16857568561E+02  0.36850713441E+02  0.00000000000E+00 0.  1.
         11    1    4    4    0    0  0.27955558915E+02  0.57986567521E+02 -0.25342300496E+03  0.26147117380E+03  0.00000000000E+00 0. -1.
</event>
<event>
 8    1  0.3541538E-009  0.1551331E+03  0.7561462E-02  0.1194304E+00
          3   -1    0    0  501    0  0.00000000000E+00  0.00000000000E+00  0.31942262641E+02  0.31942262641E+02  0.00000000000E+00 0. -1.
         -3   -1    0    0    0  501 -0.00000000000E+00 -0.00000000000E+00 -0.91383612475E+03  0.91383612475E+03  0.00000000000E+00 0.  1.
         25    2    1    2    0    0 -0.88697830134E+02  0.89722198089E+02 -0.58794183639E+03  0.61419880876E+03  0.12508875170E+03 0.  0.
         23    2    1    2    0    0  0.88697830134E+02 -0.89722198089E+02 -0.29395202572E+03  0.33157957863E+03  0.87291727227E+02 0.  0.
          5    1    3    3  502    0 -0.10592955545E+03  0.43817580794E+02 -0.50405824108E+03  0.51694606480E+03  0.41800000000E+01 0.  1.
         -5    1    3    3    0  502  0.17231725316E+02  0.45904617295E+02 -0.83883595305E+02  0.97252743960E+02  0.41800000000E+01 0.  1.
        -11    1    4    4    0    0  0.74865648608E+02 -0.23167074430E+02 -0.20611617097E+03  0.22051180153E+03  0.00000000000E+00 0.  1.
         11    1    4    4    0    0  0.13832181526E+02 -0.66555123658E+02 -0.87835854746E+02  0.11106777710E+03  0.00000000000E+00 0. -1.
</event>
<event>
 8    1  0.3541538E-009  0.1052773E+03  0.7561462E-02  0.1269574E+00
         -2   -1    0    0    0  501 -0.00000000000E+00  0.00000000000E+00  0.17777759902E+02  0.17777759902E+02  0.00000000000E+00 0. -1.
          2   -1    0    0  501    0  0.00000000000E+00 -0.00000000000E+00 -0.11197860679E+04  0.11197860679E+04  0.00000000000E+00 0.  1.
         25    2    1    2    0    0 -0.60035953544E+02  0.30349969685E+02 -0.83949368804E+03  0.85142458819E+03  0.12509492690E+03 0.  0.
         23    2    1    2    0    0  0.60035953544E+02 -0.30349969685E+02 -0.26251461999E+03  0.28613923965E+03  0.91849346094E+02 0.  0.
          5    1    3    3  502    0 -0.55032614700E+02  0.74602262053E+02 -0.45717501720E+03  0.46649818320E+03  0.41800000000E+01 0. -1.
         -5    1    3    3    0  502 -0.50033388435E+01 -0.44252292368E+02 -0.38231867084E+03  0.38492640498E+03  0.41800000000E+01 0. -1.
        -11    1    4    4    0    0  0.53095081193E+02 -0.13473133020E+02 -0.26222833044E+03  0.26788861537E+03  0.00000000000E+00 0.  1.
         11    1    4    4    0    0  0.69408723511E+01 -0.16876836665E+02 -0.28628955500E+00  0.18250624278E+02  0.00000000000E+00 0. -1.
</event>
<event>
 8    1  0.3541538E-009  0.1670596E+03  0.7561462E-02  0.1180949E+00
          1   -1    0    0  501    0  0.00000000000E+00  0.00000000000E+00  0.62893664447E+03  0.62893664447E+03  0.00000000000E+00 0. -1.
         -1   -1    0    0    0  501 -0.00000000000E+00 -0.00000000000E+00 -0.51619750424E+02  0.51619750424E+02  0.00000000000E+00 0.  1.
         25    2    1    2    0    0 -0.27201751252E+02  0.13593842517E+03  0.37797029931E+03  0.42157825336E+03  0.12508991100E+03 0.  0.
         23    2    1    2    0    0  0.27201751252E+02 -0.13593842517E+03  0.19934659473E+03  0.25897814153E+03  0.90063434603E+02 0.  0.
          5    1    3    3  502    0  0.41232441464E+02  0.96460541349E+01  0.74279644906E+02  0.85604314359E+02  0.41800000000E+01 0.  1.
         -5    1    3    3    0  502 -0.68434192717E+02  0.12629237103E+03  0.30369065441E+03  0.33597393900E+03  0.41800000000E+01 0.  1.
        -11    1    4    4    0    0  0.25428252585E+02 -0.21182033393E+02  0.10597990490E+03  0.11102709044E+03  0.00000000000E+00 0. -1.
         11    1    4    4    0    0  0.17734986678E+01 -0.11475639177E+03  0.93366689835E+02  0.14795105110E+03  0.00000000000E+00 0.  1.
</event>
<event>
 8    1  0.3541538E-009  0.1430822E+03  0.7561462E-02  0.1209241E+00
         -1   -1    0    0    0  501 -0.00000000000E+00  0.00000000000E+00  0.95785920453E+02  0.95785920453E+02  0.00000000000E+00 0.  1.
          1   -1    0    0  501    0  0.00000000000E+00 -0.00000000000E+00 -0.25050610953E+03  0.25050610953E+03  0.00000000000E+00 0. -1.
         25    2    1    2    0    0  0.75448081438E+02  0.60388546835E+02 -0.26377585432E+02  0.16025727167E+03  0.12508967395E+03 0.  0.
         23    2    1    2    0    0 -0.75448081438E+02 -0.60388546835E+02 -0.12834260365E+03  0.18603475831E+03  0.93797216421E+02 0.  0.
          5    1    3    3  502    0  0.16838238148E+02 -0.35313658473E+02 -0.27409903224E+02  0.47951599905E+02  0.41800000000E+01 0. -1.
         -5    1    3    3    0  502  0.58609843290E+02  0.95702205308E+02  0.10323177918E+01  0.11230567177E+03  0.41800000000E+01 0. -1.
        -11    1    4    4    0    0 -0.55837340504E+02 -0.85830892994E+02 -0.93799714486E+02  0.13886373617E+03  0.00000000000E+00 0. -1.
         11    1    4    4    0    0 -0.19610740934E+02  0.25442346158E+02 -0.34542889163E+02  0.47171022141E+02  0.00000000000E+00 0.  1.
</event>
<event>
 8    1  0.3541538E-009  0.1217638E+03  0.7561462E-02  0.1240215E+00
          2   -1    0    0  501    0  0.00000000000E+00  0.00000000000E+00  0.73963797654E+03  0.73963797654E+03  0.00000000000E+00 0. -1.
         -2   -1    0    0    0  501 -0.00000000000E+00 -0.00000000000E+00 -0.47513805182E+02  0.47513805182E+02  0.00000000000E+00 0.  1.
         25    2    1    2    0    0  0.11624006280E+03  0.24321496685E+02  0.56464916887E+03  0.59040657884E+03  0.12509179441E+03 0.  0.
         23    2    1    2    0    0 -0.11624006280E+03 -0.24321496685E+02  0.12747500249E+03  0.19674520288E+03  0.91408485366E+02 0.  0.
          5    1    3    3  502    0  0.59824677437E+02  0.22331942842E+02  0.79919971018E+02  0.10238350389E+03  0.41800000000E+01 0. -1.
         -5    1    3    3    0  502  0.56415385367E+02  0.19895538433E+01  0.48472919785E+03  0.48802307495E+03  0.41800000000E+01 0. -1.
        -11    1    4    4    0    0 -0.23557868745E+02 -0.18697984478E+02 -0.92544772719E+01  0.31467970270E+02  0.00000000000E+00 0.  1.
         11    1    4    4    0    0 -0.92682194060E+02 -0.56235122066E+01  0.13672947976E+03  0.16527723261E+03  0.00000000000E+00 0. -1.
</event>
<event>
 8    1  0.3541538E-009  0.1268497E+03  0.7561462E-02  0.1232207E+00
          2   -1    0    0  501    0  0.00000000000E+00  0.00000000000E+00  0.76307650909E+03  0.76307650909E+03  0.00000000000E+00 0. -1.
         -2   -1    0    0    0  501 -0.00000000000E+00 -0.00000000000E+00 -0.27901834328E+02  0.27901834328E+02  0.00000000000E+00 0.  1.
         25    2    1    2    0    0  0.72184726150E+02 -0.97406170619E+01  0.22156523905E+03  0.26466422342E+03  0.12510188526E+03 0.  0.
         23    2    1    2    0    0 -0.72184726150E+02  0.97406170619E+01  0.51360943572E+03  0.52631412000E+03  0.88917861767E+02 0.  0.
          5    1    3    3  502    0 -0.33276018918E+02 -0.48328222677E+01  0.88420279714E+02  0.94690378977E+02  0.41800000000E+01 0.  1.
         -5    1    3    3    0  502  0.10546074507E+03 -0.49077947942E+01  0.13314495933E+03  0.16997384445E+03  0.41800000000E+01 0.  1.
        -11    1    4    4    0    0 -0.42493000808E+02 -0.38612633360E+02  0.28900799830E+03  0.29465609387E+03  0.00000000000E+00 0.  1.
         11    1    4    4    0    0 -0.29691725341E+02  0.48353250422E+02  0.22460143742E+03  0.23165802613E+03  0.00000000000E+00 0. -1.
</event>
<event>
 8    1  0.3541538E-009  0.8975620E+02  0.7561462E-02  0.1303443E+00
          1   -1    0    0  501    0  0.00000000000E+00  0.00000000000E+00  0.36991236595E+03  0.36991236595E+03  0.00000000000E+00 0. -1.
         -1   -1    0    0    0  501 -0.00000000000E+00 -0.00000000000E+00 -0.46452792247E+02  0.46452792247E+02  0.00000000000E+00 0.  1.
         25    2    1    2    0    0 -0.23709255937E+02 -0.40426427614E+02  0.26947553539E+03  0.30076363477E+03  0.12508107353E+03 0.  0.
         23    2    1    2    0    0  0.23709255937E+02  0.40426427614E+02  0.53984038313E+02  0.11560152343E+03  0.90846083906E+02 0.  0.
          5    1    3    3  502    0  0.19665382777E+02  0.28430629271E+02  0.24461107103E+02  0.42554037661E+02  0.41800000000E+01 0. -1.
         -5    1    3    3    0  502 -0.43374638715E+02 -0.68857056885E+02  0.24501442829E+03  0.25820959711E+03  0.41800000000E+01 0. -1.
        -11    1    4    4    0    0  0.27715616846E+02  0.57606866891E+01 -0.19417120879E+02  0.34327328930E+02  0.00000000000E+00 0.  1.
         11    1    4    4    0    0 -0.40063609081E+01  0.34665740925E+02  0.73401159192E+02  0.81274194504E+02  0.00000000000E+00 0. -1.
</event>
<event>
 8    1  0.3541538E-009  0.1593038E+03  0.7561462E-02  0.1189485E+00
         -2   -1    0    0    0  501 -0.00000000000E+00  0.00000000000E+00  0.58488364665E+03  0.58488364665E+03  0.00000000000E+00 0.  1.
          2   -1    0    0  501    0  0.00000000000E+00 -0.00000000000E+00 -0.47392280979E+02  0.47392280979E+02  0.00000000000E+00 0. -1.
         25    2    1    2    0    0  0.94736146809E+02  0.81946655828E+02  0.31534378623E+03  0.36163382998E+03  0.12508849489E+03 0.  0.
         23    2    1    2    0    0 -0.94736146809E+02 -0.81946655828E+02  0.22214757944E+03  0.27064209765E+03  0.90594735265E+02 0.  0.
          5    1    3    3  502    0 -0.23608094094E+02  0.33379498253E+02  0.37109178670E+02  0.55372344649E+02  0.41800000000E+01 0.  1.
         -5    1    3    3    0  502  0.11834424090E+03  0.48567157575E+02  0.27823460756E+03  0.30626148533E+03  0.41800000000E+01 0.  1.
        -11    1    4    4    0    0 -0.49171359230E+02 -0.90653445023E+02  0.11853658001E+03  0.15712030570E+03  0.00000000000E+00 0. -1.
         11    1    4    4    0    0 -0.45564787579E+02  0.87067891946E+01  0.10361099943E+03  0.11352179196E+03  0.00000000000E+00 0.  1.
</event>
<event>
 8    1  0.3541538E-009  0.1138838E+03  0.7561462E-02  0.1253542E+00
         -2   -1    0    0    0  501 -0.00000000000E+00  0.00000000000E+00  0.49559455260E+02  0.49559455260E+02  0.00000000000E+00 0.  1.
          2   -1    0    0  501    0  0.00000000000E+00 -0.00000000000E+00 -0.28345909171E+03  0.28345909171E+03  0.00000000000E+00 0. -1.
         25    2    1    2    0    0  0.46203161353E+02 -0.36954929954E+01 -0.11519375384E+03  0.17625816285E+03  0.12509576435E+03 0.  0.
         23    2    1    2    0    0 -0.46203161353E+02  0.36954929954E+01 -0.11870588261E+03  0.15676038413E+03  0.91292621151E+02 0.  0.
          5    1    3    3  502    0 -0.40047654598E+02  0.15274169833E+02 -0.52351914195E+02  0.67788717519E+02  0.41800000000E+01 0. -1.
         -5    1    3    3    0  502  0.86250815951E+02 -0.18969662829E+02 -0.62841839643E+02  0.10846944533E+03  0.41800000000E+01 0. -1.
        -11    1    4    4    0    0 -0.19444307328E+02  0.43890150845E+02 -0.32562181615E+02  0.58006224668E+02  0.00000000000E+00 0.  1.
         11    1    4    4    0    0 -0.26758854025E+02 -0.40194657850E+02 -0.86143701000E+02  0.98754159458E+02  0.00000000000E+00 0. -1.
</event>
<event>
 8    1  0.3541538E-009  0.1781755E+03  0.7561462E-02  0.1169581E+00
         -1   -1    0    0    0  501 -0.00000000000E+00  0.00000000000E+00  0.88628409702E+02  0.88628409702E+02  0.00000000000E+00 0.  1.
          1   -1    0    0  501    0  0.00000000000E+00 -0.00000000000E+00 -0.43221253882E+03  0.43221253882E+03  0.00000000000E+00 0. -1.
         25    2    1    2    0    0 -0.97070749750E+02 -0.11261228456E+03 -0.27223462884E+03  0.33445801157E+03  0.12508481632E+03 0.  0.
         23    2    1    2    0    0  0.97070749750E+02  0.11261228456E+03 -0.71349500286E+02  0.18638293696E+03  0.86853847965E+02 0.  0.
          5    1    3    3  502    0 -0.27722640457E+02  0.26593106926E+02 -0.50543362815E+02  0.63622653627E+02  0.41800000000E+01 0. -1.
         -5    1    3    3    0  502 -0.69348109293E+02 -0.13920539149E+03 -0.22169126602E+03  0.27083535794E+03  0.41800000000E+01 0. -1.
        -11    1    4    4    0    0  0.70145716950E+02  0.31925200880E+02 -0.27689503102E+01  0.77118785931E+02  0.00000000000E+00 0.  1.
         11    1    4    4    0    0  0.26925032800E+02  0.80687083682E+02 -0.68580549975E+02  0.10926415103E+03  0.00000000000E+00 0. -1.
</event>
<event>
 8    1  0.3541538E-009  0.3506946E+03  0.7561462E-02  0.1062330E+00
         -2   -1    0    0    0  501 -0.00000000000E+00  0.00000000000E+00  0.12496838681E+03  0.12496838681E+03  0.00000000000E+00 0.  1.
          2   -1    0    0  501    0  0.00000000000E+00 -0.00000000000E+00 -0.16093671448E+04  0.16093671448E+04  0.00000000000E+00 0. -1.
         25    2    1    2    0    0  0.29886552640E+03 -0.17304654390E+03 -0.12596372395E+04  0.13120965560E+04  0.12508272414E+03 0.  0.
         23    2    1    2    0    0 -0.29886552640E+03  0.17304654390E+03 -0.22476151848E+03  0.42223897562E+03  0.92207934120E+02 0.  0.
          5    1    3    3  502    0  0.15238889653E+01 -0.20420777580E+02 -0.22975153174E+02  0.31058983530E+02  0.41800000000E+01 0.  1.
         -5    1    3    3    0  502  0.29734163743E+03 -0.15262576632E+03 -0.12366620863E+04  0.12810375725E+04  0.41800000000E+01 0.  1.
        -11    1    4    4    0    0 -0.18192359586E+03  0.91233534076E+02 -0.79205966044E+02  0.21838804346E+03  0.00000000000E+00 0.  1.
         11    1    4    4    0    0 -0.11694193054E+03  0.81813009827E+02 -0.14555555244E+03  0.20385093215E+03  0.00000000000E+00 0. -1.
</event>
<event>
 8    1  0.3541538E-009  0.2042349E+03  0.7561462E-02  0.1146214E+00
          4   -1    0    0  501    0  0.00000000000E+00  0.00000000000E+00  0.73296151014E+03  0.73296151014E+03  0.00000000000E+00 0. -1.
         -4   -1    0    0    0  501 -0.00000000000E+00 -0.00000000000E+00 -0.59127987826E+02  0.59127987826E+02  0.00000000000E+00 0.  1.
         25    2    1    2    0    0 -0.15854645669E+03  0.73412023904E+02  0.28918358396E+03  0.36027760379E+03  0.12508597996E+03 0.  0.
         23    2    1    2    0    0  0.15854645669E+03 -0.73412023904E+02  0.38464993836E+03  0.43181189417E+03  0.89328789795E+02 0.  0.
          5    1    3    3  502    0 -0.36090189303E+02 -0.35589453282E+02  0.70816968336E+02  0.87187306147E+02  0.41800000000E+01 0. -1.
         -5    1    3    3    0  502 -0.12245626739E+03  0.10900147719E+03  0.21836661562E+03  0.27309029765E+03  0.41800000000E+01 0. -1.
        -11    1    4    4    0    0  0.14706093979E+03 -0.31815192463E+02  0.32549921884E+03  0.35859290002E+03  0.00000000000E+00 0. -1.
         11    1    4    4    0    0  0.11485516908E+02 -0.41596831442E+02  0.59150719517E+02  0.73218994148E+02  0.00000000000E+00 0.  1.
</event>
<event>
 8    1  0.3541538E-009  0.1124758E+03  0.7561462E-02  0.1256053E+00
         -1   -1    0    0    0  501 -0.00000000000E+00  0.00000000000E+00  0.23121561705E+03  0.23121561705E+03  0.00000000000E+00 0.  1.
          1   -1    0    0  501    0  0.00000000000E+00 -0.00000000000E+00 -0.88526127756E+02  0.88526127756E+02  0.00000000000E+00 0. -1.
         25    2    1    2    0    0 -0.69688200547E+02 -0.39970207976E+02  0.13099187871E+03  0.19814729025E+03  0.12509761598E+03 0.  0.
         23    2    1    2    0    0  0.69688200547E+02  0.39970207976E+02  0.11697610585E+02  0.12159445456E+03  0.90522452821E+02 0.  0.
          5    1    3    3  502    0 -0.53110220881E+02  0.22305219685E+02  0.11926227939E+03  0.13251106397E+03  0.41800000000E+01 0. -1.
         -5    1    3    3    0  502 -0.16577979666E+02 -0.62275427660E+02  0.11729599311E+02  0.65636226278E+02  0.41800000000E+01 0. -1.
        -11    1    4    4    0    0  0.65843940131E+01  0.38951934545E+02  0.36498566483E+02  0.53784317460E+02  0.00000000000E+00 0.  1.
         11    1    4    4    0    0  0.63103806533E+02  0.10182734307E+01 -0.24800955898E+02  0.67810137098E+02  0.00000000000E+00 0. -1.
</event>
<event>
 8    1  0.3541538E-009  0.6102894E+02  0.7561462E-02  0.1393564E+00
          2   -1    0    0  501    0  0.00000000000E+00  0.00000000000E+00  0.53605282762E+02  0.53605282762E+02  0.00000000000E+00 0. -1.
         -2   -1    0    0    0  501 -0.00000000000E+00 -0.00000000000E+00 -0.26424528607E+03  0.26424528607E+03  0.00000000000E+00 0.  1.
         25    2    1    2    0    0 -0.33742003174E+02 -0.18996419897E+02 -0.77594523552E+02  0.15220886622E+03  0.12508893686E+03 0.  0.
         23    2    1    2    0    0  0.33742003174E+02  0.18996419897E+02 -0.13304547976E+03  0.16564170261E+03  0.90756196556E+02 0.  0.
          5    1    3    3  502    0 -0.37216234647E+02 -0.19199831768E+02  0.25343762698E+02  0.49126982086E+02  0.41800000000E+01 0.  1.
         -5    1    3    3    0  502  0.34742314733E+01  0.20341187073E+00 -0.10293828625E+03  0.10308188413E+03  0.41800000000E+01 0.  1.
        -11    1    4    4    0    0  0.41138547401E+02  0.36836820018E+02 -0.34258168579E+02  0.64984255830E+02  0.00000000000E+00 0. -1.
         11    1    4    4    0    0 -0.73965442273E+01 -0.17840400121E+02 -0.98787311178E+02  0.10065744678E+03  0.00000000000E+00 0.  1.
</event>
<event>
 8    1  0.3541538E-009  0.1598379E+03  0.7561462E-02  0.1188880E+00
         -2   -1    0    0    0  501 -0.00000000000E+00  0.00000000000E+00  0.14054906158E+02  0.14054906158E+02  0.00000000000E+00 0.  1.
          2   -1    0    0  501    0  0.00000000000E+00 -0.00000000000E+00 -0.31384779718E+04  0.31384779718E+04  0.00000000000E+00 0. -1.
         25    2    1    2    0    0  0.10983467985E+03 -0.66588764873E+02 -0.25283151204E+04  0.25346640794E+04  0.12508767672E+03 0.  0.
         23    2    1    2    0    0 -0.10983467985E+03  0.66588764873E+02 -0.59610794516E+03  0.61786879847E+03  0.99596432361E+02 0.  0.
          5    1    3    3  502    0 -0.13309085968E+02 -0.23973631971E+02 -0.13603482064E+03  0.13883375536E+03  0.41800000000E+01 0. -1.
         -5    1    3    3    0  502  0.12314376582E+03 -0.42615132903E+02 -0.23922802998E+04  0.23958303241E+04  0.41800000000E+01 0. -1.
        -11    1    4    4    0    0 -0.23676663188E+02  0.71446951769E+02 -0.31159185486E+03  0.32055379472E+03  0.00000000000E+00 0. -1.
         11    1    4    4    0    0 -0.86158016662E+02 -0.48581868953E+01 -0.28451609030E+03  0.29731500375E+03  0.00000000000E+00 0.  1.
</event>
<event>
 8    1  0.3541538E-009  0.9093617E+02  0.7561462E-02  0.1300600E+00
         -2   -1    0    0    0  501 -0.00000000000E+00  0.00000000000E+00  0.13558386516E+02  0.13558386516E+02  0.00000000000E+00 0.  1.
          2   -1    0    0  501    0  0.00000000000E+00 -0.00000000000E+00 -0.85899845414E+03  0.85899845414E+03  0.00000000000E+00 0. -1.
         25    2    1    2    0    0  0.20298793213E+01 -0.94399238838E+01 -0.42056932138E+03  0.43888379898E+03  0.12508877785E+03 0.  0.
         23    2    1    2    0    0 -0.20298793213E+01  0.94399238838E+01 -0.42487074623E+03  0.43367304167E+03  0.86394001497E+02 0.  0.
          5    1    3    3  502    0  0.41377013927E+02  0.20637350315E+02 -0.65113687710E+02  0.79970133405E+02  0.41800000000E+01 0.  1.
         -5    1    3    3    0  502 -0.39347134606E+02 -0.30077274199E+02 -0.35545563367E+03  0.35891366557E+03  0.41800000000E+01 0.  1.
        -11    1    4    4    0    0 -0.43596640968E+02  0.64249992363E+01 -0.25391779946E+03  0.25771340012E+03  0.00000000000E+00 0. -1.
         11    1    4    4    0    0  0.41566761647E+02  0.30149246475E+01 -0.17095294678E+03  0.17595964155E+03  0.00000000000E+00 0.  1.
</event>
<event>
 8    1  0.3541538E-009  0.1457658E+03  0.7561462E-02  0.1205775E+00
          2   -1    0    0  501    0  0.00000000000E+00  0.00000000000E+00  0.21446105192E+03  0.21446105192E+03  0.00000000000E+00 0. -1.
         -2   -1    0    0    0  501 -0.00000000000E+00 -0.00000000000E+00 -0.12704372495E+03  0.12704372495E+03  0.00000000000E+00 0.  1.
         25    2    1    2    0    0  0.10628947320E+03 -0.21341770107E+02 -0.15007743018E+02  0.16620899710E+03  0.12508906867E+03 0.  0.
         23    2    1    2    0    0 -0.10628947320E+03  0.21341770107E+02  0.10242506999E+03  0.17529577977E+03  0.92112931655E+02 0.  0.
          5    1    3    3  502    0  0.30197772033E+01  0.38897568601E+02 -0.24411554911E+02  0.46211863310E+02  0.41800000000E+01 0.  1.
         -5    1    3    3    0  502  0.10326969600E+03 -0.60239338708E+02  0.94038118928E+01  0.11999713379E+03  0.41800000000E+01 0.  1.
        -11    1    4    4    0    0 -0.85725879943E+02  0.48582107975E+02  0.44620756957E+02  0.10816727628E+03  0.00000000000E+00 0.  1.
         11    1    4    4    0    0 -0.20563593255E+02 -0.27240337869E+02  0.57804313034E+02  0.67128503485E+02  0.00000000000E+00 0. -1.
</event>
<event>
 8    1  0.3541538E-009  0.1927457E+03  0.7561462E-02  0.1156008E+00
          1   -1    0    0  501    0  0.00000000000E+00  0.00000000000E+00  0.67952010867E+03  0.67952010867E+03  0.00000000000E+00 0. -1.
         -1   -1    0    0    0  501 -0.00000000000E+00 -0.00000000000E+00 -0.68613531890E+02  0.68613531890E+02  0.00000000000E+00 0.  1.
         25    2    1    2    0    0 -0.10667137572E+03  0.13436580358E+03  0.44268508736E+03  0.49096897226E+03  0.12508994196E+03 0.  0.
         23    2    1    2    0    0  0.10667137572E+03 -0.13436580358E+03  0.16822148941E+03  0.25716466830E+03  0.91663763568E+02 0.  0.
          5    1    3    3  502    0  0.52377925253E+00  0.97039491699E+02  0.17427541067E+03  0.19951523365E+03  0.41800000000E+01 0. -1.
         -5    1    3    3    0  502 -0.10719515497E+03  0.37326311876E+02  0.26840967669E+03  0.29145373861E+03  0.41800000000E+01 0. -1.
        -11    1    4    4    0    0  0.40551217148E+02 -0.77913272891E+02  0.28022087016E+02  0.92196077278E+02  0.00000000000E+00 0.  1.
         11    1    4    4    0    0  0.66120158571E+02 -0.56452530685E+02  0.14019940240E+03  0.16496859102E+03  0.00000000000E+00 0. -1.
</event>
<event>
 8    1  0.3541538E-009  0.9546214E+02  0.7561462E-02  0.1290139E+00
          1   -1    0    0  501    0  0.00000000000E+00  0.00000000000E+00  0.13742276371E+03  0.13742276371E+03  0.00000000000E+00 0. -1.
         -1   -1    0    0    0  501 -0.00000000000E+00 -0.00000000000E+00 -0.11278822589E+03  0.11278822589E+03  0.00000000000E+00 0.  1.
         25    2    1    2    0    0  0.15766812564E+02 -0.38813416685E+02  0.57889792939E+02  0.14406334794E+03  0.12509175192E+03 0.  0.
         23    2    1    2    0    0 -0.15766812564E+02  0.38813416685E+02 -0.33255255122E+02  0.10614764166E+03  0.91686073883E+02 0.  0.
          5    1    3    3  502    0  0.78462339366E+01 -0.64909563915E+02  0.83693657550E+02  0.10628694929E+03  0.41800000000E+01 0.  1.
         -5    1    3    3    0  502  0.79205786271E+01  0.26096147230E+02 -0.25803864611E+02  0.37776398650E+02  0.41800000000E+01 0.  1.
        -11    1    4    4    0    0  0.34038975574E+02  0.33451855897E+02 -0.29065549529E+02  0.55879197296E+02  0.00000000000E+00 0. -1.
         11    1    4    4    0    0 -0.49805788137E+02  0.53615607874E+01 -0.41897055926E+01  0.50268444366E+02  0.00000000000E+00 0.  1.
</event>
<event>
 8    1  0.3541538E-009  0.1220956E+03  0.7561462E-02  0.1239679E+00
          1   -1    0    0  501    0  0.00000000000E+00  0.00000000000E+00  0.19785018092E+03  0.19785018092E+03  0.00000000000E+00 0. -1.
         -1   -1    0    0    0  501 -0.00000000000E+00 -0.00000000000E+00 -0.13224997904E+03  0.13224997904E+03  0.00000000000E+00 0.  1.
         25    2    1    2    0    0 -0.43389819075E+02  0.83443075260E+02  0.10978502284E+03  0.19116884780E+03  0.12508938373E+03 0.  0.
         23    2    1    2    0    0  0.43389819075E+02 -0.83443075260E+02 -0.44184820957E+02  0.13893131215E+03  0.92218153773E+02 0.  0.
          5    1    3    3  502    0  0.38088160218E+02  0.36108454477E+02  0.95070959668E+01  0.53501268277E+02  0.41800000000E+01 0.  1.
         -5    1    3    3    0  502 -0.81477979294E+02  0.47334620783E+02  0.10027792687E+03  0.13766757952E+03  0.41800000000E+01 0.  1.
        -11    1    4    4    0    0  0.39027386117E+02 -0.49684106234E+02 -0.71407410513E+02  0.95344981806E+02  0.00000000000E+00 0.  1.
         11    1    4    4    0    0  0.43624329586E+01 -0.33758969026E+02  0.27222589556E+02  0.43586330347E+02  0.00000000000E+00 0. -1.
</event>
<event>
 8    1  0.3541538E-009  0.1692157E+03  0.7561462E-02  0.1178668E+00
          2   -1    0    0  501    0  0.00000000000E+00  0.00000000000E+00  0.27843545528E+03  0.27843545528E+03  0.00000000000E+00 0. -1.
         -2   -1    0    0    0  501 -0.00000000000E+00 -0.00000000000E+00 -0.16431847030E+03  0.16431847030E+03  0.00000000000E+00 0.  1.
         25    2    1    2    0    0 -0.11368151203E+03  0.62999396140E+02 -0.75588163176E+02  0.19557945139E+03  0.12508133874E+03 0.  0.
         23    2    1    2    0    0  0.11368151203E+03 -0.62999396140E+02  0.18970514816E+03  0.24717447418E+03  0.90635353799E+02 0.  0.
          5    1    3    3  502    0  0.26335669629E+02  0.60214984847E+00 -0.15713054019E+02  0.30956462102E+02  0.41800000000E+01 0. -1.
         -5    1    3    3    0  502 -0.14001718166E+03  0.62397246291E+02 -0.59875109156E+02  0.16462298929E+03  0.41800000000E+01 0. -1.
        -11    1    4    4    0    0  0.50292181658E+02 -0.78430851308E+02  0.11435322978E+03  0.14750377329E+03  0.00000000000E+00 0.  1.
         11    1    4    4    0    0  0.63389330374E+02  0.15431455168E+02  0.75351918373E+02  0.99670700892E+02  0.00000000000E+00 0. -1.
</event>
<event>
 8    1  0.3541538E-009  0.1245512E+03  0.7561462E-02  0.1235772E+00
          2   -1    0    0  501    0  0.00000000000E+00  0.00000000000E+00  0.85249159157E+03  0.85249159157E+03  0.00000000000E+00 0. -1.
         -2   -1    0    0    0  501 -0.00000000000E+00 -0.00000000000E+00 -0.20458951763E+02  0.20458951763E+02  0.00000000000E+00 0.  1.
         25    2    1    2    0    0 -0.68785724087E+02  0.11481798746E+02  0.56073190209E+03  0.57873210888E+03  0.12508908942E+03 0.  0.
         23    2    1    2    0    0  0.68785724087E+02 -0.11481798746E+02  0.27130073772E+03  0.29421843445E+03  0.89983828227E+02 0.  0.
          5    1    3    3  502    0 -0.85208032135E+02  0.45986316936E+02  0.47485394603E+03  0.48464305684E+03  0.41800000000E+01 0. -1.
         -5    1    3    3    0  502  0.16422308048E+02 -0.34504518190E+02  0.85877956058E+02  0.94089052040E+02  0.41800000000E+01 0. -1.
        -11    1    4    4    0    0 -0.29234367569E+00 -0.39282247419E+02  0.87963909560E+02  0.96337063544E+02  0.00000000000E+00 0.  1.
         11    1    4    4    0    0  0.69078067762E+02  0.27800448673E+02  0.18333682816E+03  0.19788137091E+03  0.00000000000E+00 0. -1.
</event>
<event>
 8    1  0.3541538E-009  0.9743804E+02  0.7561462E-02  0.1285778E+00
          1   -1    0    0  501    0  0.00000000000E+00  0.00000000000E+00  0.67788714001E+02  0.67788714001E+02  0.00000000000E+00 0. -1.
         -1   -1    0    0    0  501 -0.00000000000E+00 -0.00000000000E+00 -0.28931853254E+03  0.28931853254E+03  0.00000000000E+00 0.  1.
         25    2    1    2    0    0 -0.10980680381E+02 -0.42963910806E+02 -0.23065784022E+02  0.13470796144E+03  0.12509089299E+03 0.  0.
         23    2    1    2    0    0  0.10980680381E+02  0.42963910806E+02 -0.19846403451E+03  0.22239928510E+03  0.90038858515E+02 0.  0.
          5    1    3    3  502    0  0.10262485383E+02  0.28490761649E+02 -0.47205886007E+02  0.56239756216E+02  0.41800000000E+01 0. -1.
         -5    1    3    3    0  502 -0.21243165764E+02 -0.71454672455E+02  0.24140101986E+02  0.78468205225E+02  0.41800000000E+01 0. -1.
        -11    1    4    4    0    0 -0.26047866010E+02  0.45606462698E+02 -0.63410977284E+02  0.82337068223E+02  0.00000000000E+00 0.  1.
         11    1    4    4    0    0  0.37028546392E+02 -0.26425518924E+01 -0.13505305723E+03  0.14006221687E+03  0.00000000000E+00 0. -1.
</event>
<event>
 8    1  0.3541538E-009  0.1016172E+03  0.7561462E-02  0.1276931E+00
         -2   -1    0    0    0  501 -0.00000000000E+00  0.00000000000E+00  0.10252115365E+03  0.10252115365E+03  0.00000000000E+00 0.  1.
          2   -1    0    0  501    0  0.00000000000E+00 -0.00000000000E+00 -0.14678269415E+03  0.14678269415E+03  0.00000000000E+00 0. -1.
         25    2    1    2    0    0  0.99042686629E+01 -0.49905257637E+02 -0.51387151747E+00  0.13504154052E+03  0.12508926542E+03 0.  0.
         23    2    1    2    0    0 -0.99042686629E+01  0.49905257637E+02 -0.43747668982E+02  0.11426230729E+03  0.92484523290E+02 0.  0.
          5    1    3    3  502    0  0.47111292201E+02  0.19366292968E+01 -0.38188858271E+02  0.60820109191E+02  0.41800000000E+01 0. -1.
         -5    1    3    3    0  502 -0.37207023538E+02 -0.51841886934E+02  0.37674986753E+02  0.74221431328E+02  0.41800000000E+01 0. -1.
        -11    1    4    4    0    0 -0.26831427517E+02 -0.10803992550E+02  0.10834513287E+02  0.30887512619E+02  0.00000000000E+00 0.  1.
         11    1    4    4    0    0  0.16927158854E+02  0.60709250187E+02 -0.54582182269E+02  0.83374794671E+02  0.00000000000E+00 0. -1.
</event>
<event>
 8    1  0.3541538E-009  0.1416571E+03  0.7561462E-02  0.1211116E+00
          2   -1    0    0  501    0  0.00000000000E+00  0.00000000000E+00  0.32797827584E+03  0.32797827584E+03  0.00000000000E+00 0.  1.
         -2   -1    0    0    0  501 -0.00000000000E+00 -0.00000000000E+00 -0.74903455959E+02  0.74903455959E+02  0.00000000000E+00 0. -1.
         25    2    1    2    0    0  0.84666301236E+02 -0.67956713323E+02  0.96886085087E+02  0.19188743804E+03  0.12508947974E+03 0.  0.
         23    2    1    2    0    0 -0.84666301236E+02  0.67956713323E+02  0.15618873479E+03  0.21099429376E+03  0.91308124896E+02 0.  0.
          5    1    3    3  502    0  0.11579495289E+03 -0.52516043507E+02  0.58751451419E+02  0.14012712580E+03  0.41800000000E+01 0.  1.
         -5    1    3    3    0  502 -0.31128651654E+02 -0.15440669816E+02  0.38134633667E+02  0.51760312239E+02  0.41800000000E+01 0.  1.
        -11    1    4    4    0    0 -0.49395424123E+02  0.70110429079E+02  0.15314830818E+03  0.17552716168E+03  0.00000000000E+00 0.  1.
         11    1    4    4    0    0 -0.35270877114E+02 -0.21537157566E+01  0.30404266160E+01  0.35467132079E+02  0.00000000000E+00 0. -1.
</event>
<event>
 8    1  0.3541538E-009  0.4623748E+02  0.7561462E-02  0.1466761E+00
          1   -1    0    0  501    0  0.00000000000E+00  0.00000000000E+00  0.16699710885E+03  0.16699710885E+03  0.00000000000E+00 0. -1.
         -1   -1    0    0    0  501 -0.00000000000E+00 -0.00000000000E+00 -0.81483829062E+02  0.81483829062E+02  0.00000000000E+00 0.  1.
         25    2    1    2    0    0 -0.18772128908E+02 -0.19315594602E+02  0.78025117916E+02  0.14986927665E+03  0.12508955208E+03 0.  0.
         23    2    1    2    0    0  0.18772128908E+02  0.19315594602E+02  0.74881618678E+01  0.98611661254E+02  0.94565861433E+02 0.  0.
          5    1    3    3  502    0 -0.98081601868E+01 -0.17893333303E+02 -0.32658635633E+02  0.38735387753E+02  0.41800000000E+01 0. -1.
         -5    1    3    3    0  502 -0.89639687208E+01 -0.14222612984E+01  0.11068375355E+03  0.11113388890E+03  0.41800000000E+01 0. -1.
        -11    1    4    4    0    0  0.77020516514E+01  0.38630752263E+02 -0.33668822682E+02  0.51819361640E+02  0.00000000000E+00 0.  1.
         11    1    4    4    0    0  0.11070077256E+02 -0.19315157661E+02  0.41156984550E+02  0.46792299614E+02  0.00000000000E+00 0. -1.
</event>
<event>
 8    1  0.3541538E-009  0.8452858E+02  0.7561462E-02  0.1316670E+00
          2   -1    0    0  501    0  0.00000000000E+00  0.00000000000E+00  0.14141158237E+03  0.14141158237E+03  0.00000000000E+00 0. -1.
         -2   -1    0    0    0  501 -0.00000000000E+00 -0.00000000000E+00 -0.12660358234E+03  0.12660358234E+03  0.00000000000E+00 0.  1.
         25    2    1    2    0    0  0.36523275680E+01 -0.33931339171E+02  0.78425199065E+02  0.15153444436E+03  0.12508997044E+03 0.  0.
         23    2    1    2    0    0 -0.36523275680E+01  0.33931339171E+02 -0.63617199030E+02  0.11648072034E+03  0.91410803108E+02 0.  0.
          5    1    3    3  502    0  0.61965092275E+02 -0.19044164092E+02  0.60066176011E+02  0.88474689868E+02  0.41800000000E+01 0.  1.
         -5    1    3    3    0  502 -0.58312764707E+02 -0.14887175079E+02  0.18359023054E+02  0.63059754496E+02  0.41800000000E+01 0.  1.
        -11    1    4    4    0    0 -0.15297966021E+02  0.14286404855E+02 -0.83572080459E+02  0.86153477935E+02  0.00000000000E+00 0.  1.
         11    1    4    4    0    0  0.11645638453E+02  0.19644934316E+02  0.19954881429E+02  0.30327242409E+02  0.00000000000E+00 0. -1.
</event>
<event>
 8    1  0.3541538E-009  0.2059042E+03  0.7561462E-02  0.1144851E+00
         -2   -1    0    0    0  501 -0.00000000000E+00  0.00000000000E+00  0.14071347621E+03  0.14071347621E+03  0.00000000000E+00 0.  1.
          2   -1    0    0  501    0  0.00000000000E+00 -0.00000000000E+00 -0.34206703107E+03  0.34206703107E+03  0.00000000000E+00 0. -1.
         25    2    1    2    0    0 -0.13094527646E+03 -0.13497179573E+03 -0.13642952179E+03  0.26386578237E+03  0.12509230840E+03 0.  0.
         23    2    1    2    0    0  0.13094527646E+03  0.13497179573E+03 -0.64924033074E+02  0.21891472491E+03  0.91348101464E+02 0.  0.
          5    1    3    3  502    0 -0.13890293063E+02 -0.96018247876E+02 -0.32193703400E+02  0.10230518611E+03  0.41800000000E+01 0. -1.
         -5    1    3    3    0  502 -0.11705498340E+03 -0.38953547857E+02 -0.10423581839E+03  0.16156059626E+03  0.41800000000E+01 0. -1.
        -11    1    4    4    0    0  0.11933316334E+02  0.31052254837E+02 -0.50214771533E+02  0.60234291307E+02  0.00000000000E+00 0. -1.
         11    1    4    4    0    0  0.11901196013E+03  0.10391954090E+03 -0.14709261540E+02  0.15868043360E+03  0.00000000000E+00 0.  1.
</event>
<event>
 8    1  0.3541538E-009  0.1150975E+03  0.7561462E-02  0.1251411E+00
          2   -1    0    0  501    0  0.00000000000E+00  0.00000000000E+00  0.71337619182E+03  0.71337619182E+03  0.00000000000E+00 0. -1.
         -2   -1    0    0    0  501 -0.00000000000E+00 -0.00000000000E+00 -0.19465873647E+02  0.19465873647E+02  0.00000000000E+00 0.  1.
         25    2    1    2    0    0  0.13735259006E+02 -0.41361113007E+02  0.44539046465E+03  0.46467088675E+03  0.12508784108E+03 0.  0.
         23    2    1    2    0    0 -0.13735259006E+02  0.41361113007E+02  0.24851985352E+03  0.26817117871E+03  0.90852982821E+02 0.  0.
          5    1    3    3  502    0 -0.98388977159E+01 -0.82925739115E+02  0.25641602848E+03  0.26970378970E+03  0.41800000000E+01 0.  1.
         -5    1    3    3    0  502  0.23574156722E+02  0.41564626109E+02  0.18897443617E+03  0.19496709705E+03  0.41800000000E+01 0.  1.
        -11    1    4    4    0    0  0.37057538775E+02  0.81915244025E+01  0.12368659029E+03  0.12937826274E+03  0.00000000000E+00 0.  1.
         11    1    4    4    0    0 -0.50792797781E+02  0.33169588604E+02  0.12483326324E+03  0.13879291597E+03  0.00000000000E+00 0. -1.
</event>
<event>
 8    1  0.3541538E-009  0.1196642E+03  0.7561462E-02  0.1243652E+00
         -1   -1    0    0    0  501 -0.00000000000E+00  0.00000000000E+00  0.65218692211E+02  0.65218692211E+02  0.00000000000E+00 0.  1.
          1   -1    0    0  501    0  0.00000000000E+00 -0.00000000000E+00 -0.26967589580E+03  0.26967589580E+03  0.00000000000E+00 0. -1.
         25    2    1    2    0    0  0.54978693881E+02  0.26789479054E+02 -0.53926616171E+02  0.14931674997E+03  0.12508828450E+03 0.  0.
         23    2    1    2    0    0 -0.54978693881E+02 -0.26789479054E+02 -0.15053058742E+03  0.18557783804E+03  0.89662384844E+02 0.  0.
          5    1    3    3  502    0 -0.30396873447E+02 -0.22208096594E+02 -0.28954563945E+02  0.47676080406E+02  0.41800000000E+01 0.  1.
         -5    1    3    3    0  502  0.85375567328E+02  0.48997575649E+02 -0.24972052227E+02  0.10164066956E+03  0.41800000000E+01 0.  1.
        -11    1    4    4    0    0  0.12279177146E+02 -0.33166868052E+02 -0.82209302745E+02  0.89494071231E+02  0.00000000000E+00 0. -1.
         11    1    4    4    0    0 -0.67257871027E+02  0.63773889975E+01 -0.68321284671E+02  0.96083766812E+02  0.00000000000E+00 0.  1.
</event>
<event>
 8    1  0.3541538E-009  0.1383372E+03  0.7561462E-02  0.1215584E+00
         -1   -1    0    0    0  501 -0.00000000000E+00  0.00000000000E+00  0.83962570554E+03  0.83962570554E+03  0.00000000000E+00 0.  1.
          1   -1    0    0  501    0  0.00000000000E+00 -0.00000000000E+00 -0.24723104510E+02  0.24723104510E+02  0.00000000000E+00 0. -1.
         25    2    1    2    0    0 -0.16721713787E+02  0.86980883599E+02  0.53879125841E+03  0.56016908605E+03  0.12509234592E+03 0.  0.
         23    2    1    2    0    0  0.16721713787E+02 -0.86980883599E+02  0.27611134262E+03  0.30417972400E+03  0.91883301770E+02 0.  0.
          5    1    3    3  502    0 -0.86788962804E+01  0.11765626157E+03  0.37006901565E+03  0.38844158875E+03  0.41800000000E+01 0. -1.
         -5    1    3    3    0  502 -0.80428175067E+01 -0.30675377975E+02  0.16872224276E+03  0.17172749730E+03  0.41800000000E+01 0. -1.
        -11    1    4    4    0    0 -0.36514399116E+02 -0.21982302836E+02  0.75773952031E+02  0.86937993921E+02  0.00000000000E+00 0.  1.
         11    1    4    4    0    0  0.53236112903E+02 -0.64998580763E+02  0.20033739059E+03  0.21724173008E+03  0.00000000000E+00 0. -1.
</event>
<event>
 8    1  0.3541538E-009  0.1513440E+03  0.7561462E-02  0.1198831E+00
         -1   -1    0    0    0  501 -0.00000000000E+00  0.00000000000E+00  0.42822512837E+02  0.42822512837E+02  0.00000000000E+00 0.  1.
          1   -1    0    0  501    0  0.00000000000E+00 -0.00000000000E+00 -0.58463325865E+03  0.58463325865E+03  0.00000000000E+00 0. -1.
         25    2    1    2    0    0 -0.11406439763E+03  0.48381943484E+01 -0.27342671049E+03  0.32162581227E+03  0.12508757803E+03 0.  0.
         23    2    1    2    0    0  0.11406439763E+03 -0.48381943484E+01 -0.26838403532E+03  0.30582995922E+03  0.92021076988E+02 0.  0.
          5    1    3    3  502    0 -0.30479750054E+02 -0.53570395111E+02 -0.65693664705E+02  0.90177227603E+02  0.41800000000E+01 0.  1.
         -5    1    3    3    0  502 -0.83584647572E+02  0.58408589460E+02 -0.20773304579E+03  0.23144858467E+03  0.41800000000E+01 0.  1.
        -11    1    4    4    0    0  0.54854020636E+02 -0.41879893497E+02 -0.18261843046E+03  0.19522392323E+03  0.00000000000E+00 0.  1.
         11    1    4    4    0    0  0.59210376989E+02  0.37041699148E+02 -0.85765604864E+02  0.11060603599E+03  0.00000000000E+00 0. -1.
</event>
<event>
 8    1  0.3541538E-009  0.1408768E+03  0.7561462E-02  0.1212154E+00
          2   -1    0    0  501    0  0.00000000000E+00  0.00000000000E+00  0.15194836295E+04  0.15194836295E+04  0.00000000000E+00 0. -1.
         -2   -1    0    0    0  501 -0.00000000000E+00 -0.00000000000E+00 -0.39589838758E+02  0.39589838758E+02  0.00000000000E+00 0.  1.
         25    2    1    2    0    0  0.97327933790E+02  0.22368645975E+02  0.13784371114E+04  0.13876993101E+04  0.12508965691E+03 0.  0.
         23    2    1    2    0    0 -0.97327933790E+02 -0.22368645975E+02  0.10145667935E+03  0.17137415812E+03  0.95407343896E+02 0.  0.
          5    1    3    3  502    0  0.64293167628E+01  0.55938809073E+02  0.33098119510E+03  0.33576258039E+03  0.41800000000E+01 0.  1.
         -5    1    3    3    0  502  0.90898617028E+02 -0.33570163098E+02  0.10474559163E+04  0.10519367297E+04  0.41800000000E+01 0.  1.
        -11    1    4    4    0    0  0.11559533979E+02  0.93733208109E+01 -0.51196059120E+01  0.15738244296E+02  0.00000000000E+00 0.  1.
         11    1    4    4    0    0 -0.10888746777E+03 -0.31741966786E+02  0.10657628526E+03  0.15563591383E+03  0.00000000000E+00 0. -1.
</event>
<event>
 8    1  0.3541538E-009  0.9431529E+02  0.7561462E-02  0.1292726E+00
          1   -1    0    0  501    0  0.00000000000E+00  0.00000000000E+00  0.50636741795E+02  0.50636741795E+02  0.00000000000E+00 0. -1.
         -1   -1    0    0    0  501 -0.00000000000E+00 -0.00000000000E+00 -0.35488613335E+03  0.35488613335E+03  0.00000000000E+00 0.  1.
         25    2    1    2    0    0 -0.61980595328E+02 -0.21576826058E+02 -0.10187242309E+03  0.17416753417E+03  0.12509670560E+03 0.  0.
         23    2    1    2    0    0  0.61980595328E+02  0.21576826058E+02 -0.20237696846E+03  0.23135534097E+03  0.90893909657E+02 0.  0.
          5    1    3    3  502    0 -0.70222696604E+02 -0.36776900084E+02 -0.12309813330E+03  0.14647317270E+03  0.41800000000E+01 0.  1.
         -5    1    3    3    0  502  0.82421012760E+01  0.15200074026E+02  0.21225710205E+02  0.27694361476E+02  0.41800000000E+01 0.  1.
        -11    1    4    4    0    0  0.47989055723E+02 -0.16617594795E+02 -0.17525765485E+03  0.18246736561E+03  0.00000000000E+00 0.  1.
         11    1    4    4    0    0  0.13991539605E+02  0.38194420853E+02 -0.27119313605E+02  0.48887975364E+02  0.00000000000E+00 0. -1.
</event>
<event>
 8    1  0.3541538E-009  0.9916370E+02  0.7561462E-02  0.1282064E+00
          2   -1    0    0  501    0  0.00000000000E+00  0.00000000000E+00  0.33858410459E+03  0.33858410459E+03  0.00000000000E+00 0. -1.
         -2   -1    0    0    0  501 -0.00000000000E+00 -0.00000000000E+00 -0.43403263947E+02  0.43403263947E+02  0.00000000000E+00 0.  1.
         25    2    1    2    0    0  0.24579815028E+01 -0.33758189513E+02  0.23911719528E+03  0.27197521586E+03  0.12509127839E+03 0.  0.
         23    2    1    2    0    0 -0.24579815028E+01  0.33758189513E+02  0.56063645360E+02  0.11001215268E+03  0.88396178501E+02 0.  0.
          5    1    3    3  502    0 -0.54215254908E+02 -0.31158503560E+02  0.17689317543E+03  0.18766676350E+03  0.41800000000E+01 0.  1.
         -5    1    3    3    0  502  0.56673236411E+02 -0.25996859537E+01  0.62224019851E+02  0.84308452356E+02  0.41800000000E+01 0.  1.
        -11    1    4    4    0    0  0.47713799674E+01 -0.22017115783E+02  0.48223859472E+02  0.53226497880E+02  0.00000000000E+00 0. -1.
         11    1    4    4    0    0 -0.72293614701E+01  0.55775305296E+02  0.78397858882E+01  0.56785654799E+02  0.00000000000E+00 0.  1.
</event>
<event>
 8    1  0.3541538E-009  0.1218040E+03  0.7561462E-02  0.1240150E+00
         -1   -1    0    0    0  501 -0.00000000000E+00  0.00000000000E+00  0.39349771595E+02  0.39349771595E+02  0.00000000000E+00 0.  1.
          1   -1    0    0  501    0  0.00000000000E+00 -0.00000000000E+00 -0.39573400051E+03  0.39573400051E+03  0.00000000000E+00 0. -1.
         25    2    1    2    0    0 -0.43771371252E+02 -0.41737120123E+02 -0.22861078408E+03  0.26752356655E+03  0.12509215771E+03 0.  0.
         23    2    1    2    0    0  0.43771371252E+02  0.41737120123E+02 -0.12777344483E+03  0.16756020556E+03  0.89958041025E+02 0.  0.
          5    1    3    3  502    0 -0.21825685905E+02 -0.85732924988E+02 -0.16197969558E+03  0.18461145461E+03  0.41800000000E+01 0.  1.
         -5    1    3    3    0  502 -0.21945685346E+02  0.43995804865E+02 -0.66631088506E+02  0.82912111941E+02  0.41800000000E+01 0.  1.
        -11    1    4    4    0    0 -0.11925804742E+01 -0.25109121848E+02 -0.16065216391E+02  0.29832556475E+02  0.00000000000E+00 0.  1.
         11    1    4    4    0    0  0.44963951726E+02  0.66846241971E+02 -0.11170822844E+03  0.13772764908E+03  0.00000000000E+00 0. -1.
</event>
<event>
 8    1  0.3541538E-009  0.4708969E+03  0.7561462E-02  0.1021667E+00
          2   -1    0    0  501    0  0.00000000000E+00  0.00000000000E+00  0.18118508159E+04  0.18118508159E+04  0.00000000000E+00 0.  1.
         -2   -1    0    0    0  501 -0.00000000000E+00 -0.00000000000E+00 -0.28277376669E+03  0.28277376669E+03  0.00000000000E+00 0. -1.
         25    2    1    2    0    0  0.14742454237E+03  0.43884070489E+03  0.15498378546E+04  0.16223332009E+04  0.12510986970E+03 0.  0.
         23    2    1    2    0    0 -0.14742454237E+03 -0.43884070489E+03 -0.20760805381E+02  0.47229138161E+03  0.91175534798E+02 0.  0.
          5    1    3    3  502    0  0.39385251046E+02  0.27775166522E+03  0.79866012308E+03  0.84650614300E+03  0.41800000000E+01 0. -1.
         -5    1    3    3    0  502  0.10803929132E+03  0.16108903966E+03  0.75117773147E+03  0.77582705794E+03  0.41800000000E+01 0. -1.
        -11    1    4    4    0    0 -0.15338744699E+03 -0.40955118973E+03 -0.35866323346E+02  0.43880095607E+03  0.00000000000E+00 0. -1.
         11    1    4    4    0    0  0.59629046169E+01 -0.29289515157E+02  0.15105517965E+02  0.33490425536E+02  0.00000000000E+00 0.  1.
</event>
<event>
 8    1  0.3541538E-009  0.9073267E+02  0.7561462E-02  0.1301087E+00
         -3   -1    0    0    0  501 -0.00000000000E+00  0.00000000000E+00  0.89900152454E+02  0.89900152454E+02  0.00000000000E+00 0.  1.
          3   -1    0    0  501    0  0.00000000000E+00 -0.00000000000E+00 -0.20760628058E+03  0.20760628058E+03  0.00000000000E+00 0. -1.
         25    2    1    2    0    0 -0.32820708950E+02 -0.45376322621E+02  0.16916003328E+01  0.13705971331E+03  0.12508514665E+03 0.  0.
         23    2    1    2    0    0  0.32820708950E+02  0.45376322621E+02 -0.11939772846E+03  0.16044671972E+03  0.91384477441E+02 0.  0.
          5    1    3    3  502    0  0.21798010056E+02 -0.15730058410E+02  0.50877959852E+02  0.57694256028E+02  0.41800000000E+01 0.  1.
         -5    1    3    3    0  502 -0.54618719006E+02 -0.29646264211E+02 -0.49186359519E+02  0.79365457286E+02  0.41800000000E+01 0.  1.
        -11    1    4    4    0    0  0.54345007534E+02  0.18209102156E+02 -0.11078397862E+03  0.12473187710E+03  0.00000000000E+00 0. -1.
         11    1    4    4    0    0 -0.21524298584E+02  0.27167220465E+02 -0.86137498392E+01  0.35714842623E+02  0.00000000000E+00 0.  1.
</event>
<event>
 8    1  0.3541538E-009  0.9257325E+02  0.7561462E-02  0.1296737E+00
          1   -1    0    0  501    0  0.00000000000E+00  0.00000000000E+00  0.83860034470E+02  0.83860034470E+02  0.00000000000E+00 0. -1.
         -1   -1    0    0    0  501 -0.00000000000E+00 -0.00000000000E+00 -0.18532307955E+03  0.18532307955E+03  0.00000000000E+00 0.  1.
         25    2    1    2    0    0 -0.37723284185E+02  0.20711290922E+01 -0.26421276431E-01  0.13067055865E+03  0.12508980156E+03 0.  0.
         23    2    1    2    0    0  0.37723284185E+02 -0.20711290922E+01 -0.10143662380E+03  0.13851255537E+03  0.86423397300E+02 0.  0.
          5    1    3    3  502    0  0.10553790440E+01  0.37933240834E+02 -0.46519622167E+02  0.60179666264E+02  0.41800000000E+01 0. -1.
         -5    1    3    3    0  502 -0.38778663229E+02 -0.35862111742E+02  0.46493200890E+02  0.70490892387E+02  0.41800000000E+01 0. -1.
        -11    1    4    4    0    0  0.95052552770E+01 -0.43129490311E+02 -0.53516036864E+02  0.69386374844E+02  0.00000000000E+00 0.  1.
         11    1    4    4    0    0  0.28218028908E+02  0.41058361219E+02 -0.47920586940E+02  0.69126180526E+02  0.00000000000E+00 0. -1.
</event>
<event>
 8    1  0.3541538E-009  0.8689894E+02  0.7561462E-02  0.1310540E+00
          2   -1    0    0  501    0  0.00000000000E+00  0.00000000000E+00  0.19975645142E+03  0.19975645142E+03  0.00000000000E+00 0. -1.
         -2   -1    0    0    0  501 -0.00000000000E+00 -0.00000000000E+00 -0.16318948159E+03  0.16318948159E+03  0.00000000000E+00 0.  1.
         25    2    1    2    0    0  0.12656719091E+02  0.86971722723E+01  0.16275526006E+03  0.20584592850E+03  0.12508972083E+03 0.  0.
         23    2    1    2    0    0 -0.12656719091E+02 -0.86971722723E+01 -0.12618829023E+03  0.15710000451E+03  0.92309769156E+02 0.  0.
          5    1    3    3  502    0  0.49456297222E+02 -0.82486670042E+01  0.14884954626E+02  0.52469039599E+02  0.41800000000E+01 0.  1.
         -5    1    3    3    0  502 -0.36799578130E+02  0.16945839277E+02  0.14787030543E+03  0.15337688890E+03  0.41800000000E+01 0.  1.
        -11    1    4    4    0    0  0.27711006679E+02 -0.26767474628E+02 -0.96297398031E+02  0.10371878546E+03  0.00000000000E+00 0.  1.
         11    1    4    4    0    0 -0.40367725770E+02  0.18070302356E+02 -0.29890892202E+02  0.53381219054E+02  0.00000000000E+00 0. -1.
</event>
<event>
 8    1  0.3541538E-009  0.2207053E+03  0.7561462E-02  0.1133358E+00
         -1   -1    0    0    0  501 -0.00000000000E+00  0.00000000000E+00  0.13710342393E+03  0.13710342393E+03  0.00000000000E+00 0.  1.
          1   -1    0    0  501    0  0.00000000000E+00 -0.00000000000E+00 -0.52580342453E+03  0.52580342453E+03  0.00000000000E+00 0. -1.
         25    2    1    2    0    0  0.57066259449E+02 -0.20395677935E+03 -0.45590376216E+02  0.25016053443E+03  0.12508750845E+03 0.  0.
         23    2    1    2    0    0 -0.57066259449E+02  0.20395677935E+03 -0.34310962438E+03  0.41274631403E+03  0.88206460010E+02 0.  0.
          5    1    3    3  502    0  0.80561873126E+02 -0.15510980839E+03  0.63817036661E+01  0.17494989740E+03  0.41800000000E+01 0. -1.
         -5    1    3    3    0  502 -0.23495613677E+02 -0.48846970965E+02 -0.51972079882E+02  0.75210637025E+02  0.41800000000E+01 0. -1.
        -11    1    4    4    0    0 -0.16423002140E+02  0.83012572396E+02 -0.21887246865E+03  0.23466137243E+03  0.00000000000E+00 0.  1.
         11    1    4    4    0    0 -0.40643257309E+02  0.12094420696E+03 -0.12423715573E+03  0.17808494160E+03  0.00000000000E+00 0. -1.
</event>
<event>
 8    1  0.3541538E-009  0.9370465E+02  0.7561462E-02  0.1294120E+00
          1   -1    0    0  501    0  0.00000000000E+00  0.00000000000E+00  0.82977253333E+02  0.82977253333E+02  0.00000000000E+00 0. -1.
         -1   -1    0    0    0  501 -0.00000000000E+00 -0.00000000000E+00 -0.19095073166E+03  0.19095073166E+03  0.00000000000E+00 0.  1.
         25    2    1    2    0    0 -0.16457906638E+02  0.59469342714E+02 -0.76940773878E+02  0.15929266359E+03  0.12508718790E+03 0.  0.
         23    2    1    2    0    0  0.16457906638E+02 -0.59469342714E+02 -0.31032704448E+02  0.11463532140E+03  0.91491872606E+02 0.  0.
          5    1    3    3  502    0 -0.49011495076E+02  0.36959596229E+01 -0.80576689792E+02  0.94476780771E+02  0.41800000000E+01 0. -1.
         -5    1    3    3    0  502  0.32553588438E+02  0.55773383091E+02  0.36359159136E+01  0.64815882823E+02  0.41800000000E+01 0. -1.
        -11    1    4    4    0    0  0.28377833472E+02 -0.28658978349E+02  0.26523932318E+02  0.48271704529E+02  0.00000000000E+00 0. -1.
         11    1    4    4    0    0 -0.11919926834E+02 -0.30810364365E+02 -0.57556636766E+02  0.66363616869E+02  0.00000000000E+00 0.  1.
</event>
<event>
 8    1  0.3541538E-009  0.1125638E+03  0.7561462E-02  0.1255894E+00
         -3   -1    0    0    0  501 -0.00000000000E+00  0.00000000000E+00  0.10095736116E+04  0.10095736116E+04  0.00000000000E+00 0.  1.
          3   -1    0    0  501    0  0.00000000000E+00 -0.00000000000E+00 -0.13879431206E+02  0.13879431206E+02  0.00000000000E+00 0. -1.
         25    2    1    2    0    0  0.31262945714E+02  0.39982865966E+02  0.53493417183E+03  0.55170403304E+03  0.12508705183E+03 0.  0.
         23    2    1    2    0    0 -0.31262945714E+02 -0.39982865966E+02  0.46076000855E+03  0.47174900975E+03  0.87586193991E+02 0.  0.
          5    1    3    3  502    0  0.55117263267E+02  0.69880558578E+02  0.27866317822E+03  0.29256083892E+03  0.41800000000E+01 0.  1.
         -5    1    3    3    0  502 -0.23854317553E+02 -0.29897692612E+02  0.25627099361E+03  0.25914319411E+03  0.41800000000E+01 0.  1.
        -11    1    4    4    0    0  0.20027307500E+02 -0.41672017628E+02  0.15632056485E+03  0.16301462847E+03  0.00000000000E+00 0. -1.
         11    1    4    4    0    0 -0.51290253214E+02  0.16891516619E+01  0.30443944370E+03  0.30873438128E+03  0.00000000000E+00 0.  1.
</event>
<event>
 8    1  0.3541538E-009  0.1205244E+03  0.7561462E-02  0.1242234E+00
         -4   -1    0    0    0  501 -0.00000000000E+00  0.00000000000E+00  0.11577254334E+04  0.11577254334E+04  0.00000000000E+00 0. -1.
          4   -1    0    0  501    0  0.00000000000E+00 -0.00000000000E+00 -0.14714565954E+02  0.14714565954E+02  0.00000000000E+00 0.  1.
         25    2    1    2    0    0 -0.66426180475E+02  0.25883737689E+02  0.70833918517E+03  0.72282470066E+03  0.12509492923E+03 0.  0.
         23    2    1    2    0    0  0.66426180475E+02 -0.25883737689E+02  0.43467168223E+03  0.44961529864E+03  0.90177824928E+02 0.  0.
          5    1    3    3  502    0 -0.50190603088E+02  0.67239972748E+02  0.59689352833E+03  0.60277663122E+03  0.41800000000E+01 0.  1.
         -5    1    3    3    0  502 -0.16235577386E+02 -0.41356235059E+02  0.11144565683E+03  0.12004806945E+03  0.41800000000E+01 0.  1.
        -11    1    4    4    0    0  0.68670728917E+02  0.15966708603E+02  0.22466905677E+03  0.23547142049E+03  0.00000000000E+00 0.  1.
         11    1    4    4    0    0 -0.22445484421E+01 -0.41850446292E+02  0.21000262546E+03  0.21414387816E+03  0.00000000000E+00 0. -1.
</event>
<event>
 8    1  0.3541538E-009  0.1064759E+03  0.7561462E-02  0.1267239E+00
          1   -1    0    0  501    0  0.00000000000E+00  0.00000000000E+00  0.94453157266E+03  0.94453157266E+03  0.00000000000E+00 0. -1.
         -1   -1    0    0    0  501 -0.00000000000E+00 -0.00000000000E+00 -0.24835983707E+02  0.24835983707E+02  0.00000000000E+00 0.  1.
         25    2    1    2    0    0  0.73799461004E+02  0.72066095798E+02  0.60879333028E+03  0.63001335512E+03  0.12509047142E+03 0.  0.
         23    2    1    2    0    0 -0.73799461004E+02 -0.72066095798E+02  0.31090225867E+03  0.33935420124E+03  0.88663277865E+02 0.  0.
          5    1    3    3  502    0  0.20949781913E+02  0.13380158968E+01  0.43030746922E+03  0.43083949926E+03  0.41800000000E+01 0.  1.
         -5    1    3    3    0  502  0.52849679092E+02  0.70728079901E+02  0.17848586105E+03  0.19917385587E+03  0.41800000000E+01 0.  1.
        -11    1    4    4    0    0 -0.36855514627E+02 -0.36777103429E+02  0.26688905910E+03  0.27192030847E+03  0.00000000000E+00 0. -1.
         11    1    4    4    0    0 -0.36943946377E+02 -0.35288992369E+02  0.44013199577E+02  0.67433892764E+02  0.00000000000E+00 0.  1.
</event>
<event>
 8    1  0.3541538E-009  0.1918319E+03  0.7561462E-02  0.1156819E+00
          1   -1    0    0  501    0  0.00000000000E+00  0.00000000000E+00  0.10045322215E+04  0.10045322215E+04  0.00000000000E+00 0. -1.
         -1   -1    0    0    0  501 -0.00000000000E+00 -0.00000000000E+00 -0.58753003049E+02  0.58753003049E+02  0.00000000000E+00 0.  1.
         25    2    1    2    0    0  0.17477297218E+03 -0.41216565636E+00  0.20459368100E+03  0.29673528520E+03  0.12508994161E+03 0.  0.
         23    2    1    2    0    0 -0.17477297218E+03  0.41216565636E+00  0.74118553749E+03  0.76654993939E+03  0.87732815468E+02 0.  0.
          5    1    3    3  502    0 -0.14636674858E+01  0.29683403001E+02  0.58740165477E+02  0.65963066761E+02  0.41800000000E+01 0.  1.
         -5    1    3    3    0  502  0.17623663966E+03 -0.30095568657E+02  0.14585351552E+03  0.23077221843E+03  0.41800000000E+01 0.  1.
        -11    1    4    4    0    0 -0.11181311917E+03  0.20951569420E+01  0.61968726513E+03  0.62969744312E+03  0.00000000000E+00 0. -1.
         11    1    4    4    0    0 -0.62959853004E+02 -0.16829912857E+01  0.12149827236E+03  0.13685249627E+03  0.00000000000E+00 0.  1.
</event>
<event>
 8    1  0.3541538E-009  0.1253783E+03  0.7561462E-02  0.1234479E+00
          1   -1    0    0  501    0  0.00000000000E+00  0.00000000000E+00  0.64116180355E+03  0.64116180355E+03  0.00000000000E+00 0. -1.
         -1   -1    0    0    0  501 -0.00000000000E+00 -0.00000000000E+00 -0.37635040889E+02  0.37635040889E+02  0.00000000000E+00 0.  1.
         25    2    1    2    0    0  0.94257357210E+02  0.56232183558E+02  0.38728630325E+03  0.42152656450E+03  0.12508979190E+03 0.  0.
         23    2    1    2    0    0 -0.94257357210E+02 -0.56232183558E+02  0.21624045941E+03  0.25727027994E+03  0.85915963585E+02 0.  0.
          5    1    3    3  502    0  0.73123249425E+02  0.56865194009E+02  0.11202428155E+03  0.14542204769E+03  0.41800000000E+01 0. -1.
         -5    1    3    3    0  502  0.21134107785E+02 -0.63301045094E+00  0.27526202170E+03  0.27610451681E+03  0.41800000000E+01 0. -1.
        -11    1    4    4    0    0 -0.85721491773E+02 -0.64441990246E+01  0.16031873770E+03  0.18191151561E+03  0.00000000000E+00 0.  1.
         11    1    4    4    0    0 -0.85358654366E+01 -0.49787984534E+02  0.55921721708E+02  0.75358764331E+02  0.00000000000E+00 0. -1.
</event>
<event>
 8    1  0.3541538E-009  0.9877059E+02  0.7561462E-02  0.1282903E+00
         -2   -1    0    0    0  501 -0.00000000000E+00  0.00000000000E+00  0.40630265409E+02  0.40630265409E+02  0.00000000000E+00 0.  1.
          2   -1    0    0  501    0  0.00000000000E+00 -0.00000000000E+00 -0.45226910132E+03  0.45226910132E+03  0.00000000000E+00 0. -1.
         25    2    1    2    0    0 -0.42199521237E+02  0.72403042602E+02 -0.24177043551E+03  0.28482370998E+03  0.12509437281E+03 0.  0.
         23    2    1    2    0    0  0.42199521237E+02 -0.72403042602E+02 -0.16986840039E+03  0.20807565674E+03  0.86123198415E+02 0.  0.
          5    1    3    3  502    0  0.11073596944E+02 -0.81986881279E+01 -0.15260993773E+03  0.15328766594E+03  0.41800000000E+01 0.  1.
         -5    1    3    3    0  502 -0.53273118180E+02  0.80601730730E+02 -0.89160497789E+02  0.13153604405E+03  0.41800000000E+01 0.  1.
        -11    1    4    4    0    0  0.80924875558E+01 -0.34545014800E+02 -0.53930120059E+01  0.35887755305E+02  0.00000000000E+00 0.  1.
         11    1    4    4    0    0  0.34107033681E+02 -0.37858027803E+02 -0.16447538839E+03  0.17218790144E+03  0.00000000000E+00 0. -1.
</event>
<event>
 8    1  0.3541538E-009  0.1110615E+03  0.7561462E-02  0.1258617E+00
          1   -1    0    0  501    0  0.00000000000E+00  0.00000000000E+00  0.17591670741E+03  0.17591670741E+03  0.00000000000E+00 0. -1.
         -1   -1    0    0    0  501 -0.00000000000E+00 -0.00000000000E+00 -0.78413796824E+02  0.78413796824E+02  0.00000000000E+00 0.  1.
         25    2    1    2    0    0 -0.54539057560E+01  0.35141837345E+02  0.54776349460E+02  0.14111110197E+03  0.12508877175E+03 0.  0.
         23    2    1    2    0    0  0.54539057560E+01 -0.35141837345E+02  0.42726561130E+02  0.11321940227E+03  0.98632551447E+02 0.  0.
          5    1    3    3  502    0 -0.45907911932E+02  0.63406601457E+02  0.45757872450E+02  0.90769977291E+02  0.41800000000E+01 0. -1.
         -5    1    3    3    0  502  0.40454006176E+02 -0.28264764112E+02  0.90184770098E+01  0.50341124675E+02  0.41800000000E+01 0. -1.
        -11    1    4    4    0    0 -0.51756263622E+01  0.28862385664E+02  0.38233360518E+02  0.48183132639E+02  0.00000000000E+00 0. -1.
         11    1    4    4    0    0  0.10629532118E+02 -0.64004223009E+02  0.44932006128E+01  0.65036269633E+02  0.00000000000E+00 0.  1.
</event>
<event>
 8    1  0.3541538E-009  0.1336958E+03  0.7561462E-02  0.1222073E+00
         -1   -1    0    0    0  501 -0.00000000000E+00  0.00000000000E+00  0.21891459436E+02  0.21891459436E+02  0.00000000000E+00 0.  1.
          1   -1    0    0  501    0  0.00000000000E+00 -0.00000000000E+00 -0.89279183772E+03  0.89279183772E+03  0.00000000000E+00 0. -1.
         25    2    1    2    0    0 -0.86384306874E+02 -0.37274714959E+01 -0.52754615935E+03  0.54902487877E+03  0.12508886738E+03 0.  0.
         23    2    1    2    0    0  0.86384306874E+02  0.37274714959E+01 -0.34335421894E+03  0.36565841839E+03  0.91311646359E+02 0.  0.
          5    1    3    3  502    0  0.25226426682E+02 -0.26260531213E+02 -0.16381345187E+03  0.16786395538E+03  0.41800000000E+01 0.  1.
         -5    1    3    3    0  502 -0.11161073356E+03  0.22533059717E+02 -0.36373270749E+03  0.38116092339E+03  0.41800000000E+01 0.  1.
        -11    1    4    4    0    0  0.39107582066E+02  0.40952483778E+02 -0.99450356597E+02  0.11444161101E+03  0.00000000000E+00 0.  1.
         11    1    4    4    0    0  0.47276724808E+02 -0.37225012282E+02 -0.24390386234E+03  0.25121680738E+03  0.00000000000E+00 0. -1.
</event>
<event>
 8    1  0.3541538E-009  0.8480137E+02  0.7561462E-02  0.1315953E+00
         -2   -1    0    0    0  501 -0.00000000000E+00  0.00000000000E+00  0.16606671631E+02  0.16606671631E+02  0.00000000000E+00 0.  1.
          2   -1    0    0  501    0  0.00000000000E+00 -0.00000000000E+00 -0.76870051449E+03  0.76870051449E+03  0.00000000000E+00 0. -1.
         25    2    1    2    0    0 -0.30743788711E+00  0.70321543162E+01 -0.54097430096E+03  0.55529369174E+03  0.12509334143E+03 0.  0.
         23    2    1    2    0    0  0.30743788711E+00 -0.70321543162E+01 -0.21111954190E+03  0.23001349439E+03  0.91023079028E+02 0.  0.
          5    1    3    3  502    0  0.22313639141E+02 -0.44771981788E+02 -0.40323356979E+03  0.40634617391E+03  0.41800000000E+01 0.  1.
         -5    1    3    3    0  502 -0.22621077028E+02  0.51804136104E+02 -0.13774073117E+03  0.14894751783E+03  0.41800000000E+01 0.  1.
        -11    1    4    4    0    0  0.14221000398E+02  0.24459802116E+02 -0.17307528600E+02  0.33167292897E+02  0.00000000000E+00 0.  1.
         11    1    4    4    0    0 -0.13913562511E+02 -0.31491956432E+02 -0.19381201330E+03  0.19684620149E+03  0.00000000000E+00 0. -1.
</event>
<event>
 8    1  0.3541538E-009  0.1065289E+03  0.7561462E-02  0.1267136E+00
         -2   -1    0    0    0  501 -0.00000000000E+00  0.00000000000E+00  0.27577004077E+03  0.27577004077E+03  0.00000000000E+00 0.  1.
          2   -1    0    0  501    0  0.00000000000E+00 -0.00000000000E+00 -0.47204547739E+02  0.47204547739E+02  0.00000000000E+00 0. -1.
         25    2    1    2    0    0  0.21019262889E+02 -0.25801126876E+02  0.11588636528E+03  0.17373614337E+03  0.12508832997E+03 0.  0.
         23    2    1    2    0    0 -0.21019262889E+02  0.25801126876E+02  0.11267912775E+03  0.14923844514E+03  0.92021845860E+02 0.  0.
          5    1    3    3  502    0 -0.45757722181E+02 -0.30584064810E+01  0.11135627403E+02  0.47377184246E+02  0.41800000000E+01 0.  1.
         -5    1    3    3    0  502  0.66776985070E+02 -0.22742720395E+02  0.10475073787E+03  0.12635895912E+03  0.41800000000E+01 0.  1.
        -11    1    4    4    0    0 -0.22068647237E+02  0.59068593621E+02  0.60759963660E+02  0.87566529720E+02  0.00000000000E+00 0.  1.
         11    1    4    4    0    0  0.10493843482E+01 -0.33267466745E+02  0.51919164093E+02  0.61671915418E+02  0.00000000000E+00 0. -1.
</event>
<event>
 8    1  0.3541538E-009  0.8863898E+02  0.7561462E-02  0.1306181E+00
          1   -1    0    0  501    0  0.00000000000E+00  0.00000000000E+00  0.12573541346E+03  0.12573541346E+03  0.00000000000E+00 0. -1.
         -1   -1    0    0    0  501 -0.00000000000E+00 -0.00000000000E+00 -0.11309725676E+03  0.11309725676E+03  0.00000000000E+00 0.  1.
         25    2    1    2    0    0  0.84110831867E+01  0.50252426674E+02  0.24021284662E+01  0.13509228475E+03  0.12509237575E+03 0.  0.
         23    2    1    2    0    0 -0.84110831867E+01 -0.50252426674E+02  0.10236028242E+02  0.10374038547E+03  0.89784400631E+02 0.  0.
          5    1    3    3  502    0  0.40182223699E+02  0.24628645344E+02  0.52277123887E+02  0.70509228863E+02  0.41800000000E+01 0.  1.
         -5    1    3    3    0  502 -0.31771140512E+02  0.25623781330E+02 -0.49874995421E+02  0.64583055884E+02  0.41800000000E+01 0.  1.
        -11    1    4    4    0    0  0.25914977785E+02  0.24582917682E+01  0.28145735359E+02  0.38338123205E+02  0.00000000000E+00 0. -1.
         11    1    4    4    0    0 -0.34326060972E+02 -0.52710718442E+02 -0.17909707117E+02  0.65402262266E+02  0.00000000000E+00 0.  1.
</event>
<event>
 8    1  0.3541538E-009  0.1348179E+03  0.7561462E-02  0.1220477E+00
          2   -1    0    0  501    0  0.00000000000E+00  0.00000000000E+00  0.29446398274E+03  0.29446398274E+03  0.00000000000E+00 0. -1.
         -2   -1    0    0    0  501 -0.00000000000E+00 -0.00000000000E+00 -0.11687255593E+03  0.11687255593E+03  0.00000000000E+00 0.  1.
         25    2    1    2    0    0  0.90772966686E+02  0.90053154905E+02  0.18052451009E+03  0.25413254109E+03  0.12507976457E+03 0.  0.
         23    2    1    2    0    0 -0.90772966686E+02 -0.90053154905E+02 -0.29330832741E+01  0.15720399758E+03  0.91406737661E+02 0.  0.
          5    1    3    3  502    0  0.53826884268E+02  0.86883506090E+02  0.41843960754E+02  0.11051907777E+03  0.41800000000E+01 0.  1.
         -5    1    3    3    0  502  0.36946082418E+02  0.31696488151E+01  0.13868054934E+03  0.14361346331E+03  0.41800000000E+01 0.  1.
        -11    1    4    4    0    0 -0.35924168187E+02 -0.52269340995E+02  0.42707886713E+02  0.76463020183E+02  0.00000000000E+00 0. -1.
         11    1    4    4    0    0 -0.54848798499E+02 -0.37783813911E+02 -0.45640969987E+02  0.80740977402E+02  0.00000000000E+00 0.  1.
</event>
<event>
 8    1  0.3541538E-009  0.1219093E+03  0.7561462E-02  0.1239980E+00
          1   -1    0    0  501    0  0.00000000000E+00  0.00000000000E+00  0.93441621218E+03  0.93441621218E+03  0.00000000000E+00 0. -1.
         -1   -1    0    0    0  501 -0.00000000000E+00 -0.00000000000E+00 -0.21156622127E+02  0.21156622127E+02  0.00000000000E+00 0.  1.
         25    2    1    2    0    0  0.42093970962E+02  0.42139130686E+02  0.73433732593E+03  0.74729238035E+03  0.12508790809E+03 0.  0.
         23    2    1    2    0    0 -0.42093970962E+02 -0.42139130686E+02  0.17892226412E+03  0.20828045396E+03  0.88430550009E+02 0.  0.
          5    1    3    3  502    0 -0.40654488517E+02  0.36985667982E+02  0.26530598253E+03  0.27097133398E+03  0.41800000000E+01 0. -1.
         -5    1    3    3    0  502  0.82748459479E+02  0.51534627035E+01  0.46903134340E+03  0.47632104637E+03  0.41800000000E+01 0. -1.
        -11    1    4    4    0    0 -0.28555601633E+02  0.24536040760E+02  0.77372473485E+02  0.86046146538E+02  0.00000000000E+00 0.  1.
         11    1    4    4    0    0 -0.13538369330E+02 -0.66675171446E+02  0.10154979064E+03  0.12223430742E+03  0.00000000000E+00 0. -1.
</event>
<event>
 8    1  0.3541538E-009  0.1143927E+03  0.7561462E-02  0.1252645E+00
         -2   -1    0    0    0  501 -0.00000000000E+00  0.00000000000E+00  0.26222989107E+02  0.26222989107E+02  0.00000000000E+00 0.  1.
          2   -1    0    0  501    0  0.00000000000E+00 -0.00000000000E+00 -0.56672635831E+03  0.56672635831E+03  0.00000000000E+00 0. -1.
         25    2    1    2    0    0  0.40979053137E+02  0.31854114757E+02 -0.26059477353E+03  0.29368358676E+03  0.12508575347E+03 0.  0.
         23    2    1    2    0    0 -0.40979053137E+02 -0.31854114757E+02 -0.27990859568E+03  0.29926576066E+03  0.92288710814E+02 0.  0.
          5    1    3    3  502    0 -0.40796320427E+02  0.18583735443E+02 -0.49698427787E+02  0.67060428778E+02  0.41800000000E+01 0.  1.
         -5    1    3    3    0  502  0.81775373564E+02  0.13270379314E+02 -0.21089634574E+03  0.22662315798E+03  0.41800000000E+01 0.  1.
        -11    1    4    4    0    0  0.20474054804E+02  0.13420771494E+02 -0.11459821910E+03  0.11718385489E+03  0.00000000000E+00 0. -1.
         11    1    4    4    0    0 -0.61453107941E+02 -0.45274886251E+02 -0.16531037658E+03  0.18208190576E+03  0.00000000000E+00 0.  1.
</event>
<event>
 8    1  0.3541538E-009  0.1113843E+03  0.7561462E-02  0.1258028E+00
          2   -1    0    0  501    0  0.00000000000E+00  0.00000000000E+00  0.59954499679E+03  0.59954499679E+03  0.00000000000E+00 0. -1.
         -2   -1    0    0    0  501 -0.00000000000E+00 -0.00000000000E+00 -0.32909788371E+02  0.32909788371E+02  0.00000000000E+00 0.  1.
         25    2    1    2    0    0  0.61611709372E+02 -0.27738362098E+02  0.18370119328E+03  0.23229104689E+03  0.12509029775E+03 0.  0.
         23    2    1    2    0    0 -0.61611709372E+02  0.27738362098E+02  0.38293401514E+03  0.40016373827E+03  0.94483533011E+02 0.  0.
          5    1    3    3  502    0  0.13050917133E+02 -0.54066977082E+02  0.19646313151E+02  0.59135560108E+02  0.41800000000E+01 0. -1.
         -5    1    3    3    0  502  0.48560792240E+02  0.26328614985E+02  0.16405488013E+03  0.17315548678E+03  0.41800000000E+01 0. -1.
        -11    1    4    4    0    0  0.14089005088E+02 -0.18222863388E+02  0.13354573914E+03  0.13551766400E+03  0.00000000000E+00 0.  1.
         11    1    4    4    0    0 -0.75700714460E+02  0.45961225486E+02  0.24938827600E+03  0.26464607426E+03  0.00000000000E+00 0. -1.
</event>
<event>
 8    1  0.3541538E-009  0.1033172E+03  0.7561462E-02  0.1273471E+00
          3   -1    0    0  501    0  0.00000000000E+00  0.00000000000E+00  0.87091735733E+02  0.87091735733E+02  0.00000000000E+00 0. -1.
         -3   -1    0    0    0  501 -0.00000000000E+00 -0.00000000000E+00 -0.24288842388E+03  0.24288842388E+03  0.00000000000E+00 0.  1.
         25    2    1    2    0    0  0.19900093079E+02 -0.44990391943E+02  0.93014803702E+01  0.13474098498E+03  0.12509383048E+03 0.  0.
         23    2    1    2    0    0 -0.19900093079E+02  0.44990391943E+02 -0.16509816852E+03  0.19523917464E+03  0.91873723084E+02 0.  0.
          5    1    3    3  502    0  0.46862678205E+02 -0.60086340652E+02 -0.32200384458E+02  0.82830043467E+02  0.41800000000E+01 0. -1.
         -5    1    3    3    0  502 -0.26962585127E+02  0.15095948710E+02  0.41501864828E+02  0.51910941509E+02  0.41800000000E+01 0. -1.
        -11    1    4    4    0    0 -0.34545858683E+02  0.65431343270E+02 -0.14594474633E+03  0.16362929449E+03  0.00000000000E+00 0.  1.
         11    1    4    4    0    0  0.14645765604E+02 -0.20440951327E+02 -0.19153422183E+02  0.31609880142E+02  0.00000000000E+00 0. -1.
</event>
<event>
 8    1  0.3541538E-009  0.9482137E+02  0.7561462E-02  0.1291579E+00
          1   -1    0    0  501    0  0.00000000000E+00  0.00000000000E+00  0.55314046852E+02  0.55314046852E+02  0.00000000000E+00 0. -1.
         -1   -1    0    0    0  501 -0.00000000000E+00 -0.00000000000E+00 -0.21248072482E+03  0.21248072482E+03  0.00000000000E+00 0.  1.
         25    2    1    2    0    0  0.46175302885E+01 -0.42704543473E+01 -0.91265754546E+02  0.15498372073E+03  0.12510378641E+03 0.  0.
         23    2    1    2    0    0 -0.46175302885E+01  0.42704543473E+01 -0.65900923427E+02  0.11281105094E+03  0.91344639359E+02 0.  0.
          5    1    3    3  502    0 -0.47257118416E+02  0.24699558342E+02 -0.10299565940E+02  0.54468861580E+02  0.41800000000E+01 0. -1.
         -5    1    3    3    0  502  0.51874648705E+02 -0.28970012689E+02 -0.80966188606E+02  0.10051485915E+03  0.41800000000E+01 0. -1.
        -11    1    4    4    0    0 -0.30650636272E+02  0.27891612836E+02 -0.65676266356E+02  0.77658068048E+02  0.00000000000E+00 0.  1.
         11    1    4    4    0    0  0.26033105984E+02 -0.23621158489E+02 -0.22465707126E+00  0.35152982894E+02  0.00000000000E+00 0. -1.
</event>
<event>
 8    1  0.3541538E-009  0.1437627E+03  0.7561462E-02  0.1208354E+00
          1   -1    0    0  501    0  0.00000000000E+00  0.00000000000E+00  0.53207820758E+03  0.53207820758E+03  0.00000000000E+00 0. -1.
         -1   -1    0    0    0  501 -0.00000000000E+00 -0.00000000000E+00 -0.58005542557E+02  0.58005542557E+02  0.00000000000E+00 0.  1.
         25    2    1    2    0    0 -0.10026803447E+02  0.12220559371E+03  0.35464706929E+03  0.39554299734E+03  0.12507987475E+03 0.  0.
         23    2    1    2    0    0  0.10026803447E+02 -0.12220559371E+03  0.11942559573E+03  0.19454075279E+03  0.92460195003E+02 0.  0.
          5    1    3    3  502    0  0.29869672717E+02  0.12014113988E+03  0.19576859870E+03  0.23166550774E+03  0.41800000000E+01 0. -1.
         -5    1    3    3    0  502 -0.39896476164E+02  0.20644538273E+01  0.15887847060E+03  0.16387748960E+03  0.41800000000E+01 0. -1.
        -11    1    4    4    0    0 -0.64277381663E+00 -0.78379900662E+02  0.13667095839E+02  0.79565139946E+02  0.00000000000E+00 0.  1.
         11    1    4    4    0    0  0.10669577264E+02 -0.43825693049E+02  0.10575849989E+03  0.11497561285E+03  0.00000000000E+00 0. -1.
</event>
<event>
 8    1  0.3541538E-009  0.1383714E+03  0.7561462E-02  0.1215537E+00
          2   -1    0    0  501    0  0.00000000000E+00  0.00000000000E+00  0.48466071014E+03  0.48466071014E+03  0.00000000000E+00 0. -1.
         -2   -1    0    0    0  501 -0.00000000000E+00 -0.00000000000E+00 -0.43260192619E+02  0.43260192619E+02  0.00000000000E+00 0.  1.
         25    2    1    2    0    0 -0.81758874272E+02 -0.25844167126E+02  0.31361005009E+03  0.34835430686E+03  0.12508806936E+03 0.  0.
         23    2    1    2    0    0  0.81758874272E+02  0.25844167126E+02  0.12779046744E+03  0.17956659590E+03  0.92527424579E+02 0.  0.
          5    1    3    3  502    0  0.26572447632E+02  0.20374640809E+02  0.73889515109E+02  0.81230251780E+02  0.41800000000E+01 0. -1.
         -5    1    3    3    0  502 -0.10833132190E+03 -0.46218807935E+02  0.23972053498E+03  0.26712405508E+03  0.41800000000E+01 0. -1.
        -11    1    4    4    0    0  0.79955646746E+02 -0.17430030595E+02  0.72483260180E+02  0.10931849990E+03  0.00000000000E+00 0.  1.
         11    1    4    4    0    0  0.18032275265E+01  0.43274197721E+02  0.55307207256E+02  0.70248096006E+02  0.00000000000E+00 0. -1.
</event>
<event>
 8    1  0.3541538E-009  0.6295620E+02  0.7561462E-02  0.1385829E+00
         -2   -1    0    0    0  501 -0.00000000000E+00  0.00000000000E+00  0.20885850414E+02  0.20885850414E+02  0.00000000000E+00 0.  1.
          2   -1    0    0  501    0  0.00000000000E+00 -0.00000000000E+00 -0.73002723806E+03  0.73002723806E+03  0.00000000000E+00 0. -1.
         25    2    1    2    0    0  0.34393906984E+02  0.17671667540E+01 -0.54119611891E+03  0.55653061600E+03  0.12508806378E+03 0.  0.
         23    2    1    2    0    0 -0.34393906984E+02 -0.17671667540E+01 -0.16794526873E+03  0.19438247248E+03  0.91612600663E+02 0.  0.
          5    1    3    3  502    0  0.95460121394E+01 -0.51839951192E+00 -0.52779879318E+03  0.52790191662E+03  0.41800000000E+01 0.  1.
         -5    1    3    3    0  502  0.24847894845E+02  0.22855662659E+01 -0.13397325730E+02  0.28628699378E+02  0.41800000000E+01 0.  1.
        -11    1    4    4    0    0  0.19259841320E+02  0.23905258500E+02 -0.25117424319E+02  0.39664693066E+02  0.00000000000E+00 0. -1.
         11    1    4    4    0    0 -0.53653748305E+02 -0.25672425254E+02 -0.14282784442E+03  0.15471777941E+03  0.00000000000E+00 0.  1.
</event>
<event>
 8    1  0.3541538E-009  0.9875477E+02  0.7561462E-02  0.1282936E+00
          2   -1    0    0  501    0  0.00000000000E+00  0.00000000000E+00  0.20624218491E+02  0.20624218491E+02  0.00000000000E+00 0.  1.
         -2   -1    0    0    0  501 -0.00000000000E+00 -0.00000000000E+00 -0.77850959516E+03  0.77850959516E+03  0.00000000000E+00 0. -1.
         25    2    1    2    0    0  0.15288332771E+02  0.44958153647E+02 -0.57081340144E+03  0.58628560494E+03  0.12509157682E+03 0.  0.
         23    2    1    2    0    0 -0.15288332771E+02 -0.44958153647E+02 -0.18707197522E+03  0.21284820871E+03  0.89741112869E+02 0.  0.
          5    1    3    3  502    0 -0.14622119369E+02 -0.27619695432E+02 -0.35854267767E+03  0.35992635088E+03  0.41800000000E+01 0.  1.
         -5    1    3    3    0  502  0.29910452140E+02  0.72577849079E+02 -0.21227072378E+03  0.22635925405E+03  0.41800000000E+01 0.  1.
        -11    1    4    4    0    0 -0.42686272428E+02 -0.11663991532E+02 -0.14864525199E+03  0.15509215806E+03  0.00000000000E+00 0. -1.
         11    1    4    4    0    0  0.27397939657E+02 -0.33294162114E+02 -0.38426723234E+02  0.57756050651E+02  0.00000000000E+00 0.  1.
</event>
<event>
 8    1  0.3541538E-009  0.6670522E+02  0.7561462E-02  0.1371670E+00
          2   -1    0    0  501    0  0.00000000000E+00  0.00000000000E+00  0.59234049982E+03  0.59234049982E+03  0.00000000000E+00 0.  1.
         -2   -1    0    0    0  501 -0.00000000000E+00 -0.00000000000E+00 -0.24705931327E+02  0.24705931327E+02  0.00000000000E+00 0. -1.
         25    2    1    2    0    0 -0.26546539342E+02  0.15193213415E+01  0.43980241270E+03  0.45801813498E+03  0.12508965850E+03 0.  0.
         23    2    1    2    0    0  0.26546539342E+02 -0.15193213415E+01  0.12783215580E+03  0.15902829617E+03  0.90784975848E+02 0.  0.
          5    1    3    3  502    0 -0.10270931445E+02 -0.22572025892E+02  0.97638970576E+01  0.26977666159E+02  0.41800000000E+01 0.  1.
         -5    1    3    3    0  502 -0.16275607897E+02  0.24091347234E+02  0.43003851564E+03  0.43104046882E+03  0.41800000000E+01 0.  1.
        -11    1    4    4    0    0  0.50053970200E+02 -0.14399540467E+02  0.12044522272E+03  0.13122422938E+03  0.00000000000E+00 0.  1.
         11    1    4    4    0    0 -0.23507430858E+02  0.12880219125E+02  0.73869330740E+01  0.27804066798E+02  0.00000000000E+00 0. -1.
</event>
<event>
 8    1  0.3541538E-009  0.1038914E+03  0.7561462E-02  0.1272319E+00
         -2   -1    0    0    0  501 -0.00000000000E+00  0.00000000000E+00  0.18446803887E+03  0.18446803887E+03  0.00000000000E+00 0.  1.
          2   -1    0    0  501    0  0.00000000000E+00 -0.00000000000E+00 -0.12705002333E+03  0.12705002333E+03  0.00000000000E+00 0. -1.
         25    2    1    2    0    0  0.85797242502E+02  0.47576569799E+01  0.97339309277E+02  0.18029771276E+03  0.12509405251E+03 0.  0.
         23    2    1    2    0    0 -0.85797242502E+02 -0.47576569799E+01 -0.39921293738E+02  0.13122034944E+03  0.90781431436E+02 0.  0.
          5    1    3    3  502    0 -0.11745680589E+02 -0.10269489989E+02 -0.20778495289E+02  0.26318087005E+02  0.41800000000E+01 0.  1.
         -5    1    3    3    0  502  0.97542923091E+02  0.15027146968E+02  0.11811780457E+03  0.15397962575E+03  0.41800000000E+01 0.  1.
        -11    1    4    4    0    0 -0.78178483533E+02 -0.15478595216E+02  0.93326104974E+01  0.80240636937E+02  0.00000000000E+00 0.  1.
         11    1    4    4    0    0 -0.76187589691E+01  0.10720938236E+02 -0.49253904235E+02  0.50979712507E+02  0.00000000000E+00 0. -1.
</event>
<event>
 8    1  0.3541538E-009  0.9191157E+02  0.7561462E-02  0.1298287E+00
         -1   -1    0    0    0  501 -0.00000000000E+00  0.00000000000E+00  0.17973591134E+03  0.17973591134E+03  0.00000000000E+00 0.  1.
          1   -1    0    0  501    0  0.00000000000E+00 -0.00000000000E+00 -0.71663595227E+02  0.71663595227E+02  0.00000000000E+00 0. -1.
         25    2    1    2    0    0 -0.26306263864E+02  0.56207507972E+01  0.85089034971E+02  0.15366245308E+03  0.12509353802E+03 0.  0.
         23    2    1    2    0    0  0.26306263864E+02 -0.56207507972E+01  0.22983281145E+02  0.97737053494E+02  0.91108111908E+02 0.  0.
          5    1    3    3  502    0 -0.66063514521E+02 -0.10911482410E+02  0.87589107673E+02  0.11033028860E+03  0.41800000000E+01 0. -1.
         -5    1    3    3    0  502  0.39757250658E+02  0.16532233207E+02 -0.25000727025E+01  0.43332164476E+02  0.41800000000E+01 0. -1.
        -11    1    4    4    0    0  0.23590511637E+02  0.29767589092E+02  0.42690005859E+02  0.57140687779E+02  0.00000000000E+00 0.  1.
         11    1    4    4    0    0  0.27157522269E+01 -0.35388339889E+02 -0.19706724715E+02  0.40596365715E+02  0.00000000000E+00 0. -1.
</event>
<event>
 8    1  0.3541538E-009  0.9189914E+02  0.7561462E-02  0.1298317E+00
          2   -1    0    0  501    0  0.00000000000E+00  0.00000000000E+00  0.11016042999E+03  0.11016042999E+03  0.00000000000E+00 0. -1.
         -2   -1    0    0    0  501 -0.00000000000E+00 -0.00000000000E+00 -0.10645372191E+03  0.10645372191E+03  0.00000000000E+00 0.  1.
         25    2    1    2    0    0 -0.44632783025E+01  0.61957700295E+01 -0.76408749702E+01  0.12554838496E+03  0.12508279489E+03 0.  0.
         23    2    1    2    0    0  0.44632783025E+01 -0.61957700295E+01  0.11347583044E+02  0.91065766937E+02  0.90032759857E+02 0.  0.
          5    1    3    3  502    0 -0.13132441636E+02  0.53073357761E+02  0.31929225564E+02  0.63452266882E+02  0.41800000000E+01 0. -1.
         -5    1    3    3    0  502  0.86691633337E+01 -0.46877587731E+02 -0.39570100534E+02  0.62096118081E+02  0.41800000000E+01 0. -1.
        -11    1    4    4    0    0  0.42644102890E+02 -0.46561661334E+01 -0.14100469170E+02  0.45155538145E+02  0.00000000000E+00 0.  1.
         11    1    4    4    0    0 -0.38180824587E+02 -0.15396038960E+01  0.25448052214E+02  0.45910228793E+02  0.00000000000E+00 0. -1.
</event>
<event>
 8    1  0.3541538E-009  0.8709873E+02  0.7561462E-02  0.1310034E+00
         -2   -1    0    0    0  501 -0.00000000000E+00  0.00000000000E+00  0.31374377333E+02  0.31374377333E+02  0.00000000000E+00 0.  1.
          2   -1    0    0  501    0  0.00000000000E+00 -0.00000000000E+00 -0.74685565349E+03  0.74685565349E+03  0.00000000000E+00 0. -1.
         25    2    1    2    0    0  0.51984405833E+02 -0.37204706208E+02 -0.16499055349E+03  0.21668828357E+03  0.12508141701E+03 0.  0.
         23    2    1    2    0    0 -0.51984405833E+02  0.37204706208E+02 -0.55049072267E+03  0.56154174726E+03  0.90567817413E+02 0.  0.
          5    1    3    3  502    0  0.40920868497E+02 -0.25415514579E+02  0.24526940546E+01  0.48414398354E+02  0.41800000000E+01 0. -1.
         -5    1    3    3    0  502  0.11063537336E+02 -0.11789191628E+02 -0.16744324754E+03  0.16827388521E+03  0.41800000000E+01 0. -1.
        -11    1    4    4    0    0  0.58857408241E+01  0.49612818261E+02 -0.20373908160E+03  0.20977532518E+03  0.00000000000E+00 0.  1.
         11    1    4    4    0    0 -0.57870146657E+02 -0.12408112053E+02 -0.34675164107E+03  0.35176642208E+03  0.00000000000E+00 0. -1.
</event>
<event>
 8    1  0.3541538E-009  0.1169796E+03  0.7561462E-02  0.1248165E+00
          1   -1    0    0  501    0  0.00000000000E+00  0.00000000000E+00  0.20981955244E+03  0.20981955244E+03  0.00000000000E+00 0. -1.
         -1   -1    0    0    0  501 -0.00000000000E+00 -0.00000000000E+00 -0.97284400365E+02  0.97284400365E+02  0.00000000000E+00 0.  1.
         25    2    1    2    0    0 -0.62963397451E+02 -0.56445566354E+02  0.21722260044E+02  0.15254549523E+03  0.12509108743E+03 0.  0.
         23    2    1    2    0    0  0.62963397451E+02  0.56445566354E+02  0.90812892033E+02  0.15455845758E+03  0.92145776190E+02 0.  0.
          5    1    3    3  502    0  0.30953177041E+02 -0.19899983403E+02  0.34822821264E+02  0.50835123578E+02  0.41800000000E+01 0.  1.
         -5    1    3    3    0  502 -0.93916574491E+02 -0.36545582951E+02 -0.13100561220E+02  0.10171037165E+03  0.41800000000E+01 0.  1.
        -11    1    4    4    0    0  0.40716345309E+02  0.61011955944E+02  0.14280682275E+02  0.74727621597E+02  0.00000000000E+00 0.  1.
         11    1    4    4    0    0  0.22247052142E+02 -0.45663895893E+01  0.76532209757E+02  0.79830835980E+02  0.00000000000E+00 0. -1.
</event>
<event>
 8    1  0.3541538E-009  0.1180450E+03  0.7561462E-02  0.1246357E+00
          1   -1    0    0  501    0  0.00000000000E+00  0.00000000000E+00  0.40236339003E+03  0.40236339003E+03  0.00000000000E+00 0. -1.
         -1   -1    0    0    0  501 -0.00000000000E+00 -0.00000000000E+00 -0.64660328152E+02  0.64660328152E+02  0.00000000000E+00 0.  1.
         25    2    1    2    0    0  0.77593907749E+02  0.16750986840E+02  0.30968437648E+03  0.34329876369E+03  0.12509283766E+03 0.  0.
         23    2    1    2    0    0 -0.77593907749E+02 -0.16750986840E+02  0.28018685397E+02  0.12372495449E+03  0.90671977772E+02 0.  0.
          5    1    3    3  502    0 -0.30355222792E+02 -0.58815751198E+00  0.12441401252E+03  0.12813315102E+03  0.41800000000E+01 0.  1.
         -5    1    3    3    0  502  0.10794913054E+03  0.17339144352E+02  0.18527036397E+03  0.21516561267E+03  0.41800000000E+01 0.  1.
        -11    1    4    4    0    0 -0.76683592993E+02  0.25321568563E+01 -0.13531214044E+02  0.77909428224E+02  0.00000000000E+00 0.  1.
         11    1    4    4    0    0 -0.91031475642E+00 -0.19283143696E+02  0.41549899442E+02  0.45815526270E+02  0.00000000000E+00 0. -1.
</event>
<event>
 8    1  0.3541538E-009  0.9481779E+02  0.7561462E-02  0.1291587E+00
          1   -1    0    0  501    0  0.00000000000E+00  0.00000000000E+00  0.21013612668E+03  0.21013612668E+03  0.00000000000E+00 0. -1.
         -1   -1    0    0    0  501 -0.00000000000E+00 -0.00000000000E+00 -0.75938428908E+02  0.75938428908E+02  0.00000000000E+00 0.  1.
         25    2    1    2    0    0  0.17179304065E+02 -0.23549283223E+02  0.12337654297E+02  0.12903653181E+03  0.12509401104E+03 0.  0.
         23    2    1    2    0    0 -0.17179304065E+02  0.23549283223E+02  0.12186004348E+03  0.15703802378E+03  0.94664531311E+02 0.  0.
          5    1    3    3  502    0  0.62333190743E+02 -0.19413593038E+02 -0.25117337248E+02  0.70076153528E+02  0.41800000000E+01 0.  1.
         -5    1    3    3    0  502 -0.45153886677E+02 -0.41356901854E+01  0.37454991545E+02  0.58960378281E+02  0.41800000000E+01 0.  1.
        -11    1    4    4    0    0  0.23207765016E+02 -0.10859691941E+02  0.93356475627E+02  0.96808908720E+02  0.00000000000E+00 0. -1.
         11    1    4    4    0    0 -0.40387069081E+02  0.34408975164E+02  0.28503567849E+02  0.60229115060E+02  0.00000000000E+00 0.  1.
</event>
<event>
 8    1  0.3541538E-009  0.1257616E+03  0.7561462E-02  0.1233884E+00
          4   -1    0    0  501    0  0.00000000000E+00  0.00000000000E+00  0.79492788597E+02  0.79492788597E+02  0.00000000000E+00 0. -1.
         -4   -1    0    0    0  501 -0.00000000000E+00 -0.00000000000E+00 -0.25298702238E+03  0.25298702238E+03  0.00000000000E+00 0.  1.
         25    2    1    2    0    0 -0.55404683742E+02 -0.62683805017E+02 -0.53218301778E+02  0.15961989963E+03  0.12508951324E+03 0.  0.
         23    2    1    2    0    0  0.55404683742E+02  0.62683805017E+02 -0.12027593201E+03  0.17285991135E+03  0.91735002801E+02 0.  0.
          5    1    3    3  502    0 -0.27793218345E+02  0.37211854016E+02 -0.19568814036E+02  0.50572679858E+02  0.41800000000E+01 0.  1.
         -5    1    3    3    0  502 -0.27611465397E+02 -0.99895659033E+02 -0.33649487742E+02  0.10904721977E+03  0.41800000000E+01 0.  1.
        -11    1    4    4    0    0  0.62160767184E+02  0.32325762672E+02 -0.12308851311E+03  0.14163226316E+03  0.00000000000E+00 0.  1.
         11    1    4    4    0    0 -0.67560834418E+01  0.30358042345E+02  0.28125811052E+01  0.31227648182E+02  0.00000000000E+00 0. -1.
</event>
<event>
 8    1  0.3541538E-009  0.1856070E+03  0.7561462E-02  0.1162484E+00
          1   -1    0    0  501    0  0.00000000000E+00  0.00000000000E+00  0.43948172592E+03  0.43948172592E+03  0.00000000000E+00 0. -1.
         -1   -1    0    0    0  501 -0.00000000000E+00 -0.00000000000E+00 -0.89830570030E+02  0.89830570030E+02  0.00000000000E+00 0.  1.
         25    2    1    2    0    0 -0.14885056067E+03 -0.72886779359E+02  0.16989409847E+03  0.26829332605E+03  0.12509329356E+03 0.  0.
         23    2    1    2    0    0  0.14885056067E+03  0.72886779359E+02  0.17975705742E+03  0.26101896989E+03  0.91374673370E+02 0.  0.
          5    1    3    3  502    0 -0.88999905067E+02  0.21155695363E+02  0.10466466281E+03  0.13907088333E+03  0.41800000000E+01 0.  1.
         -5    1    3    3    0  502 -0.59850655605E+02 -0.94042474722E+02  0.65229435660E+02  0.12922244273E+03  0.41800000000E+01 0.  1.
        -11    1    4    4    0    0  0.48047146697E+02  0.38538028998E+02  0.12675023182E+02  0.62883735556E+02  0.00000000000E+00 0.  1.
         11    1    4    4    0    0  0.10080341398E+03  0.34348750361E+02  0.16708203424E+03  0.19813523434E+03  0.00000000000E+00 0. -1.
</event>
<event>
 8    1  0.3541538E-009  0.1108128E+03  0.7561462E-02  0.1259072E+00
          2   -1    0    0  501    0  0.00000000000E+00  0.00000000000E+00  0.68923323401E+02  0.68923323401E+02  0.00000000000E+00 0. -1.
         -2   -1    0    0    0  501 -0.00000000000E+00 -0.00000000000E+00 -0.25706209685E+03  0.25706209685E+03  0.00000000000E+00 0.  1.
         25    2    1    2    0    0 -0.59258067678E+02  0.26867985606E+02 -0.14032578651E+03  0.19892814256E+03  0.12509065636E+03 0.  0.
         23    2    1    2    0    0  0.59258067678E+02 -0.26867985606E+02 -0.47812986941E+02  0.12705727769E+03  0.98102308119E+02 0.  0.
          5    1    3    3  502    0  0.19698803895E+02  0.39029972054E+02 -0.85082237670E+01  0.44735264223E+02  0.41800000000E+01 0. -1.
         -5    1    3    3    0  502 -0.78956871573E+02 -0.12161986449E+02 -0.13181756274E+03  0.15419287833E+03  0.41800000000E+01 0. -1.
        -11    1    4    4    0    0 -0.55118277561E+01  0.18060228479E+02  0.16691175637E+02  0.25202131697E+02  0.00000000000E+00 0. -1.
         11    1    4    4    0    0  0.64769895434E+02 -0.44928214085E+02 -0.64504162578E+02  0.10185514599E+03  0.00000000000E+00 0.  1.
</event>
<event>
 8    1  0.3541538E-009  0.1922591E+03  0.7561462E-02  0.1156439E+00
          1   -1    0    0  501    0  0.00000000000E+00  0.00000000000E+00  0.29142244538E+03  0.29142244538E+03  0.00000000000E+00 0. -1.
         -1   -1    0    0    0  501 -0.00000000000E+00 -0.00000000000E+00 -0.13116405916E+03  0.13116405916E+03  0.00000000000E+00 0.  1.
         25    2    1    2    0    0  0.70101754008E+02 -0.14549850694E+03  0.74034078566E+02  0.21728509192E+03  0.12509074683E+03 0.  0.
         23    2    1    2    0    0 -0.70101754008E+02  0.14549850694E+03  0.86224307657E+02  0.20530141262E+03  0.92897617607E+02 0.  0.
          5    1    3    3  502    0  0.63466043398E+02 -0.16842216716E+03  0.64175540182E+02  0.19112806548E+03  0.41800000000E+01 0.  1.
         -5    1    3    3    0  502  0.66357106101E+01  0.22923660217E+02  0.98585383840E+01  0.26157026439E+02  0.41800000000E+01 0.  1.
        -11    1    4    4    0    0 -0.31574195001E+01  0.98294720394E+02  0.72654002912E+02  0.12227193257E+03  0.00000000000E+00 0. -1.
         11    1    4    4    0    0 -0.66944334508E+02  0.47203786549E+02  0.13570304745E+02  0.83029480054E+02  0.00000000000E+00 0.  1.
</event>
<event>
 8    1  0.3541538E-009  0.1057169E+03  0.7561462E-02  0.1268714E+00
         -1   -1    0    0    0  501 -0.00000000000E+00  0.00000000000E+00  0.23549093663E+03  0.23549093663E+03  0.00000000000E+00 0.  1.
          1   -1    0    0  501    0  0.00000000000E+00 -0.00000000000E+00 -0.16631744678E+03  0.16631744678E+03  0.00000000000E+00 0. -1.
         25    2    1    2    0    0  0.14952983478E+02 -0.35589330307E+02  0.19952884687E+03  0.23864194688E+03  0.12509206981E+03 0.  0.
         23    2    1    2    0    0 -0.14952983478E+02  0.35589330307E+02 -0.13035535702E+03  0.16316643653E+03  0.90225133735E+02 0.  0.
          5    1    3    3  502    0  0.25166297086E+02 -0.71408771329E+02  0.67918399691E+02  0.10179850956E+03  0.41800000000E+01 0. -1.
         -5    1    3    3    0  502 -0.10213313608E+02  0.35819441021E+02  0.13161044718E+03  0.13684343732E+03  0.41800000000E+01 0. -1.
        -11    1    4    4    0    0 -0.52831564170E+02  0.26794097563E+02 -0.77416079812E+02  0.97479983845E+02  0.00000000000E+00 0. -1.
         11    1    4    4    0    0  0.37878580692E+02  0.87952327443E+01 -0.52939277209E+02  0.65686452681E+02  0.00000000000E+00 0.  1.
</event>
<event>
 8    1  0.3541538E-009  0.8968702E+02  0.7561462E-02  0.1303611E+00
          3   -1    0    0  501    0  0.00000000000E+00  0.00000000000E+00  0.31333278114E+03  0.31333278114E+03  0.00000000000E+00 0. -1.
         -3   -1    0    0    0  501 -0.00000000000E+00 -0.00000000000E+00 -0.43675347321E+02  0.43675347321E+02  0.00000000000E+00 0.  1.
         25    2    1    2    0    0 -0.10229119757E+01  0.56588245792E+01  0.22282211947E+03  0.25559763042E+03  0.12508950038E+03 0.  0.
         23    2    1    2    0    0  0.10229119757E+01 -0.56588245792E+01  0.46835314351E+02  0.10141049805E+03  0.89763432415E+02 0.  0.
          5    1    3    3  502    0  0.61891007596E+02  0.30325883845E+01  0.11198543422E+03  0.12805429821E+03  0.41800000000E+01 0. -1.
         -5    1    3    3    0  502 -0.62913919571E+02  0.26262361946E+01  0.11083668525E+03  0.12754333221E+03  0.41800000000E+01 0. -1.
        -11    1    4    4    0    0  0.18879389879E+01 -0.29872221646E+02  0.64712946225E+02  0.71299925307E+02  0.00000000000E+00 0. -1.
         11    1    4    4    0    0 -0.86502701221E+00  0.24213397067E+02 -0.17877631873E+02  0.30110572739E+02  0.00000000000E+00 0.  1.
</event>
<event>
 8    1  0.3541538E-009  0.1159129E+03  0.7561462E-02  0.1249996E+00
         -1   -1    0    0    0  501 -0.00000000000E+00  0.00000000000E+00  0.51269814712E+02  0.51269814712E+02  0.00000000000E+00 0.  1.
          1   -1    0    0  501    0  0.00000000000E+00 -0.00000000000E+00 -0.35329806434E+03  0.35329806434E+03  0.00000000000E+00 0. -1.
         25    2    1    2    0    0 -0.67367171821E+00 -0.78735298016E+02 -0.13981528746E+03  0.20345960974E+03  0.12509115556E+03 0.  0.
         23    2    1    2    0    0  0.67367171821E+00  0.78735298016E+02 -0.16221296217E+03  0.20110826932E+03  0.89060596813E+02 0.  0.
          5    1    3    3  502    0 -0.49829440293E+02 -0.26330970585E+02 -0.11356580808E+03  0.12685014110E+03  0.41800000000E+01 0. -1.
         -5    1    3    3    0  502  0.49155768575E+02 -0.52404327431E+02 -0.26249479383E+02  0.76609468641E+02  0.41800000000E+01 0. -1.
        -11    1    4    4    0    0  0.33650578818E+02  0.44690167731E+02 -0.36602902910E+02  0.66853160345E+02  0.00000000000E+00 0.  1.
         11    1    4    4    0    0 -0.32976907100E+02  0.34045130284E+02 -0.12561005926E+03  0.13425510897E+03  0.00000000000E+00 0. -1.
</event>
<event>
 8    1  0.3541538E-009  0.9472793E+02  0.7561462E-02  0.1291790E+00
          2   -1    0    0  501    0  0.00000000000E+00  0.00000000000E+00  0.50183235188E+02  0.50183235188E+02  0.00000000000E+00 0.  1.
         -2   -1    0    0    0  501 -0.00000000000E+00 -0.00000000000E+00 -0.35150633237E+03  0.35150633237E+03  0.00000000000E+00 0. -1.
         25    2    1    2    0    0  0.41941007307E+01  0.52774675430E+02 -0.25100808992E+03  0.28540316902E+03  0.12508857196E+03 0.  0.
         23    2    1    2    0    0 -0.41941007307E+01 -0.52774675430E+02 -0.50315007262E+02  0.11628639854E+03  0.90488505795E+02 0.  0.
          5    1    3    3  502    0 -0.29081351532E+02  0.37932362634E+02 -0.20803915741E+02  0.52295931506E+02  0.41800000000E+01 0.  1.
         -5    1    3    3    0  502  0.33275452262E+02  0.14842312796E+02 -0.23020417418E+03  0.23310723752E+03  0.41800000000E+01 0.  1.
        -11    1    4    4    0    0  0.18330054081E+02  0.20877366220E+02 -0.14693569882E+02  0.31428590467E+02  0.00000000000E+00 0.  1.
         11    1    4    4    0    0 -0.22524154811E+02 -0.73652041650E+02 -0.35621437380E+02  0.84857808069E+02  0.00000000000E+00 0. -1.
</event>
<event>
 8    1  0.3541538E-009  0.1224805E+03  0.7561462E-02  0.1239060E+00
          2   -1    0    0  501    0  0.00000000000E+00  0.00000000000E+00  0.81718628001E+03  0.81718628001E+03  0.00000000000E+00 0. -1.
         -2   -1    0    0    0  501 -0.00000000000E+00 -0.00000000000E+00 -0.28017517631E+02  0.28017517631E+02  0.00000000000E+00 0.  1.
         25    2    1    2    0    0 -0.35770705156E+02  0.93112065970E+02  0.51616418746E+03  0.54039090100E+03  0.12508979691E+03 0.  0.
         23    2    1    2    0    0  0.35770705156E+02 -0.93112065970E+02  0.27300457493E+03  0.30481289665E+03  0.91815052442E+02 0.  0.
          5    1    3    3  502    0 -0.41606446369E+02  0.46825959416E+02  0.47152883594E+03  0.47568969127E+03  0.41800000000E+01 0.  1.
         -5    1    3    3    0  502  0.58357412126E+01  0.46286106554E+02  0.44635351514E+02  0.64701209728E+02  0.41800000000E+01 0.  1.
        -11    1    4    4    0    0 -0.30765525166E+02 -0.21150308231E+02  0.83421487630E+02  0.91394735491E+02  0.00000000000E+00 0.  1.
         11    1    4    4    0    0  0.66536230323E+02 -0.71961757739E+02  0.18958308730E+03  0.21341816116E+03  0.00000000000E+00 0. -1.
</event>
<event>
 8    1  0.3541538E-009  0.8189985E+02  0.7561462E-02  0.1323745E+00
          1   -1    0    0  501    0  0.00000000000E+00  0.00000000000E+00  0.68924569085E+02  0.68924569085E+02  0.00000000000E+00 0. -1.
         -1   -1    0    0    0  501 -0.00000000000E+00 -0.00000000000E+00 -0.69256564321E+03  0.69256564321E+03  0.00000000000E+00 0.  1.
         25    2    1    2    0    0 -0.23703394952E+02 -0.13807439656E+02 -0.64892109669E+03  0.66143654771E+03  0.12508885085E+03 0.  0.
         23    2    1    2    0    0  0.23703394952E+02  0.13807439656E+02  0.25280022559E+02  0.10005366458E+03  0.92839430921E+02 0.  0.
          5    1    3    3  502    0 -0.23996238601E+02 -0.68747151764E+02 -0.36285779361E+03  0.37011517278E+03  0.41800000000E+01 0. -1.
         -5    1    3    3    0  502  0.29284364916E+00  0.54939712107E+02 -0.28606330308E+03  0.29132137493E+03  0.41800000000E+01 0. -1.
        -11    1    4    4    0    0  0.24787361984E+02  0.30734256561E+01 -0.32660928686E+02  0.41116852044E+02  0.00000000000E+00 0.  1.
         11    1    4    4    0    0 -0.10839670326E+01  0.10734014000E+02  0.57940951245E+02  0.58936812539E+02  0.00000000000E+00 0. -1.
</event>
<event>
 8    1  0.3541538E-009  0.1489772E+03  0.7561462E-02  0.1201735E+00
          1   -1    0    0  501    0  0.00000000000E+00  0.00000000000E+00  0.13356927836E+04  0.13356927836E+04  0.00000000000E+00 0. -1.
         -1   -1    0    0    0  501 -0.00000000000E+00 -0.00000000000E+00 -0.18739860809E+02  0.18739860809E+02  0.00000000000E+00 0.  1.
         25    2    1    2    0    0 -0.96641876580E+02 -0.37393762342E+02  0.91740195316E+03  0.93167175726E+03  0.12509186162E+03 0.  0.
         23    2    1    2    0    0  0.96641876580E+02  0.37393762342E+02  0.39955096967E+03  0.42276088719E+03  0.91366539832E+02 0.  0.
          5    1    3    3  502    0 -0.13120188013E+01 -0.63384037504E+02  0.35546097114E+03  0.36109449180E+03  0.41800000000E+01 0. -1.
         -5    1    3    3    0  502 -0.95329857778E+02  0.25990275163E+02  0.56194098203E+03  0.57057726547E+03  0.41800000000E+01 0. -1.
        -11    1    4    4    0    0  0.11292675288E+03  0.26703046661E+02  0.30739323638E+03  0.32856674511E+03  0.00000000000E+00 0.  1.
         11    1    4    4    0    0 -0.16284876297E+02  0.10690715681E+02  0.92157733284E+02  0.94194142078E+02  0.00000000000E+00 0. -1.
</event>
<event>
 8    1  0.3541538E-009  0.8338349E+02  0.7561462E-02  0.1319715E+00
          1   -1    0    0  501    0  0.00000000000E+00  0.00000000000E+00  0.13860076154E+04  0.13860076154E+04  0.00000000000E+00 0. -1.
         -1   -1    0    0    0  501 -0.00000000000E+00 -0.00000000000E+00 -0.99880018956E+01  0.99880018956E+01  0.00000000000E+00 0.  1.
         25    2    1    2    0    0  0.13445731740E+02 -0.23447079232E+02  0.10461510375E+04  0.10539487109E+04  0.12508132822E+03 0.  0.
         23    2    1    2    0    0 -0.13445731740E+02  0.23447079232E+02  0.32986857602E+03  0.34204690643E+03  0.86326447452E+02 0.  0.
          5    1    3    3  502    0  0.17266280351E+02 -0.50929961439E+02  0.98707010017E+03  0.98854278636E+03  0.41800000000E+01 0. -1.
         -5    1    3    3    0  502 -0.38205486113E+01  0.27482882207E+02  0.59080937305E+02  0.65405924494E+02  0.41800000000E+01 0. -1.
        -11    1    4    4    0    0 -0.17971190572E+02  0.52434544177E+02  0.26668047266E+03  0.27237991778E+03  0.00000000000E+00 0. -1.
         11    1    4    4    0    0  0.45254588321E+01 -0.28987464945E+02  0.63188103363E+02  0.69666988654E+02  0.00000000000E+00 0.  1.
</event>
<event>
 8    1  0.3541538E-009  0.1138561E+03  0.7561462E-02  0.1253591E+00
          1   -1    0    0  501    0  0.00000000000E+00  0.00000000000E+00  0.63323632141E+03  0.63323632141E+03  0.00000000000E+00 0. -1.
         -1   -1    0    0    0  501 -0.00000000000E+00 -0.00000000000E+00 -0.23925148878E+02  0.23925148878E+02  0.00000000000E+00 0.  1.
         25    2    1    2    0    0  0.33152349545E+02 -0.45021767914E+02  0.38336311070E+03  0.40711287669E+03  0.12509029480E+03 0.  0.
         23    2    1    2    0    0 -0.33152349545E+02  0.45021767914E+02  0.22594806183E+03  0.25004859360E+03  0.91354992472E+02 0.  0.
          5    1    3    3  502    0 -0.31934398783E+02 -0.51856723893E+02  0.26354902944E+03  0.27052631842E+03  0.41800000000E+01 0.  1.
         -5    1    3    3    0  502  0.65086748328E+02  0.68349559789E+01  0.11981408126E+03  0.13658655827E+03  0.41800000000E+01 0.  1.
        -11    1    4    4    0    0  0.25984868448E+02  0.30742884339E+02  0.51940371685E+02  0.65712559960E+02  0.00000000000E+00 0.  1.
         11    1    4    4    0    0 -0.59137217993E+02  0.14278883575E+02  0.17400769014E+03  0.18433603364E+03  0.00000000000E+00 0. -1.
</event>
<event>
 8    1  0.3541538E-009  0.6598599E+02  0.7561462E-02  0.1374301E+00
          1   -1    0    0  501    0  0.00000000000E+00  0.00000000000E+00  0.50441512879E+03  0.50441512879E+03  0.00000000000E+00 0. -1.
         -1   -1    0    0    0  501 -0.00000000000E+00 -0.00000000000E+00 -0.33863813654E+02  0.33863813654E+02  0.00000000000E+00 0.  1.
         25    2    1    2    0    0 -0.44025394687E+02 -0.15244772280E+02  0.37480094092E+03  0.39786201785E+03  0.12509117264E+03 0.  0.
         23    2    1    2    0    0  0.44025394687E+02  0.15244772280E+02  0.95750374218E+02  0.14041692460E+03  0.91532180630E+02 0.  0.
          5    1    3    3  502    0 -0.24110858744E+02  0.12299825272E+02  0.35917866606E+03  0.36022132886E+03  0.41800000000E+01 0.  1.
         -5    1    3    3    0  502 -0.19914535943E+02 -0.27544597551E+02  0.15622274862E+02  0.37640688994E+02  0.41800000000E+01 0.  1.
        -11    1    4    4    0    0  0.13915094351E+02  0.32697874318E+02 -0.30497364838E+01  0.35666254756E+02  0.00000000000E+00 0.  1.
         11    1    4    4    0    0  0.30110300337E+02 -0.17453102039E+02  0.98800110702E+02  0.10475066984E+03  0.00000000000E+00 0. -1.
</event>
<event>
 8    1  0.3541538E-009  0.6633925E+02  0.7561462E-02  0.1373003E+00
         -2   -1    0    0    0  501 -0.00000000000E+00  0.00000000000E+00  0.43487349431E+03  0.43487349431E+03  0.00000000000E+00 0.  1.
          2   -1    0    0  501    0  0.00000000000E+00 -0.00000000000E+00 -0.55593127780E+02  0.55593127780E+02  0.00000000000E+00 0. -1.
         25    2    1    2    0    0 -0.51318556790E+02 -0.19812229888E+02  0.35549382348E+03  0.38085312516E+03  0.12508847144E+03 0.  0.
         23    2    1    2    0    0  0.51318556790E+02  0.19812229888E+02  0.23786543056E+02  0.10961349693E+03  0.91777994942E+02 0.  0.
          5    1    3    3  502    0 -0.42997661778E+02 -0.73372496837E+01  0.36151586588E+03  0.36416181545E+03  0.41800000000E+01 0. -1.
         -5    1    3    3    0  502 -0.83208950117E+01 -0.12474980205E+02 -0.60220424044E+01  0.16691309704E+02  0.41800000000E+01 0. -1.
        -11    1    4    4    0    0  0.49914385753E+02  0.33124935149E+02 -0.20524708952E+02  0.63324331116E+02  0.00000000000E+00 0. -1.
         11    1    4    4    0    0  0.14041710368E+01 -0.13312705261E+02  0.44311252008E+02  0.46289165818E+02  0.00000000000E+00 0.  1.
</event>
<event>
 8    1  0.3541538E-009  0.1614673E+03  0.7561462E-02  0.1187050E+00
          1   -1    0    0  501    0  0.00000000000E+00  0.00000000000E+00  0.70332887609E+02  0.70332887609E+02  0.00000000000E+00 0. -1.
         -1   -1    0    0    0  501 -0.00000000000E+00 -0.00000000000E+00 -0.50201070406E+03  0.50201070406E+03  0.00000000000E+00 0.  1.
         25    2    1    2    0    0  0.13671408177E+03  0.11510535762E+02 -0.12493774082E+03  0.22378646156E+03  0.12509080186E+03 0.  0.
         23    2    1    2    0    0 -0.13671408177E+03 -0.11510535762E+02 -0.30674007563E+03  0.34855713010E+03  0.92624869029E+02 0.  0.
          5    1    3    3  502    0  0.14724039865E+03  0.28115780714E+00 -0.13899524187E+03  0.20252645187E+03  0.41800000000E+01 0.  1.
         -5    1    3    3    0  502 -0.10526316878E+02  0.11229377955E+02  0.14057501053E+02  0.21260009692E+02  0.41800000000E+01 0.  1.
        -11    1    4    4    0    0 -0.11315376723E+03  0.25331159868E+02 -0.25924631246E+03  0.28399664298E+03  0.00000000000E+00 0.  1.
         11    1    4    4    0    0 -0.23560314540E+02 -0.36841695630E+02 -0.47493763166E+02  0.64560487125E+02  0.00000000000E+00 0. -1.
</event>
<event>
 8    1  0.3541538E-009  0.1488563E+03  0.7561462E-02  0.1201885E+00
         -1   -1    0    0    0  501 -0.00000000000E+00  0.00000000000E+00  0.35381421898E+02  0.35381421898E+02  0.00000000000E+00 0.  1.
          1   -1    0    0  501    0  0.00000000000E+00 -0.00000000000E+00 -0.99813569028E+03  0.99813569028E+03  0.00000000000E+00 0. -1.
         25    2    1    2    0    0  0.83375635408E+02 -0.59245853373E+02 -0.19301943177E+03  0.25172584247E+03  0.12509129069E+03 0.  0.
         23    2    1    2    0    0 -0.83375635408E+02  0.59245853373E+02 -0.76973483662E+03  0.78179126971E+03  0.90798144108E+02 0.  0.
          5    1    3    3  502    0  0.93163001798E+02  0.73408163225E+01 -0.10129176057E+03  0.13787938805E+03  0.41800000000E+01 0. -1.
         -5    1    3    3    0  502 -0.97873663899E+01 -0.66586669695E+02 -0.91727671195E+02  0.11384645442E+03  0.41800000000E+01 0. -1.
        -11    1    4    4    0    0  0.19906445461E+02  0.82260436564E+01 -0.12772228239E+03  0.12952573406E+03  0.00000000000E+00 0.  1.
         11    1    4    4    0    0 -0.10328208087E+03  0.51019809716E+02 -0.64201255423E+03  0.65226553565E+03  0.00000000000E+00 0. -1.
</event>
<event>
 8    1  0.3541538E-009  0.1069972E+03  0.7561462E-02  0.1266234E+00
          4   -1    0    0  501    0  0.00000000000E+00  0.00000000000E+00  0.42833411696E+02  0.42833411696E+02  0.00000000000E+00 0. -1.
         -4   -1    0    0    0  501 -0.00000000000E+00 -0.00000000000E+00 -0.34090038761E+03  0.34090038761E+03  0.00000000000E+00 0.  1.
         25    2    1    2    0    0  0.17443869504E+02  0.46628884174E+02 -0.18593461016E+03  0.22955926358E+03  0.12508890765E+03 0.  0.
         23    2    1    2    0    0 -0.17443869504E+02 -0.46628884174E+02 -0.11213236576E+03  0.15417453573E+03  0.93367974136E+02 0.  0.
          5    1    3    3  502    0 -0.40363144348E+02 -0.11640649399E+02 -0.10937394991E+03  0.11723831054E+03  0.41800000000E+01 0.  1.
         -5    1    3    3    0  502  0.57807013852E+02  0.58269533573E+02 -0.76560660253E+02  0.11232095304E+03  0.41800000000E+01 0.  1.
        -11    1    4    4    0    0 -0.46947053186E+02 -0.30245452940E+02 -0.25872594742E+02  0.61548390597E+02  0.00000000000E+00 0. -1.
         11    1    4    4    0    0  0.29503183682E+02 -0.16383431234E+02 -0.86259771015E+02  0.92626145131E+02  0.00000000000E+00 0.  1.
</event>
<event>
 8    1  0.3541538E-009  0.9713791E+02  0.7561462E-02  0.1286432E+00
          2   -1    0    0  501    0  0.00000000000E+00  0.00000000000E+00  0.52528367155E+03  0.52528367155E+03  0.00000000000E+00 0. -1.
         -2   -1    0    0    0  501 -0.00000000000E+00 -0.00000000000E+00 -0.24995205290E+02  0.24995205290E+02  0.00000000000E+00 0.  1.
         25    2    1    2    0    0  0.34968889555E+02 -0.12423935236E+02  0.28204316243E+03  0.31076260368E+03  0.12509145840E+03 0.  0.
         23    2    1    2    0    0 -0.34968889555E+02  0.12423935236E+02  0.21824530382E+03  0.23951627316E+03  0.91432243021E+02 0.  0.
          5    1    3    3  502    0  0.46679261345E+02 -0.52654801881E+02  0.90863703253E+02  0.11500072421E+03  0.41800000000E+01 0.  1.
         -5    1    3    3    0  502 -0.11710371791E+02  0.40230866645E+02  0.19117945918E+03  0.19576187946E+03  0.41800000000E+01 0.  1.
        -11    1    4    4    0    0  0.21950739481E+02 -0.42638218889E+01  0.12985871851E+02  0.25858229030E+02  0.00000000000E+00 0.  1.
         11    1    4    4    0    0 -0.56919629035E+02  0.16687757125E+02  0.20525943197E+03  0.21365804413E+03  0.00000000000E+00 0. -1.
</event>
<event>
 8    1  0.3541538E-009  0.7565674E+02  0.7561462E-02  0.1341849E+00
          1   -1    0    0  501    0  0.00000000000E+00  0.00000000000E+00  0.25835962644E+03  0.25835962644E+03  0.00000000000E+00 0. -1.
         -1   -1    0    0    0  501 -0.00000000000E+00 -0.00000000000E+00 -0.71769027577E+02  0.71769027577E+02  0.00000000000E+00 0.  1.
         25    2    1    2    0    0  0.11756057471E+02  0.17791393751E+02  0.19776631132E+03  0.23497508533E+03  0.12508812195E+03 0.  0.
         23    2    1    2    0    0 -0.11756057471E+02 -0.17791393751E+02 -0.11175712458E+02  0.95153568685E+02  0.92057408750E+02 0.  0.
          5    1    3    3  502    0  0.33097477610E+01 -0.41017312888E+02  0.15808781452E+03  0.16340931395E+03  0.41800000000E+01 0.  1.
         -5    1    3    3    0  502  0.84463097102E+01  0.58808706639E+02  0.39678496797E+02  0.71565771374E+02  0.41800000000E+01 0.  1.
        -11    1    4    4    0    0  0.17432975966E+02 -0.30715425028E+01 -0.44852737151E+02  0.48219405371E+02  0.00000000000E+00 0.  1.
         11    1    4    4    0    0 -0.29189033438E+02 -0.14719851248E+02  0.33677024693E+02  0.46934163314E+02  0.00000000000E+00 0. -1.
</event>
<event>
 8    1  0.3541538E-009  0.1410296E+03  0.7561462E-02  0.1211950E+00
          2   -1    0    0  501    0  0.00000000000E+00  0.00000000000E+00  0.68313954128E+02  0.68313954128E+02  0.00000000000E+00 0. -1.
         -2   -1    0    0    0  501 -0.00000000000E+00 -0.00000000000E+00 -0.36751909450E+03  0.36751909450E+03  0.00000000000E+00 0.  1.
         25    2    1    2    0    0  0.51361594570E+02  0.85574166897E+02 -0.23886362349E+03  0.28751640559E+03  0.12509556916E+03 0.  0.
         23    2    1    2    0    0 -0.51361594570E+02 -0.85574166897E+02 -0.60341516882E+02  0.14831664303E+03  0.91628469941E+02 0.  0.
          5    1    3    3  502    0  0.91718485000E+02  0.51964961315E+02 -0.13783862375E+03  0.17357878987E+03  0.41800000000E+01 0. -1.
         -5    1    3    3    0  502 -0.40356890431E+02  0.33609205582E+02 -0.10102499974E+03  0.11393761572E+03  0.41800000000E+01 0. -1.
        -11    1    4    4    0    0 -0.62985529655E+02 -0.35153537923E+02 -0.64018032618E+02  0.96443022944E+02  0.00000000000E+00 0.  1.
         11    1    4    4    0    0  0.11623935085E+02 -0.50420628974E+02  0.36765157355E+01  0.51873620087E+02  0.00000000000E+00 0. -1.
</event>
<event>
 8    1  0.3541538E-009  0.1745721E+03  0.7561462E-02  0.1173162E+00
         -1   -1    0    0    0  501 -0.00000000000E+00  0.00000000000E+00  0.16430140448E+03  0.16430140448E+03  0.00000000000E+00 0.  1.
          1   -1    0    0  501    0  0.00000000000E+00 -0.00000000000E+00 -0.22643470627E+03  0.22643470627E+03  0.00000000000E+00 0. -1.
         25    2    1    2    0    0  0.76221733913E+02 -0.12906658433E+03 -0.86731671023E+02  0.21363163076E+03  0.12509258567E+03 0.  0.
         23    2    1    2    0    0 -0.76221733913E+02  0.12906658433E+03  0.24598369234E+02  0.17710447999E+03  0.91065806722E+02 0.  0.
          5    1    3    3  502    0  0.16881974181E+02 -0.11251269377E+03 -0.87795499477E+01  0.11418695288E+03  0.41800000000E+01 0. -1.
         -5    1    3    3    0  502  0.59339759733E+02 -0.16553890562E+02 -0.77952121076E+02  0.99444677877E+02  0.41800000000E+01 0. -1.
        -11    1    4    4    0    0  0.18783476063E+02  0.35722960276E+02 -0.49958738119E+01  0.40668263044E+02  0.00000000000E+00 0. -1.
         11    1    4    4    0    0 -0.95005209977E+02  0.93343624051E+02  0.29594243046E+02  0.13643621695E+03  0.00000000000E+00 0.  1.
</event>
<event>
 8    1  0.3541538E-009  0.1772348E+03  0.7561462E-02  0.1170506E+00
         -2   -1    0    0    0  501 -0.00000000000E+00  0.00000000000E+00  0.50353504642E+02  0.50353504642E+02  0.00000000000E+00 0.  1.
          2   -1    0    0  501    0  0.00000000000E+00 -0.00000000000E+00 -0.80613502975E+03  0.80613502975E+03  0.00000000000E+00 0. -1.
         25    2    1    2    0    0  0.15128309418E+03 -0.47619380111E+02 -0.26693257354E+03  0.33474600847E+03  0.12509081272E+03 0.  0.
         23    2    1    2    0    0 -0.15128309418E+03  0.47619380111E+02 -0.48884895157E+03  0.52174252592E+03  0.89932118584E+02 0.  0.
          5    1    3    3  502    0  0.33364130314E+02 -0.65782917399E+02 -0.57268030328E+02  0.93475435869E+02  0.41800000000E+01 0. -1.
         -5    1    3    3    0  502  0.11791896387E+03  0.18163537288E+02 -0.20966454321E+03  0.24127057260E+03  0.41800000000E+01 0. -1.
        -11    1    4    4    0    0 -0.69108711966E+02  0.36884705289E+02 -0.11722301228E+03  0.14098840435E+03  0.00000000000E+00 0.  1.
         11    1    4    4    0    0 -0.82174382215E+02  0.10734674822E+02 -0.37162593929E+03  0.38075412157E+03  0.00000000000E+00 0. -1.
</event>
<event>
 8    1  0.3541538E-009  0.8468688E+02  0.7561462E-02  0.1316253E+00
         -2   -1    0    0    0  501 -0.00000000000E+00  0.00000000000E+00  0.83124835453E+02  0.83124835453E+02  0.00000000000E+00 0. -1.
          2   -1    0    0  501    0  0.00000000000E+00 -0.00000000000E+00 -0.14596534950E+03  0.14596534950E+03  0.00000000000E+00 0.  1.
         25    2    1    2    0    0  0.82595287968E+01  0.20063753521E+02 -0.35985423092E+02  0.13195886785E+03  0.12508964029E+03 0.  0.
         23    2    1    2    0    0 -0.82595287968E+01 -0.20063753521E+02 -0.26855090958E+02  0.97131317104E+02  0.90788340830E+02 0.  0.
          5    1    3    3  502    0 -0.27429050622E+02 -0.35494232777E+02 -0.46748768616E+02  0.64923902729E+02  0.41800000000E+01 0.  1.
         -5    1    3    3    0  502  0.35688579419E+02  0.55557986298E+02  0.10763345524E+02  0.67034965125E+02  0.41800000000E+01 0.  1.
        -11    1    4    4    0    0 -0.26884079552E+02  0.45752014777E+01 -0.51062985182E+02  0.57888812889E+02  0.00000000000E+00 0.  1.
         11    1    4    4    0    0  0.18624550756E+02 -0.24638954999E+02  0.24207894224E+02  0.39242504215E+02  0.00000000000E+00 0. -1.
</event>
<event>
 8    1  0.3541538E-009  0.1136362E+03  0.7561462E-02  0.1253981E+00
          1   -1    0    0  501    0  0.00000000000E+00  0.00000000000E+00  0.11583666775E+03  0.11583666775E+03  0.00000000000E+00 0. -1.
         -1   -1    0    0    0  501 -0.00000000000E+00 -0.00000000000E+00 -0.11900756341E+03  0.11900756341E+03  0.00000000000E+00 0.  1.
         25    2    1    2    0    0 -0.30616266412E+01 -0.37566465229E+02  0.22888891350E+02  0.13263427924E+03  0.12508931934E+03 0.  0.
         23    2    1    2    0    0  0.30616266412E+01  0.37566465229E+02 -0.26059787003E+02  0.10220995192E+03  0.91362732588E+02 0.  0.
          5    1    3    3  502    0 -0.15651444950E+02  0.44293916427E+02  0.24640856439E+01  0.47227776568E+02  0.41800000000E+01 0. -1.
         -5    1    3    3    0  502  0.12589818309E+02 -0.81860381656E+02  0.20424805706E+02  0.85406502669E+02  0.41800000000E+01 0. -1.
        -11    1    4    4    0    0 -0.37001747251E+02  0.43024671139E+02 -0.59695456385E+01  0.57060381189E+02  0.00000000000E+00 0. -1.
         11    1    4    4    0    0  0.40063373892E+02 -0.54582059102E+01 -0.20090241365E+02  0.45149570734E+02  0.00000000000E+00 0.  1.
</event>
<event>
 8    1  0.3541538E-009  0.9968263E+02  0.7561462E-02  0.1280965E+00
          1   -1    0    0  501    0  0.00000000000E+00  0.00000000000E+00  0.37478647563E+03  0.37478647563E+03  0.00000000000E+00 0. -1.
         -1   -1    0    0    0  501 -0.00000000000E+00 -0.00000000000E+00 -0.41564463739E+02  0.41564463739E+02  0.00000000000E+00 0.  1.
         25    2    1    2    0    0  0.60557771269E+02 -0.13827136673E+02  0.18591041792E+03  0.23252572307E+03  0.12508834888E+03 0.  0.
         23    2    1    2    0    0 -0.60557771269E+02  0.13827136673E+02  0.14731159397E+03  0.18382521630E+03  0.90733516746E+02 0.  0.
          5    1    3    3  502    0  0.15243215605E+02  0.36512520208E+02  0.59922421041E+01  0.40235545471E+02  0.41800000000E+01 0. -1.
         -5    1    3    3    0  502  0.45314555665E+02 -0.50339656881E+02  0.17991817582E+03  0.19229017760E+03  0.41800000000E+01 0. -1.
        -11    1    4    4    0    0 -0.56369621777E+02  0.37483371553E+02  0.51527344602E+02  0.85074112655E+02  0.00000000000E+00 0.  1.
         11    1    4    4    0    0 -0.41881494919E+01 -0.23656234879E+02  0.95784249364E+02  0.98751103644E+02  0.00000000000E+00 0. -1.
</event>
<event>
 8    1  0.3541538E-009  0.1036853E+03  0.7561462E-02  0.1272732E+00
         -2   -1    0    0    0  501 -0.00000000000E+00  0.00000000000E+00  0.13760788637E+03  0.13760788637E+03  0.00000000000E+00 0.  1.
          2   -1    0    0  501    0  0.00000000000E+00 -0.00000000000E+00 -0.98563549990E+02  0.98563549990E+02  0.00000000000E+00 0. -1.
         25    2    1    2    0    0  0.13605934757E+02  0.16802199398E+02  0.36761239009E+02  0.13215887047E+03  0.12508854058E+03 0.  0.
         23    2    1    2    0    0 -0.13605934757E+02 -0.16802199398E+02  0.22830973753E+01  0.10401256590E+03  0.10171512162E+03 0.  0.
          5    1    3    3  502    0 -0.75802513730E+01 -0.50749403363E+02  0.32977370669E+02  0.61138707288E+02  0.41800000000E+01 0. -1.
         -5    1    3    3    0  502  0.21186186130E+02  0.67551602762E+02  0.37838683400E+01  0.71020163180E+02  0.41800000000E+01 0. -1.
        -11    1    4    4    0    0  0.27337005428E+02  0.16727429039E+02 -0.28416392087E+02  0.42832348608E+02  0.00000000000E+00 0. -1.
         11    1    4    4    0    0 -0.40942940185E+02 -0.33529628438E+02  0.30699489463E+02  0.61180217288E+02  0.00000000000E+00 0.  1.
</event>
<event>
 8    1  0.3541538E-009  0.1170074E+03  0.7561462E-02  0.1248117E+00
          2   -1    0    0  501    0  0.00000000000E+00  0.00000000000E+00  0.83800763781E+03  0.83800763781E+03  0.00000000000E+00 0. -1.
         -2   -1    0    0    0  501 -0.00000000000E+00 -0.00000000000E+00 -0.29443147340E+02  0.29443147340E+02  0.00000000000E+00 0.  1.
         25    2    1    2    0    0 -0.37869548118E+02 -0.57426215107E+02  0.69383389601E+03  0.70836778072E+03  0.12509022605E+03 0.  0.
         23    2    1    2    0    0  0.37869548118E+02  0.57426215107E+02  0.11473059446E+03  0.15908300443E+03  0.86095412985E+02 0.  0.
          5    1    3    3  502    0 -0.22327444872E+02  0.31794273279E+02  0.95192438830E+02  0.10290025956E+03  0.41800000000E+01 0.  1.
         -5    1    3    3    0  502 -0.15542103246E+02 -0.89220488386E+02  0.59864145718E+03  0.60546752116E+03  0.41800000000E+01 0.  1.
        -11    1    4    4    0    0  0.30097836408E+02 -0.13458416003E+02  0.14363355349E+02  0.35962684753E+02  0.00000000000E+00 0.  1.
         11    1    4    4    0    0  0.77717117091E+01  0.70884631110E+02  0.10036723911E+03  0.12312031967E+03  0.00000000000E+00 0. -1.
</event>
<event>
 8    1  0.3541538E-009  0.1434722E+03  0.7561462E-02  0.1208732E+00
         -2   -1    0    0    0  501 -0.00000000000E+00  0.00000000000E+00  0.34281016244E+03  0.34281016244E+03  0.00000000000E+00 0. -1.
          2   -1    0    0  501    0  0.00000000000E+00 -0.00000000000E+00 -0.86820243286E+02  0.86820243286E+02  0.00000000000E+00 0.  1.
         25    2    1    2    0    0 -0.21373446563E+02 -0.12730502523E+03  0.17965622818E+03  0.25414010512E+03  0.12508972396E+03 0.  0.
         23    2    1    2    0    0  0.21373446563E+02  0.12730502523E+03  0.76333690974E+02  0.17549030060E+03  0.91140658114E+02 0.  0.
          5    1    3    3  502    0 -0.56481899141E+01 -0.10307002120E+03  0.38902190978E+02  0.11039105119E+03  0.41800000000E+01 0.  1.
         -5    1    3    3    0  502 -0.15725256649E+02 -0.24235004027E+02  0.14075403720E+03  0.14374905393E+03  0.41800000000E+01 0.  1.
        -11    1    4    4    0    0  0.50601029751E+02  0.47292131974E+02  0.15944488258E+02  0.71072052625E+02  0.00000000000E+00 0. -1.
         11    1    4    4    0    0 -0.29227583188E+02  0.80012893257E+02  0.60389202716E+02  0.10441824798E+03  0.00000000000E+00 0.  1.
</event>
<event>
 8    1  0.3541538E-009  0.1667591E+03  0.7561462E-02  0.1181270E+00
         -1   -1    0    0    0  501 -0.00000000000E+00  0.00000000000E+00  0.23040968167E+03  0.23040968167E+03  0.00000000000E+00 0.  1.
          1   -1    0    0  501    0  0.00000000000E+00 -0.00000000000E+00 -0.16496847372E+03  0.16496847372E+03  0.00000000000E+00 0. -1.
         25    2    1    2    0    0 -0.77724075429E+02  0.12372870814E+03  0.10437768782E+03  0.21884232581E+03  0.12508971473E+03 0.  0.
         23    2    1    2    0    0  0.77724075429E+02 -0.12372870814E+03 -0.38936479863E+02  0.17653582958E+03  0.91098982105E+02 0.  0.
          5    1    3    3  502    0 -0.81566665300E+02  0.14213502899E+03  0.67590558142E+02  0.17731735195E+03  0.41800000000E+01 0. -1.
         -5    1    3    3    0  502  0.38425898713E+01 -0.18406320844E+02  0.36787129674E+02  0.41524973854E+02  0.41800000000E+01 0. -1.
        -11    1    4    4    0    0  0.31691793440E+02 -0.21743637833E+02 -0.51148301797E+02  0.63978936646E+02  0.00000000000E+00 0. -1.
         11    1    4    4    0    0  0.46032281989E+02 -0.10198507031E+03  0.12211821934E+02  0.11255689293E+03  0.00000000000E+00 0.  1.
</event>
<event>
 8    1  0.3541538E-009  0.9893094E+02  0.7561462E-02  0.1282560E+00
          1   -1    0    0  501    0  0.00000000000E+00  0.00000000000E+00  0.18074703354E+03  0.18074703354E+03  0.00000000000E+00 0. -1.
         -1   -1    0    0    0  501 -0.00000000000E+00 -0.00000000000E+00 -0.84945907545E+02  0.84945907545E+02  0.00000000000E+00 0.  1.
         25    2    1    2    0    0  0.14902895485E+02 -0.44045396994E+02  0.14228550304E+02  0.13421117862E+03  0.12509234802E+03 0.  0.
         23    2    1    2    0    0 -0.14902895485E+02  0.44045396994E+02  0.81572575695E+02  0.13148176247E+03  0.92039532079E+02 0.  0.
          5    1    3    3  502    0 -0.39539930263E+01  0.41322399449E+02  0.20452752847E+02  0.46464634467E+02  0.41800000000E+01 0. -1.
         -5    1    3    3    0  502  0.18856888511E+02 -0.85367796444E+02 -0.62242025432E+01  0.87746544156E+02  0.41800000000E+01 0. -1.
        -11    1    4    4    0    0 -0.31087359522E+02  0.42071452283E+02  0.42771687108E+01  0.52485476004E+02  0.00000000000E+00 0.  1.
         11    1    4    4    0    0  0.16184464037E+02  0.19739447117E+01  0.77295406984E+02  0.78996286462E+02  0.00000000000E+00 0. -1.
</event>
<event>
 8    1  0.3541538E-009  0.1291781E+03  0.7561462E-02  0.1228680E+00
         -2   -1    0    0    0  501 -0.00000000000E+00  0.00000000000E+00  0.40616386993E+02  0.40616386993E+02  0.00000000000E+00 0. -1.
          2   -1    0    0  501    0  0.00000000000E+00 -0.00000000000E+00 -0.56139591734E+03  0.56139591734E+03  0.00000000000E+00 0.  1.
         25    2    1    2    0    0  0.69340112458E+02  0.10173312028E+02 -0.43381428713E+03  0.45689529662E+03  0.12508768475E+03 0.  0.
         23    2    1    2    0    0 -0.69340112458E+02 -0.10173312028E+02 -0.86965243214E+02  0.14511700772E+03  0.92652279671E+02 0.  0.
          5    1    3    3  502    0  0.93731978277E+02 -0.27382351415E+02 -0.27589257535E+03  0.29269380324E+03  0.41800000000E+01 0.  1.
         -5    1    3    3    0  502 -0.24391865820E+02  0.37555663443E+02 -0.15792171178E+03  0.16420149338E+03  0.41800000000E+01 0.  1.
        -11    1    4    4    0    0  0.21064531831E+02  0.95200994155E+01 -0.12062518801E+02  0.26073955472E+02  0.00000000000E+00 0. -1.
         11    1    4    4    0    0 -0.90404644289E+02 -0.19693411444E+02 -0.74902724413E+02  0.11904305224E+03  0.00000000000E+00 0.  1.
</event>
<event>
 8    1  0.3541538E-009  0.1715042E+03  0.7561462E-02  0.1176288E+00
         -2   -1    0    0    0  501 -0.00000000000E+00  0.00000000000E+00  0.61705522765E+02  0.61705522765E+02  0.00000000000E+00 0.  1.
          2   -1    0    0  501    0  0.00000000000E+00 -0.00000000000E+00 -0.62120310175E+03  0.62120310175E+03  0.00000000000E+00 0. -1.
         25    2    1    2    0    0 -0.65758435358E+02 -0.13411773047E+03 -0.39323408713E+03  0.43885359561E+03  0.12509074165E+03 0.  0.
         23    2    1    2    0    0  0.65758435358E+02  0.13411773047E+03 -0.16626349186E+03  0.24405502891E+03  0.98018217517E+02 0.  0.
          5    1    3    3  502    0 -0.82155385361E+02 -0.11205282334E+03 -0.19960730710E+03  0.24324039962E+03  0.41800000000E+01 0. -1.
         -5    1    3    3    0  502  0.16396950003E+02 -0.22064907127E+02 -0.19362678003E+03  0.19561319598E+03  0.41800000000E+01 0. -1.
        -11    1    4    4    0    0  0.64646236374E+02  0.14840035378E+03 -0.16222756016E+03  0.22917151253E+03  0.00000000000E+00 0. -1.
         11    1    4    4    0    0  0.11121989831E+01 -0.14282623310E+02 -0.40359316927E+01  0.14883516379E+02  0.00000000000E+00 0.  1.
</event>
<event>
 8    1  0.3541538E-009  0.7480523E+02  0.7561462E-02  0.1344475E+00
          1   -1    0    0  501    0  0.00000000000E+00  0.00000000000E+00  0.31026088791E+03  0.31026088791E+03  0.00000000000E+00 0. -1.
         -1   -1    0    0    0  501 -0.00000000000E+00 -0.00000000000E+00 -0.52223001511E+02  0.52223001511E+02  0.00000000000E+00 0.  1.
         25    2    1    2    0    0 -0.11242111660E+02  0.28674154325E+02  0.22443122423E+03  0.25877644397E+03  0.12508909361E+03 0.  0.
         23    2    1    2    0    0  0.11242111660E+02 -0.28674154325E+02  0.33606662169E+02  0.10370744546E+03  0.93151673630E+02 0.  0.
          5    1    3    3  502    0 -0.26188148048E+01 -0.36406803401E+02  0.15751278267E+02  0.39973599937E+02  0.41800000000E+01 0.  1.
         -5    1    3    3    0  502 -0.86232968554E+01  0.65080957727E+02  0.20867994597E+03  0.21880284403E+03  0.41800000000E+01 0.  1.
        -11    1    4    4    0    0  0.19478677375E+02 -0.24874969901E+01 -0.29185608601E+02  0.35176785853E+02  0.00000000000E+00 0.  1.
         11    1    4    4    0    0 -0.82365657149E+01 -0.26186657335E+02  0.62792270770E+02  0.68530659603E+02  0.00000000000E+00 0. -1.
</event>
<event>
 8    1  0.3541538E-009  0.1052699E+03  0.7561462E-02  0.1269589E+00
          2   -1    0    0  501    0  0.00000000000E+00  0.00000000000E+00  0.21726183273E+03  0.21726183273E+03  0.00000000000E+00 0. -1.
         -2   -1    0    0    0  501 -0.00000000000E+00 -0.00000000000E+00 -0.74614105115E+02  0.74614105115E+02  0.00000000000E+00 0.  1.
         25    2    1    2    0    0 -0.61313863472E+02  0.12924725927E+02  0.53860582670E+02  0.14991593082E+03  0.12508951016E+03 0.  0.
         23    2    1    2    0    0  0.61313863472E+02 -0.12924725927E+02  0.88787144942E+02  0.14196000703E+03  0.91340287352E+02 0.  0.
          5    1    3    3  502    0  0.40184751328E+01  0.36589912652E+02 -0.25025762473E+02  0.44707169868E+02  0.41800000000E+01 0. -1.
         -5    1    3    3    0  502 -0.65332338605E+02 -0.23665186725E+02  0.78886345142E+02  0.10520876095E+03  0.41800000000E+01 0. -1.
        -11    1    4    4    0    0  0.81061440013E+02 -0.15173259133E+01  0.45342762804E+02  0.92893624505E+02  0.00000000000E+00 0.  1.
         11    1    4    4    0    0 -0.19747576541E+02 -0.11407400014E+02  0.43444382138E+02  0.49066382521E+02  0.00000000000E+00 0. -1.
</event>
<event>
 8    1  0.3541538E-009  0.1034254E+03  0.7561462E-02  0.1273253E+00
          1   -1    0    0  501    0  0.00000000000E+00  0.00000000000E+00  0.53951695768E+02  0.53951695768E+02  0.00000000000E+00 0. -1.
         -1   -1    0    0    0  501 -0.00000000000E+00 -0.00000000000E+00 -0.22950074268E+03  0.22950074268E+03  0.00000000000E+00 0.  1.
         25    2    1    2    0    0 -0.23595574166E+02  0.63545232009E+01 -0.10727774459E+03  0.16659287930E+03  0.12509013496E+03 0.  0.
         23    2    1    2    0    0  0.23595574166E+02 -0.63545232009E+01 -0.68271302325E+02  0.11685955915E+03  0.91640901119E+02 0.  0.
          5    1    3    3  502    0 -0.29931971246E+02  0.56144832538E+02 -0.95563955324E+02  0.11488301476E+03  0.41800000000E+01 0.  1.
         -5    1    3    3    0  502  0.63363970794E+01 -0.49790309338E+02 -0.11713789266E+02  0.51709864541E+02  0.41800000000E+01 0.  1.
        -11    1    4    4    0    0 -0.24301508614E+02 -0.30570048293E+02 -0.41130241944E+02  0.56716734531E+02  0.00000000000E+00 0.  1.
         11    1    4    4    0    0  0.47897082780E+02  0.24215525092E+02 -0.27141060381E+02  0.60142824617E+02  0.00000000000E+00 0. -1.
</event>
<event>
 8    1  0.3541538E-009  0.1193315E+03  0.7561462E-02  0.1244204E+00
          2   -1    0    0  501    0  0.00000000000E+00  0.00000000000E+00  0.36170186424E+03  0.36170186424E+03  0.00000000000E+00 0. -1.
         -2   -1    0    0    0  501 -0.00000000000E+00 -0.00000000000E+00 -0.46513293088E+02  0.46513293088E+02  0.00000000000E+00 0.  1.
         25    2    1    2    0    0 -0.39664439240E+02  0.39595538463E+02  0.10448343267E+03  0.17235181122E+03  0.12508910713E+03 0.  0.
         23    2    1    2    0    0  0.39664439240E+02 -0.39595538463E+02  0.21070513849E+03  0.23586334611E+03  0.89965483636E+02 0.  0.
          5    1    3    3  502    0 -0.84654224208E+02  0.34816716207E+02  0.69132956912E+02  0.11478405610E+03  0.41800000000E+01 0.  1.
         -5    1    3    3    0  502  0.44989784968E+02  0.47788222563E+01  0.35350475756E+02  0.57567755122E+02  0.41800000000E+01 0.  1.
        -11    1    4    4    0    0  0.15781056943E+02 -0.64906512389E+02  0.10379039856E+03  0.12342748455E+03  0.00000000000E+00 0.  1.
         11    1    4    4    0    0  0.23883382297E+02  0.25310973925E+02  0.10691473992E+03  0.11243586156E+03  0.00000000000E+00 0. -1.
</event>
<event>
 8    1  0.3541538E-009  0.1056027E+03  0.7561462E-02  0.1268937E+00
         -2   -1    0    0    0  501 -0.00000000000E+00  0.00000000000E+00  0.46937821144E+02  0.46937821144E+02  0.00000000000E+00 0. -1.
          2   -1    0    0  501    0  0.00000000000E+00 -0.00000000000E+00 -0.34642586129E+03  0.34642586129E+03  0.00000000000E+00 0.  1.
         25    2    1    2    0    0 -0.29745350248E+02  0.37782480676E+02 -0.23919193088E+03  0.27416818692E+03  0.12507243185E+03 0.  0.
         23    2    1    2    0    0  0.29745350248E+02 -0.37782480676E+02 -0.60296109265E+02  0.11919549552E+03  0.90882581677E+02 0.  0.
          5    1    3    3  502    0 -0.66208368991E+02  0.13093432759E+02 -0.62693306537E+02  0.92211220523E+02  0.41800000000E+01 0.  1.
         -5    1    3    3    0  502  0.36463018742E+02  0.24689047916E+02 -0.17649862435E+03  0.18195696639E+03  0.41800000000E+01 0.  1.
        -11    1    4    4    0    0 -0.30248197029E+02 -0.21741983855E+02 -0.82153086338E+01  0.38146540884E+02  0.00000000000E+00 0. -1.
         11    1    4    4    0    0  0.59993547277E+02 -0.16040496821E+02 -0.52080800631E+02  0.81048954636E+02  0.00000000000E+00 0.  1.
</event>
<event>
 8    1  0.3541538E-009  0.1858778E+03  0.7561462E-02  0.1162233E+00
          1   -1    0    0  501    0  0.00000000000E+00  0.00000000000E+00  0.12669673546E+04  0.12669673546E+04  0.00000000000E+00 0. -1.
         -1   -1    0    0    0  501 -0.00000000000E+00 -0.00000000000E+00 -0.34043810559E+02  0.34043810559E+02  0.00000000000E+00 0.  1.
         25    2    1    2    0    0 -0.14152645218E+03 -0.77627222561E+02  0.40960786898E+03  0.45769184210E+03  0.12508994224E+03 0.  0.
         23    2    1    2    0    0  0.14152645218E+03  0.77627222561E+02  0.82331567506E+03  0.84331932306E+03  0.85340831315E+02 0.  0.
          5    1    3    3  502    0 -0.84200714321E+02  0.18815350917E+02  0.12691788078E+03  0.15352328352E+03  0.41800000000E+01 0. -1.
         -5    1    3    3    0  502 -0.57325737856E+02 -0.96442573478E+02  0.28268998820E+03  0.30416855858E+03  0.41800000000E+01 0. -1.
        -11    1    4    4    0    0  0.59388193132E+02 -0.10048631555E+01  0.16751335361E+03  0.17773207609E+03  0.00000000000E+00 0.  1.
         11    1    4    4    0    0  0.82138259045E+02  0.78632085716E+02  0.65580232146E+03  0.66558724697E+03  0.00000000000E+00 0. -1.
</event>
<event>
 8    1  0.3541538E-009  0.1450195E+03  0.7561462E-02  0.1206730E+00
         -1   -1    0    0    0  501 -0.00000000000E+00  0.00000000000E+00  0.18458778027E+02  0.18458778027E+02  0.00000000000E+00 0. -1.
          1   -1    0    0  501    0  0.00000000000E+00 -0.00000000000E+00 -0.13107585100E+04  0.13107585100E+04  0.00000000000E+00 0.  1.
         25    2    1    2    0    0  0.39038756698E+02  0.10139065715E+03 -0.73068999607E+03  0.74923927197E+03  0.12509007323E+03 0.  0.
         23    2    1    2    0    0 -0.39038756698E+02 -0.10139065715E+03 -0.56160973590E+03  0.57997801606E+03  0.95733556127E+02 0.  0.
          5    1    3    3  502    0 -0.31982034480E+02  0.24330226149E+02 -0.74770361879E+02  0.84987586443E+02  0.41800000000E+01 0.  1.
         -5    1    3    3    0  502  0.71020791178E+02  0.77060431002E+02 -0.65591963419E+03  0.66425168553E+03  0.41800000000E+01 0.  1.
        -11    1    4    4    0    0 -0.19866474914E+02 -0.11783580088E+03 -0.46921612945E+03  0.48419389600E+03  0.00000000000E+00 0.  1.
         11    1    4    4    0    0 -0.19172281784E+02  0.16445143725E+02 -0.92393606454E+02  0.95784120054E+02  0.00000000000E+00 0. -1.
</event>
<event>
 8    1  0.3541538E-009  0.2319213E+03  0.7561462E-02  0.1125295E+00
          2   -1    0    0  501    0  0.00000000000E+00  0.00000000000E+00  0.18334331050E+04  0.18334331050E+04  0.00000000000E+00 0.  1.
         -2   -1    0    0    0  501 -0.00000000000E+00 -0.00000000000E+00 -0.32964849083E+02  0.32964849083E+02  0.00000000000E+00 0. -1.
         25    2    1    2    0    0  0.10996197984E+03  0.18903535005E+03  0.81201514814E+03  0.85020106973E+03  0.12508899864E+03 0.  0.
         23    2    1    2    0    0 -0.10996197984E+03 -0.18903535005E+03  0.98845310778E+03  0.10161968844E+04  0.88264154213E+02 0.  0.
          5    1    3    3  502    0  0.58747883324E+02  0.13108076513E+02  0.11984137162E+03  0.13417362712E+03  0.41800000000E+01 0. -1.
         -5    1    3    3    0  502  0.51214096520E+02  0.17592727353E+03  0.69217377652E+03  0.71602744260E+03  0.41800000000E+01 0. -1.
        -11    1    4    4    0    0 -0.25745463223E+02 -0.68564509357E+02  0.17726176892E+03  0.19179586946E+03  0.00000000000E+00 0. -1.
         11    1    4    4    0    0 -0.84216516621E+02 -0.12047084069E+03  0.81119133886E+03  0.82440101490E+03  0.00000000000E+00 0.  1.
</event>
<event>
 8    1  0.3541538E-009  0.1060709E+03  0.7561462E-02  0.1268024E+00
         -2   -1    0    0    0  501 -0.00000000000E+00  0.00000000000E+00  0.19643412475E+02  0.19643412475E+02  0.00000000000E+00 0.  1.
          2   -1    0    0  501    0  0.00000000000E+00 -0.00000000000E+00 -0.71436935483E+03  0.71436935483E+03  0.00000000000E+00 0. -1.
         25    2    1    2    0    0 -0.33098184426E+02 -0.15105232317E+02 -0.44942210087E+03  0.46792454696E+03  0.12509795777E+03 0.  0.
         23    2    1    2    0    0  0.33098184426E+02  0.15105232317E+02 -0.24530384148E+03  0.26608822035E+03  0.96464027003E+02 0.  0.
          5    1    3    3  502    0 -0.71414461831E+02  0.11496163172E+02 -0.35740714125E+03  0.36467728767E+03  0.41800000000E+01 0.  1.
         -5    1    3    3    0  502  0.38316277405E+02 -0.26601395489E+02 -0.92014959625E+02  0.10324725929E+03  0.41800000000E+01 0.  1.
        -11    1    4    4    0    0 -0.28499191964E+02  0.12726995374E+02 -0.14528024408E+03  0.14859518725E+03  0.00000000000E+00 0. -1.
         11    1    4    4    0    0  0.61597376390E+02  0.23782369433E+01 -0.10002359741E+03  0.11749303310E+03  0.00000000000E+00 0.  1.
</event>
<event>
 8    1  0.3541538E-009  0.1811122E+03  0.7561462E-02  0.1166731E+00
          2   -1    0    0  501    0  0.00000000000E+00  0.00000000000E+00  0.10982874306E+04  0.10982874306E+04  0.00000000000E+00 0. -1.
         -2   -1    0    0    0  501 -0.00000000000E+00 -0.00000000000E+00 -0.39148912770E+02  0.39148912770E+02  0.00000000000E+00 0.  1.
         25    2    1    2    0    0 -0.11681861110E+03 -0.10181015408E+03  0.78141917075E+03  0.80639652179E+03  0.12509010577E+03 0.  0.
         23    2    1    2    0    0  0.11681861110E+03  0.10181015408E+03  0.27771934711E+03  0.33103982161E+03  0.91909914381E+02 0.  0.
          5    1    3    3  502    0 -0.42245373029E+02 -0.10550027142E+03  0.59056662179E+03  0.60141615042E+03  0.41800000000E+01 0. -1.
         -5    1    3    3    0  502 -0.74573238067E+02  0.36901173398E+01  0.19085254896E+03  0.20498037137E+03  0.41800000000E+01 0. -1.
        -11    1    4    4    0    0  0.79283157282E+02  0.10971496590E+03  0.24791752642E+03  0.28246467509E+03  0.00000000000E+00 0.  1.
         11    1    4    4    0    0  0.37535453813E+02 -0.79048118162E+01  0.29801820695E+02  0.48575146521E+02  0.00000000000E+00 0. -1.
</event>
<event>
 8    1  0.3541538E-009  0.9665541E+02  0.7561462E-02  0.1287491E+00
         -1   -1    0    0    0  501 -0.00000000000E+00  0.00000000000E+00  0.72779101168E+02  0.72779101168E+02  0.00000000000E+00 0.  1.
          1   -1    0    0  501    0  0.00000000000E+00 -0.00000000000E+00 -0.17149822409E+03  0.17149822409E+03  0.00000000000E+00 0. -1.
         25    2    1    2    0    0  0.12186444565E+02  0.64727656386E+01 -0.75990607889E+02  0.14701275065E+03  0.12509104780E+03 0.  0.
         23    2    1    2    0    0 -0.12186444565E+02 -0.64727656386E+01 -0.22728515033E+02  0.97264574611E+02  0.93559638480E+02 0.  0.
          5    1    3    3  502    0 -0.25444532694E+02 -0.39784260929E+02 -0.73148015917E+02  0.87168321621E+02  0.41800000000E+01 0.  1.
         -5    1    3    3    0  502  0.37630977259E+02  0.46257026568E+02 -0.28425919729E+01  0.59844429026E+02  0.41800000000E+01 0.  1.
        -11    1    4    4    0    0  0.17505534912E+01  0.38756659719E+02  0.95785254484E+01  0.39961121855E+02  0.00000000000E+00 0.  1.
         11    1    4    4    0    0 -0.13936998056E+02 -0.45229425358E+02 -0.32307040482E+02  0.57303452756E+02  0.00000000000E+00 0. -1.
</event>
<event>
 8    1  0.3541538E-009  0.1296291E+03  0.7561462E-02  0.1228007E+00
          2   -1    0    0  501    0  0.00000000000E+00  0.00000000000E+00  0.17838790103E+03  0.17838790103E+03  0.00000000000E+00 0. -1.
         -2   -1    0    0    0  501 -0.00000000000E+00 -0.00000000000E+00 -0.12170823563E+03  0.12170823563E+03  0.00000000000E+00 0.  1.
         25    2    1    2    0    0 -0.51654003472E+02 -0.83618647429E+02  0.32960588415E+02  0.16246617704E+03  0.12509454033E+03 0.  0.
         23    2    1    2    0    0  0.51654003472E+02  0.83618647429E+02  0.23719076986E+02  0.13762995961E+03  0.93376639999E+02 0.  0.
          5    1    3    3  502    0  0.38511203579E+02 -0.12921960834E+02 -0.62132136616E+01  0.41305765904E+02  0.41800000000E+01 0. -1.
         -5    1    3    3    0  502 -0.90165207051E+02 -0.70696686595E+02  0.39173802077E+02  0.12116041114E+03  0.41800000000E+01 0. -1.
        -11    1    4    4    0    0  0.13060015410E+02  0.16424815434E+01  0.43021351780E+02  0.44989981742E+02  0.00000000000E+00 0. -1.
         11    1    4    4    0    0  0.38593988062E+02  0.81976165885E+02 -0.19302274794E+02  0.92639977871E+02  0.00000000000E+00 0.  1.
</event>
<event>
 8    1  0.3541538E-009  0.1406084E+03  0.7561462E-02  0.1212513E+00
          1   -1    0    0  501    0  0.00000000000E+00  0.00000000000E+00  0.33933208654E+03  0.33933208654E+03  0.00000000000E+00 0. -1.
         -1   -1    0    0    0  501 -0.00000000000E+00 -0.00000000000E+00 -0.85582335199E+02  0.85582335199E+02  0.00000000000E+00 0.  1.
         25    2    1    2    0    0 -0.55305036963E+02  0.11298113070E+03  0.17727750076E+03  0.25079488494E+03  0.12508948408E+03 0.  0.
         23    2    1    2    0    0  0.55305036963E+02 -0.11298113070E+03  0.76472250583E+02  0.17411953681E+03  0.92985079352E+02 0.  0.
          5    1    3    3  502    0 -0.64424913628E+01  0.69902745689E+01  0.12048482802E+03  0.12093153359E+03  0.41800000000E+01 0. -1.
         -5    1    3    3    0  502 -0.48862545600E+02  0.10599085613E+03  0.56792672742E+02  0.12986335134E+03  0.41800000000E+01 0. -1.
        -11    1    4    4    0    0  0.58288901862E+02 -0.20909830482E+02  0.45819026719E+02  0.77033760784E+02  0.00000000000E+00 0.  1.
         11    1    4    4    0    0 -0.29838648987E+01 -0.92071300215E+02  0.30653223864E+02  0.97085776024E+02  0.00000000000E+00 0. -1.
</event>
<event>
 8    1  0.3541538E-009  0.1017961E+03  0.7561462E-02  0.1276564E+00
         -1   -1    0    0    0  501 -0.00000000000E+00  0.00000000000E+00  0.53187933977E+03  0.53187933977E+03  0.00000000000E+00 0.  1.
          1   -1    0    0  501    0  0.00000000000E+00 -0.00000000000E+00 -0.26536193295E+02  0.26536193295E+02  0.00000000000E+00 0. -1.
         25    2    1    2    0    0  0.39073887528E+02 -0.67729256310E+00  0.35741030153E+03  0.38067817828E+03  0.12508606786E+03 0.  0.
         23    2    1    2    0    0 -0.39073887528E+02  0.67729256310E+00  0.14793284494E+03  0.17773735478E+03  0.90439002973E+02 0.  0.
          5    1    3    3  502    0  0.74737976247E+01 -0.60898855225E+02  0.19759404183E+03  0.20694300178E+03  0.41800000000E+01 0.  1.
         -5    1    3    3    0  502  0.31600089904E+02  0.60221562662E+02  0.15981625969E+03  0.17373517650E+03  0.41800000000E+01 0.  1.
        -11    1    4    4    0    0 -0.97009127426E+01  0.30555618242E+02  0.10001059816E+02  0.33582357149E+02  0.00000000000E+00 0. -1.
         11    1    4    4    0    0 -0.29372974786E+02 -0.29878325679E+02  0.13793178513E+03  0.14415499763E+03  0.00000000000E+00 0.  1.
</event>
<event>
 8    1  0.3541538E-009  0.1018072E+03  0.7561462E-02  0.1276541E+00
         -2   -1    0    0    0  501 -0.00000000000E+00  0.00000000000E+00  0.52995905656E+02  0.52995905656E+02  0.00000000000E+00 0.  1.
          2   -1    0    0  501    0  0.00000000000E+00 -0.00000000000E+00 -0.33846134336E+03  0.33846134336E+03  0.00000000000E+00 0. -1.
         25    2    1    2    0    0  0.51478874577E+02  0.56066312396E+02 -0.12873001553E+03  0.19496783770E+03  0.12509010723E+03 0.  0.
         23    2    1    2    0    0 -0.51478874577E+02 -0.56066312396E+02 -0.15673542217E+03  0.19648941131E+03  0.90821750041E+02 0.  0.
          5    1    3    3  502    0 -0.30229546962E+02  0.49701990604E+01 -0.82297357777E+02  0.87913911785E+02  0.41800000000E+01 0.  1.
         -5    1    3    3    0  502  0.81708421539E+02  0.51096113336E+02 -0.46432657752E+02  0.10705392592E+03  0.41800000000E+01 0.  1.
        -11    1    4    4    0    0 -0.11463738296E+02 -0.15219993011E+02  0.90687023397E+01  0.21102294783E+02  0.00000000000E+00 0.  1.
         11    1    4    4    0    0 -0.40015136281E+02 -0.40846319385E+02 -0.16580412451E+03  0.17538711653E+03  0.00000000000E+00 0. -1.
</event>
<event>
 8    1  0.3541538E-009  0.1732962E+03  0.7561462E-02  0.1174453E+00
          1   -1    0    0  501    0  0.00000000000E+00  0.00000000000E+00  0.23097500252E+04  0.23097500252E+04  0.00000000000E+00 0. -1.
         -1   -1    0    0    0  501 -0.00000000000E+00 -0.00000000000E+00 -0.22868732399E+02  0.22868732399E+02  0.00000000000E+00 0.  1.
         25    2    1    2    0    0  0.12758506556E+03  0.62740750485E+02  0.19150865266E+04  0.19244268354E+04  0.12509152564E+03 0.  0.
         23    2    1    2    0    0 -0.12758506556E+03 -0.62740750485E+02  0.37179476620E+03  0.40819192218E+03  0.90415410389E+02 0.  0.
          5    1    3    3  502    0  0.97855880420E+02  0.99252211853E+02  0.15574801859E+04  0.15637099401E+04  0.41800000000E+01 0. -1.
         -5    1    3    3    0  502  0.29729185136E+02 -0.36511461369E+02  0.35760634073E+03  0.36071689535E+03  0.41800000000E+01 0. -1.
        -11    1    4    4    0    0 -0.53220417504E+02 -0.66795787949E+02  0.13306548992E+03  0.15811551073E+03  0.00000000000E+00 0.  1.
         11    1    4    4    0    0 -0.74364648053E+02  0.40550374645E+01  0.23872927628E+03  0.25007641145E+03  0.00000000000E+00 0. -1.
</event>
<event>
 8    1  0.3541538E-009  0.9465248E+02  0.7561462E-02  0.1291961E+00
         -3   -1    0    0    0  501 -0.00000000000E+00  0.00000000000E+00  0.30311352957E+03  0.30311352957E+03  0.00000000000E+00 0.  1.
          3   -1    0    0  501    0  0.00000000000E+00 -0.00000000000E+00 -0.43999396656E+02  0.43999396656E+02  0.00000000000E+00 0. -1.
         25    2    1    2    0    0  0.28794008543E+02  0.23695626936E+02  0.19416932689E+03  0.23396417485E+03  0.12508768904E+03 0.  0.
         23    2    1    2    0    0 -0.28794008543E+02 -0.23695626936E+02  0.64944806026E+02  0.11314875137E+03  0.84818833066E+02 0.  0.
          5    1    3    3  502    0  0.65970928374E+02  0.48586894269E+02  0.97936098502E+02  0.12775680598E+03  0.41800000000E+01 0.  1.
         -5    1    3    3    0  502 -0.37176919831E+02 -0.24891267333E+02  0.96233228383E+02  0.10620736887E+03  0.41800000000E+01 0.  1.
        -11    1    4    4    0    0  0.14422335554E+02 -0.65021327208E+01  0.64732140681E+02  0.66637313346E+02  0.00000000000E+00 0.  1.
         11    1    4    4    0    0 -0.43216344097E+02 -0.17193494215E+02  0.21266534467E+00  0.46511438023E+02  0.00000000000E+00 0. -1.
</event>
<event>
 8    1  0.3541538E-009  0.8968032E+02  0.7561462E-02  0.1303628E+00
         -2   -1    0    0    0  501 -0.00000000000E+00  0.00000000000E+00  0.13041295997E+03  0.13041295997E+03  0.00000000000E+00 0.  1.
          2   -1    0    0  501    0  0.00000000000E+00 -0.00000000000E+00 -0.94394386399E+02  0.94394386399E+02  0.00000000000E+00 0. -1.
         25    2    1    2    0    0 -0.91702652280E+01  0.98275311376E+01  0.42289100713E+02  0.13272971974E+03  0.12509251109E+03 0.  0.
         23    2    1    2    0    0  0.91702652280E+01 -0.98275311376E+01 -0.62705271383E+01  0.92077626633E+02  0.90875165382E+02 0.  0.
          5    1    3    3  502    0 -0.21038069243E+02  0.60916735948E+02  0.47042794307E+02  0.79899599325E+02  0.41800000000E+01 0. -1.
         -5    1    3    3    0  502  0.11867804015E+02 -0.51089204810E+02 -0.47536935939E+01  0.52830120415E+02  0.41800000000E+01 0. -1.
        -11    1    4    4    0    0  0.24695013821E+02 -0.28610201595E+02  0.30088158103E+02  0.48308224983E+02  0.00000000000E+00 0.  1.
         11    1    4    4    0    0 -0.15524748593E+02  0.18782670458E+02 -0.36358685241E+02  0.43769401651E+02  0.00000000000E+00 0. -1.
</event>
<event>
 8    1  0.3541538E-009  0.8599007E+02  0.7561462E-02  0.1312864E+00
         -2   -1    0    0    0  501 -0.00000000000E+00  0.00000000000E+00  0.44045343624E+02  0.44045343624E+02  0.00000000000E+00 0.  1.
          2   -1    0    0  501    0  0.00000000000E+00 -0.00000000000E+00 -0.40652839259E+03  0.40652839259E+03  0.00000000000E+00 0. -1.
         25    2    1    2    0    0  0.10829307832E+02 -0.77449198708E+02 -0.16661390041E+03  0.22253798522E+03  0.12508921123E+03 0.  0.
         23    2    1    2    0    0 -0.10829307832E+02  0.77449198708E+02 -0.19586914856E+03  0.22803575100E+03  0.86717518915E+02 0.  0.
          5    1    3    3  502    0  0.19677283379E+02 -0.22419120712E+02  0.14186770764E+02  0.33294884282E+02  0.41800000000E+01 0.  1.
         -5    1    3    3    0  502 -0.88479755472E+01 -0.55030077996E+02 -0.18080067117E+03  0.18924310094E+03  0.41800000000E+01 0.  1.
        -11    1    4    4    0    0 -0.21858667562E+02  0.68050060943E+02 -0.20047106878E+03  0.21283153328E+03  0.00000000000E+00 0. -1.
         11    1    4    4    0    0  0.11029359731E+02  0.93991377656E+01  0.46019202144E+01  0.15204217720E+02  0.00000000000E+00 0.  1.
</event>
<event>
 8    1  0.3541538E-009  0.1126935E+03  0.7561462E-02  0.1255662E+00
          1   -1    0    0  501    0  0.00000000000E+00  0.00000000000E+00  0.28379705370E+03  0.28379705370E+03  0.00000000000E+00 0. -1.
         -1   -1    0    0    0  501 -0.00000000000E+00 -0.00000000000E+00 -0.61350840309E+02  0.61350840309E+02  0.00000000000E+00 0.  1.
         25    2    1    2    0    0  0.64839998337E+02 -0.19212918527E+02  0.16572837721E+03  0.21837102978E+03  0.12508657006E+03 0.  0.
         23    2    1    2    0    0 -0.64839998337E+02  0.19212918527E+02  0.56717836178E+02  0.12677686424E+03  0.91006036844E+02 0.  0.
          5    1    3    3  502    0  0.12772943600E+01  0.46884169855E+02  0.79662890804E+02  0.92538669945E+02  0.41800000000E+01 0. -1.
         -5    1    3    3    0  502  0.63562703977E+02 -0.66097088382E+02  0.86065486410E+02  0.12583235983E+03  0.41800000000E+01 0. -1.
        -11    1    4    4    0    0 -0.23717248476E+02 -0.18982939500E+02 -0.16462378700E+02  0.34552420751E+02  0.00000000000E+00 0.  1.
         11    1    4    4    0    0 -0.41122749861E+02  0.38195858027E+02  0.73180214877E+02  0.92224443485E+02  0.00000000000E+00 0. -1.
</event>
<event>
 8    1  0.3541538E-009  0.1541038E+03  0.7561462E-02  0.1195519E+00
         -2   -1    0    0    0  501 -0.00000000000E+00  0.00000000000E+00  0.44005416153E+02  0.44005416153E+02  0.00000000000E+00 0.  1.
          2   -1    0    0  501    0  0.00000000000E+00 -0.00000000000E+00 -0.59874306094E+03  0.59874306094E+03  0.00000000000E+00 0. -1.
         25    2    1    2    0    0 -0.16232952254E+02 -0.10912169575E+03 -0.19737069344E+03  0.25840275199E+03  0.12508292603E+03 0.  0.
         23    2    1    2    0    0  0.16232952254E+02  0.10912169575E+03 -0.35736695134E+03  0.38434572510E+03  0.88540641882E+02 0.  0.
          5    1    3    3  502    0 -0.62215269553E+02 -0.10268574289E+03 -0.14436619075E+03  0.18781419273E+03  0.41800000000E+01 0. -1.
         -5    1    3    3    0  502  0.45982317299E+02 -0.64359528628E+01 -0.53004502695E+02  0.70588559267E+02  0.41800000000E+01 0. -1.
        -11    1    4    4    0    0  0.37242009038E+02  0.78947230924E+01 -0.97578948116E+02  0.10474227898E+03  0.00000000000E+00 0.  1.
         11    1    4    4    0    0 -0.21009056785E+02  0.10122697266E+03 -0.25978800323E+03  0.27960344612E+03  0.00000000000E+00 0. -1.
</event>
<event>
 8    1  0.3541538E-009  0.1202172E+03  0.7561462E-02  0.1242739E+00
          2   -1    0    0  501    0  0.00000000000E+00  0.00000000000E+00  0.29783799476E+03  0.29783799476E+03  0.00000000000E+00 0. -1.
         -2   -1    0    0    0  501 -0.00000000000E+00 -0.00000000000E+00 -0.55773619862E+02  0.55773619862E+02  0.00000000000E+00 0.  1.
         25    2    1    2    0    0  0.58801606424E+02  0.27386504535E+01  0.85275737241E+02  0.16243402526E+03  0.12509089526E+03 0.  0.
         23    2    1    2    0    0 -0.58801606424E+02 -0.27386504535E+01  0.15678863766E+03  0.19117758936E+03  0.92201218274E+02 0.  0.
          5    1    3    3  502    0  0.53250972217E+02 -0.54880163880E+02  0.29886122119E+02  0.82207974826E+02  0.41800000000E+01 0.  1.
         -5    1    3    3    0  502  0.55506342062E+01  0.57618814333E+02  0.55389615121E+02  0.80226050436E+02  0.41800000000E+01 0.  1.
        -11    1    4    4    0    0  0.23472443276E+02  0.49272618681E+00  0.17160988959E+02  0.29080885724E+02  0.00000000000E+00 0.  1.
         11    1    4    4    0    0 -0.82274049700E+02 -0.32313766403E+01  0.13962764870E+03  0.16209670364E+03  0.00000000000E+00 0. -1.
</event>
<event>
 8    1  0.3541538E-009  0.1317513E+03  0.7561462E-02  0.1224880E+00
         -1   -1    0    0    0  501 -0.00000000000E+00  0.00000000000E+00  0.40346038019E+03  0.40346038019E+03  0.00000000000E+00 0.  1.
          1   -1    0    0  501    0  0.00000000000E+00 -0.00000000000E+00 -0.50998815541E+02  0.50998815541E+02  0.00000000000E+00 0. -1.
         25    2    1    2    0    0 -0.52218396894E+02 -0.77655718555E+02  0.20519216780E+03  0.25789264480E+03  0.12509044294E+03 0.  0.
         23    2    1    2    0    0  0.52218396894E+02  0.77655718555E+02  0.14726939685E+03  0.19656655093E+03  0.90514982730E+02 0.  0.
          5    1    3    3  502    0  0.17356315965E+02 -0.59588647306E+02  0.16293326239E+03  0.17440403947E+03  0.41800000000E+01 0.  1.
         -5    1    3    3    0  502 -0.69574712858E+02 -0.18067071249E+02  0.42258905414E+02  0.83488605328E+02  0.41800000000E+01 0.  1.
        -11    1    4    4    0    0  0.67417100270E+02  0.20966565895E+02  0.91808390656E+02  0.11581641891E+03  0.00000000000E+00 0. -1.
         11    1    4    4    0    0 -0.15198703377E+02  0.56689152660E+02  0.55461006191E+02  0.80750132020E+02  0.00000000000E+00 0.  1.
</event>
<event>
 8    1  0.3541538E-009  0.1158151E+03  0.7561462E-02  0.1250165E+00
          2   -1    0    0  501    0  0.00000000000E+00  0.00000000000E+00  0.89518353865E+02  0.89518353865E+02  0.00000000000E+00 0.  1.
         -2   -1    0    0    0  501 -0.00000000000E+00 -0.00000000000E+00 -0.21529421311E+03  0.21529421311E+03  0.00000000000E+00 0. -1.
         25    2    1    2    0    0  0.62098147002E+01 -0.84778903958E+02 -0.89980770460E+02  0.17598139263E+03  0.12508751794E+03 0.  0.
         23    2    1    2    0    0 -0.62098147002E+01  0.84778903958E+02 -0.35795088787E+02  0.12883117435E+03  0.89945309761E+02 0.  0.
          5    1    3    3  502    0  0.74840623278E+01  0.19616229988E+02 -0.65161009219E+02  0.68587441929E+02  0.41800000000E+01 0.  1.
         -5    1    3    3    0  502 -0.12742476276E+01 -0.10439513395E+03 -0.24819761241E+02  0.10739395070E+03  0.41800000000E+01 0.  1.
        -11    1    4    4    0    0  0.28038566444E+02  0.29431127130E+02 -0.47692982338E+02  0.62665564839E+02  0.00000000000E+00 0. -1.
         11    1    4    4    0    0 -0.34248381144E+02  0.55347776828E+02  0.11897893551E+02  0.66165609510E+02  0.00000000000E+00 0.  1.
</event>
<event>
 8    1  0.3541538E-009  0.5633383E+02  0.7561462E-02  0.1413894E+00
          1   -1    0    0  501    0  0.00000000000E+00  0.00000000000E+00  0.36153153382E+02  0.36153153382E+02  0.00000000000E+00 0. -1.
         -1   -1    0    0    0  501 -0.00000000000E+00 -0.00000000000E+00 -0.33348947052E+03  0.33348947052E+03  0.00000000000E+00 0.  1.
         25    2    1    2    0    0 -0.14596978933E+02 -0.26486583539E+01 -0.19086382718E+03  0.22868523078E+03  0.12509135488E+03 0.  0.
         23    2    1    2    0    0  0.14596978933E+02  0.26486583539E+01 -0.10647248996E+03  0.14095739312E+03  0.91172958559E+02 0.  0.
          5    1    3    3  502    0 -0.32906852556E+02  0.17657446579E+01 -0.20312675526E+03  0.20582499825E+03  0.41800000000E+01 0. -1.
         -5    1    3    3    0  502  0.18309873623E+02 -0.44144030118E+01  0.12262928087E+02  0.22860232530E+02  0.41800000000E+01 0. -1.
        -11    1    4    4    0    0 -0.13109427920E+02  0.22522215497E+02 -0.10350090737E+03  0.10673118157E+03  0.00000000000E+00 0.  1.
         11    1    4    4    0    0  0.27706406853E+02 -0.19873557143E+02 -0.29715825824E+01  0.34226211553E+02  0.00000000000E+00 0. -1.
</event>
<event>
 8    1  0.3541538E-009  0.1241457E+03  0.7561462E-02  0.1236411E+00
          1   -1    0    0  501    0  0.00000000000E+00  0.00000000000E+00  0.27169161167E+03  0.27169161167E+03  0.00000000000E+00 0. -1.
         -1   -1    0    0    0  501 -0.00000000000E+00 -0.00000000000E+00 -0.84040788402E+02  0.84040788402E+02  0.00000000000E+00 0.  1.
         25    2    1    2    0    0  0.21323533861E+02  0.92363913085E+02  0.15893363011E+03  0.22336818681E+03  0.12509061740E+03 0.  0.
         23    2    1    2    0    0 -0.21323533861E+02 -0.92363913085E+02  0.28717193155E+02  0.13236421326E+03  0.87805593402E+02 0.  0.
          5    1    3    3  502    0 -0.37166356224E+02  0.23374962235E+02  0.11411171355E+03  0.12233839325E+03  0.41800000000E+01 0. -1.
         -5    1    3    3    0  502  0.58489890085E+02  0.68988950850E+02  0.44821916561E+02  0.10102979355E+03  0.41800000000E+01 0. -1.
        -11    1    4    4    0    0 -0.28774431590E+02 -0.99348324563E+02  0.45277931413E+02  0.11290769938E+03  0.00000000000E+00 0. -1.
         11    1    4    4    0    0  0.74508977290E+01  0.69844114778E+01 -0.16560738258E+02  0.19456513878E+02  0.00000000000E+00 0.  1.
</event>
<event>
 8    1  0.3541538E-009  0.1063813E+03  0.7561462E-02  0.1267422E+00
         -1   -1    0    0    0  501 -0.00000000000E+00  0.00000000000E+00  0.12432617126E+03  0.12432617126E+03  0.00000000000E+00 0.  1.
          1   -1    0    0  501    0  0.00000000000E+00 -0.00000000000E+00 -0.16533078713E+03  0.16533078713E+03  0.00000000000E+00 0. -1.
         25    2    1    2    0    0 -0.31455706857E+02  0.65309487110E+01 -0.11239692348E+03  0.17121098156E+03  0.12509203418E+03 0.  0.
         23    2    1    2    0    0  0.31455706857E+02 -0.65309487110E+01  0.71392307608E+02  0.11844597684E+03  0.88884605295E+02 0.  0.
          5    1    3    3  502    0 -0.58656763995E+02 -0.38434335640E+02 -0.37537951751E+02  0.79651643675E+02  0.41800000000E+01 0.  1.
         -5    1    3    3    0  502  0.27201057137E+02  0.44965284351E+02 -0.74858971724E+02  0.91559337884E+02  0.41800000000E+01 0.  1.
        -11    1    4    4    0    0 -0.14455810793E+01  0.35995519082E+02  0.11176563887E+02  0.37718466021E+02  0.00000000000E+00 0.  1.
         11    1    4    4    0    0  0.32901287936E+02 -0.42526467793E+02  0.60215743720E+02  0.80727510816E+02  0.00000000000E+00 0. -1.
</event>
<event>
 8    1  0.3541538E-009  0.3034593E+03  0.7561462E-02  0.1083524E+00
          1   -1    0    0  501    0  0.00000000000E+00  0.00000000000E+00  0.15830727095E+04  0.15830727095E+04  0.00000000000E+00 0. -1.
         -1   -1    0    0    0  501 -0.00000000000E+00 -0.00000000000E+00 -0.75514347936E+02  0.75514347936E+02  0.00000000000E+00 0.  1.
         25    2    1    2    0    0  0.11265262783E+03 -0.27294505673E+03  0.42302492830E+03  0.53083498588E+03  0.12508426647E+03 0.  0.
         23    2    1    2    0    0 -0.11265262783E+03  0.27294505673E+03  0.10845334332E+04  0.11277520715E+04  0.91773353855E+02 0.  0.
          5    1    3    3  502    0 -0.76581399802E+01  0.15980951157E+01 -0.34705685961E+01  0.95246135006E+01  0.41800000000E+01 0. -1.
         -5    1    3    3    0  502  0.12031076781E+03 -0.27454315185E+03  0.42649549690E+03  0.52131037238E+03  0.41800000000E+01 0. -1.
        -11    1    4    4    0    0 -0.22743907795E+02  0.10845234150E+03  0.55662501496E+03  0.56754788608E+03  0.00000000000E+00 0.  1.
         11    1    4    4    0    0 -0.89908720037E+02  0.16449271523E+03  0.52790841828E+03  0.56020418545E+03  0.00000000000E+00 0. -1.
</event>
<event>
 8    1  0.3541538E-009  0.9440492E+02  0.7561462E-02  0.1292522E+00
         -1   -1    0    0    0  501 -0.00000000000E+00  0.00000000000E+00  0.47255817719E+03  0.47255817719E+03  0.00000000000E+00 0.  1.
          1   -1    0    0  501    0  0.00000000000E+00 -0.00000000000E+00 -0.25960145666E+02  0.25960145666E+02  0.00000000000E+00 0. -1.
         25    2    1    2    0    0 -0.18092961848E+02  0.14725914114E+02  0.28515858913E+03  0.31226055875E+03  0.12508808009E+03 0.  0.
         23    2    1    2    0    0  0.18092961848E+02 -0.14725914114E+02  0.16143944239E+03  0.18625776410E+03  0.89916924515E+02 0.  0.
          5    1    3    3  502    0  0.22473072103E+02 -0.43291817969E+02  0.67811608579E+02  0.83636757056E+02  0.41800000000E+01 0.  1.
         -5    1    3    3    0  502 -0.40566033951E+02  0.58017732083E+02  0.21734698055E+03  0.22862380170E+03  0.41800000000E+01 0.  1.
        -11    1    4    4    0    0  0.12973877864E+02 -0.40568583478E+02  0.15265719721E+03  0.15848770088E+03  0.00000000000E+00 0.  1.
         11    1    4    4    0    0  0.51190839839E+01  0.25842669364E+02  0.87822451820E+01  0.27770063218E+02  0.00000000000E+00 0. -1.
</event>
<event>
 8    1  0.3541538E-009  0.1108618E+03  0.7561462E-02  0.1258982E+00
          1   -1    0    0  501    0  0.00000000000E+00  0.00000000000E+00  0.17895850047E+03  0.17895850047E+03  0.00000000000E+00 0. -1.
         -1   -1    0    0    0  501 -0.00000000000E+00 -0.00000000000E+00 -0.10310224797E+03  0.10310224797E+03  0.00000000000E+00 0.  1.
         25    2    1    2    0    0  0.47218556217E+02 -0.45873967448E+02  0.89734813863E+02  0.16743036422E+03  0.12508627864E+03 0.  0.
         23    2    1    2    0    0 -0.47218556217E+02  0.45873967448E+02 -0.13878561367E+02  0.11463038422E+03  0.92808930499E+02 0.  0.
          5    1    3    3  502    0 -0.31631200940E+02 -0.42638014875E+02  0.66224656983E+02  0.84980649432E+02  0.41800000000E+01 0. -1.
         -5    1    3    3    0  502  0.78849757157E+02 -0.32359525729E+01  0.23510156881E+02  0.82449714792E+02  0.41800000000E+01 0. -1.
        -11    1    4    4    0    0  0.33547064510E+01  0.38133119754E+02 -0.41523935163E+02  0.56476774598E+02  0.00000000000E+00 0.  1.
         11    1    4    4    0    0 -0.50573262668E+02  0.77408476938E+01  0.27645373796E+02  0.58153609623E+02  0.00000000000E+00 0. -1.
</event>
<event>
 8    1  0.3541538E-009  0.1681162E+03  0.7561462E-02  0.1179827E+00
          2   -1    0    0  501    0  0.00000000000E+00  0.00000000000E+00  0.41726781297E+03  0.41726781297E+03  0.00000000000E+00 0. -1.
         -2   -1    0    0    0  501 -0.00000000000E+00 -0.00000000000E+00 -0.10352134362E+03  0.10352134362E+03  0.00000000000E+00 0.  1.
         25    2    1    2    0    0 -0.86063909357E+02 -0.11398809796E+03  0.29449943441E+03  0.35039540536E+03  0.12508693081E+03 0.  0.
         23    2    1    2    0    0  0.86063909357E+02  0.11398809796E+03  0.19247034946E+02  0.17039375123E+03  0.90902690461E+02 0.  0.
          5    1    3    3  502    0  0.25459810807E+01  0.23647693457E+02  0.57145785558E+02  0.62038767175E+02  0.41800000000E+01 0.  1.
         -5    1    3    3    0  502 -0.88609890438E+02 -0.13763579142E+03  0.23735364885E+03  0.28835663818E+03  0.41800000000E+01 0.  1.
        -11    1    4    4    0    0  0.10633933623E+02  0.44587536548E+02  0.45499492652E+02  0.64585855969E+02  0.00000000000E+00 0. -1.
         11    1    4    4    0    0  0.75429975735E+02  0.69400561417E+02 -0.26252457706E+02  0.10580789526E+03  0.00000000000E+00 0.  1.
</event>
<event>
 8    1  0.3541538E-009  0.1347740E+03  0.7561462E-02  0.1220539E+00
          1   -1    0    0  501    0  0.00000000000E+00  0.00000000000E+00  0.11092339051E+04  0.11092339051E+04  0.00000000000E+00 0. -1.
         -1   -1    0    0    0  501 -0.00000000000E+00 -0.00000000000E+00 -0.19972075287E+02  0.19972075287E+02  0.00000000000E+00 0.  1.
         25    2    1    2    0    0  0.19874743068E+01 -0.84564170683E+02  0.80993388638E+03  0.82389062843E+03  0.12509123989E+03 0.  0.
         23    2    1    2    0    0 -0.19874743068E+01  0.84564170683E+02  0.27932794347E+03  0.30531535199E+03  0.89656651398E+02 0.  0.
          5    1    3    3  502    0  0.10748144889E+02 -0.11663100935E+03  0.65066881773E+03  0.66113969608E+03  0.41800000000E+01 0.  1.
         -5    1    3    3    0  502 -0.87606705825E+01  0.32066838671E+02  0.15926506864E+03  0.16275093235E+03  0.41800000000E+01 0.  1.
        -11    1    4    4    0    0 -0.42706638959E+02  0.45858289451E+02  0.10630461880E+03  0.12339980430E+03  0.00000000000E+00 0. -1.
         11    1    4    4    0    0  0.40719164652E+02  0.38705881232E+02  0.17302332468E+03  0.18191554770E+03  0.00000000000E+00 0.  1.
</event>
<event>
 8    1  0.3541538E-009  0.8737568E+02  0.7561462E-02  0.1309334E+00
         -1   -1    0    0    0  501 -0.00000000000E+00  0.00000000000E+00  0.50473046093E+03  0.50473046093E+03  0.00000000000E+00 0.  1.
          1   -1    0    0  501    0  0.00000000000E+00 -0.00000000000E+00 -0.30257707522E+02  0.30257707522E+02  0.00000000000E+00 0. -1.
         25    2    1    2    0    0 -0.51918314804E+02 -0.10888044603E+01  0.21559534313E+03  0.25460648270E+03  0.12508561927E+03 0.  0.
         23    2    1    2    0    0  0.51918314804E+02  0.10888044603E+01  0.25887741028E+03  0.28038168575E+03  0.94338111298E+02 0.  0.
          5    1    3    3  502    0 -0.47783152184E+02  0.22402130767E+02  0.22306823255E+03  0.22926402655E+03  0.41800000000E+01 0.  1.
         -5    1    3    3    0  502 -0.41351626202E+01 -0.23490935227E+02 -0.74728894221E+01  0.25342456156E+02  0.41800000000E+01 0.  1.
        -11    1    4    4    0    0  0.18120533778E+02  0.41280847870E+02  0.18045118624E+03  0.18599756117E+03  0.00000000000E+00 0.  1.
         11    1    4    4    0    0  0.33797781026E+02 -0.40192043409E+02  0.78426224040E+02  0.94384124581E+02  0.00000000000E+00 0. -1.
</event>
<event>
 8    1  0.3541538E-009  0.1268966E+03  0.7561462E-02  0.1232135E+00
          1   -1    0    0  501    0  0.00000000000E+00  0.00000000000E+00  0.29007366407E+03  0.29007366407E+03  0.00000000000E+00 0. -1.
         -1   -1    0    0    0  501 -0.00000000000E+00 -0.00000000000E+00 -0.81471034827E+02  0.81471034827E+02  0.00000000000E+00 0.  1.
         25    2    1    2    0    0 -0.43627172863E+01  0.94969469100E+02  0.40618572617E+02  0.16228837576E+03  0.12509762228E+03 0.  0.
         23    2    1    2    0    0  0.43627172863E+01 -0.94969469100E+02  0.16798405663E+03  0.20925632314E+03  0.80816657511E+02 0.  0.
          5    1    3    3  502    0  0.16727063690E+02 -0.15043378265E+02  0.44596207710E+02  0.50123767131E+02  0.41800000000E+01 0. -1.
         -5    1    3    3    0  502 -0.21089780977E+02  0.11001284736E+03 -0.39776350936E+01  0.11216460862E+03  0.41800000000E+01 0. -1.
        -11    1    4    4    0    0 -0.33520097530E+02 -0.44415028608E+02  0.47273275429E+02  0.73014069017E+02  0.00000000000E+00 0.  1.
         11    1    4    4    0    0  0.37882814816E+02 -0.50554440491E+02  0.12071078120E+03  0.13624225413E+03  0.00000000000E+00 0. -1.
</event>
<event>
 8    1  0.3541538E-009  0.5897320E+02  0.7561462E-02  0.1402192E+00
          3   -1    0    0  501    0  0.00000000000E+00  0.00000000000E+00  0.18047904435E+03  0.18047904435E+03  0.00000000000E+00 0. -1.
         -3   -1    0    0    0  501 -0.00000000000E+00 -0.00000000000E+00 -0.70179586168E+02  0.70179586168E+02  0.00000000000E+00 0.  1.
         25    2    1    2    0    0 -0.19017249418E+02 -0.22843601422E+02  0.76884282655E+02  0.14980691732E+03  0.12508970244E+03 0.  0.
         23    2    1    2    0    0  0.19017249418E+02  0.22843601422E+02  0.33415175525E+02  0.10085171319E+03  0.90393629183E+02 0.  0.
          5    1    3    3  502    0  0.27524292964E+01 -0.86942069210E+01  0.10834155365E+03  0.10880500792E+03  0.41800000000E+01 0. -1.
         -5    1    3    3    0  502 -0.21769678714E+02 -0.14149394501E+02 -0.31457270998E+02  0.41001909403E+02  0.41800000000E+01 0. -1.
        -11    1    4    4    0    0 -0.21960337583E+02  0.32775458822E+02 -0.96151290830E+01  0.40607115571E+02  0.00000000000E+00 0.  1.
         11    1    4    4    0    0  0.40977587000E+02 -0.99318573998E+01  0.43030304608E+02  0.60244597620E+02  0.00000000000E+00 0. -1.
</event>
<event>
 8    1  0.3541538E-009  0.1173747E+03  0.7561462E-02  0.1247492E+00
         -2   -1    0    0    0  501 -0.00000000000E+00  0.00000000000E+00  0.29485160924E+02  0.29485160924E+02  0.00000000000E+00 0.  1.
          2   -1    0    0  501    0  0.00000000000E+00 -0.00000000000E+00 -0.78609853864E+03  0.78609853864E+03  0.00000000000E+00 0. -1.
         25    2    1    2    0    0  0.10366938558E+03 -0.35738497552E+00 -0.34273513934E+03  0.37929280463E+03  0.12509271232E+03 0.  0.
         23    2    1    2    0    0 -0.10366938558E+03  0.35738497552E+00 -0.41387823838E+03  0.43629089494E+03  0.91143181684E+02 0.  0.
          5    1    3    3  502    0  0.24683051559E+01  0.94888458921E+01  0.84870832332E+01  0.13624746182E+02  0.41800000000E+01 0.  1.
         -5    1    3    3    0  502  0.10120108043E+03 -0.98462308676E+01 -0.35122222257E+03  0.36566805845E+03  0.41800000000E+01 0.  1.
        -11    1    4    4    0    0 -0.31092528740E+02 -0.30415064379E+02 -0.62285549396E+02  0.75969146028E+02  0.00000000000E+00 0.  1.
         11    1    4    4    0    0 -0.72576856845E+02  0.30772449355E+02 -0.35159268898E+03  0.36032174891E+03  0.00000000000E+00 0. -1.
</event>
<event>
 8    1  0.3541538E-009  0.5459911E+02  0.7561462E-02  0.1422004E+00
          3   -1    0    0  501    0  0.00000000000E+00  0.00000000000E+00  0.17254728041E+03  0.17254728041E+03  0.00000000000E+00 0. -1.
         -3   -1    0    0    0  501 -0.00000000000E+00 -0.00000000000E+00 -0.78898068906E+02  0.78898068906E+02  0.00000000000E+00 0.  1.
         25    2    1    2    0    0  0.29039666176E+02  0.53234950843E+01  0.22730331880E+02  0.13052134898E+03  0.12509001855E+03 0.  0.
         23    2    1    2    0    0 -0.29039666176E+02 -0.53234950843E+01  0.70918879626E+02  0.12092400034E+03  0.93388888838E+02 0.  0.
          5    1    3    3  502    0  0.22163593745E+02 -0.13030766387E+02 -0.49298236872E+02  0.55756742363E+02  0.41800000000E+01 0. -1.
         -5    1    3    3    0  502  0.68760724313E+01  0.18354261471E+02  0.72028568752E+02  0.74764606618E+02  0.41800000000E+01 0. -1.
        -11    1    4    4    0    0  0.80134317237E+01  0.17739213762E+02  0.74625750941E+02  0.77122613392E+02  0.00000000000E+00 0. -1.
         11    1    4    4    0    0 -0.37053097900E+02 -0.23062708846E+02 -0.37068713152E+01  0.43801386944E+02  0.00000000000E+00 0.  1.
</event>
<event>
 8    1  0.3541538E-009  0.1292176E+03  0.7561462E-02  0.1228621E+00
         -1   -1    0    0    0  501 -0.00000000000E+00  0.00000000000E+00  0.32653532081E+02  0.32653532081E+02  0.00000000000E+00 0.  1.
          1   -1    0    0  501    0  0.00000000000E+00 -0.00000000000E+00 -0.11171284834E+04  0.11171284834E+04  0.00000000000E+00 0. -1.
         25    2    1    2    0    0 -0.21237428938E+02 -0.10523428578E+03 -0.91456754008E+03  0.92930429276E+03  0.12508956746E+03 0.  0.
         23    2    1    2    0    0  0.21237428938E+02  0.10523428578E+03 -0.16990741122E+03  0.22047772270E+03  0.90645543345E+02 0.  0.
          5    1    3    3  502    0 -0.24778282882E+02 -0.81646452512E+01 -0.58745949876E+03  0.58805336477E+03  0.41800000000E+01 0.  1.
         -5    1    3    3    0  502  0.35408539442E+01 -0.97069640528E+02 -0.32710804132E+03  0.34125092799E+03  0.41800000000E+01 0.  1.
        -11    1    4    4    0    0  0.38490048123E+02  0.12507064095E+02 -0.24973077879E+02  0.47555915253E+02  0.00000000000E+00 0.  1.
         11    1    4    4    0    0 -0.17252619185E+02  0.92727221684E+02 -0.14493433334E+03  0.17292180744E+03  0.00000000000E+00 0. -1.
</event>
<event>
 8    1  0.3541538E-009  0.1335071E+03  0.7561462E-02  0.1222343E+00
          2   -1    0    0  501    0  0.00000000000E+00  0.00000000000E+00  0.18258573060E+03  0.18258573060E+03  0.00000000000E+00 0.  1.
         -2   -1    0    0    0  501 -0.00000000000E+00 -0.00000000000E+00 -0.19605256443E+03  0.19605256443E+03  0.00000000000E+00 0. -1.
         25    2    1    2    0    0  0.10189224972E+03  0.23819945162E+02 -0.12100643888E+03  0.20306763316E+03  0.12507791591E+03 0.  0.
         23    2    1    2    0    0 -0.10189224972E+03 -0.23819945162E+02  0.10753960505E+03  0.17557066187E+03  0.91163974874E+02 0.  0.
          5    1    3    3  502    0  0.84574529855E+02  0.59609011550E+02 -0.36880933818E+02  0.10992616175E+03  0.41800000000E+01 0.  1.
         -5    1    3    3    0  502  0.17317719860E+02 -0.35789066388E+02 -0.84125505065E+02  0.93141471411E+02  0.41800000000E+01 0.  1.
        -11    1    4    4    0    0 -0.41403365868E+02  0.22658765762E+02  0.82921832248E+02  0.95413251881E+02  0.00000000000E+00 0.  1.
         11    1    4    4    0    0 -0.60488883847E+02 -0.46478710924E+02  0.24617772803E+02  0.80157409988E+02  0.00000000000E+00 0. -1.
</event>
<event>
 8    1  0.3541538E-009  0.2184996E+03  0.7561462E-02  0.1135007E+00
         -1   -1    0    0    0  501 -0.00000000000E+00  0.00000000000E+00  0.71292716922E+02  0.71292716922E+02  0.00000000000E+00 0.  1.
          1   -1    0    0  501    0  0.00000000000E+00 -0.00000000000E+00 -0.78590739874E+03  0.78590739874E+03  0.00000000000E+00 0. -1.
         25    2    1    2    0    0 -0.12308237750E+03  0.16774922301E+03 -0.43269682631E+03  0.49614825733E+03  0.12508987283E+03 0.  0.
         23    2    1    2    0    0  0.12308237750E+03 -0.16774922301E+03 -0.28191785551E+03  0.36105185833E+03  0.87130325841E+02 0.  0.
          5    1    3    3  502    0 -0.17402424704E+02  0.46572396533E+01 -0.16109947427E+03  0.16215747678E+03  0.41800000000E+01 0. -1.
         -5    1    3    3    0  502 -0.10567995279E+03  0.16309198335E+03 -0.27159735205E+03  0.33399078055E+03  0.41800000000E+01 0. -1.
        -11    1    4    4    0    0 -0.92037017573E+01 -0.36993129697E+02 -0.64542521207E+02  0.74959567865E+02  0.00000000000E+00 0. -1.
         11    1    4    4    0    0  0.13228607925E+03 -0.13075609331E+03 -0.21737533430E+03  0.28609229047E+03  0.00000000000E+00 0.  1.
</event>
<event>
 8    1  0.3541538E-009  0.1537264E+03  0.7561462E-02  0.1195967E+00
          2   -1    0    0  501    0  0.00000000000E+00  0.00000000000E+00  0.51842280119E+03  0.51842280119E+03  0.00000000000E+00 0. -1.
         -2   -1    0    0    0  501 -0.00000000000E+00 -0.00000000000E+00 -0.55751423009E+02  0.55751423009E+02  0.00000000000E+00 0.  1.
         25    2    1    2    0    0  0.75694633379E+02  0.86350995113E+02  0.35540536346E+03  0.39388635636E+03  0.12508923804E+03 0.  0.
         23    2    1    2    0    0 -0.75694633379E+02 -0.86350995113E+02  0.10726601472E+03  0.18028786784E+03  0.88382947989E+02 0.  0.
          5    1    3    3  502    0  0.96459999101E+02  0.10423425330E+03  0.29817332873E+03  0.33029398626E+03  0.41800000000E+01 0. -1.
         -5    1    3    3    0  502 -0.20765365722E+02 -0.17883258190E+02  0.57232034722E+02  0.63592370105E+02  0.41800000000E+01 0. -1.
        -11    1    4    4    0    0 -0.63492563403E+02 -0.10055682030E+03  0.10920858575E+03  0.16146050575E+03  0.00000000000E+00 0. -1.
         11    1    4    4    0    0 -0.12202069976E+02  0.14205825185E+02 -0.19425710277E+01  0.18827362085E+02  0.00000000000E+00 0.  1.
</event>
<event>
 8    1  0.3541538E-009  0.1245836E+03  0.7561462E-02  0.1235722E+00
         -1   -1    0    0    0  501 -0.00000000000E+00  0.00000000000E+00  0.70862081441E+02  0.70862081441E+02  0.00000000000E+00 0.  1.
          1   -1    0    0  501    0  0.00000000000E+00 -0.00000000000E+00 -0.28517580061E+03  0.28517580061E+03  0.00000000000E+00 0. -1.
         25    2    1    2    0    0 -0.38237090099E+02 -0.79840087956E+02 -0.86135872029E+02  0.17579337432E+03  0.12508959710E+03 0.  0.
         23    2    1    2    0    0  0.38237090099E+02  0.79840087956E+02 -0.12817784714E+03  0.18024450773E+03  0.90675285307E+02 0.  0.
          5    1    3    3  502    0 -0.20505509758E+02 -0.10931721107E+03 -0.86780798656E+02  0.14113506999E+03  0.41800000000E+01 0.  1.
         -5    1    3    3    0  502 -0.17731580341E+02  0.29477123116E+02  0.64492662740E+00  0.34658304328E+02  0.41800000000E+01 0.  1.
        -11    1    4    4    0    0  0.35734500591E+02  0.15712911698E+02 -0.24844155363E+01  0.39115501365E+02  0.00000000000E+00 0.  1.
         11    1    4    4    0    0  0.25025895084E+01  0.64127176258E+02 -0.12569343161E+03  0.14112900637E+03  0.00000000000E+00 0. -1.
</event>
<event>
 8    1  0.3541538E-009  0.9172087E+02  0.7561462E-02  0.1298737E+00
          1   -1    0    0  501    0  0.00000000000E+00  0.00000000000E+00  0.70105204873E+02  0.70105204873E+02  0.00000000000E+00 0. -1.
         -1   -1    0    0    0  501 -0.00000000000E+00 -0.00000000000E+00 -0.24356922346E+03  0.24356922346E+03  0.00000000000E+00 0.  1.
         25    2    1    2    0    0 -0.26799144042E+02  0.56082634918E+02 -0.51123650982E+02  0.14874579357E+03  0.12509287492E+03 0.  0.
         23    2    1    2    0    0  0.26799144042E+02 -0.56082634918E+02 -0.12234036760E+03  0.16492863476E+03  0.91492256273E+02 0.  0.
          5    1    3    3  502    0 -0.36775039326E+02  0.40644596948E+02 -0.90045802632E+02  0.10549931635E+03  0.41800000000E+01 0.  1.
         -5    1    3    3    0  502  0.99758952846E+01  0.15438037971E+02  0.38922151650E+02  0.43246477223E+02  0.41800000000E+01 0.  1.
        -11    1    4    4    0    0  0.60393386310E+02 -0.32579181465E+02 -0.86960312062E+02  0.11077391412E+03  0.00000000000E+00 0.  1.
         11    1    4    4    0    0 -0.33594242269E+02 -0.23503453453E+02 -0.35380055541E+02  0.54154720643E+02  0.00000000000E+00 0. -1.
</event>
<event>
 8    1  0.3541538E-009  0.1247619E+03  0.7561462E-02  0.1235442E+00
          2   -1    0    0  501    0  0.00000000000E+00  0.00000000000E+00  0.49906984772E+03  0.49906984772E+03  0.00000000000E+00 0. -1.
         -2   -1    0    0    0  501 -0.00000000000E+00 -0.00000000000E+00 -0.37560200696E+02  0.37560200696E+02  0.00000000000E+00 0.  1.
         25    2    1    2    0    0 -0.70377423912E+02  0.14319005244E+02  0.33435880620E+03  0.36414497076E+03  0.12509089791E+03 0.  0.
         23    2    1    2    0    0  0.70377423912E+02 -0.14319005244E+02  0.12715084083E+03  0.17248507766E+03  0.91791884084E+02 0.  0.
          5    1    3    3  502    0  0.30998660710E+02 -0.95976076952E+01  0.13806336184E+03  0.14188726272E+03  0.41800000000E+01 0.  1.
         -5    1    3    3    0  502 -0.10137608462E+03  0.23916612939E+02  0.19629544436E+03  0.22225770804E+03  0.41800000000E+01 0.  1.
        -11    1    4    4    0    0  0.24908041583E+01  0.30896194398E+02  0.16784726673E+02  0.35249198333E+02  0.00000000000E+00 0.  1.
         11    1    4    4    0    0  0.67886619754E+02 -0.45215199642E+02  0.11036611415E+03  0.13723587932E+03  0.00000000000E+00 0. -1.
</event>
<event>
 8    1  0.3541538E-009  0.1305540E+03  0.7561462E-02  0.1226636E+00
          1   -1    0    0  501    0  0.00000000000E+00  0.00000000000E+00  0.22175060270E+03  0.22175060270E+03  0.00000000000E+00 0. -1.
         -1   -1    0    0    0  501 -0.00000000000E+00 -0.00000000000E+00 -0.91764808361E+02  0.91764808361E+02  0.00000000000E+00 0.  1.
         25    2    1    2    0    0  0.22685197167E+02  0.82664284791E+02  0.34409427377E+02  0.15549642511E+03  0.12508847820E+03 0.  0.
         23    2    1    2    0    0 -0.22685197167E+02 -0.82664284791E+02  0.95576366957E+02  0.15801898595E+03  0.92125761050E+02 0.  0.
          5    1    3    3  502    0 -0.36034981017E+01  0.10264508913E+03 -0.62117953083E+01  0.10298086386E+03  0.41800000000E+01 0. -1.
         -5    1    3    3    0  502  0.26288695269E+02 -0.19980804335E+02  0.40621222686E+02  0.52515561249E+02  0.41800000000E+01 0. -1.
        -11    1    4    4    0    0 -0.39124979246E+02 -0.96125686022E+02  0.72187641559E+02  0.12641980505E+03  0.00000000000E+00 0.  1.
         11    1    4    4    0    0  0.16439782079E+02  0.13461401231E+02  0.23388725398E+02  0.31599180901E+02  0.00000000000E+00 0. -1.
</event>
<event>
 8    1  0.3541538E-009  0.1981515E+03  0.7561462E-02  0.1151308E+00
          2   -1    0    0  501    0  0.00000000000E+00  0.00000000000E+00  0.17777661858E+03  0.17777661858E+03  0.00000000000E+00 0. -1.
         -2   -1    0    0    0  501 -0.00000000000E+00 -0.00000000000E+00 -0.27344180593E+03  0.27344180593E+03  0.00000000000E+00 0.  1.
         25    2    1    2    0    0  0.83459420791E+01  0.17134851262E+03  0.39686862046E+02  0.21599121674E+03  0.12508873317E+03 0.  0.
         23    2    1    2    0    0 -0.83459420791E+01 -0.17134851262E+03 -0.13535204939E+03  0.23522720777E+03  0.87072926195E+02 0.  0.
          5    1    3    3  502    0  0.53601623450E+02  0.33503579826E+02 -0.64855632651E+01  0.63680128992E+02  0.41800000000E+01 0.  1.
         -5    1    3    3    0  502 -0.45255681371E+02  0.13784493279E+03  0.46172425311E+02  0.15231108775E+03  0.41800000000E+01 0.  1.
        -11    1    4    4    0    0 -0.18458371337E+02 -0.24629477367E+01 -0.31839773625E+02  0.36885617365E+02  0.00000000000E+00 0.  1.
         11    1    4    4    0    0  0.10112429258E+02 -0.16888556488E+03 -0.10351227577E+03  0.19834159041E+03  0.00000000000E+00 0. -1.
</event>
<event>
 8    1  0.3541538E-009  0.9327904E+02  0.7561462E-02  0.1295100E+00
          2   -1    0    0  501    0  0.00000000000E+00  0.00000000000E+00  0.29352687713E+03  0.29352687713E+03  0.00000000000E+00 0. -1.
         -2   -1    0    0    0  501 -0.00000000000E+00 -0.00000000000E+00 -0.54535589497E+02  0.54535589497E+02  0.00000000000E+00 0.  1.
         25    2    1    2    0    0  0.29337419334E+01  0.65411332139E+02  0.14519243439E+03  0.20252259009E+03  0.12508919729E+03 0.  0.
         23    2    1    2    0    0 -0.29337419334E+01 -0.65411332139E+02  0.93798853239E+02  0.14553987654E+03  0.89979895418E+02 0.  0.
          5    1    3    3  502    0  0.14846965499E+02  0.82549578108E+02  0.15709634903E+03  0.17813365911E+03  0.41800000000E+01 0.  1.
         -5    1    3    3    0  502 -0.11913223566E+02 -0.17138245969E+02 -0.11903914635E+02  0.24388930978E+02  0.41800000000E+01 0.  1.
        -11    1    4    4    0    0  0.16035608676E+02 -0.59199377410E+02  0.13504779377E+02  0.62801959343E+02  0.00000000000E+00 0.  1.
         11    1    4    4    0    0 -0.18969350609E+02 -0.62119547291E+01  0.80294073862E+02  0.82737917193E+02  0.00000000000E+00 0. -1.
</event>
<event>
 8    1  0.3541538E-009  0.1142186E+03  0.7561462E-02  0.1252951E+00
         -3   -1    0    0    0  501 -0.00000000000E+00  0.00000000000E+00  0.57199221067E+02  0.57199221067E+02  0.00000000000E+00 0. -1.
          3   -1    0    0  501    0  0.00000000000E+00 -0.00000000000E+00 -0.27836421584E+03  0.27836421584E+03  0.00000000000E+00 0.  1.
         25    2    1    2    0    0 -0.39428956096E+02  0.13583807562E+02 -0.19018357140E+03  0.23142465171E+03  0.12509362965E+03 0.  0.
         23    2    1    2    0    0  0.39428956096E+02 -0.13583807562E+02 -0.30981423371E+02  0.10413878520E+03  0.90254504498E+02 0.  0.
          5    1    3    3  502    0 -0.59149317797E+02 -0.40593599743E+02 -0.12596419611E+03  0.14502045799E+03  0.41800000000E+01 0.  1.
         -5    1    3    3    0  502  0.19720361701E+02  0.54177407306E+02 -0.64219375295E+02  0.86404193714E+02  0.41800000000E+01 0.  1.
        -11    1    4    4    0    0 -0.28951164979E+02  0.49695179236E+00 -0.14599154690E+02  0.32427646112E+02  0.00000000000E+00 0.  1.
         11    1    4    4    0    0  0.68380121074E+02 -0.14080759355E+02 -0.16382268682E+02  0.71711139088E+02  0.00000000000E+00 0. -1.
</event>
<event>
 8    1  0.3541538E-009  0.3448083E+03  0.7561462E-02  0.1064766E+00
          2   -1    0    0  501    0  0.00000000000E+00  0.00000000000E+00  0.25967743302E+04  0.25967743302E+04  0.00000000000E+00 0. -1.
         -2   -1    0    0    0  501 -0.00000000000E+00 -0.00000000000E+00 -0.47551010300E+02  0.47551010300E+02  0.00000000000E+00 0.  1.
         25    2    1    2    0    0 -0.26011963986E+03  0.20795569951E+03  0.11718352988E+04  0.12246439317E+04  0.12508793679E+03 0.  0.
         23    2    1    2    0    0  0.26011963986E+03 -0.20795569951E+03  0.13773880210E+04  0.14196814087E+04  0.85963607591E+02 0.  0.
          5    1    3    3  502    0 -0.26760340200E+03  0.17362910360E+03  0.10192617477E+04  0.10680218299E+04  0.41800000000E+01 0. -1.
         -5    1    3    3    0  502  0.74837621344E+01  0.34326595909E+02  0.15257355108E+03  0.15662210180E+03  0.41800000000E+01 0. -1.
        -11    1    4    4    0    0  0.75592131117E+02 -0.39187683107E+02  0.22738041358E+03  0.24279970608E+03  0.00000000000E+00 0.  1.
         11    1    4    4    0    0  0.18452750874E+03 -0.16876801640E+03  0.11500076075E+04  0.11768817027E+04  0.00000000000E+00 0. -1.
</event>
<event>
 8    1  0.3541538E-009  0.1561662E+03  0.7561462E-02  0.1193094E+00
          1   -1    0    0  501    0  0.00000000000E+00  0.00000000000E+00  0.59775459478E+03  0.59775459478E+03  0.00000000000E+00 0. -1.
         -1   -1    0    0    0  501 -0.00000000000E+00 -0.00000000000E+00 -0.54369819928E+02  0.54369819928E+02  0.00000000000E+00 0.  1.
         25    2    1    2    0    0  0.10809749012E+03  0.55778834960E+02  0.42751444188E+03  0.46175086325E+03  0.12509562699E+03 0.  0.
         23    2    1    2    0    0 -0.10809749012E+03 -0.55778834960E+02  0.11587033297E+03  0.19037355146E+03  0.89553387622E+02 0.  0.
          5    1    3    3  502    0  0.13201152482E+03  0.40125420397E+02  0.28923044819E+03  0.32048216270E+03  0.41800000000E+01 0. -1.
         -5    1    3    3    0  502 -0.23914034705E+02  0.15653414563E+02  0.13828399369E+03  0.14126870055E+03  0.41800000000E+01 0. -1.
        -11    1    4    4    0    0  0.82957828295E+01 -0.23055737171E+02  0.42181286357E+02  0.48781635356E+02  0.00000000000E+00 0. -1.
         11    1    4    4    0    0 -0.11639327295E+03 -0.32723097789E+02  0.73689046616E+02  0.14159191611E+03  0.00000000000E+00 0.  1.
</event>
<event>
 8    1  0.3541538E-009  0.1795000E+03  0.7561462E-02  0.1168288E+00
          1   -1    0    0  501    0  0.00000000000E+00  0.00000000000E+00  0.33679291512E+03  0.33679291512E+03  0.00000000000E+00 0. -1.
         -1   -1    0    0    0  501 -0.00000000000E+00 -0.00000000000E+00 -0.15252512780E+03  0.15252512780E+03  0.00000000000E+00 0.  1.
         25    2    1    2    0    0  0.16524240135E+03  0.37948476423E+02 -0.13218584616E+02  0.21110914115E+03  0.12508877021E+03 0.  0.
         23    2    1    2    0    0 -0.16524240135E+03 -0.37948476423E+02  0.19748637193E+03  0.27820890176E+03  0.98255726823E+02 0.  0.
          5    1    3    3  502    0  0.15552348773E+03  0.12036263569E+02 -0.50930524504E+02  0.16414572063E+03  0.41800000000E+01 0. -1.
         -5    1    3    3    0  502  0.97189136194E+01  0.25912212853E+02  0.37711939888E+02  0.46963420521E+02  0.41800000000E+01 0. -1.
        -11    1    4    4    0    0 -0.87453804164E+02 -0.42115986379E+02  0.45029324923E+02  0.10700263676E+03  0.00000000000E+00 0.  1.
         11    1    4    4    0    0 -0.77788597185E+02  0.41675099563E+01  0.15245704701E+03  0.17120626500E+03  0.00000000000E+00 0. -1.
</event>
<event>
 8    1  0.3541538E-009  0.8727201E+02  0.7561462E-02  0.1309596E+00
          1   -1    0    0  501    0  0.00000000000E+00  0.00000000000E+00  0.12235546565E+03  0.12235546565E+03  0.00000000000E+00 0.  1.
         -1   -1    0    0    0  501 -0.00000000000E+00 -0.00000000000E+00 -0.15144241492E+03  0.15144241492E+03  0.00000000000E+00 0. -1.
         25    2    1    2    0    0  0.52701737399E+02  0.54293349478E+02  0.24372514525E+02  0.14820685383E+03  0.12508401630E+03 0.  0.
         23    2    1    2    0    0 -0.52701737399E+02 -0.54293349478E+02 -0.53459463801E+02  0.12559102674E+03  0.84793577617E+02 0.  0.
          5    1    3    3  502    0  0.51174995506E+02  0.18786602195E+02  0.70885592033E+02  0.89521260854E+02  0.41800000000E+01 0. -1.
         -5    1    3    3    0  502  0.15267418930E+01  0.35506747283E+02 -0.46513077508E+02  0.58685592974E+02  0.41800000000E+01 0. -1.
        -11    1    4    4    0    0  0.39790112483E+01 -0.13967056313E+02  0.19807753298E+02  0.24561316806E+02  0.00000000000E+00 0.  1.
         11    1    4    4    0    0 -0.56680748647E+02 -0.40326293166E+02 -0.73267217099E+02  0.10102970993E+03  0.00000000000E+00 0. -1.
</event>
<event>
 8    1  0.3541538E-009  0.8530647E+02  0.7561462E-02  0.1314633E+00
          1   -1    0    0  501    0  0.00000000000E+00  0.00000000000E+00  0.10136602602E+03  0.10136602602E+03  0.00000000000E+00 0. -1.
         -1   -1    0    0    0  501 -0.00000000000E+00 -0.00000000000E+00 -0.18147327645E+03  0.18147327645E+03  0.00000000000E+00 0.  1.
         25    2    1    2    0    0  0.21251888490E+02 -0.58800217501E+01 -0.12724912155E+03  0.17979600486E+03  0.12509215407E+03 0.  0.
         23    2    1    2    0    0 -0.21251888490E+02  0.58800217501E+01  0.47141871123E+02  0.10304329760E+03  0.88934513816E+02 0.  0.
          5    1    3    3  502    0  0.51022412978E+02 -0.50347277482E+02 -0.58770136221E+02  0.92787586925E+02  0.41800000000E+01 0.  1.
         -5    1    3    3    0  502 -0.29770524488E+02  0.44467255732E+02 -0.68478985329E+02  0.87008417940E+02  0.41800000000E+01 0.  1.
        -11    1    4    4    0    0 -0.32966678610E+02  0.54320337921E+01 -0.17244074962E+02  0.37598763424E+02  0.00000000000E+00 0.  1.
         11    1    4    4    0    0  0.11714790120E+02  0.44798795799E+00  0.64385946084E+02  0.65444534179E+02  0.00000000000E+00 0. -1.
</event>
<event>
 8    1  0.3541538E-009  0.1628232E+03  0.7561462E-02  0.1185546E+00
         -2   -1    0    0    0  501 -0.00000000000E+00  0.00000000000E+00  0.97575820894E+02  0.97575820894E+02  0.00000000000E+00 0.  1.
          2   -1    0    0  501    0  0.00000000000E+00 -0.00000000000E+00 -0.36093717272E+03  0.36093717272E+03  0.00000000000E+00 0. -1.
         25    2    1    2    0    0 -0.97901815056E+02 -0.11252203716E+03 -0.17829882271E+03  0.26397793129E+03  0.12509158161E+03 0.  0.
         23    2    1    2    0    0  0.97901815056E+02  0.11252203716E+03 -0.85062529112E+02  0.19453506232E+03  0.91445515893E+02 0.  0.
          5    1    3    3  502    0  0.79142610907E+01  0.91911302039E+01 -0.66420671380E+02  0.67648284454E+02  0.41800000000E+01 0. -1.
         -5    1    3    3    0  502 -0.10581607615E+03 -0.12171316736E+03 -0.11187815133E+03  0.19632964684E+03  0.41800000000E+01 0. -1.
        -11    1    4    4    0    0  0.36396790075E+02  0.23654564211E+02  0.16296537601E+02  0.46366387325E+02  0.00000000000E+00 0.  1.
         11    1    4    4    0    0  0.61505024981E+02  0.88867472948E+02 -0.10135906671E+03  0.14816867500E+03  0.00000000000E+00 0. -1.
</event>
<event>
 8    1  0.3541538E-009  0.8804713E+02  0.7561462E-02  0.1307651E+00
          1   -1    0    0  501    0  0.00000000000E+00  0.00000000000E+00  0.97597023038E+02  0.97597023038E+02  0.00000000000E+00 0. -1.
         -1   -1    0    0    0  501 -0.00000000000E+00 -0.00000000000E+00 -0.14902560156E+03  0.14902560156E+03  0.00000000000E+00 0.  1.
         25    2    1    2    0    0 -0.27714093494E+01 -0.36785333012E+02 -0.62573367059E+02  0.14464587217E+03  0.12508461391E+03 0.  0.
         23    2    1    2    0    0  0.27714093494E+01  0.36785333012E+02  0.11144788538E+02  0.10197675243E+03  0.94415095664E+02 0.  0.
          5    1    3    3  502    0 -0.46891877485E+02  0.11841678294E+02  0.68200162457E+01  0.49021001015E+02  0.41800000000E+01 0.  1.
         -5    1    3    3    0  502  0.44120468136E+02 -0.48627011306E+02 -0.69393383305E+02  0.95624871156E+02  0.41800000000E+01 0.  1.
        -11    1    4    4    0    0 -0.19464784707E+02  0.83104355171E+00  0.44206289273E+02  0.48309051827E+02  0.00000000000E+00 0. -1.
         11    1    4    4    0    0  0.22236194057E+02  0.35954289460E+02 -0.33061500736E+02  0.53667700600E+02  0.00000000000E+00 0.  1.
</event>
<event>
 8    1  0.3541538E-009  0.3180710E+03  0.7561462E-02  0.1076541E+00
          1   -1    0    0  501    0  0.00000000000E+00  0.00000000000E+00  0.82227859378E+02  0.82227859378E+02  0.00000000000E+00 0. -1.
         -1   -1    0    0    0  501 -0.00000000000E+00 -0.00000000000E+00 -0.13361674829E+04  0.13361674829E+04  0.00000000000E+00 0.  1.
         25    2    1    2    0    0 -0.30300061921E+03 -0.50341591026E+02 -0.50595757509E+03  0.60496233104E+03  0.12507079259E+03 0.  0.
         23    2    1    2    0    0  0.30300061921E+03  0.50341591026E+02 -0.74798204842E+03  0.81343301123E+03  0.88614152160E+02 0.  0.
          5    1    3    3  502    0 -0.16305665395E+03  0.25835023866E+02 -0.19498646334E+03  0.25552321644E+03  0.41800000000E+01 0.  1.
         -5    1    3    3    0  502 -0.13994396526E+03 -0.76176614892E+02 -0.31097111174E+03  0.34943911460E+03  0.41800000000E+01 0.  1.
        -11    1    4    4    0    0  0.22519915701E+03  0.60407005875E+02 -0.47094282218E+03  0.52550053134E+03  0.00000000000E+00 0.  1.
         11    1    4    4    0    0  0.77801462201E+02 -0.10065414850E+02 -0.27703922624E+03  0.28793247988E+03  0.00000000000E+00 0. -1.
</event>
<event>
 8    1  0.3541538E-009  0.1875682E+03  0.7561462E-02  0.1160673E+00
         -2   -1    0    0    0  501 -0.00000000000E+00  0.00000000000E+00  0.13550036689E+03  0.13550036689E+03  0.00000000000E+00 0.  1.
          2   -1    0    0  501    0  0.00000000000E+00 -0.00000000000E+00 -0.35670802177E+03  0.35670802177E+03  0.00000000000E+00 0. -1.
         25    2    1    2    0    0 -0.14930640898E+03  0.89287948286E+02 -0.29438618040E+02  0.21629554958E+03  0.12510951628E+03 0.  0.
         23    2    1    2    0    0  0.14930640898E+03 -0.89287948286E+02 -0.19176903684E+03  0.27591283908E+03  0.95329899876E+02 0.  0.
          5    1    3    3  502    0 -0.77159282438E+02  0.99710523740E+02  0.20545605148E+02  0.12780977154E+03  0.41800000000E+01 0.  1.
         -5    1    3    3    0  502 -0.72147126541E+02 -0.10422575454E+02 -0.49984223189E+02  0.88485778038E+02  0.41800000000E+01 0.  1.
        -11    1    4    4    0    0  0.11635035573E+03 -0.55981001769E+02 -0.73204704643E+02  0.14842576130E+03  0.00000000000E+00 0.  1.
         11    1    4    4    0    0  0.32956053254E+02 -0.33306946517E+02 -0.11856433220E+03  0.12748707778E+03  0.00000000000E+00 0. -1.
</event>
<event>
 8    1  0.3541538E-009  0.1169943E+03  0.7561462E-02  0.1248140E+00
         -2   -1    0    0    0  501 -0.00000000000E+00  0.00000000000E+00  0.37278630344E+03  0.37278630344E+03  0.00000000000E+00 0.  1.
          2   -1    0    0  501    0  0.00000000000E+00 -0.00000000000E+00 -0.44021793268E+02  0.44021793268E+02  0.00000000000E+00 0. -1.
         25    2    1    2    0    0  0.21676374782E+02 -0.50427936290E+02  0.24266337615E+03  0.27846989535E+03  0.12508847473E+03 0.  0.
         23    2    1    2    0    0 -0.21676374782E+02  0.50427936290E+02  0.86101134021E+02  0.13833820135E+03  0.93333866798E+02 0.  0.
          5    1    3    3  502    0  0.70450091697E+02 -0.31792582457E+02  0.18515149524E+03  0.20068017418E+03  0.41800000000E+01 0.  1.
         -5    1    3    3    0  502 -0.48773716915E+02 -0.18635353834E+02  0.57511880904E+02  0.77789721167E+02  0.41800000000E+01 0.  1.
        -11    1    4    4    0    0  0.34463686639E+02  0.24987364036E+02  0.54254789758E+02  0.68961556464E+02  0.00000000000E+00 0.  1.
         11    1    4    4    0    0 -0.56140061422E+02  0.25440572254E+02  0.31846344262E+02  0.69376644888E+02  0.00000000000E+00 0. -1.
</event>
<event>
 8    1  0.3541538E-009  0.1533385E+03  0.7561462E-02  0.1196430E+00
          2   -1    0    0  501    0  0.00000000000E+00  0.00000000000E+00  0.31699986558E+03  0.31699986558E+03  0.00000000000E+00 0. -1.
         -2   -1    0    0    0  501 -0.00000000000E+00 -0.00000000000E+00 -0.12661160284E+03  0.12661160284E+03  0.00000000000E+00 0.  1.
         25    2    1    2    0    0 -0.11410278053E+03 -0.41372701947E+02  0.22893451631E+03  0.28773167178E+03  0.12508939683E+03 0.  0.
         23    2    1    2    0    0  0.11410278053E+03  0.41372701947E+02 -0.38546253564E+02  0.15587979664E+03  0.89897454618E+02 0.  0.
          5    1    3    3  502    0 -0.21338996027E+02 -0.58443301249E+02  0.15732708280E+03  0.16923432156E+03  0.41800000000E+01 0.  1.
         -5    1    3    3    0  502 -0.92763784501E+02  0.17070599302E+02  0.71607433505E+02  0.11849735022E+03  0.41800000000E+01 0.  1.
        -11    1    4    4    0    0  0.15729916724E+02  0.48780822367E+02 -0.22317968896E+02  0.55902510199E+02  0.00000000000E+00 0. -1.
         11    1    4    4    0    0  0.98372863804E+02 -0.74081204202E+01 -0.16228284668E+02  0.99977286442E+02  0.00000000000E+00 0.  1.
</event>
<event>
 8    1  0.3541538E-009  0.6602625E+02  0.7561462E-02  0.1374152E+00
          1   -1    0    0  501    0  0.00000000000E+00  0.00000000000E+00  0.88580322162E+02  0.88580322162E+02  0.00000000000E+00 0.  1.
         -1   -1    0    0    0  501 -0.00000000000E+00 -0.00000000000E+00 -0.17453087187E+03  0.17453087187E+03  0.00000000000E+00 0. -1.
         25    2    1    2    0    0  0.15866217966E+02 -0.20861945508E+02 -0.10548843645E+03  0.16571469287E+03  0.12508633644E+03 0.  0.
         23    2    1    2    0    0 -0.15866217966E+02  0.20861945508E+02  0.19537886745E+02  0.97396501162E+02  0.91746344762E+02 0.  0.
          5    1    3    3  502    0 -0.37041849601E+02  0.10591898636E+02  0.50951554039E+01  0.39086058220E+02  0.41800000000E+01 0.  1.
         -5    1    3    3    0  502  0.52908067567E+02 -0.31453844143E+02 -0.11058359185E+03  0.12662863465E+03  0.41800000000E+01 0.  1.
        -11    1    4    4    0    0 -0.12884401109E+02  0.26525532176E+01 -0.36288782237E+02  0.38599475991E+02  0.00000000000E+00 0. -1.
         11    1    4    4    0    0 -0.29818168567E+01  0.18209392290E+02  0.55826668982E+02  0.58797025171E+02  0.00000000000E+00 0.  1.
</event>
<event>
 8    1  0.3541538E-009  0.1310244E+03  0.7561462E-02  0.1225944E+00
         -1   -1    0    0    0  501 -0.00000000000E+00  0.00000000000E+00  0.13776143579E+03  0.13776143579E+03  0.00000000000E+00 0.  1.
          1   -1    0    0  501    0  0.00000000000E+00 -0.00000000000E+00 -0.25686348623E+03  0.25686348623E+03  0.00000000000E+00 0. -1.
         25    2    1    2    0    0  0.43414790099E+02  0.11715774388E+03 -0.15618030195E+03  0.23590488652E+03  0.12509215730E+03 0.  0.
         23    2    1    2    0    0 -0.43414790099E+02 -0.11715774388E+03  0.37078251514E+02  0.15872003550E+03  0.90589579888E+02 0.  0.
          5    1    3    3  502    0  0.25193603686E+01  0.11807423962E+02  0.21664114714E+02  0.25150918544E+02  0.41800000000E+01 0.  1.
         -5    1    3    3    0  502  0.40895429730E+02  0.10535031992E+03 -0.17784441666E+03  0.21075396798E+03  0.41800000000E+01 0.  1.
        -11    1    4    4    0    0 -0.45585657419E+02 -0.45201385836E+02 -0.19571976238E+02  0.67113930728E+02  0.00000000000E+00 0. -1.
         11    1    4    4    0    0  0.21708673203E+01 -0.71956358044E+02  0.56650227751E+02  0.91606104775E+02  0.00000000000E+00 0.  1.
</event>
<event>
 8    1  0.3541538E-009  0.1367192E+03  0.7561462E-02  0.1217813E+00
         -1   -1    0    0    0  501 -0.00000000000E+00  0.00000000000E+00  0.79037023832E+02  0.79037023832E+02  0.00000000000E+00 0.  1.
          1   -1    0    0  501    0  0.00000000000E+00 -0.00000000000E+00 -0.36989597761E+03  0.36989597761E+03  0.00000000000E+00 0. -1.
         25    2    1    2    0    0 -0.74987216871E+02 -0.51531605100E+02 -0.29319115322E+02  0.15743639307E+03  0.12509203940E+03 0.  0.
         23    2    1    2    0    0  0.74987216871E+02  0.51531605100E+02 -0.26153983845E+03  0.29149660837E+03  0.91041729864E+02 0.  0.
          5    1    3    3  502    0 -0.10606726277E+02  0.39364244853E+02  0.37940237607E+01  0.41157179585E+02  0.41800000000E+01 0.  1.
         -5    1    3    3    0  502 -0.64380490594E+02 -0.90895849953E+02 -0.33113139083E+02  0.11627921348E+03  0.41800000000E+01 0.  1.
        -11    1    4    4    0    0  0.16707632437E+02  0.59834799858E+02 -0.84172444609E+02  0.10461524118E+03  0.00000000000E+00 0. -1.
         11    1    4    4    0    0  0.58279584434E+02 -0.83031947576E+01 -0.17736739384E+03  0.18688136719E+03  0.00000000000E+00 0.  1.
</event>
<event>
 8    1  0.3541538E-009  0.1253861E+03  0.7561462E-02  0.1234467E+00
         -2   -1    0    0    0  501 -0.00000000000E+00  0.00000000000E+00  0.45898536042E+03  0.45898536042E+03  0.00000000000E+00 0.  1.
          2   -1    0    0  501    0  0.00000000000E+00 -0.00000000000E+00 -0.43557925995E+02  0.43557925995E+02  0.00000000000E+00 0. -1.
         25    2    1    2    0    0  0.41882756326E+01 -0.80083561942E+02  0.15408620987E+03  0.21405705555E+03  0.12508774685E+03 0.  0.
         23    2    1    2    0    0 -0.41882756326E+01  0.80083561942E+02  0.26134122455E+03  0.28848623086E+03  0.92163719551E+02 0.  0.
          5    1    3    3  502    0 -0.38925099526E+02  0.14349287595E+02  0.26019161741E+02  0.49148088521E+02  0.41800000000E+01 0. -1.
         -5    1    3    3    0  502  0.43113375159E+02 -0.94432849537E+02  0.12806704813E+03  0.16490896703E+03  0.41800000000E+01 0. -1.
        -11    1    4    4    0    0 -0.36165084417E+02  0.40487918339E+02  0.20713645408E+03  0.21413242508E+03  0.00000000000E+00 0.  1.
         11    1    4    4    0    0  0.31976808784E+02  0.39595643603E+02  0.54204770470E+02  0.74353805781E+02  0.00000000000E+00 0. -1.
</event>
<event>
 8    1  0.3541538E-009  0.9275208E+02  0.7561462E-02  0.1296321E+00
         -1   -1    0    0    0  501 -0.00000000000E+00  0.00000000000E+00  0.26774978912E+03  0.26774978912E+03  0.00000000000E+00 0.  1.
          1   -1    0    0  501    0  0.00000000000E+00 -0.00000000000E+00 -0.50861270982E+02  0.50861270982E+02  0.00000000000E+00 0. -1.
         25    2    1    2    0    0  0.91194347955E+01 -0.40688504927E+02  0.10226382501E+03  0.16686947035E+03  0.12509521056E+03 0.  0.
         23    2    1    2    0    0 -0.91194347955E+01  0.40688504927E+02  0.11462469313E+03  0.15174158975E+03  0.90266113578E+02 0.  0.
          5    1    3    3  502    0 -0.39322290750E+02 -0.74130795708E+00  0.95760880324E+02  0.10360700115E+03  0.41800000000E+01 0. -1.
         -5    1    3    3    0  502  0.48441725546E+02 -0.39947196970E+02  0.65029446819E+01  0.63262469199E+02  0.41800000000E+01 0. -1.
        -11    1    4    4    0    0  0.17236942511E+02  0.51673108733E+02  0.11009089896E+03  0.12283007933E+03  0.00000000000E+00 0.  1.
         11    1    4    4    0    0 -0.26356377306E+02 -0.10984603806E+02  0.45337941718E+01  0.28911510425E+02  0.00000000000E+00 0. -1.
</event>
<event>
 8    1  0.3541538E-009  0.1498547E+03  0.7561462E-02  0.1200652E+00
         -4   -1    0    0    0  501 -0.00000000000E+00  0.00000000000E+00  0.12477436466E+03  0.12477436466E+03  0.00000000000E+00 0.  1.
          4   -1    0    0  501    0  0.00000000000E+00 -0.00000000000E+00 -0.26070560168E+03  0.26070560168E+03  0.00000000000E+00 0. -1.
         25    2    1    2    0    0 -0.44808504946E+02 -0.12490930528E+03 -0.13561042722E+03  0.22726275624E+03  0.12509210904E+03 0.  0.
         23    2    1    2    0    0  0.44808504946E+02  0.12490930528E+03 -0.32080980117E+00  0.15821721009E+03  0.86153618553E+02 0.  0.
          5    1    3    3  502    0 -0.75488162203E+02 -0.80590774868E+02 -0.13330494362E+03  0.17315027005E+03  0.41800000000E+01 0. -1.
         -5    1    3    3    0  502  0.30679657258E+02 -0.44318530409E+02 -0.23054836054E+01  0.54112486191E+02  0.41800000000E+01 0. -1.
        -11    1    4    4    0    0  0.23819456597E+02  0.31993834820E+02 -0.38647575378E+02  0.55539238937E+02  0.00000000000E+00 0. -1.
         11    1    4    4    0    0  0.20989048348E+02  0.92915470456E+02  0.38326765577E+02  0.10267797115E+03  0.00000000000E+00 0.  1.
</event>
<event>
 8    1  0.3541538E-009  0.3442370E+03  0.7561462E-02  0.1065006E+00
          2   -1    0    0  501    0  0.00000000000E+00  0.00000000000E+00  0.35284821699E+03  0.35284821699E+03  0.00000000000E+00 0.  1.
         -2   -1    0    0    0  501 -0.00000000000E+00 -0.00000000000E+00 -0.36866908761E+03  0.36866908761E+03  0.00000000000E+00 0. -1.
         25    2    1    2    0    0  0.19836678550E+03  0.27983713849E+03 -0.37767377807E+02  0.36705623250E+03  0.12508276191E+03 0.  0.
         23    2    1    2    0    0 -0.19836678550E+03 -0.27983713849E+03  0.21946507184E+02  0.35446107210E+03  0.86618686155E+02 0.  0.
          5    1    3    3  502    0  0.33147573064E+02  0.45247848263E+02  0.40856202117E+02  0.69518566037E+02  0.41800000000E+01 0.  1.
         -5    1    3    3    0  502  0.16521921243E+03  0.23458929023E+03 -0.78623579924E+02  0.29753766647E+03  0.41800000000E+01 0.  1.
        -11    1    4    4    0    0 -0.68118657978E+02 -0.65768085551E+02  0.40948824092E+02  0.10316200287E+03  0.00000000000E+00 0. -1.
         11    1    4    4    0    0 -0.13024812752E+03 -0.21406905294E+03 -0.19002316908E+02  0.25129906923E+03  0.00000000000E+00 0.  1.
</event>
<event>
 8    1  0.3541538E-009  0.6610833E+02  0.7561462E-02  0.1373850E+00
         -2   -1    0    0    0  501 -0.00000000000E+00  0.00000000000E+00  0.18240663706E+03  0.18240663706E+03  0.00000000000E+00 0.  1.
          2   -1    0    0  501    0  0.00000000000E+00 -0.00000000000E+00 -0.82004123268E+02  0.82004123268E+02  0.00000000000E+00 0. -1.
         25    2    1    2    0    0  0.74742613409E+01  0.35572191035E+02  0.16377943579E+02  0.13128996353E+03  0.12509025593E+03 0.  0.
         23    2    1    2    0    0 -0.74742613409E+01 -0.35572191035E+02  0.84024570212E+02  0.13312079680E+03  0.96642499887E+02 0.  0.
          5    1    3    3  502    0  0.25614800554E+02  0.25249743723E+02  0.67119845886E+02  0.76264104776E+02  0.41800000000E+01 0.  1.
         -5    1    3    3    0  502 -0.18140539213E+02  0.10322447312E+02 -0.50741902307E+02  0.55025858750E+02  0.41800000000E+01 0.  1.
        -11    1    4    4    0    0 -0.25040582177E+02  0.91597168124E+01 -0.92266739524E+01  0.28214582756E+02  0.00000000000E+00 0. -1.
         11    1    4    4    0    0  0.17566320837E+02 -0.44731907847E+02  0.93251244164E+02  0.10490621405E+03  0.00000000000E+00 0.  1.
</event>
<event>
 8    1  0.3541538E-009  0.1023981E+03  0.7561462E-02  0.1275332E+00
         -1   -1    0    0    0  501 -0.00000000000E+00  0.00000000000E+00  0.35548470572E+02  0.35548470572E+02  0.00000000000E+00 0.  1.
          1   -1    0    0  501    0  0.00000000000E+00 -0.00000000000E+00 -0.37359833916E+03  0.37359833916E+03  0.00000000000E+00 0. -1.
         25    2    1    2    0    0 -0.11374365314E+02 -0.11165743417E+02 -0.26478602924E+03  0.29328258614E+03  0.12509589937E+03 0.  0.
         23    2    1    2    0    0  0.11374365314E+02  0.11165743417E+02 -0.73263839342E+02  0.11586422359E+03  0.88333901421E+02 0.  0.
          5    1    3    3  502    0 -0.59312955212E+02  0.17044843724E+02 -0.19112306689E+03  0.20088318111E+03  0.41800000000E+01 0. -1.
         -5    1    3    3    0  502  0.47938589898E+02 -0.28210587141E+02 -0.73662962349E+02  0.92399405032E+02  0.41800000000E+01 0. -1.
        -11    1    4    4    0    0 -0.35753453585E+02 -0.73947874500E+01 -0.17360547361E+02  0.40427477406E+02  0.00000000000E+00 0.  1.
         11    1    4    4    0    0  0.47127818899E+02  0.18560530867E+02 -0.55903291980E+02  0.75436746182E+02  0.00000000000E+00 0. -1.
</event>
<event>
 8    1  0.3541538E-009  0.1893794E+03  0.7561462E-02  0.1159022E+00
          2   -1    0    0  501    0  0.00000000000E+00  0.00000000000E+00  0.31887236454E+03  0.31887236454E+03  0.00000000000E+00 0. -1.
         -2   -1    0    0    0  501 -0.00000000000E+00 -0.00000000000E+00 -0.13466394786E+03  0.13466394786E+03  0.00000000000E+00 0.  1.
         25    2    1    2    0    0  0.96028340727E+02  0.12241601526E+03  0.55213917503E+01  0.19971331473E+03  0.12509116396E+03 0.  0.
         23    2    1    2    0    0 -0.96028340727E+02 -0.12241601526E+03  0.17868702493E+03  0.25382299767E+03  0.91049098040E+02 0.  0.
          5    1    3    3  502    0  0.11643565778E+03  0.13253884844E+03  0.43195440655E+01  0.17652178225E+03  0.41800000000E+01 0. -1.
         -5    1    3    3    0  502 -0.20407317058E+02 -0.10122833176E+02  0.12018476848E+01  0.23191532482E+02  0.41800000000E+01 0. -1.
        -11    1    4    4    0    0 -0.11148066603E+03 -0.90207615474E+02  0.15380254881E+03  0.21028689167E+03  0.00000000000E+00 0. -1.
         11    1    4    4    0    0  0.15452325303E+02 -0.32208399786E+02  0.24884476124E+02  0.43536106004E+02  0.00000000000E+00 0.  1.
</event>
<event>
 8    1  0.3541538E-009  0.1508950E+03  0.7561462E-02  0.1199378E+00
          2   -1    0    0  501    0  0.00000000000E+00  0.00000000000E+00  0.67676730724E+03  0.67676730724E+03  0.00000000000E+00 0. -1.
         -2   -1    0    0    0  501 -0.00000000000E+00 -0.00000000000E+00 -0.40715809490E+02  0.40715809490E+02  0.00000000000E+00 0.  1.
         25    2    1    2    0    0 -0.22105313356E+02 -0.12191106480E+03  0.29500068989E+03  0.34354668445E+03  0.12509182531E+03 0.  0.
         23    2    1    2    0    0  0.22105313356E+02  0.12191106480E+03  0.34105080786E+03  0.37393643228E+03  0.90342953505E+02 0.  0.
          5    1    3    3  502    0 -0.61222551983E+02 -0.12210209154E+03  0.23302121808E+03  0.27013604370E+03  0.41800000000E+01 0.  1.
         -5    1    3    3    0  502  0.39117238626E+02  0.19102673843E+00  0.61979471810E+02  0.73410640747E+02  0.41800000000E+01 0.  1.
        -11    1    4    4    0    0  0.24393539377E+02  0.75836311347E+02  0.96789618287E+02  0.12535717407E+03  0.00000000000E+00 0.  1.
         11    1    4    4    0    0 -0.22882260208E+01  0.46074753455E+02  0.24426118957E+03  0.24857925822E+03  0.00000000000E+00 0. -1.
</event>
<event>
 8    1  0.3541538E-009  0.1584603E+03  0.7561462E-02  0.1190446E+00
          3   -1    0    0  501    0  0.00000000000E+00  0.00000000000E+00  0.10556167021E+03  0.10556167021E+03  0.00000000000E+00 0. -1.
         -3   -1    0    0    0  501 -0.00000000000E+00 -0.00000000000E+00 -0.33563289193E+03  0.33563289193E+03  0.00000000000E+00 0.  1.
         25    2    1    2    0    0  0.10215956060E+02  0.15093788974E+03 -0.91104086305E+02  0.21641284715E+03  0.12509178052E+03 0.  0.
         23    2    1    2    0    0 -0.10215956060E+02 -0.15093788974E+03 -0.13896713541E+03  0.22478171499E+03  0.91259752090E+02 0.  0.
          5    1    3    3  502    0 -0.52608110176E+01  0.63431980879E+02 -0.10840944590E+03  0.12578303817E+03  0.41800000000E+01 0. -1.
         -5    1    3    3    0  502  0.15476767077E+02  0.87505908863E+02  0.17305359599E+02  0.90629808981E+02  0.41800000000E+01 0. -1.
        -11    1    4    4    0    0  0.70024408658E+01 -0.14612554626E+03 -0.87886326269E+02  0.17066257877E+03  0.00000000000E+00 0. -1.
         11    1    4    4    0    0 -0.17218396925E+02 -0.48123434813E+01 -0.51080809139E+02  0.54119136216E+02  0.00000000000E+00 0.  1.
</event>
<event>
 8    1  0.3541538E-009  0.1094948E+03  0.7561462E-02  0.1261508E+00
          2   -1    0    0  501    0  0.00000000000E+00  0.00000000000E+00  0.13749640489E+03  0.13749640489E+03  0.00000000000E+00 0. -1.
         -2   -1    0    0    0  501 -0.00000000000E+00 -0.00000000000E+00 -0.16227085456E+03  0.16227085456E+03  0.00000000000E+00 0.  1.
         25    2    1    2    0    0 -0.47691597836E+02  0.47244719514E+02 -0.88978352976E+02  0.16754507727E+03  0.12509058155E+03 0.  0.
         23    2    1    2    0    0  0.47691597836E+02 -0.47244719514E+02  0.64203903299E+02  0.13222218218E+03  0.94095760993E+02 0.  0.
          5    1    3    3  502    0 -0.12370599589E+02  0.65685674170E+02 -0.10488196555E+03  0.12444010054E+03  0.41800000000E+01 0.  1.
         -5    1    3    3    0  502 -0.35320998247E+02 -0.18440954656E+02  0.15903612572E+02  0.43104976727E+02  0.41800000000E+01 0.  1.
        -11    1    4    4    0    0 -0.17068814605E+02  0.14560127780E+02  0.27448280486E+02  0.35450667901E+02  0.00000000000E+00 0.  1.
         11    1    4    4    0    0  0.64760412440E+02 -0.61804847294E+02  0.36755622812E+02  0.96771514284E+02  0.00000000000E+00 0. -1.
</event>
<event>
 8    1  0.3541538E-009  0.1315266E+03  0.7561462E-02  0.1225208E+00
          1   -1    0    0  501    0  0.00000000000E+00  0.00000000000E+00  0.98301051178E+02  0.98301051178E+02  0.00000000000E+00 0. -1.
         -1   -1    0    0    0  501 -0.00000000000E+00 -0.00000000000E+00 -0.26628873299E+03  0.26628873299E+03  0.00000000000E+00 0.  1.
         25    2    1    2    0    0  0.46271260990E+02 -0.81219070179E+02 -0.17403943055E+03  0.23383639478E+03  0.12510862954E+03 0.  0.
         23    2    1    2    0    0 -0.46271260990E+02  0.81219070179E+02  0.60517487392E+01  0.13075338939E+03  0.91226411849E+02 0.  0.
          5    1    3    3  502    0 -0.42597051259E+02 -0.15376187620E+02 -0.49422306430E+02  0.67163775166E+02  0.41800000000E+01 0.  1.
         -5    1    3    3    0  502  0.88868312249E+02 -0.65842882559E+02 -0.12461712412E+03  0.16667261962E+03  0.41800000000E+01 0.  1.
        -11    1    4    4    0    0 -0.57254781044E+02  0.59613714688E+02 -0.29469092495E+02  0.87751537558E+02  0.00000000000E+00 0.  1.
         11    1    4    4    0    0  0.10983520054E+02  0.21605355491E+02  0.35520841234E+02  0.43001851828E+02  0.00000000000E+00 0. -1.
</event>
<event>
 8    1  0.3541538E-009  0.2323181E+03  0.7561462E-02  0.1125019E+00
          1   -1    0    0  501    0  0.00000000000E+00  0.00000000000E+00  0.46727007471E+03  0.46727007471E+03  0.00000000000E+00 0. -1.
         -1   -1    0    0    0  501 -0.00000000000E+00 -0.00000000000E+00 -0.14806249627E+03  0.14806249627E+03  0.00000000000E+00 0.  1.
         25    2    1    2    0    0  0.19941322109E+03  0.56802601155E+02  0.22003831759E+02  0.24315422991E+03  0.12509053789E+03 0.  0.
         23    2    1    2    0    0 -0.19941322109E+03 -0.56802601155E+02  0.29720374668E+03  0.37217834107E+03  0.84820294025E+02 0.  0.
          5    1    3    3  502    0  0.88219097666E+02 -0.36806351374E+02 -0.23962465911E+01  0.95710663420E+02  0.41800000000E+01 0.  1.
         -5    1    3    3    0  502  0.11119412342E+03  0.93608952529E+02  0.24400078350E+02  0.14744356649E+03  0.41800000000E+01 0.  1.
        -11    1    4    4    0    0 -0.19860864101E+03 -0.34929117255E+02  0.27484881865E+03  0.34089193101E+03  0.00000000000E+00 0.  1.
         11    1    4    4    0    0 -0.80458007511E+00 -0.21873483900E+02  0.22354928038E+02  0.31286410062E+02  0.00000000000E+00 0. -1.
</event>
<event>
 8    1  0.3541538E-009  0.1129960E+03  0.7561462E-02  0.1255120E+00
         -2   -1    0    0    0  501 -0.00000000000E+00  0.00000000000E+00  0.20154131429E+02  0.20154131429E+02  0.00000000000E+00 0.  1.
          2   -1    0    0  501    0  0.00000000000E+00 -0.00000000000E+00 -0.81692784529E+03  0.81692784529E+03  0.00000000000E+00 0. -1.
         25    2    1    2    0    0 -0.34348023949E+02  0.52763582937E+02 -0.53020350107E+03  0.54838522058E+03  0.12508723023E+03 0.  0.
         23    2    1    2    0    0  0.34348023949E+02 -0.52763582937E+02 -0.26657021279E+03  0.28869675614E+03  0.91226949014E+02 0.  0.
          5    1    3    3  502    0 -0.53264124193E+02  0.74790247417E+02 -0.49040736108E+03  0.49894639015E+03  0.41800000000E+01 0.  1.
         -5    1    3    3    0  502  0.18916100244E+02 -0.22026664479E+02 -0.39796139989E+02  0.49438830432E+02  0.41800000000E+01 0.  1.
        -11    1    4    4    0    0  0.11042408798E+01  0.22468108313E+02 -0.25615351464E+02  0.34090782768E+02  0.00000000000E+00 0.  1.
         11    1    4    4    0    0  0.33243783069E+02 -0.75231691250E+02 -0.24095486133E+03  0.25460597337E+03  0.00000000000E+00 0. -1.
</event>
<event>
 8    1  0.3541538E-009  0.1097981E+03  0.7561462E-02  0.1260944E+00
          1   -1    0    0  501    0  0.00000000000E+00  0.00000000000E+00  0.43267131515E+03  0.43267131515E+03  0.00000000000E+00 0. -1.
         -1   -1    0    0    0  501 -0.00000000000E+00 -0.00000000000E+00 -0.48749812754E+02  0.48749812754E+02  0.00000000000E+00 0.  1.
         25    2    1    2    0    0 -0.64915634675E+02  0.43656482268E+02  0.11423699943E+03  0.18658877002E+03  0.12508136947E+03 0.  0.
         23    2    1    2    0    0  0.64915634675E+02 -0.43656482268E+02  0.26968450297E+03  0.29483235789E+03  0.89869127336E+02 0.  0.
          5    1    3    3  502    0 -0.66577569207E+02  0.98554588419E+01  0.64291570039E-01  0.67432776332E+02  0.41800000000E+01 0.  1.
         -5    1    3    3    0  502  0.16619345320E+01  0.33801023426E+02  0.11417270786E+03  0.11915599368E+03  0.41800000000E+01 0.  1.
        -11    1    4    4    0    0  0.37321752115E+02 -0.70372362296E+02  0.16248529409E+03  0.18096036404E+03  0.00000000000E+00 0.  1.
         11    1    4    4    0    0  0.27593882560E+02  0.26715880028E+02  0.10719920887E+03  0.11387199385E+03  0.00000000000E+00 0. -1.
</event>
<event>
 8    1  0.3541538E-009  0.9170684E+02  0.7561462E-02  0.1298770E+00
          1   -1    0    0  501    0  0.00000000000E+00  0.00000000000E+00  0.15210585429E+03  0.15210585429E+03  0.00000000000E+00 0. -1.
         -1   -1    0    0    0  501 -0.00000000000E+00 -0.00000000000E+00 -0.93703201476E+02  0.93703201476E+02  0.00000000000E+00 0.  1.
         25    2    1    2    0    0 -0.31341344457E+02 -0.34744929084E+00  0.73933057180E+02  0.14864982205E+03  0.12509305359E+03 0.  0.
         23    2    1    2    0    0  0.31341344457E+02  0.34744929084E+00 -0.15530404371E+02  0.97159233716E+02  0.90643933293E+02 0.  0.
          5    1    3    3  502    0  0.57894731932E+01  0.57998281550E+02  0.23645494483E+02  0.63038880637E+02  0.41800000000E+01 0.  1.
         -5    1    3    3    0  502 -0.37130817651E+02 -0.58345730841E+02  0.50287562697E+02  0.85610941408E+02  0.41800000000E+01 0.  1.
        -11    1    4    4    0    0  0.35699283383E+02 -0.15747391290E+02 -0.47277792063E+02  0.61299337589E+02  0.00000000000E+00 0.  1.
         11    1    4    4    0    0 -0.43579389255E+01  0.16094840580E+02  0.31747387692E+02  0.35859896127E+02  0.00000000000E+00 0. -1.
</event>
<event>
 8    1  0.3541538E-009  0.2310882E+03  0.7561462E-02  0.1125876E+00
         -2   -1    0    0    0  501 -0.00000000000E+00  0.00000000000E+00  0.55661228289E+02  0.55661228289E+02  0.00000000000E+00 0.  1.
          2   -1    0    0  501    0  0.00000000000E+00 -0.00000000000E+00 -0.25212634018E+04  0.25212634018E+04  0.00000000000E+00 0. -1.
         25    2    1    2    0    0  0.21643081516E+03  0.36431527717E+02 -0.22206435938E+04  0.22349663847E+04  0.12508883246E+03 0.  0.
         23    2    1    2    0    0 -0.21643081516E+03 -0.36431527717E+02 -0.24495857971E+03  0.34195824540E+03  0.93601185174E+02 0.  0.
          5    1    3    3  502    0  0.92598086295E+02  0.42623255579E+02 -0.15203438306E+04  0.15237630994E+04  0.41800000000E+01 0. -1.
         -5    1    3    3    0  502  0.12383272886E+03 -0.61917278621E+01 -0.70029976319E+03  0.71120328525E+03  0.41800000000E+01 0. -1.
        -11    1    4    4    0    0 -0.12166425988E+03  0.23576818263E+02 -0.15313674518E+03  0.19699980004E+03  0.00000000000E+00 0.  1.
         11    1    4    4    0    0 -0.94766555281E+02 -0.60008345980E+02 -0.91821834530E+02  0.14495844537E+03  0.00000000000E+00 0. -1.
</event>
<event>
 8    1  0.3541538E-009  0.7763144E+02  0.7561462E-02  0.1335911E+00
         -1   -1    0    0    0  501 -0.00000000000E+00  0.00000000000E+00  0.61273344603E+02  0.61273344603E+02  0.00000000000E+00 0.  1.
          1   -1    0    0  501    0  0.00000000000E+00 -0.00000000000E+00 -0.23562305369E+03  0.23562305369E+03  0.00000000000E+00 0. -1.
         25    2    1    2    0    0  0.43368422709E+02  0.27121547834E+02 -0.97980872913E+02  0.16692850966E+03  0.12509387449E+03 0.  0.
         23    2    1    2    0    0 -0.43368422709E+02 -0.27121547834E+02 -0.76368836173E+02  0.12996788863E+03  0.91886095205E+02 0.  0.
          5    1    3    3  502    0  0.18109214910E+02  0.19031193442E+02  0.27704189163E+02  0.38407349370E+02  0.41800000000E+01 0. -1.
         -5    1    3    3    0  502  0.25259207799E+02  0.80903543916E+01 -0.12568506208E+03  0.12852116029E+03  0.41800000000E+01 0. -1.
        -11    1    4    4    0    0  0.43260304424E+01 -0.49104531090E+02 -0.53321315736E+02  0.72616335798E+02  0.00000000000E+00 0.  1.
         11    1    4    4    0    0 -0.47694453151E+02  0.21982983256E+02 -0.23047520437E+02  0.57351552835E+02  0.00000000000E+00 0. -1.
</event>
<event>
 8    1  0.3541538E-009  0.1035946E+03  0.7561462E-02  0.1272914E+00
          2   -1    0    0  501    0  0.00000000000E+00  0.00000000000E+00  0.24016747770E+03  0.24016747770E+03  0.00000000000E+00 0. -1.
         -2   -1    0    0    0  501 -0.00000000000E+00 -0.00000000000E+00 -0.69510770205E+02  0.69510770205E+02  0.00000000000E+00 0.  1.
         25    2    1    2    0    0  0.62736836117E+02  0.65532599022E+01  0.56120783541E+02  0.15091649490E+03  0.12508952900E+03 0.  0.
         23    2    1    2    0    0 -0.62736836117E+02 -0.65532599022E+01  0.11453592396E+03  0.15876175301E+03  0.90044214253E+02 0.  0.
          5    1    3    3  502    0  0.74445285997E+02  0.53206750999E+02  0.40672969429E+02  0.10022385844E+03  0.41800000000E+01 0. -1.
         -5    1    3    3    0  502 -0.11708449880E+02 -0.46653491097E+02  0.15447814112E+02  0.50692636457E+02  0.41800000000E+01 0. -1.
        -11    1    4    4    0    0 -0.32386667384E+02  0.84224982829E+01  0.11991173782E+03  0.12449361256E+03  0.00000000000E+00 0. -1.
         11    1    4    4    0    0 -0.30350168733E+02 -0.14975758185E+02 -0.53758138588E+01  0.34268140451E+02  0.00000000000E+00 0.  1.
</event>
<event>
 8    1  0.3541538E-009  0.1828568E+03  0.7561462E-02  0.1165066E+00
         -1   -1    0    0    0  501 -0.00000000000E+00  0.00000000000E+00  0.18350997846E+03  0.18350997846E+03  0.00000000000E+00 0.  1.
          1   -1    0    0  501    0  0.00000000000E+00 -0.00000000000E+00 -0.23983450396E+03  0.23983450396E+03  0.00000000000E+00 0. -1.
         25    2    1    2    0    0 -0.14240540742E+03  0.97496187669E+02 -0.80284444462E+02  0.22776847955E+03  0.12509229225E+03 0.  0.
         23    2    1    2    0    0  0.14240540742E+03 -0.97496187669E+02  0.23959918957E+02  0.19557600288E+03  0.88831799005E+02 0.  0.
          5    1    3    3  502    0 -0.27356211626E+02  0.62250106131E+02  0.20081306022E+02  0.71022315362E+02  0.41800000000E+01 0.  1.
         -5    1    3    3    0  502 -0.11504919579E+03  0.35246081538E+02 -0.10036575048E+03  0.15674616418E+03  0.41800000000E+01 0.  1.
        -11    1    4    4    0    0  0.95105910347E+02 -0.86656196975E+02  0.52856599432E+02  0.13909798978E+03  0.00000000000E+00 0. -1.
         11    1    4    4    0    0  0.47299497070E+02 -0.10839990694E+02 -0.28896680475E+02  0.56478013100E+02  0.00000000000E+00 0.  1.
</event>
<event>
 8    1  0.3541538E-009  0.1943989E+03  0.7561462E-02  0.1154553E+00
         -2   -1    0    0    0  501 -0.00000000000E+00  0.00000000000E+00  0.45622653385E+02  0.45622653385E+02  0.00000000000E+00 0.  1.
          2   -1    0    0  501    0  0.00000000000E+00 -0.00000000000E+00 -0.11998712049E+04  0.11998712049E+04  0.00000000000E+00 0. -1.
         25    2    1    2    0    0 -0.49475653776E+02 -0.17620125487E+03 -0.34199372155E+03  0.40755240239E+03  0.12507810593E+03 0.  0.
         23    2    1    2    0    0  0.49475653776E+02  0.17620125487E+03 -0.81225483001E+03  0.83794145593E+03  0.94304041067E+02 0.  0.
          5    1    3    3  502    0 -0.10103237000E+02 -0.25694921464E+02  0.39618963753E+01  0.28204138168E+02  0.41800000000E+01 0. -1.
         -5    1    3    3    0  502 -0.39372416776E+02 -0.15050633341E+03 -0.34595561792E+03  0.37934826423E+03  0.41800000000E+01 0. -1.
        -11    1    4    4    0    0  0.66192212711E+02  0.64914386397E+02 -0.33435640151E+03  0.34697188620E+03  0.00000000000E+00 0. -1.
         11    1    4    4    0    0 -0.16716558935E+02  0.11128686848E+03 -0.47789842850E+03  0.49096956973E+03  0.00000000000E+00 0.  1.
</event>
<event>
 8    1  0.3541538E-009  0.1064954E+03  0.7561462E-02  0.1267201E+00
         -2   -1    0    0    0  501 -0.00000000000E+00  0.00000000000E+00  0.23959808181E+02  0.23959808181E+02  0.00000000000E+00 0. -1.
          2   -1    0    0  501    0  0.00000000000E+00 -0.00000000000E+00 -0.73958870125E+03  0.73958870125E+03  0.00000000000E+00 0.  1.
         25    2    1    2    0    0  0.29508629117E+02 -0.18103868620E+02 -0.59172894822E+03  0.60579637359E+03  0.12509032273E+03 0.  0.
         23    2    1    2    0    0 -0.29508629117E+02  0.18103868620E+02 -0.12389994484E+03  0.15775213584E+03  0.91301866234E+02 0.  0.
          5    1    3    3  502    0  0.11314113408E+02 -0.65746644189E+02 -0.45351110232E+03  0.45841075763E+03  0.41800000000E+01 0.  1.
         -5    1    3    3    0  502  0.18194515709E+02  0.47642775569E+02 -0.13821784590E+03  0.14738561596E+03  0.41800000000E+01 0.  1.
        -11    1    4    4    0    0  0.24087576323E+02  0.31574963751E+02 -0.34276135046E+02  0.52459919011E+02  0.00000000000E+00 0.  1.
         11    1    4    4    0    0 -0.53596205440E+02 -0.13471095130E+02 -0.89623809799E+02  0.10529221683E+03  0.00000000000E+00 0. -1.
</event>
<event>
 8    1  0.3541538E-009  0.1150385E+03  0.7561462E-02  0.1251514E+00
         -1   -1    0    0    0  501 -0.00000000000E+00  0.00000000000E+00  0.93854677993E+02  0.93854677993E+02  0.00000000000E+00 0.  1.
          1   -1    0    0  501    0  0.00000000000E+00 -0.00000000000E+00 -0.16248288819E+03  0.16248288819E+03  0.00000000000E+00 0. -1.
         25    2    1    2    0    0 -0.36903087901E+02  0.38739514091E+02 -0.63677518911E+02  0.15021423790E+03  0.12508758133E+03 0.  0.
         23    2    1    2    0    0  0.36903087901E+02 -0.38739514091E+02 -0.49506912874E+01  0.10612332829E+03  0.91515373647E+02 0.  0.
          5    1    3    3  502    0  0.19438000694E+02 -0.30277088629E+02  0.64042455713E+01  0.36783484448E+02  0.41800000000E+01 0. -1.
         -5    1    3    3    0  502 -0.56341088595E+02  0.69016602719E+02 -0.70081764482E+02  0.11343075345E+03  0.41800000000E+01 0. -1.
        -11    1    4    4    0    0 -0.25833139942E+02 -0.32648676941E+02 -0.10230676265E+02  0.42871365293E+02  0.00000000000E+00 0.  1.
         11    1    4    4    0    0  0.62736227843E+02 -0.60908371492E+01  0.52799849776E+01  0.63251962993E+02  0.00000000000E+00 0. -1.
</event>
<event>
 8    1  0.3541538E-009  0.1380798E+03  0.7561462E-02  0.1215936E+00
         -1   -1    0    0    0  501 -0.00000000000E+00  0.00000000000E+00  0.84519029723E+02  0.84519029723E+02  0.00000000000E+00 0.  1.
          1   -1    0    0  501    0  0.00000000000E+00 -0.00000000000E+00 -0.32172666667E+03  0.32172666667E+03  0.00000000000E+00 0. -1.
         25    2    1    2    0    0 -0.75599120501E+02  0.58800782907E+02 -0.29593520379E+02  0.16029157820E+03  0.12507939279E+03 0.  0.
         23    2    1    2    0    0  0.75599120501E+02 -0.58800782907E+02 -0.20761411657E+03  0.24595411819E+03  0.90647933058E+02 0.  0.
          5    1    3    3  502    0 -0.21287225673E+02 -0.31928619867E+02  0.19939813021E+02  0.43447109073E+02  0.41800000000E+01 0. -1.
         -5    1    3    3    0  502 -0.54311894828E+02  0.90729402774E+02 -0.49533333400E+02  0.11684446913E+03  0.41800000000E+01 0. -1.
        -11    1    4    4    0    0  0.96739697663E+02 -0.48437984307E+02 -0.16605864634E+03  0.19819253631E+03  0.00000000000E+00 0.  1.
         11    1    4    4    0    0 -0.21140577162E+02 -0.10362798600E+02 -0.41555470230E+02  0.47761581879E+02  0.00000000000E+00 0. -1.
</event>
<event>
 8    1  0.3541538E-009  0.1553210E+03  0.7561462E-02  0.1194083E+00
         -2   -1    0    0    0  501 -0.00000000000E+00  0.00000000000E+00  0.90027354973E+02  0.90027354973E+02  0.00000000000E+00 0.  1.
          2   -1    0    0  501    0  0.00000000000E+00 -0.00000000000E+00 -0.47335602626E+03  0.47335602626E+03  0.00000000000E+00 0. -1.
         25    2    1    2    0    0  0.10212311944E+03 -0.68935928418E+02 -0.37199101102E+03  0.41134859631E+03  0.12509620960E+03 0.  0.
         23    2    1    2    0    0 -0.10212311944E+03  0.68935928418E+02 -0.11337660263E+02  0.15203478492E+03  0.88344436910E+02 0.  0.
          5    1    3    3  502    0  0.11164713940E+03 -0.92785755064E+01 -0.20399882002E+03  0.23277492706E+03  0.41800000000E+01 0.  1.
         -5    1    3    3    0  502 -0.95240199561E+01 -0.59657352911E+02 -0.16799219100E+03  0.17857366925E+03  0.41800000000E+01 0.  1.
        -11    1    4    4    0    0 -0.56768836153E+02  0.16029590485E+01  0.26258896716E+02  0.62568361754E+02  0.00000000000E+00 0.  1.
         11    1    4    4    0    0 -0.45354283289E+02  0.67332969369E+02 -0.37596556979E+02  0.89466423162E+02  0.00000000000E+00 0. -1.
</event>
<event>
 8    1  0.3541538E-009  0.1723780E+03  0.7561462E-02  0.1175390E+00
          2   -1    0    0  501    0  0.00000000000E+00  0.00000000000E+00  0.18480556198E+04  0.18480556198E+04  0.00000000000E+00 0.  1.
         -2   -1    0    0    0  501 -0.00000000000E+00 -0.00000000000E+00 -0.32248281151E+02  0.32248281151E+02  0.00000000000E+00 0. -1.
         25    2    1    2    0    0  0.14290964171E+03 -0.19097614286E+02  0.15658789258E+04  0.15774702244E+04  0.12509042263E+03 0.  0.
         23    2    1    2    0    0 -0.14290964171E+03  0.19097614286E+02  0.24992841279E+03  0.30283367656E+03  0.91957270367E+02 0.  0.
          5    1    3    3  502    0 -0.18441740016E+02 -0.43122224483E+01  0.38893814657E+03  0.38942142634E+03  0.41800000000E+01 0.  1.
         -5    1    3    3    0  502  0.16135138173E+03 -0.14785391838E+02  0.11769407793E+04  0.11880487980E+04  0.41800000000E+01 0.  1.
        -11    1    4    4    0    0 -0.14925738069E+03  0.67664646413E+01  0.24697691947E+03  0.28865403078E+03  0.00000000000E+00 0.  1.
         11    1    4    4    0    0  0.63477389758E+01  0.12331149645E+02  0.29514933195E+01  0.14179645781E+02  0.00000000000E+00 0. -1.
</event>
<event>
 8    1  0.3541538E-009  0.2298446E+03  0.7561462E-02  0.1126749E+00
         -2   -1    0    0    0  501 -0.00000000000E+00  0.00000000000E+00  0.46053718738E+02  0.46053718738E+02  0.00000000000E+00 0.  1.
          2   -1    0    0  501    0  0.00000000000E+00 -0.00000000000E+00 -0.12792905904E+04  0.12792905904E+04  0.00000000000E+00 0. -1.
         25    2    1    2    0    0 -0.61071461280E+02  0.20409325023E+03 -0.71108115813E+03  0.75277311060E+03  0.12508862628E+03 0.  0.
         23    2    1    2    0    0  0.61071461280E+02 -0.20409325023E+03 -0.52215571357E+03  0.57257119858E+03  0.99032368689E+02 0.  0.
          5    1    3    3  502    0 -0.79102465656E+02  0.13715608882E+03 -0.33783175535E+03  0.37311762233E+03  0.41800000000E+01 0.  1.
         -5    1    3    3    0  502  0.18031004376E+02  0.66937161413E+02 -0.37324940278E+03  0.37965548827E+03  0.41800000000E+01 0.  1.
        -11    1    4    4    0    0  0.88999625448E+01 -0.16841173282E+03 -0.33546397753E+03  0.37547010707E+03  0.00000000000E+00 0.  1.
         11    1    4    4    0    0  0.52171498735E+02 -0.35681517414E+02 -0.18669173604E+03  0.19710109150E+03  0.00000000000E+00 0. -1.
</event>
<event>
 8    1  0.3541538E-009  0.8499182E+02  0.7561462E-02  0.1315454E+00
          1   -1    0    0  501    0  0.00000000000E+00  0.00000000000E+00  0.10301659726E+03  0.10301659726E+03  0.00000000000E+00 0. -1.
         -1   -1    0    0    0  501 -0.00000000000E+00 -0.00000000000E+00 -0.16720394517E+03  0.16720394517E+03  0.00000000000E+00 0.  1.
         25    2    1    2    0    0 -0.27979901508E+02  0.51181885084E+01 -0.10618295283E+03  0.16652738044E+03  0.12508988057E+03 0.  0.
         23    2    1    2    0    0  0.27979901508E+02 -0.51181885084E+01  0.41995604931E+02  0.10369316199E+03  0.90440976705E+02 0.  0.
          5    1    3    3  502    0 -0.37026206638E+02 -0.24061073081E+02  0.10715494763E+02  0.45630794906E+02  0.41800000000E+01 0.  1.
         -5    1    3    3    0  502  0.90463051297E+01  0.29179261589E+02 -0.11689844760E+03  0.12089658553E+03  0.41800000000E+01 0.  1.
        -11    1    4    4    0    0 -0.31930657531E+02  0.91358767682E+01  0.13876318409E+02  0.35994212691E+02  0.00000000000E+00 0.  1.
         11    1    4    4    0    0  0.59910559039E+02 -0.14254065277E+02  0.28119286521E+02  0.67698949296E+02  0.00000000000E+00 0. -1.
</event>
<event>
 8    1  0.3541538E-009  0.1164819E+03  0.7561462E-02  0.1249016E+00
         -1   -1    0    0    0  501 -0.00000000000E+00  0.00000000000E+00  0.38922445841E+02  0.38922445841E+02  0.00000000000E+00 0.  1.
          1   -1    0    0  501    0  0.00000000000E+00 -0.00000000000E+00 -0.46167217616E+03  0.46167217616E+03  0.00000000000E+00 0. -1.
         25    2    1    2    0    0 -0.76093559661E+02 -0.67466728049E+01 -0.19755124979E+03  0.24598657286E+03  0.12508856990E+03 0.  0.
         23    2    1    2    0    0  0.76093559661E+02  0.67466728049E+01 -0.22519848053E+03  0.25460804914E+03  0.90967882444E+02 0.  0.
          5    1    3    3  502    0  0.43938417602E+01 -0.37515407959E+02 -0.13277184706E+03  0.13810339406E+03  0.41800000000E+01 0.  1.
         -5    1    3    3    0  502 -0.80487401421E+02  0.30768735154E+02 -0.64779402727E+02  0.10788317880E+03  0.41800000000E+01 0.  1.
        -11    1    4    4    0    0  0.14560029294E+02 -0.32565784511E+02 -0.31450026596E+02  0.47556586786E+02  0.00000000000E+00 0.  1.
         11    1    4    4    0    0  0.61533530367E+02  0.39312457316E+02 -0.19374845393E+03  0.20705146235E+03  0.00000000000E+00 0. -1.
</event>
<event>
 8    1  0.3541538E-009  0.1033512E+03  0.7561462E-02  0.1273403E+00
          2   -1    0    0  501    0  0.00000000000E+00  0.00000000000E+00  0.39943530884E+02  0.39943530884E+02  0.00000000000E+00 0. -1.
         -2   -1    0    0    0  501 -0.00000000000E+00 -0.00000000000E+00 -0.32967177142E+03  0.32967177142E+03  0.00000000000E+00 0.  1.
         25    2    1    2    0    0 -0.95777100684E+01 -0.38400635320E+02 -0.14910005583E+03  0.19860515502E+03  0.12508732800E+03 0.  0.
         23    2    1    2    0    0  0.95777100684E+01  0.38400635320E+02 -0.14062818470E+03  0.17101014729E+03  0.88892310242E+02 0.  0.
          5    1    3    3  502    0  0.44070661945E+02  0.16286310667E+02 -0.90531734562E+02  0.10208297861E+03  0.41800000000E+01 0.  1.
         -5    1    3    3    0  502 -0.53648372014E+02 -0.54686945987E+02 -0.58568321272E+02  0.96522176404E+02  0.41800000000E+01 0.  1.
        -11    1    4    4    0    0  0.36897249109E+02  0.15390415652E+01 -0.20101524389E+02  0.42045771767E+02  0.00000000000E+00 0. -1.
         11    1    4    4    0    0 -0.27319539040E+02  0.36861593755E+02 -0.12052666031E+03  0.12896437552E+03  0.00000000000E+00 0.  1.
</event>
<event>
 8    1  0.3541538E-009  0.1625475E+03  0.7561462E-02  0.1185850E+00
          1   -1    0    0  501    0  0.00000000000E+00  0.00000000000E+00  0.14579581219E+04  0.14579581219E+04  0.00000000000E+00 0. -1.
         -1   -1    0    0    0  501 -0.00000000000E+00 -0.00000000000E+00 -0.28728797845E+02  0.28728797845E+02  0.00000000000E+00 0.  1.
         25    2    1    2    0    0 -0.14093856214E+03  0.15192094352E+02  0.11052233817E+04  0.11212772261E+04  0.12509762682E+03 0.  0.
         23    2    1    2    0    0  0.14093856214E+03 -0.15192094352E+02  0.32400594237E+03  0.36540969368E+03  0.91923422028E+02 0.  0.
          5    1    3    3  502    0 -0.88436310410E+02  0.63363284925E+02  0.49129934163E+03  0.50321804654E+03  0.41800000000E+01 0. -1.
         -5    1    3    3    0  502 -0.52502251729E+02 -0.48171190573E+02  0.61392404004E+03  0.61805917951E+03  0.41800000000E+01 0. -1.
        -11    1    4    4    0    0  0.64903185952E+02 -0.21942710637E+02  0.61622634810E+02  0.92148007128E+02  0.00000000000E+00 0. -1.
         11    1    4    4    0    0  0.76035376186E+02  0.67506162854E+01  0.26238330756E+03  0.27326168655E+03  0.00000000000E+00 0.  1.
</event>
<event>
 8    1  0.3541538E-009  0.1092373E+03  0.7561462E-02  0.1261989E+00
          1   -1    0    0  501    0  0.00000000000E+00  0.00000000000E+00  0.11171022673E+03  0.11171022673E+03  0.00000000000E+00 0. -1.
         -1   -1    0    0    0  501 -0.00000000000E+00 -0.00000000000E+00 -0.20916108773E+03  0.20916108773E+03  0.00000000000E+00 0.  1.
         25    2    1    2    0    0  0.21321375160E+02 -0.97303935919E+02 -0.72014792947E+01  0.16007226712E+03  0.12509441399E+03 0.  0.
         23    2    1    2    0    0 -0.21321375160E+02  0.97303935919E+02 -0.90249381696E+02  0.16079904734E+03  0.88253757681E+02 0.  0.
          5    1    3    3  502    0  0.19636752581E+02 -0.84031006237E+02  0.50919436850E+02  0.10028496154E+03  0.41800000000E+01 0.  1.
         -5    1    3    3    0  502  0.16846225785E+01 -0.13272929683E+02 -0.58120916144E+02  0.59787305584E+02  0.41800000000E+01 0.  1.
        -11    1    4    4    0    0  0.87538975451E+01  0.85189076841E+02 -0.95143440153E+02  0.12800813935E+03  0.00000000000E+00 0.  1.
         11    1    4    4    0    0 -0.30075272705E+02  0.12114859078E+02  0.48940584566E+01  0.32790907992E+02  0.00000000000E+00 0. -1.
</event>
<event>
 8    1  0.3541538E-009  0.1269541E+03  0.7561462E-02  0.1232047E+00
          2   -1    0    0  501    0  0.00000000000E+00  0.00000000000E+00  0.14161346030E+03  0.14161346030E+03  0.00000000000E+00 0. -1.
         -2   -1    0    0    0  501 -0.00000000000E+00 -0.00000000000E+00 -0.27013772503E+03  0.27013772503E+03  0.00000000000E+00 0.  1.
         25    2    1    2    0    0 -0.10205065593E+03 -0.43462044031E+02 -0.19212452443E+03  0.25468110671E+03  0.12508935839E+03 0.  0.
         23    2    1    2    0    0  0.10205065593E+03  0.43462044031E+02  0.63600259704E+02  0.15707007862E+03  0.91229002603E+02 0.  0.
          5    1    3    3  502    0 -0.76459922845E+02 -0.71510177942E+02 -0.68226557517E+02  0.12502864032E+03  0.41800000000E+01 0. -1.
         -5    1    3    3    0  502 -0.25590733083E+02  0.28048133911E+02 -0.12389796691E+03  0.12965246639E+03  0.41800000000E+01 0. -1.
        -11    1    4    4    0    0  0.13887328859E+02  0.51775371410E+01 -0.23220034621E+02  0.27546956302E+02  0.00000000000E+00 0.  1.
         11    1    4    4    0    0  0.88163327069E+02  0.38284506890E+02  0.86820294325E+02  0.12952312232E+03  0.00000000000E+00 0. -1.
</event>
<event>
 8    1  0.3541538E-009  0.1371735E+03  0.7561462E-02  0.1217184E+00
         -2   -1    0    0    0  501 -0.00000000000E+00  0.00000000000E+00  0.27752469563E+03  0.27752469563E+03  0.00000000000E+00 0. -1.
          2   -1    0    0  501    0  0.00000000000E+00 -0.00000000000E+00 -0.92012068008E+02  0.92012068008E+02  0.00000000000E+00 0.  1.
         25    2    1    2    0    0 -0.53171186897E+02  0.88093850049E+02  0.36398629463E+02  0.16601010570E+03  0.12508714337E+03 0.  0.
         23    2    1    2    0    0  0.53171186897E+02 -0.88093850049E+02  0.14911399816E+03  0.20352665793E+03  0.92738419818E+02 0.  0.
          5    1    3    3  502    0  0.28265316564E+02  0.22050822550E+02  0.48418522814E+02  0.60390335710E+02  0.41800000000E+01 0. -1.
         -5    1    3    3    0  502 -0.81436503461E+02  0.66043027499E+02 -0.12019893352E+02  0.10561976999E+03  0.41800000000E+01 0. -1.
        -11    1    4    4    0    0  0.12104732365E+02 -0.91328990205E+02  0.75257071004E+02  0.11895854628E+03  0.00000000000E+00 0.  1.
         11    1    4    4    0    0  0.41066454532E+02  0.32351401553E+01  0.73856927152E+02  0.84568111650E+02  0.00000000000E+00 0. -1.
</event>
<event>
 8    1  0.3541538E-009  0.8436556E+02  0.7561462E-02  0.1317100E+00
         -2   -1    0    0    0  501 -0.00000000000E+00  0.00000000000E+00  0.33293018456E+02  0.33293018456E+02  0.00000000000E+00 0.  1.
          2   -1    0    0  501    0  0.00000000000E+00 -0.00000000000E+00 -0.35818509803E+03  0.35818509803E+03  0.00000000000E+00 0. -1.
         25    2    1    2    0    0  0.14157387728E+02  0.29549813500E+01 -0.19654694371E+03  0.23342504452E+03  0.12508951510E+03 0.  0.
         23    2    1    2    0    0 -0.14157387728E+02 -0.29549813500E+01 -0.12834513586E+03  0.15805307196E+03  0.91099594479E+02 0.  0.
          5    1    3    3  502    0  0.60670887400E+02  0.28005651800E+02 -0.14395329265E+03  0.15876175855E+03  0.41800000000E+01 0. -1.
         -5    1    3    3    0  502 -0.46513499672E+02 -0.25050670450E+02 -0.52593651054E+02  0.74663285977E+02  0.41800000000E+01 0. -1.
        -11    1    4    4    0    0  0.49195736735E+01 -0.21572526149E+02  0.44836082242E+01  0.22576067688E+02  0.00000000000E+00 0.  1.
         11    1    4    4    0    0 -0.19076961402E+02  0.18617544799E+02 -0.13282874409E+03  0.13547700427E+03  0.00000000000E+00 0. -1.
</event>
<event>
 8    1  0.3541538E-009  0.2388220E+03  0.7561462E-02  0.1120580E+00
         -1   -1    0    0    0  501 -0.00000000000E+00  0.00000000000E+00  0.91959562536E+02  0.91959562536E+02  0.00000000000E+00 0.  1.
          1   -1    0    0  501    0  0.00000000000E+00 -0.00000000000E+00 -0.65020360160E+03  0.65020360160E+03  0.00000000000E+00 0. -1.
         25    2    1    2    0    0  0.21015869440E+03  0.33685812125E+02 -0.21152924205E+03  0.32510634404E+03  0.12509238155E+03 0.  0.
         23    2    1    2    0    0 -0.21015869440E+03 -0.33685812125E+02 -0.34671479701E+03  0.41705682010E+03  0.91781424860E+02 0.  0.
          5    1    3    3  502    0  0.12003694183E+03  0.80312477749E+02 -0.11091933934E+03  0.18215250129E+03  0.41800000000E+01 0. -1.
         -5    1    3    3    0  502  0.90121752568E+02 -0.46626665624E+02 -0.10060990272E+03  0.14295384275E+03  0.41800000000E+01 0. -1.
        -11    1    4    4    0    0 -0.15282616861E+03 -0.65229703537E+02 -0.24113176740E+03  0.29284002678E+03  0.00000000000E+00 0. -1.
         11    1    4    4    0    0 -0.57332525787E+02  0.31543891412E+02 -0.10558302962E+03  0.12421679332E+03  0.00000000000E+00 0.  1.
</event>
<event>
 8    1  0.3541538E-009  0.1636849E+03  0.7561462E-02  0.1184598E+00
         -2   -1    0    0    0  501 -0.00000000000E+00  0.00000000000E+00  0.23897368740E+03  0.23897368740E+03  0.00000000000E+00 0.  1.
          2   -1    0    0  501    0  0.00000000000E+00 -0.00000000000E+00 -0.12410674782E+03  0.12410674782E+03  0.00000000000E+00 0. -1.
         25    2    1    2    0    0  0.72328130044E+02 -0.11062739739E+03  0.79303774452E+02  0.19851079229E+03  0.12509063340E+03 0.  0.
         23    2    1    2    0    0 -0.72328130044E+02  0.11062739739E+03  0.35563165129E+02  0.16456964292E+03  0.91370942912E+02 0.  0.
          5    1    3    3  502    0 -0.14296943609E+02  0.18753161573E+02  0.22076989114E+02  0.32572219972E+02  0.41800000000E+01 0. -1.
         -5    1    3    3    0  502  0.86625073654E+02 -0.12938055896E+03  0.57226785337E+02  0.16593857232E+03  0.41800000000E+01 0. -1.
        -11    1    4    4    0    0 -0.62924123781E+02  0.11929506376E+03  0.51292428578E+02  0.14429716151E+03  0.00000000000E+00 0.  1.
         11    1    4    4    0    0 -0.94040062632E+01 -0.86676663660E+01 -0.15729263448E+02  0.20272481413E+02  0.00000000000E+00 0. -1.
</event>
<event>
 8    1  0.3541538E-009  0.1840550E+03  0.7561462E-02  0.1163935E+00
          2   -1    0    0  501    0  0.00000000000E+00  0.00000000000E+00  0.21529570339E+03  0.21529570339E+03  0.00000000000E+00 0.  1.
         -2   -1    0    0    0  501 -0.00000000000E+00 -0.00000000000E+00 -0.21598227758E+03  0.21598227758E+03  0.00000000000E+00 0. -1.
         25    2    1    2    0    0 -0.92701845413E+02 -0.14999046720E+03 -0.58415684166E+02  0.22394230327E+03  0.12508793164E+03 0.  0.
         23    2    1    2    0    0  0.92701845413E+02  0.14999046720E+03  0.57729109978E+02  0.20733567771E+03  0.92545452171E+02 0.  0.
          5    1    3    3  502    0 -0.33492489365E+02 -0.84341457783E+02  0.33047658433E+02  0.96668756445E+02  0.41800000000E+01 0.  1.
         -5    1    3    3    0  502 -0.59209356049E+02 -0.65649009415E+02 -0.91463342598E+02  0.12727354682E+03  0.41800000000E+01 0.  1.
        -11    1    4    4    0    0  0.37740949603E+02  0.11019295798E+02  0.41249334158E+02  0.56985188649E+02  0.00000000000E+00 0. -1.
         11    1    4    4    0    0  0.54960895810E+02  0.13897117140E+03  0.16479775820E+02  0.15035048906E+03  0.00000000000E+00 0.  1.
</event>
<event>
 8    1  0.3541538E-009  0.7816074E+02  0.7561462E-02  0.1334354E+00
          2   -1    0    0  501    0  0.00000000000E+00  0.00000000000E+00  0.18786247934E+03  0.18786247934E+03  0.00000000000E+00 0. -1.
         -2   -1    0    0    0  501 -0.00000000000E+00 -0.00000000000E+00 -0.84880164773E+02  0.84880164773E+02  0.00000000000E+00 0.  1.
         25    2    1    2    0    0  0.13393408502E+02 -0.59558224658E+02  0.19613793078E+02  0.14056758946E+03  0.12509188947E+03 0.  0.
         23    2    1    2    0    0 -0.13393408502E+02  0.59558224658E+02  0.83368521489E+02  0.13217505466E+03  0.82421897469E+02 0.  0.
          5    1    3    3  502    0 -0.73601133520E+01 -0.32302116403E+02  0.71119210300E+02  0.78568520836E+02  0.41800000000E+01 0. -1.
         -5    1    3    3    0  502  0.20753521854E+02 -0.27256108255E+02 -0.51505417222E+02  0.61999068620E+02  0.41800000000E+01 0. -1.
        -11    1    4    4    0    0 -0.30749569068E+01  0.72105873313E+02  0.89355714292E+02  0.11486146439E+03  0.00000000000E+00 0. -1.
         11    1    4    4    0    0 -0.10318451596E+02 -0.12547648655E+02 -0.59871928033E+01  0.17313590262E+02  0.00000000000E+00 0.  1.
</event>
<event>
 8    1  0.3541538E-009  0.1423377E+03  0.7561462E-02  0.1210218E+00
         -2   -1    0    0    0  501 -0.00000000000E+00  0.00000000000E+00  0.75175914324E+02  0.75175914324E+02  0.00000000000E+00 0.  1.
          2   -1    0    0  501    0  0.00000000000E+00 -0.00000000000E+00 -0.33789338013E+03  0.33789338013E+03  0.00000000000E+00 0. -1.
         25    2    1    2    0    0  0.74039746670E+02 -0.71544585959E+02 -0.68582706358E+02  0.17593289481E+03  0.12509310133E+03 0.  0.
         23    2    1    2    0    0 -0.74039746670E+02  0.71544585959E+02 -0.19413475945E+03  0.23713639964E+03  0.89133918016E+02 0.  0.
          5    1    3    3  502    0  0.10466539910E+03 -0.76826614385E+02 -0.61783323885E+02  0.14384653613E+03  0.41800000000E+01 0.  1.
         -5    1    3    3    0  502 -0.30625652434E+02  0.52820284261E+01 -0.67993824728E+01  0.32086358680E+02  0.41800000000E+01 0.  1.
        -11    1    4    4    0    0 -0.23866621827E+01 -0.12641363726E+02 -0.68888101883E+02  0.70079032630E+02  0.00000000000E+00 0. -1.
         11    1    4    4    0    0 -0.71653084487E+02  0.84185949685E+02 -0.12524665756E+03  0.16705736701E+03  0.00000000000E+00 0.  1.
</event>
<event>
 8    1  0.3541538E-009  0.8049414E+02  0.7561462E-02  0.1327655E+00
         -2   -1    0    0    0  501 -0.00000000000E+00  0.00000000000E+00  0.15792557951E+03  0.15792557951E+03  0.00000000000E+00 0.  1.
          2   -1    0    0  501    0  0.00000000000E+00 -0.00000000000E+00 -0.91566059137E+02  0.91566059137E+02  0.00000000000E+00 0. -1.
         25    2    1    2    0    0 -0.21947988626E+01 -0.51776754286E+02  0.34044190181E+02  0.13961750590E+03  0.12509353157E+03 0.  0.
         23    2    1    2    0    0  0.21947988626E+01  0.51776754286E+02  0.32315330194E+02  0.10987413275E+03  0.91336712532E+02 0.  0.
          5    1    3    3  502    0 -0.16410342285E+02  0.35526664470E+01 -0.41413165934E+02  0.44882552128E+02  0.41800000000E+01 0.  1.
         -5    1    3    3    0  502  0.14215543423E+02 -0.55329420733E+02  0.75457356116E+02  0.94734953768E+02  0.41800000000E+01 0.  1.
        -11    1    4    4    0    0  0.34833409478E+02  0.17166746804E+02 -0.16062582705E+02  0.42024637712E+02  0.00000000000E+00 0. -1.
         11    1    4    4    0    0 -0.32638610616E+02  0.34610007481E+02  0.48377912899E+02  0.67849495040E+02  0.00000000000E+00 0.  1.
</event>
<event>
 8    1  0.3541538E-009  0.1302741E+03  0.7561462E-02  0.1227050E+00
         -2   -1    0    0    0  501 -0.00000000000E+00  0.00000000000E+00  0.11400817467E+03  0.11400817467E+03  0.00000000000E+00 0.  1.
          2   -1    0    0  501    0  0.00000000000E+00 -0.00000000000E+00 -0.17717043384E+03  0.17717043384E+03  0.00000000000E+00 0. -1.
         25    2    1    2    0    0  0.22504360812E+02 -0.87123258554E+02 -0.25068791480E+02  0.15612209324E+03  0.12509498492E+03 0.  0.
         23    2    1    2    0    0 -0.22504360812E+02  0.87123258554E+02 -0.38093467689E+02  0.13505651527E+03  0.93232191866E+02 0.  0.
          5    1    3    3  502    0  0.59284568391E+02 -0.32548736670E+02  0.26141593441E+02  0.72628751990E+02  0.41800000000E+01 0. -1.
         -5    1    3    3    0  502 -0.36780207579E+02 -0.54574521884E+02 -0.51210384921E+02  0.83493341245E+02  0.41800000000E+01 0. -1.
        -11    1    4    4    0    0  0.34708857268E+02  0.28286486616E+02 -0.47540242103E+00  0.44777852845E+02  0.00000000000E+00 0.  1.
         11    1    4    4    0    0 -0.57213218079E+02  0.58836771938E+02 -0.37618065268E+02  0.90278662427E+02  0.00000000000E+00 0. -1.
</event>
<event>
 8    1  0.3541538E-009  0.1089869E+03  0.7561462E-02  0.1262458E+00
          3   -1    0    0  501    0  0.00000000000E+00  0.00000000000E+00  0.61639526551E+03  0.61639526551E+03  0.00000000000E+00 0. -1.
         -3   -1    0    0    0  501 -0.00000000000E+00 -0.00000000000E+00 -0.25787521354E+02  0.25787521354E+02  0.00000000000E+00 0.  1.
         25    2    1    2    0    0  0.30799942208E+02 -0.28784126191E+02  0.46068756807E+03  0.47922630676E+03  0.12509058863E+03 0.  0.
         23    2    1    2    0    0 -0.30799942208E+02  0.28784126191E+02  0.12992017609E+03  0.16295648010E+03  0.88872942400E+02 0.  0.
          5    1    3    3  502    0 -0.39752681990E+02  0.77023497312E+01  0.26309823264E+03  0.26622876316E+03  0.41800000000E+01 0. -1.
         -5    1    3    3    0  502  0.70552624198E+02 -0.36486475922E+02  0.19758933543E+03  0.21299754361E+03  0.41800000000E+01 0. -1.
        -11    1    4    4    0    0 -0.28755547354E+02 -0.28453653684E+02  0.63041888456E+02  0.74905084018E+02  0.00000000000E+00 0. -1.
         11    1    4    4    0    0 -0.20443948546E+01  0.57237779875E+02  0.66878287638E+02  0.88051396086E+02  0.00000000000E+00 0.  1.
</event>
<event>
 8    1  0.3541538E-009  0.9450707E+02  0.7561462E-02  0.1292290E+00
          2   -1    0    0  501    0  0.00000000000E+00  0.00000000000E+00  0.51377782679E+03  0.51377782679E+03  0.00000000000E+00 0. -1.
         -2   -1    0    0    0  501 -0.00000000000E+00 -0.00000000000E+00 -0.29212189028E+02  0.29212189028E+02  0.00000000000E+00 0.  1.
         25    2    1    2    0    0  0.47197671213E+02 -0.22323939639E+02  0.21668781898E+03  0.25558441233E+03  0.12507518730E+03 0.  0.
         23    2    1    2    0    0 -0.47197671213E+02  0.22323939639E+02  0.26787781877E+03  0.28740560349E+03  0.90097040333E+02 0.  0.
          5    1    3    3  502    0  0.72988343633E+02 -0.14010130430E+02  0.21566193508E+03  0.22814715581E+03  0.41800000000E+01 0.  1.
         -5    1    3    3    0  502 -0.25790672421E+02 -0.83138092092E+01  0.10258839051E+01  0.27437256518E+02  0.41800000000E+01 0.  1.
        -11    1    4    4    0    0 -0.87531851463E+01 -0.24824405353E+02  0.22591795595E+02  0.34688017809E+02  0.00000000000E+00 0.  1.
         11    1    4    4    0    0 -0.38444486066E+02  0.47148344992E+02  0.24528602318E+03  0.25271758568E+03  0.00000000000E+00 0. -1.
</event>
<event>
 8    1  0.3541538E-009  0.1142422E+03  0.7561462E-02  0.1252910E+00
         -2   -1    0    0    0  501 -0.00000000000E+00  0.00000000000E+00  0.12523730818E+02  0.12523730818E+02  0.00000000000E+00 0. -1.
          2   -1    0    0  501    0  0.00000000000E+00 -0.00000000000E+00 -0.11746046620E+04  0.11746046620E+04  0.00000000000E+00 0.  1.
         25    2    1    2    0    0 -0.24409860111E+02 -0.34791669558E+02 -0.80956622129E+03  0.82027514140E+03  0.12509012508E+03 0.  0.
         23    2    1    2    0    0  0.24409860111E+02  0.34791669558E+02 -0.35251470990E+03  0.36685325143E+03  0.92240912017E+02 0.  0.
          5    1    3    3  502    0 -0.42717090812E+02  0.34669713736E+02 -0.24462546832E+03  0.25077047483E+03  0.41800000000E+01 0. -1.
         -5    1    3    3    0  502  0.18307230700E+02 -0.69461383294E+02 -0.56494075298E+03  0.56950466657E+03  0.41800000000E+01 0. -1.
        -11    1    4    4    0    0 -0.33234896932E+02 -0.14459204223E+01 -0.10497361171E+03  0.11011860976E+03  0.00000000000E+00 0. -1.
         11    1    4    4    0    0  0.57644757043E+02  0.36237589981E+02 -0.24754109818E+03  0.25673464167E+03  0.00000000000E+00 0.  1.
</event>
<event>
 8    1  0.3541538E-009  0.5632033E+02  0.7561462E-02  0.1413956E+00
          2   -1    0    0  501    0  0.00000000000E+00  0.00000000000E+00  0.55560835666E+03  0.55560835666E+03  0.00000000000E+00 0. -1.
         -2   -1    0    0    0  501 -0.00000000000E+00 -0.00000000000E+00 -0.22323569322E+02  0.22323569322E+02  0.00000000000E+00 0.  1.
         25    2    1    2    0    0  0.24921589964E+02  0.12896887238E+02  0.29079191908E+03  0.31780006571E+03  0.12509806640E+03 0.  0.
         23    2    1    2    0    0 -0.24921589964E+02 -0.12896887238E+02  0.24249286826E+03  0.26013186027E+03  0.89879798755E+02 0.  0.
          5    1    3    3  502    0 -0.38003956440E+01  0.12460987096E+02 -0.91482733764E+01  0.16458508810E+02  0.41800000000E+01 0.  1.
         -5    1    3    3    0  502  0.28721985608E+02  0.43590014184E+00  0.29994019246E+03  0.30134155690E+03  0.41800000000E+01 0.  1.
        -11    1    4    4    0    0 -0.23801385574E+02 -0.37980648083E+02  0.22526525003E+03  0.22968123227E+03  0.00000000000E+00 0. -1.
         11    1    4    4    0    0 -0.11202043904E+01  0.25083760845E+02  0.17227618228E+02  0.30450628003E+02  0.00000000000E+00 0.  1.
</event>
<event>
 8    1  0.3541538E-009  0.1139459E+03  0.7561462E-02  0.1253432E+00
         -4   -1    0    0    0  501 -0.00000000000E+00  0.00000000000E+00  0.35469254285E+02  0.35469254285E+02  0.00000000000E+00 0.  1.
          4   -1    0    0  501    0  0.00000000000E+00 -0.00000000000E+00 -0.38625271878E+03  0.38625271878E+03  0.00000000000E+00 0. -1.
         25    2    1    2    0    0  0.43602096702E+02  0.13935870402E+00 -0.23009808902E+03  0.26550801846E+03  0.12509282570E+03 0.  0.
         23    2    1    2    0    0 -0.43602096702E+02 -0.13935870402E+00 -0.12068537548E+03  0.15621395460E+03  0.89088032306E+02 0.  0.
          5    1    3    3  502    0  0.62270902290E+02 -0.48334954053E+02 -0.15709307727E+03  0.17581137728E+03  0.41800000000E+01 0. -1.
         -5    1    3    3    0  502 -0.18668805588E+02  0.48474312757E+02 -0.73005011745E+02  0.89696641181E+02  0.41800000000E+01 0. -1.
        -11    1    4    4    0    0 -0.35681630649E+02  0.41340912049E+02 -0.84452451680E+02  0.10057070334E+03  0.00000000000E+00 0. -1.
         11    1    4    4    0    0 -0.79204660528E+01 -0.41480270754E+02 -0.36232923798E+02  0.55643251264E+02  0.00000000000E+00 0.  1.
</event>
<event>
 8    1  0.3541538E-009  0.1095100E+03  0.7561462E-02  0.1261480E+00
         -2   -1    0    0    0  501 -0.00000000000E+00  0.00000000000E+00  0.71509592075E+02  0.71509592075E+02  0.00000000000E+00 0.  1.
          2   -1    0    0  501    0  0.00000000000E+00 -0.00000000000E+00 -0.23962441951E+03  0.23962441951E+03  0.00000000000E+00 0. -1.
         25    2    1    2    0    0 -0.43752449541E+01  0.62782305080E+02 -0.48565646398E+02  0.14821634685E+03  0.12509477553E+03 0.  0.
         23    2    1    2    0    0  0.43752449541E+01 -0.62782305080E+02 -0.11954918104E+03  0.16291766474E+03  0.91046132243E+02 0.  0.
          5    1    3    3  502    0 -0.48763012087E+02  0.37045629436E+02  0.18093883192E+02  0.63992741909E+02  0.41800000000E+01 0.  1.
         -5    1    3    3    0  502  0.44387767133E+02  0.25736675644E+02 -0.66659529591E+02  0.84223604942E+02  0.41800000000E+01 0.  1.
        -11    1    4    4    0    0  0.78821240692E+01  0.20934409718E+02 -0.47128584360E+02  0.52167814348E+02  0.00000000000E+00 0. -1.
         11    1    4    4    0    0 -0.35068791151E+01 -0.83716714797E+02 -0.72420596678E+02  0.11074985039E+03  0.00000000000E+00 0.  1.
</event>
<event>
 8    1  0.3541538E-009  0.1007592E+03  0.7561462E-02  0.1278708E+00
         -1   -1    0    0    0  501 -0.00000000000E+00  0.00000000000E+00  0.38097225770E+02  0.38097225770E+02  0.00000000000E+00 0.  1.
          1   -1    0    0  501    0  0.00000000000E+00 -0.00000000000E+00 -0.36125822335E+03  0.36125822335E+03  0.00000000000E+00 0. -1.
         25    2    1    2    0    0  0.37051629895E+02 -0.49635773105E+00 -0.12751848581E+03  0.18243502709E+03  0.12509398562E+03 0.  0.
         23    2    1    2    0    0 -0.37051629895E+02  0.49635773105E+00 -0.19564251177E+03  0.21692042203E+03  0.86054676998E+02 0.  0.
          5    1    3    3  502    0  0.53316194997E+02  0.50812486451E+02 -0.91506973074E+02  0.11753945699E+03  0.41800000000E+01 0.  1.
         -5    1    3    3    0  502 -0.16264565102E+02 -0.51308844182E+02 -0.36011512741E+02  0.64895570104E+02  0.41800000000E+01 0.  1.
        -11    1    4    4    0    0 -0.55237498237E+02  0.34139441804E+01 -0.18963717948E+03  0.19754770581E+03  0.00000000000E+00 0. -1.
         11    1    4    4    0    0  0.18185868342E+02 -0.29175864494E+01 -0.60053322849E+01  0.19372716224E+02  0.00000000000E+00 0.  1.
</event>
<event>
 8    1  0.3541538E-009  0.1297106E+03  0.7561462E-02  0.1227886E+00
          2   -1    0    0  501    0  0.00000000000E+00  0.00000000000E+00  0.58164854970E+03  0.58164854970E+03  0.00000000000E+00 0. -1.
         -2   -1    0    0    0  501 -0.00000000000E+00 -0.00000000000E+00 -0.30473585428E+02  0.30473585428E+02  0.00000000000E+00 0.  1.
         25    2    1    2    0    0 -0.26270826892E+02  0.64866935645E+02  0.24404362709E+03  0.28302398670E+03  0.12508960564E+03 0.  0.
         23    2    1    2    0    0  0.26270826892E+02 -0.64866935645E+02  0.30713133718E+03  0.32909814843E+03  0.95278839911E+02 0.  0.
          5    1    3    3  502    0  0.49908994139E+02  0.35700431132E+02  0.11130750790E+03  0.12717020953E+03  0.41800000000E+01 0.  1.
         -5    1    3    3    0  502 -0.76179821031E+02  0.29166504513E+02  0.13273611920E+03  0.15585377717E+03  0.41800000000E+01 0.  1.
        -11    1    4    4    0    0  0.53698492810E+02 -0.70110554221E+02  0.20488830743E+03  0.22311036835E+03  0.00000000000E+00 0.  1.
         11    1    4    4    0    0 -0.27427665918E+02  0.52436185759E+01  0.10224302975E+03  0.10598778008E+03  0.00000000000E+00 0. -1.
</event>
<event>
 8    1  0.3541538E-009  0.1189284E+03  0.7561462E-02  0.1244875E+00
         -1   -1    0    0    0  501 -0.00000000000E+00  0.00000000000E+00  0.75897322417E+02  0.75897322417E+02  0.00000000000E+00 0.  1.
          1   -1    0    0  501    0  0.00000000000E+00 -0.00000000000E+00 -0.25075187600E+03  0.25075187600E+03  0.00000000000E+00 0. -1.
         25    2    1    2    0    0  0.63713593570E+02  0.28001768805E+02 -0.13260298757E+03  0.19512665685E+03  0.12508932344E+03 0.  0.
         23    2    1    2    0    0 -0.63713593570E+02 -0.28001768805E+02 -0.42251566011E+02  0.13152254157E+03  0.10329309294E+03 0.  0.
          5    1    3    3  502    0 -0.28149834359E+02 -0.12052446598E+02 -0.70954048802E+02  0.77392661699E+02  0.41800000000E+01 0.  1.
         -5    1    3    3    0  502  0.91863427929E+02  0.40054215404E+02 -0.61648938771E+02  0.11773399515E+03  0.41800000000E+01 0.  1.
        -11    1    4    4    0    0 -0.27287744293E+02 -0.54940102075E+02 -0.57140905815E+02  0.83833876935E+02  0.00000000000E+00 0. -1.
         11    1    4    4    0    0 -0.36425849276E+02  0.26938333270E+02  0.14889339803E+02  0.47688664635E+02  0.00000000000E+00 0.  1.
</event>
<event>
 8    1  0.3541538E-009  0.1156179E+03  0.7561462E-02  0.1250506E+00
          2   -1    0    0  501    0  0.00000000000E+00  0.00000000000E+00  0.74603706328E+03  0.74603706328E+03  0.00000000000E+00 0. -1.
         -2   -1    0    0    0  501 -0.00000000000E+00 -0.00000000000E+00 -0.19082861081E+02  0.19082861081E+02  0.00000000000E+00 0.  1.
         25    2    1    2    0    0 -0.27881556593E+02  0.39945685777E+02  0.45237419948E+03  0.47187526864E+03  0.12510321256E+03 0.  0.
         23    2    1    2    0    0  0.27881556593E+02 -0.39945685777E+02  0.27458000272E+03  0.29324465572E+03  0.90692950129E+02 0.  0.
          5    1    3    3  502    0 -0.21620293060E+02  0.82861783933E+02  0.35483880976E+03  0.36505008646E+03  0.41800000000E+01 0. -1.
         -5    1    3    3    0  502 -0.62612635332E+01 -0.42916098156E+02  0.97535389719E+02  0.10682518219E+03  0.41800000000E+01 0. -1.
        -11    1    4    4    0    0 -0.31947048739E+02 -0.24149789560E+02  0.12859870604E+03  0.13469021292E+03  0.00000000000E+00 0. -1.
         11    1    4    4    0    0  0.59828605332E+02 -0.15795896217E+02  0.14598129668E+03  0.15855444281E+03  0.00000000000E+00 0.  1.
</event>
<event>
 8    1  0.3541538E-009  0.6662755E+02  0.7561462E-02  0.1371952E+00
         -2   -1    0    0    0  501 -0.00000000000E+00  0.00000000000E+00  0.69749712239E+02  0.69749712239E+02  0.00000000000E+00 0.  1.
          2   -1    0    0  501    0  0.00000000000E+00 -0.00000000000E+00 -0.17539997044E+03  0.17539997044E+03  0.00000000000E+00 0. -1.
         25    2    1    2    0    0 -0.14142493534E+02  0.86474378863E+01 -0.79599966029E+02  0.14918897208E+03  0.12508559666E+03 0.  0.
         23    2    1    2    0    0  0.14142493534E+02 -0.86474378863E+01 -0.26050292166E+02  0.95960710598E+02  0.90857316443E+02 0.  0.
          5    1    3    3  502    0 -0.37444214823E+02  0.21072002885E+02 -0.10424320136E+03  0.11282825869E+03  0.41800000000E+01 0.  1.
         -5    1    3    3    0  502  0.23301721290E+02 -0.12424564999E+02  0.24643235330E+02  0.36360713387E+02  0.41800000000E+01 0.  1.
        -11    1    4    4    0    0  0.15096937411E+02  0.25260820787E+02  0.22282175094E+02  0.36912354475E+02  0.00000000000E+00 0.  1.
         11    1    4    4    0    0 -0.95444387763E+00 -0.33908258673E+02 -0.48332467260E+02  0.59048356123E+02  0.00000000000E+00 0. -1.
</event>
<event>
 8    1  0.3541538E-009  0.1139532E+03  0.7561462E-02  0.1253419E+00
         -2   -1    0    0    0  501 -0.00000000000E+00  0.00000000000E+00  0.22148657715E+02  0.22148657715E+02  0.00000000000E+00 0.  1.
          2   -1    0    0  501    0  0.00000000000E+00 -0.00000000000E+00 -0.59850564356E+03  0.59850564356E+03  0.00000000000E+00 0. -1.
         25    2    1    2    0    0 -0.19339865132E+02 -0.32965695597E+02 -0.35702154049E+03  0.38022756571E+03  0.12509138212E+03 0.  0.
         23    2    1    2    0    0  0.19339865132E+02  0.32965695597E+02 -0.21933544535E+03  0.24042673556E+03  0.90753568065E+02 0.  0.
          5    1    3    3  502    0 -0.45738386707E+02 -0.70156293964E+02 -0.25403840516E+03  0.26751988580E+03  0.41800000000E+01 0.  1.
         -5    1    3    3    0  502  0.26398521575E+02  0.37190598367E+02 -0.10298313533E+03  0.11270767991E+03  0.41800000000E+01 0.  1.
        -11    1    4    4    0    0  0.52540686175E+02  0.15759628939E+01 -0.12529119813E+03  0.13587086403E+03  0.00000000000E+00 0. -1.
         11    1    4    4    0    0 -0.33200821043E+02  0.31389732703E+02 -0.94044247218E+02  0.10455587153E+03  0.00000000000E+00 0.  1.
</event>
<event>
 8    1  0.3541538E-009  0.2533033E+03  0.7561462E-02  0.1111235E+00
          2   -1    0    0  501    0  0.00000000000E+00  0.00000000000E+00  0.31809417180E+04  0.31809417180E+04  0.00000000000E+00 0.  1.
         -2   -1    0    0    0  501 -0.00000000000E+00 -0.00000000000E+00 -0.29563875745E+02  0.29563875745E+02  0.00000000000E+00 0. -1.
         25    2    1    2    0    0 -0.23448763890E+03  0.82256350268E+02  0.23526713817E+04  0.23690635945E+04  0.12509646176E+03 0.  0.
         23    2    1    2    0    0  0.23448763890E+03 -0.82256350268E+02  0.79870646059E+03  0.84144199924E+03  0.91334921819E+02 0.  0.
          5    1    3    3  502    0 -0.20458467048E+03  0.67824917717E+02  0.14664489296E+04  0.14822095137E+04  0.41800000000E+01 0.  1.
         -5    1    3    3    0  502 -0.29902968414E+02  0.14431432551E+02  0.88622245210E+03  0.88685408088E+03  0.41800000000E+01 0.  1.
        -11    1    4    4    0    0  0.51755307064E+02 -0.50088721759E+02  0.32070772571E+03  0.32869581255E+03  0.00000000000E+00 0.  1.
         11    1    4    4    0    0  0.18273233183E+03 -0.32167628509E+02  0.47799873488E+03  0.51274618669E+03  0.00000000000E+00 0. -1.
</event>
<event>
 8    1  0.3541538E-009  0.1264013E+03  0.7561462E-02  0.1232895E+00
          2   -1    0    0  501    0  0.00000000000E+00  0.00000000000E+00  0.37761405667E+03  0.37761405667E+03  0.00000000000E+00 0. -1.
         -2   -1    0    0    0  501 -0.00000000000E+00 -0.00000000000E+00 -0.59378312662E+02  0.59378312662E+02  0.00000000000E+00 0.  1.
         25    2    1    2    0    0 -0.96969732239E+02 -0.25855412957E+02  0.13959001384E+03  0.21261239287E+03  0.12508807412E+03 0.  0.
         23    2    1    2    0    0  0.96969732239E+02  0.25855412957E+02  0.17864573017E+03  0.22437997647E+03  0.91435472225E+02 0.  0.
          5    1    3    3  502    0 -0.11731219580E+03 -0.18268623743E+02  0.14726362067E+03  0.18920872144E+03  0.41800000000E+01 0. -1.
         -5    1    3    3    0  502  0.20342463559E+02 -0.75867892133E+01 -0.76736068346E+01  0.23403671423E+02  0.41800000000E+01 0. -1.
        -11    1    4    4    0    0  0.16635164547E+02  0.26811435934E+02  0.35744424758E+01  0.31754660058E+02  0.00000000000E+00 0.  1.
         11    1    4    4    0    0  0.80334567692E+02 -0.95602297792E+00  0.17507128770E+03  0.19262531641E+03  0.00000000000E+00 0. -1.
</event>
<event>
 8    1  0.3541538E-009  0.1196797E+03  0.7561462E-02  0.1243626E+00
         -1   -1    0    0    0  501 -0.00000000000E+00  0.00000000000E+00  0.81406166619E+02  0.81406166619E+02  0.00000000000E+00 0.  1.
          1   -1    0    0  501    0  0.00000000000E+00 -0.00000000000E+00 -0.18568597702E+03  0.18568597702E+03  0.00000000000E+00 0. -1.
         25    2    1    2    0    0  0.42602907499E+02 -0.39099519691E+02 -0.65371177663E+02  0.15252901804E+03  0.12509168761E+03 0.  0.
         23    2    1    2    0    0 -0.42602907499E+02  0.39099519691E+02 -0.38908632739E+02  0.11456312560E+03  0.90923307671E+02 0.  0.
          5    1    3    3  502    0 -0.41503650033E+02 -0.20815971262E+02 -0.41094210326E+01  0.46799758192E+02  0.41800000000E+01 0.  1.
         -5    1    3    3    0  502  0.84106557532E+02 -0.18283548429E+02 -0.61261756630E+02  0.10572925985E+03  0.41800000000E+01 0.  1.
        -11    1    4    4    0    0 -0.59564559766E+02  0.56620696577E+02 -0.36925894535E+02  0.90096402526E+02  0.00000000000E+00 0. -1.
         11    1    4    4    0    0  0.16961652267E+02 -0.17521176886E+02 -0.19827382042E+01  0.24466723072E+02  0.00000000000E+00 0.  1.
</event>
<event>
 8    1  0.3541538E-009  0.7418927E+02  0.7561462E-02  0.1346400E+00
         -2   -1    0    0    0  501 -0.00000000000E+00  0.00000000000E+00  0.42966821535E+02  0.42966821535E+02  0.00000000000E+00 0.  1.
          2   -1    0    0  501    0  0.00000000000E+00 -0.00000000000E+00 -0.31820937950E+03  0.31820937950E+03  0.00000000000E+00 0. -1.
         25    2    1    2    0    0  0.30642896981E+02 -0.27389816511E+02 -0.15925670115E+03  0.20663870716E+03  0.12509064414E+03 0.  0.
         23    2    1    2    0    0 -0.30642896981E+02  0.27389816511E+02 -0.11598585681E+03  0.15453749388E+03  0.93487586606E+02 0.  0.
          5    1    3    3  502    0  0.41689572588E+01 -0.32301566924E+02 -0.17302234050E+03  0.17611068719E+03  0.41800000000E+01 0.  1.
         -5    1    3    3    0  502  0.26473939722E+02  0.49117504135E+01  0.13765639348E+02  0.30528019968E+02  0.41800000000E+01 0.  1.
        -11    1    4    4    0    0 -0.23700360964E+02 -0.25579423393E+02 -0.10703907392E+02  0.36477220897E+02  0.00000000000E+00 0.  1.
         11    1    4    4    0    0 -0.69425360168E+01  0.52969239903E+02 -0.10528194942E+03  0.11806027298E+03  0.00000000000E+00 0. -1.
</event>
<event>
 8    1  0.3541538E-009  0.1155282E+03  0.7561462E-02  0.1250662E+00
         -2   -1    0    0    0  501 -0.00000000000E+00  0.00000000000E+00  0.80200438811E+02  0.80200438811E+02  0.00000000000E+00 0.  1.
          2   -1    0    0  501    0  0.00000000000E+00 -0.00000000000E+00 -0.22005026363E+03  0.22005026363E+03  0.00000000000E+00 0. -1.
         25    2    1    2    0    0  0.73616864198E+02 -0.10840931414E+02 -0.80169985558E+02  0.16616988891E+03  0.12509291310E+03 0.  0.
         23    2    1    2    0    0 -0.73616864198E+02  0.10840931414E+02 -0.59679839262E+02  0.13408081353E+03  0.94228514024E+02 0.  0.
          5    1    3    3  502    0  0.66569528207E+02  0.28010309346E+02  0.46744982388E+01  0.72494157345E+02  0.41800000000E+01 0. -1.
         -5    1    3    3    0  502  0.70473359915E+01 -0.38851240761E+02 -0.84844483796E+02  0.93675731563E+02  0.41800000000E+01 0. -1.
        -11    1    4    4    0    0  0.46915583571E+01 -0.30223093526E+02 -0.78053489046E+01  0.31565322327E+02  0.00000000000E+00 0.  1.
         11    1    4    4    0    0 -0.78308422555E+02  0.41064024940E+02 -0.51874490357E+02  0.10251549121E+03  0.00000000000E+00 0. -1.
</event>
<event>
 8    1  0.3541538E-009  0.8093759E+02  0.7561462E-02  0.1326412E+00
          1   -1    0    0  501    0  0.00000000000E+00  0.00000000000E+00  0.16762559099E+03  0.16762559099E+03  0.00000000000E+00 0. -1.
         -1   -1    0    0    0  501 -0.00000000000E+00 -0.00000000000E+00 -0.99372948710E+02  0.99372948710E+02  0.00000000000E+00 0.  1.
         25    2    1    2    0    0  0.22273925444E+02 -0.46300741355E+02  0.86832439735E+02  0.16071087995E+03  0.12509287725E+03 0.  0.
         23    2    1    2    0    0 -0.22273925444E+02  0.46300741355E+02 -0.18579797459E+02  0.10628765975E+03  0.91170013359E+02 0.  0.
          5    1    3    3  502    0 -0.28679804536E+02 -0.11523112631E+02 -0.20159143153E+02  0.37137269226E+02  0.41800000000E+01 0. -1.
         -5    1    3    3    0  502  0.50953729980E+02 -0.34777628723E+02  0.10699158289E+03  0.12357361072E+03  0.41800000000E+01 0. -1.
        -11    1    4    4    0    0 -0.15235332748E+02  0.55338862100E+02  0.23985507447E+02  0.62207793644E+02  0.00000000000E+00 0. -1.
         11    1    4    4    0    0 -0.70385926959E+01 -0.90381207456E+01 -0.42565304907E+02  0.44079866102E+02  0.00000000000E+00 0.  1.
</event>
<event>
 8    1  0.3541538E-009  0.1801564E+03  0.7561462E-02  0.1167652E+00
         -2   -1    0    0    0  501 -0.00000000000E+00  0.00000000000E+00  0.87948664668E+03  0.87948664668E+03  0.00000000000E+00 0.  1.
          2   -1    0    0  501    0  0.00000000000E+00 -0.00000000000E+00 -0.91672327739E+02  0.91672327739E+02  0.00000000000E+00 0. -1.
         25    2    1    2    0    0 -0.16151164974E+03  0.49859428716E+02  0.59908568966E+02  0.21865805695E+03  0.12510129336E+03 0.  0.
         23    2    1    2    0    0  0.16151164974E+03 -0.49859428716E+02  0.72790574998E+03  0.75250091747E+03  0.88537417587E+02 0.  0.
          5    1    3    3  502    0 -0.14740589222E+03  0.53567634309E+02  0.36142268774E-01  0.15689315541E+03  0.41800000000E+01 0. -1.
         -5    1    3    3    0  502 -0.14105757511E+02 -0.37082055937E+01  0.59872426698E+02  0.61764901541E+02  0.41800000000E+01 0. -1.
        -11    1    4    4    0    0  0.49137677699E+02  0.23068536151E+02  0.26992869389E+03  0.27533283226E+03  0.00000000000E+00 0.  1.
         11    1    4    4    0    0  0.11237397204E+03 -0.72927964867E+02  0.45797705608E+03  0.47716808522E+03  0.00000000000E+00 0. -1.
</event>
<event>
 8    1  0.3541538E-009  0.9476924E+02  0.7561462E-02  0.1291697E+00
         -1   -1    0    0    0  501 -0.00000000000E+00  0.00000000000E+00  0.89790841280E+02  0.89790841280E+02  0.00000000000E+00 0.  1.
          1   -1    0    0  501    0  0.00000000000E+00 -0.00000000000E+00 -0.22900871170E+03  0.22900871170E+03  0.00000000000E+00 0. -1.
         25    2    1    2    0    0 -0.75377912106E+01 -0.86861543590E+00  0.28499260410E+02  0.12851957204E+03  0.12508996668E+03 0.  0.
         23    2    1    2    0    0  0.75377912106E+01  0.86861543590E+00 -0.16771713083E+03  0.19027998093E+03  0.89553684359E+02 0.  0.
          5    1    3    3  502    0 -0.20858838618E+02 -0.57346060923E+02 -0.50307175507E+01  0.61371348127E+02  0.41800000000E+01 0. -1.
         -5    1    3    3    0  502  0.13321047407E+02  0.56477445487E+02  0.33529977961E+02  0.67148223914E+02  0.41800000000E+01 0. -1.
        -11    1    4    4    0    0  0.20648826184E+01 -0.34421899815E+02 -0.23556342840E+02  0.41761611739E+02  0.00000000000E+00 0.  1.
         11    1    4    4    0    0  0.54729085922E+01  0.35290515251E+02 -0.14416078799E+03  0.14851836919E+03  0.00000000000E+00 0. -1.
</event>
<event>
 8    1  0.3541538E-009  0.1055852E+03  0.7561462E-02  0.1268971E+00
         -1   -1    0    0    0  501 -0.00000000000E+00  0.00000000000E+00  0.54553912839E+02  0.54553912839E+02  0.00000000000E+00 0.  1.
          1   -1    0    0  501    0  0.00000000000E+00 -0.00000000000E+00 -0.24917820383E+03  0.24917820383E+03  0.00000000000E+00 0. -1.
         25    2    1    2    0    0 -0.71009281034E+01  0.37174144590E+02 -0.90367824918E+02  0.15889006645E+03  0.12508944492E+03 0.  0.
         23    2    1    2    0    0  0.71009281034E+01 -0.37174144590E+02 -0.10425646607E+03  0.14484205022E+03  0.93152931186E+02 0.  0.
          5    1    3    3  502    0  0.28855494004E+02 -0.28719364860E+02  0.53039811136E+00  0.40929148224E+02  0.41800000000E+01 0. -1.
         -5    1    3    3    0  502 -0.35956422107E+02  0.65893509450E+02 -0.90898223029E+02  0.11796091822E+03  0.41800000000E+01 0. -1.
        -11    1    4    4    0    0 -0.27585152097E+02 -0.50792110582E+02 -0.85288553266E+02  0.10302871654E+03  0.00000000000E+00 0. -1.
         11    1    4    4    0    0  0.34686080200E+02  0.13617965992E+02 -0.18967912808E+02  0.41813333683E+02  0.00000000000E+00 0.  1.
</event>
<event>
 8    1  0.3541538E-009  0.9112010E+02  0.7561462E-02  0.1300162E+00
         -1   -1    0    0    0  501 -0.00000000000E+00  0.00000000000E+00  0.33962783871E+02  0.33962783871E+02  0.00000000000E+00 0.  1.
          1   -1    0    0  501    0  0.00000000000E+00 -0.00000000000E+00 -0.53497880437E+03  0.53497880437E+03  0.00000000000E+00 0. -1.
         25    2    1    2    0    0  0.82793795458E+01 -0.44800563244E+02 -0.41533144073E+03  0.43614615166E+03  0.12509045271E+03 0.  0.
         23    2    1    2    0    0 -0.82793795458E+01  0.44800563244E+02 -0.85684579769E+02  0.13279543658E+03  0.90648453782E+02 0.  0.
          5    1    3    3  502    0  0.38412063245E+02 -0.51957617995E+02 -0.39156893457E+03  0.39688636105E+03  0.41800000000E+01 0.  1.
         -5    1    3    3    0  502 -0.30132683699E+02  0.71570547513E+01 -0.23762506160E+02  0.39259790608E+02  0.41800000000E+01 0.  1.
        -11    1    4    4    0    0  0.22290468223E+02  0.50446398643E+02 -0.85456221342E+02  0.10170776704E+03  0.00000000000E+00 0. -1.
         11    1    4    4    0    0 -0.30569847768E+02 -0.56458353989E+01 -0.22835842720E+00  0.31087669541E+02  0.00000000000E+00 0.  1.
</event>
<event>
 8    1  0.3541538E-009  0.1140316E+03  0.7561462E-02  0.1253281E+00
         -2   -1    0    0    0  501 -0.00000000000E+00  0.00000000000E+00  0.68500673066E+03  0.68500673066E+03  0.00000000000E+00 0.  1.
          2   -1    0    0  501    0  0.00000000000E+00 -0.00000000000E+00 -0.21355296331E+02  0.21355296331E+02  0.00000000000E+00 0. -1.
         25    2    1    2    0    0  0.44445839407E+02 -0.24183526423E+02  0.32127344753E+03  0.34846147960E+03  0.12509396102E+03 0.  0.
         23    2    1    2    0    0 -0.44445839407E+02  0.24183526423E+02  0.34237798680E+03  0.35790054740E+03  0.91158325950E+02 0.  0.
          5    1    3    3  502    0 -0.14436383796E+02 -0.55516884265E+02  0.21792664572E+03  0.22538861757E+03  0.41800000000E+01 0. -1.
         -5    1    3    3    0  502  0.58882223203E+02  0.31333357843E+02  0.10334680181E+03  0.12307286203E+03  0.41800000000E+01 0. -1.
        -11    1    4    4    0    0  0.14490441999E+02  0.40126319218E+02  0.15909705231E+03  0.16471783892E+03  0.00000000000E+00 0.  1.
         11    1    4    4    0    0 -0.58936281407E+02 -0.15942792795E+02  0.18328093449E+03  0.19318270848E+03  0.00000000000E+00 0. -1.
</event>
<event>
 8    1  0.3541538E-009  0.2590952E+03  0.7561462E-02  0.1107688E+00
          1   -1    0    0  501    0  0.00000000000E+00  0.00000000000E+00  0.12104076076E+04  0.12104076076E+04  0.00000000000E+00 0. -1.
         -1   -1    0    0    0  501 -0.00000000000E+00 -0.00000000000E+00 -0.58620381734E+02  0.58620381734E+02  0.00000000000E+00 0.  1.
         25    2    1    2    0    0 -0.22385510334E+03 -0.93938402543E+02  0.55343743163E+03  0.61715304901E+03  0.12509741971E+03 0.  0.
         23    2    1    2    0    0  0.22385510334E+03  0.93938402543E+02  0.59834979429E+03  0.65187494037E+03  0.89347248386E+02 0.  0.
          5    1    3    3  502    0 -0.23314388182E+03 -0.10039924223E+03  0.54794002183E+03  0.60389719108E+03  0.41800000000E+01 0.  1.
         -5    1    3    3    0  502  0.92887784800E+01  0.64608396847E+01  0.54974097921E+01  0.13255857932E+02  0.41800000000E+01 0.  1.
        -11    1    4    4    0    0  0.59215009238E+02  0.59704613380E+02  0.27268718718E+03  0.28535830150E+03  0.00000000000E+00 0. -1.
         11    1    4    4    0    0  0.16464009410E+03  0.34233789163E+02  0.32566260710E+03  0.36651663887E+03  0.00000000000E+00 0.  1.
</event>
<event>
 8    1  0.3541538E-009  0.7227602E+02  0.7561462E-02  0.1352520E+00
         -2   -1    0    0    0  501 -0.00000000000E+00  0.00000000000E+00  0.16548568704E+03  0.16548568704E+03  0.00000000000E+00 0.  1.
          2   -1    0    0  501    0  0.00000000000E+00 -0.00000000000E+00 -0.85761956167E+02  0.85761956167E+02  0.00000000000E+00 0. -1.
         25    2    1    2    0    0  0.41161821689E+02 -0.10606861720E+02  0.23431476654E+02  0.13417714826E+03  0.12509065487E+03 0.  0.
         23    2    1    2    0    0 -0.41161821689E+02  0.10606861720E+02  0.56292254221E+02  0.11707049495E+03  0.93433836608E+02 0.  0.
          5    1    3    3  502    0  0.27810159361E+02 -0.36121477957E+02 -0.42277141724E+02  0.62313684258E+02  0.41800000000E+01 0.  1.
         -5    1    3    3    0  502  0.13351662328E+02  0.25514616237E+02  0.65708618378E+02  0.71863463998E+02  0.41800000000E+01 0.  1.
        -11    1    4    4    0    0 -0.24016161533E+02 -0.22170045062E+02 -0.15602558604E+02  0.36217768399E+02  0.00000000000E+00 0. -1.
         11    1    4    4    0    0 -0.17145660157E+02  0.32776906782E+02  0.71894812825E+02  0.80852726556E+02  0.00000000000E+00 0.  1.
</event>
<event>
 8    1  0.3541538E-009  0.1751758E+03  0.7561462E-02  0.1172555E+00
         -2   -1    0    0    0  501 -0.00000000000E+00  0.00000000000E+00  0.27976419005E+03  0.27976419005E+03  0.00000000000E+00 0.  1.
          2   -1    0    0  501    0  0.00000000000E+00 -0.00000000000E+00 -0.12104898291E+03  0.12104898291E+03  0.00000000000E+00 0. -1.
         25    2    1    2    0    0 -0.81573647742E+02 -0.12078392720E+03  0.56854174485E+02  0.20030351172E+03  0.12508430187E+03 0.  0.
         23    2    1    2    0    0  0.81573647742E+02  0.12078392720E+03  0.10186103266E+03  0.20050966124E+03  0.92657634328E+02 0.  0.
          5    1    3    3  502    0 -0.10438295369E+03 -0.55112736869E+02  0.15031355001E+02  0.11906564920E+03  0.41800000000E+01 0. -1.
         -5    1    3    3    0  502  0.22809305946E+02 -0.65671190331E+02  0.41822819484E+02  0.81237862520E+02  0.41800000000E+01 0. -1.
        -11    1    4    4    0    0  0.27308547568E+02  0.10133206439E+03  0.96576611812E+02  0.14262182860E+03  0.00000000000E+00 0.  1.
         11    1    4    4    0    0  0.54265100174E+02  0.19451862807E+02  0.52844208459E+01  0.57887832636E+02  0.00000000000E+00 0. -1.
</event>
<event>
 8    1  0.3541538E-009  0.1069580E+03  0.7561462E-02  0.1266309E+00
         -2   -1    0    0    0  501 -0.00000000000E+00  0.00000000000E+00  0.12050519941E+03  0.12050519941E+03  0.00000000000E+00 0.  1.
          2   -1    0    0  501    0  0.00000000000E+00 -0.00000000000E+00 -0.19186309686E+03  0.19186309686E+03  0.00000000000E+00 0. -1.
         25    2    1    2    0    0 -0.10076026696E+03 -0.14420343045E+02 -0.83474007361E+02  0.18159256234E+03  0.12508945239E+03 0.  0.
         23    2    1    2    0    0  0.10076026696E+03  0.14420343045E+02  0.12116109908E+02  0.13077573393E+03  0.81209080612E+02 0.  0.
          5    1    3    3  502    0 -0.10220761557E+03 -0.61878494521E+01 -0.11186078972E+03  0.15170693734E+03  0.41800000000E+01 0.  1.
         -5    1    3    3    0  502  0.14473486124E+01 -0.82324935926E+01  0.28386782356E+02  0.29885624994E+02  0.41800000000E+01 0.  1.
        -11    1    4    4    0    0  0.17262783079E+02 -0.50055065669E+00  0.38293715880E+02  0.42007891003E+02  0.00000000000E+00 0.  1.
         11    1    4    4    0    0  0.83497483880E+02  0.14920893701E+02 -0.26177605972E+02  0.88767842925E+02  0.00000000000E+00 0. -1.
</event>
<event>
 8    1  0.3541538E-009  0.2124182E+03  0.7561462E-02  0.1139665E+00
         -1   -1    0    0    0  501 -0.00000000000E+00  0.00000000000E+00  0.13656388451E+03  0.13656388451E+03  0.00000000000E+00 0.  1.
          1   -1    0    0  501    0  0.00000000000E+00 -0.00000000000E+00 -0.36578608774E+03  0.36578608774E+03  0.00000000000E+00 0. -1.
         25    2    1    2    0    0 -0.26449747394E+02 -0.18416128458E+03 -0.18424221932E+03  0.29018474240E+03  0.12508805486E+03 0.  0.
         23    2    1    2    0    0  0.26449747394E+02  0.18416128458E+03 -0.44979983913E+02  0.21216522985E+03  0.91520041143E+02 0.  0.
          5    1    3    3  502    0 -0.35508699449E+02 -0.19968969871E+03 -0.15376584061E+03  0.25455500318E+03  0.41800000000E+01 0.  1.
         -5    1    3    3    0  502  0.90589520554E+01  0.15528414129E+02 -0.30476378702E+02  0.35629739215E+02  0.41800000000E+01 0.  1.
        -11    1    4    4    0    0 -0.24904110652E+02  0.21374617123E+02 -0.22966449358E+02  0.40056794438E+02  0.00000000000E+00 0.  1.
         11    1    4    4    0    0  0.51353858046E+02  0.16278666745E+03 -0.22013534555E+02  0.17210843541E+03  0.00000000000E+00 0. -1.
</event>
<event>
 8    1  0.3541538E-009  0.1134490E+03  0.7561462E-02  0.1254313E+00
         -1   -1    0    0    0  501 -0.00000000000E+00  0.00000000000E+00  0.20862662186E+02  0.20862662186E+02  0.00000000000E+00 0.  1.
          1   -1    0    0  501    0  0.00000000000E+00 -0.00000000000E+00 -0.74630895527E+03  0.74630895527E+03  0.00000000000E+00 0. -1.
         25    2    1    2    0    0  0.55199243994E+02 -0.13594831375E+02 -0.46406467631E+03  0.48397898775E+03  0.12509140978E+03 0.  0.
         23    2    1    2    0    0 -0.55199243994E+02  0.13594831375E+02 -0.26138161677E+03  0.28319262971E+03  0.92983546710E+02 0.  0.
          5    1    3    3  502    0  0.79729226981E+02  0.19514097737E+02 -0.19304334579E+03  0.20981123754E+03  0.41800000000E+01 0.  1.
         -5    1    3    3    0  502 -0.24529982988E+02 -0.33108929112E+02 -0.27102133053E+03  0.27416775021E+03  0.41800000000E+01 0.  1.
        -11    1    4    4    0    0  0.12134992356E+02  0.31383011298E+02 -0.47147993516E+02  0.57923093238E+02  0.00000000000E+00 0.  1.
         11    1    4    4    0    0 -0.67334236349E+02 -0.17788179923E+02 -0.21423362325E+03  0.22526953647E+03  0.00000000000E+00 0. -1.
</event>
<event>
 8    1  0.3541538E-009  0.8707218E+02  0.7561462E-02  0.1310101E+00
         -1   -1    0    0    0  501 -0.00000000000E+00  0.00000000000E+00  0.24240812554E+03  0.24240812554E+03  0.00000000000E+00 0.  1.
          1   -1    0    0  501    0  0.00000000000E+00 -0.00000000000E+00 -0.54285498777E+02  0.54285498777E+02  0.00000000000E+00 0. -1.
         25    2    1    2    0    0  0.25694790246E+02 -0.16999287538E+02  0.79766480415E+02  0.15152363783E+03  0.12509006116E+03 0.  0.
         23    2    1    2    0    0 -0.25694790246E+02  0.16999287538E+02  0.10835614635E+03  0.14516998649E+03  0.91564581045E+02 0.  0.
          5    1    3    3  502    0 -0.50032492711E+02 -0.15994405942E+02  0.27765926094E+02  0.59560812622E+02  0.41800000000E+01 0.  1.
         -5    1    3    3    0  502  0.75727282957E+02 -0.10048815959E+01  0.52000554321E+02  0.91962825211E+02  0.41800000000E+01 0.  1.
        -11    1    4    4    0    0 -0.33104190593E+02  0.82110098113E+01  0.12237604007E+03  0.12704016412E+03  0.00000000000E+00 0.  1.
         11    1    4    4    0    0  0.74094003462E+01  0.87882777265E+01 -0.14019893723E+02  0.18129822362E+02  0.00000000000E+00 0. -1.
</event>
<event>
 8    1  0.3541538E-009  0.1141873E+03  0.7561462E-02  0.1253006E+00
          1   -1    0    0  501    0  0.00000000000E+00  0.00000000000E+00  0.28074553791E+03  0.28074553791E+03  0.00000000000E+00 0. -1.
         -1   -1    0    0    0  501 -0.00000000000E+00 -0.00000000000E+00 -0.53932618896E+02  0.53932618896E+02  0.00000000000E+00 0.  1.
         25    2    1    2    0    0 -0.44684723979E+02  0.26108747872E+02  0.14970714225E+03  0.20183778004E+03  0.12509144550E+03 0.  0.
         23    2    1    2    0    0  0.44684723979E+02 -0.26108747872E+02  0.77105776760E+02  0.13284037677E+03  0.94988807852E+02 0.  0.
          5    1    3    3  502    0 -0.54629493977E+02  0.68525600443E+02  0.12113329225E+03  0.14956900220E+03  0.41800000000E+01 0. -1.
         -5    1    3    3    0  502  0.99447699987E+01 -0.42416852572E+02  0.28573850000E+02  0.52268777834E+02  0.41800000000E+01 0. -1.
        -11    1    4    4    0    0  0.35241717308E+02  0.26075533338E+02  0.65069462000E+02  0.78459842994E+02  0.00000000000E+00 0. -1.
         11    1    4    4    0    0  0.94430066703E+01 -0.52184281209E+02  0.12036314759E+02  0.54380533772E+02  0.00000000000E+00 0.  1.
</event>
<event>
 8    1  0.3541538E-009  0.6540212E+02  0.7561462E-02  0.1376465E+00
         -2   -1    0    0    0  501 -0.00000000000E+00  0.00000000000E+00  0.95283801743E+02  0.95283801743E+02  0.00000000000E+00 0.  1.
          2   -1    0    0  501    0  0.00000000000E+00 -0.00000000000E+00 -0.17254005887E+03  0.17254005887E+03  0.00000000000E+00 0. -1.
         25    2    1    2    0    0 -0.52143631235E+01  0.16298256660E+02 -0.11265564207E+03  0.16921011569E+03  0.12509175355E+03 0.  0.
         23    2    1    2    0    0  0.52143631235E+01 -0.16298256660E+02  0.35399384938E+02  0.98613744933E+02  0.90436339393E+02 0.  0.
          5    1    3    3  502    0 -0.50117919541E+02  0.47219042211E+01 -0.11175596942E+03  0.12264163787E+03  0.41800000000E+01 0. -1.
         -5    1    3    3    0  502  0.44903556417E+02  0.11576352439E+02 -0.89967264562E+00  0.46568477811E+02  0.41800000000E+01 0. -1.
        -11    1    4    4    0    0 -0.11611820682E+02 -0.22860735953E+01  0.62591990617E+02  0.63701003143E+02  0.00000000000E+00 0.  1.
         11    1    4    4    0    0  0.16826183805E+02 -0.14012183065E+02 -0.27192605679E+02  0.34912741790E+02  0.00000000000E+00 0. -1.
</event>
<event>
 8    1  0.3541538E-009  0.1314035E+03  0.7561462E-02  0.1225388E+00
         -1   -1    0    0    0  501 -0.00000000000E+00  0.00000000000E+00  0.86317070040E+02  0.86317070040E+02  0.00000000000E+00 0.  1.
          1   -1    0    0  501    0  0.00000000000E+00 -0.00000000000E+00 -0.20941738778E+03  0.20941738778E+03  0.00000000000E+00 0. -1.
         25    2    1    2    0    0 -0.33808372277E+02 -0.71509026765E+02 -0.69494836732E+02  0.16350516156E+03  0.12509140091E+03 0.  0.
         23    2    1    2    0    0  0.33808372277E+02  0.71509026765E+02 -0.53605481012E+02  0.13222929626E+03  0.91402911603E+02 0.  0.
          5    1    3    3  502    0  0.43314981021E+02 -0.16608641350E+01 -0.25438303676E+02  0.50433379268E+02  0.41800000000E+01 0. -1.
         -5    1    3    3    0  502 -0.77123353298E+02 -0.69848162630E+02 -0.44056533056E+02  0.11307178230E+03  0.41800000000E+01 0. -1.
        -11    1    4    4    0    0  0.30960359332E+02  0.90639909494E+02 -0.27333710495E+02  0.99605565972E+02  0.00000000000E+00 0.  1.
         11    1    4    4    0    0  0.28480129453E+01 -0.19130882729E+02 -0.26271770517E+02  0.32623730287E+02  0.00000000000E+00 0. -1.
</event>
<event>
 8    1  0.3541538E-009  0.1377254E+03  0.7561462E-02  0.1216423E+00
         -1   -1    0    0    0  501 -0.00000000000E+00  0.00000000000E+00  0.39722186747E+02  0.39722186747E+02  0.00000000000E+00 0.  1.
          1   -1    0    0  501    0  0.00000000000E+00 -0.00000000000E+00 -0.59922564709E+03  0.59922564709E+03  0.00000000000E+00 0. -1.
         25    2    1    2    0    0 -0.13612529818E+02 -0.86636027759E+02 -0.16786438711E+03  0.22697300532E+03  0.12508873014E+03 0.  0.
         23    2    1    2    0    0  0.13612529818E+02  0.86636027759E+02 -0.39163907323E+03  0.41197482852E+03  0.93010716480E+02 0.  0.
          5    1    3    3  502    0 -0.56613623331E+01 -0.11739892280E+03 -0.14886154683E+03  0.18971502477E+03  0.41800000000E+01 0.  1.
         -5    1    3    3    0  502 -0.79511674847E+01  0.30762895041E+02 -0.19002840279E+02  0.37257980546E+02  0.41800000000E+01 0.  1.
        -11    1    4    4    0    0  0.15028605759E+02 -0.16689201683E+02 -0.10231613956E+03  0.10475199692E+03  0.00000000000E+00 0.  1.
         11    1    4    4    0    0 -0.14160759417E+01  0.10332522944E+03 -0.28932293368E+03  0.30722283161E+03  0.00000000000E+00 0. -1.
</event>
<event>
 8    1  0.3541538E-009  0.1052876E+03  0.7561462E-02  0.1269554E+00
         -1   -1    0    0    0  501 -0.00000000000E+00  0.00000000000E+00  0.29773032053E+02  0.29773032053E+02  0.00000000000E+00 0.  1.
          1   -1    0    0  501    0  0.00000000000E+00 -0.00000000000E+00 -0.41120707842E+03  0.41120707842E+03  0.00000000000E+00 0. -1.
         25    2    1    2    0    0  0.13158774820E+02 -0.11459657267E+02 -0.19313328666E+03  0.23076433594E+03  0.12508890929E+03 0.  0.
         23    2    1    2    0    0 -0.13158774820E+02  0.11459657267E+02 -0.18830075971E+03  0.21021577454E+03  0.91809687154E+02 0.  0.
          5    1    3    3  502    0  0.25309738475E+02  0.53742594653E+02 -0.83460193721E+02  0.10252768249E+03  0.41800000000E+01 0. -1.
         -5    1    3    3    0  502 -0.12150963655E+02 -0.65202251920E+02 -0.10967309294E+03  0.12823665345E+03  0.41800000000E+01 0. -1.
        -11    1    4    4    0    0  0.35060616178E+02  0.94256324299E+01 -0.12761378021E+03  0.13267767805E+03  0.00000000000E+00 0. -1.
         11    1    4    4    0    0 -0.48219390998E+02  0.20340248372E+01 -0.60686979507E+02  0.77538096488E+02  0.00000000000E+00 0.  1.
</event>
<event>
 8    1  0.3541538E-009  0.1031100E+03  0.7561462E-02  0.1273889E+00
          2   -1    0    0  501    0  0.00000000000E+00  0.00000000000E+00  0.18793360049E+03  0.18793360049E+03  0.00000000000E+00 0. -1.
         -2   -1    0    0    0  501 -0.00000000000E+00 -0.00000000000E+00 -0.93785813807E+02  0.93785813807E+02  0.00000000000E+00 0.  1.
         25    2    1    2    0    0  0.59446559136E+02 -0.24058625747E+02  0.92926005768E+01  0.14087413681E+03  0.12508580707E+03 0.  0.
         23    2    1    2    0    0 -0.59446559136E+02  0.24058625747E+02  0.84855186111E+02  0.14084527749E+03  0.92327020508E+02 0.  0.
          5    1    3    3  502    0  0.78795060140E+02  0.19132539092E+02  0.33162607087E+02  0.87703742585E+02  0.41800000000E+01 0. -1.
         -5    1    3    3    0  502 -0.19348501004E+02 -0.43191164839E+02 -0.23870006510E+02  0.53170394225E+02  0.41800000000E+01 0. -1.
        -11    1    4    4    0    0 -0.56393793353E+01  0.23018454812E+02  0.83726757461E+02  0.87016215594E+02  0.00000000000E+00 0. -1.
         11    1    4    4    0    0 -0.53807179800E+02  0.10401709345E+01  0.11284286498E+01  0.53829061898E+02  0.00000000000E+00 0.  1.
</event>
<event>
 8    1  0.3541538E-009  0.1318369E+03  0.7561462E-02  0.1224755E+00
         -1   -1    0    0    0  501 -0.00000000000E+00  0.00000000000E+00  0.11463953930E+03  0.11463953930E+03  0.00000000000E+00 0.  1.
          1   -1    0    0  501    0  0.00000000000E+00 -0.00000000000E+00 -0.17549987541E+03  0.17549987541E+03  0.00000000000E+00 0. -1.
         25    2    1    2    0    0  0.87689685783E+02  0.18007542538E+02 -0.57112238540E+02  0.16408303074E+03  0.12509068952E+03 0.  0.
         23    2    1    2    0    0 -0.87689685783E+02 -0.18007542538E+02 -0.37480975725E+01  0.12605638397E+03  0.88670238097E+02 0.  0.
          5    1    3    3  502    0  0.11999622027E+03  0.16648588838E+02 -0.44786148767E+02  0.12922669968E+03  0.41800000000E+01 0.  1.
         -5    1    3    3    0  502 -0.32306534488E+02  0.13589536999E+01 -0.12326089773E+02  0.34856331059E+02  0.41800000000E+01 0.  1.
        -11    1    4    4    0    0 -0.81759778206E+02 -0.37155684793E+02 -0.28486433586E+02  0.94216151180E+02  0.00000000000E+00 0. -1.
         11    1    4    4    0    0 -0.59299075772E+01  0.19148142255E+02  0.24738336013E+02  0.31840232794E+02  0.00000000000E+00 0.  1.
</event>
<event>
 8    1  0.3541538E-009  0.1403436E+03  0.7561462E-02  0.1212867E+00
          1   -1    0    0  501    0  0.00000000000E+00  0.00000000000E+00  0.93024936091E+02  0.93024936091E+02  0.00000000000E+00 0. -1.
         -1   -1    0    0    0  501 -0.00000000000E+00 -0.00000000000E+00 -0.31825457714E+03  0.31825457714E+03  0.00000000000E+00 0.  1.
         25    2    1    2    0    0  0.12633621261E+03  0.37819224154E+02 -0.97731256463E+02  0.20637765754E+03  0.12509678937E+03 0.  0.
         23    2    1    2    0    0 -0.12633621261E+03 -0.37819224154E+02 -0.12749838459E+03  0.20490185570E+03  0.91311554926E+02 0.  0.
          5    1    3    3  502    0  0.35025255592E+02  0.34044489836E+02  0.23610940034E+02  0.54412725596E+02  0.41800000000E+01 0. -1.
         -5    1    3    3    0  502  0.91310957013E+02  0.37747343187E+01 -0.12134219650E+03  0.15196493194E+03  0.41800000000E+01 0. -1.
        -11    1    4    4    0    0 -0.11237723902E+03 -0.14923048572E+02 -0.51882946661E+02  0.12467229597E+03  0.00000000000E+00 0. -1.
         11    1    4    4    0    0 -0.13958973582E+02 -0.22896175583E+02 -0.75615437929E+02  0.80229559721E+02  0.00000000000E+00 0.  1.
</event>
<event>
 8    1  0.3541538E-009  0.1700266E+03  0.7561462E-02  0.1177820E+00
          2   -1    0    0  501    0  0.00000000000E+00  0.00000000000E+00  0.33361784071E+03  0.33361784071E+03  0.00000000000E+00 0. -1.
         -2   -1    0    0    0  501 -0.00000000000E+00 -0.00000000000E+00 -0.11618762270E+03  0.11618762270E+03  0.00000000000E+00 0.  1.
         25    2    1    2    0    0  0.15325831225E+03  0.31739219816E+02  0.16995562033E+03  0.26273134063E+03  0.12508939252E+03 0.  0.
         23    2    1    2    0    0 -0.15325831225E+03 -0.31739219816E+02  0.47474597677E+02  0.18707412279E+03  0.90815206024E+02 0.  0.
          5    1    3    3  502    0  0.96729609666E+02  0.32630889003E+01  0.17401986955E+03  0.19916739827E+03  0.41800000000E+01 0. -1.
         -5    1    3    3    0  502  0.56528702580E+02  0.28476130915E+02 -0.40642492143E+01  0.63563942364E+02  0.41800000000E+01 0. -1.
        -11    1    4    4    0    0 -0.86360066227E+01 -0.34025203678E+02  0.18043730410E+02  0.39469878424E+02  0.00000000000E+00 0.  1.
         11    1    4    4    0    0 -0.14462230562E+03  0.22859838624E+01  0.29430867267E+02  0.14760424436E+03  0.00000000000E+00 0. -1.
</event>
<event>
 8    1  0.3541538E-009  0.1697067E+03  0.7561462E-02  0.1178154E+00
         -1   -1    0    0    0  501 -0.00000000000E+00  0.00000000000E+00  0.44530940406E+02  0.44530940406E+02  0.00000000000E+00 0.  1.
          1   -1    0    0  501    0  0.00000000000E+00 -0.00000000000E+00 -0.74409308488E+03  0.74409308488E+03  0.00000000000E+00 0. -1.
         25    2    1    2    0    0 -0.12861080947E+03  0.67900326819E+02 -0.34597820807E+03  0.39559884036E+03  0.12508528025E+03 0.  0.
         23    2    1    2    0    0  0.12861080947E+03 -0.67900326819E+02 -0.35358393640E+03  0.39302518493E+03  0.91082386961E+02 0.  0.
          5    1    3    3  502    0 -0.13644642225E+03  0.19334962365E+02 -0.21276159204E+03  0.25352797550E+03  0.41800000000E+01 0. -1.
         -5    1    3    3    0  502  0.78356127850E+01  0.48565364454E+02 -0.13321661604E+03  0.14207086486E+03  0.41800000000E+01 0. -1.
        -11    1    4    4    0    0  0.93869506503E+02 -0.70404689385E+02 -0.17252339693E+03  0.20864473880E+03  0.00000000000E+00 0.  1.
         11    1    4    4    0    0  0.34741302965E+02  0.25043625658E+01 -0.18106053947E+03  0.18438044614E+03  0.00000000000E+00 0. -1.
</event>
<event>
 8    1  0.3541538E-009  0.3416886E+03  0.7561462E-02  0.1066079E+00
          1   -1    0    0  501    0  0.00000000000E+00  0.00000000000E+00  0.10709083908E+03  0.10709083908E+03  0.00000000000E+00 0. -1.
         -1   -1    0    0    0  501 -0.00000000000E+00 -0.00000000000E+00 -0.11503583244E+04  0.11503583244E+04  0.00000000000E+00 0.  1.
         25    2    1    2    0    0 -0.81844700635E+02  0.32063758508E+03 -0.59285385041E+03  0.69038522406E+03  0.12509617768E+03 0.  0.
         23    2    1    2    0    0  0.81844700635E+02 -0.32063758508E+03 -0.45041363491E+03  0.56706393942E+03  0.95823029046E+02 0.  0.
          5    1    3    3  502    0  0.31981259009E+02  0.75658889214E+02 -0.11392464732E+03  0.14051108893E+03  0.41800000000E+01 0.  1.
         -5    1    3    3    0  502 -0.11382595964E+03  0.24497869586E+03 -0.47892920309E+03  0.54987413513E+03  0.41800000000E+01 0.  1.
        -11    1    4    4    0    0  0.27217038726E+02 -0.96135746901E+02 -0.21565091279E+03  0.23767239053E+03  0.00000000000E+00 0.  1.
         11    1    4    4    0    0  0.54627661909E+02 -0.22450183817E+03 -0.23476272211E+03  0.32939154890E+03  0.00000000000E+00 0. -1.
</event>
<event>
 8    1  0.3541538E-009  0.1022744E+03  0.7561462E-02  0.1275585E+00
          2   -1    0    0  501    0  0.00000000000E+00  0.00000000000E+00  0.24673511193E+04  0.24673511193E+04  0.00000000000E+00 0.  1.
         -2   -1    0    0    0  501 -0.00000000000E+00 -0.00000000000E+00 -0.92006004558E+01  0.92006004558E+01  0.00000000000E+00 0. -1.
         25    2    1    2    0    0 -0.39645245571E+02 -0.42168744667E+02  0.20390833172E+04  0.20437362728E+04  0.12508888786E+03 0.  0.
         23    2    1    2    0    0  0.39645245571E+02  0.42168744667E+02  0.41906720162E+03  0.43281544690E+03  0.91443660696E+02 0.  0.
          5    1    3    3  502    0 -0.22280478961E+02 -0.65020608544E+02  0.19177024570E+04  0.19189383225E+04  0.41800000000E+01 0. -1.
         -5    1    3    3    0  502 -0.17364766611E+02  0.22851863877E+02  0.12138086014E+03  0.12479795035E+03  0.41800000000E+01 0. -1.
        -11    1    4    4    0    0  0.58207116398E+02  0.58087612711E+02  0.35053228769E+03  0.36004877984E+03  0.00000000000E+00 0.  1.
         11    1    4    4    0    0 -0.18561870827E+02 -0.15918868044E+02  0.68534913928E+02  0.72766667064E+02  0.00000000000E+00 0. -1.
</event>
<event>
 8    1  0.3541538E-009  0.7050268E+02  0.7561462E-02  0.1358392E+00
         -1   -1    0    0    0  501 -0.00000000000E+00  0.00000000000E+00  0.21016843262E+03  0.21016843262E+03  0.00000000000E+00 0.  1.
          1   -1    0    0  501    0  0.00000000000E+00 -0.00000000000E+00 -0.13041214514E+03  0.13041214514E+03  0.00000000000E+00 0. -1.
         25    2    1    2    0    0 -0.35699102924E+02 -0.10814275898E+01  0.16504511048E+03  0.21014639799E+03  0.12508407037E+03 0.  0.
         23    2    1    2    0    0  0.35699102924E+02  0.10814275898E+01 -0.85288823008E+02  0.13043417976E+03  0.91996176471E+02 0.  0.
          5    1    3    3  502    0 -0.39127341421E+02 -0.23925562236E+01 -0.52409518253E+01  0.39769500223E+02  0.41800000000E+01 0.  1.
         -5    1    3    3    0  502  0.34282384971E+01  0.13111286338E+01  0.17028606231E+03  0.17037689777E+03  0.41800000000E+01 0.  1.
        -11    1    4    4    0    0 -0.11172587116E+01  0.41403484072E+02 -0.22180424086E+02  0.46983699013E+02  0.00000000000E+00 0. -1.
         11    1    4    4    0    0  0.36816361636E+02 -0.40322056482E+02 -0.63108398922E+02  0.83450480751E+02  0.00000000000E+00 0.  1.
</event>
<event>
 8    1  0.3541538E-009  0.1831585E+03  0.7561462E-02  0.1164781E+00
         -1   -1    0    0    0  501 -0.00000000000E+00  0.00000000000E+00  0.15448278277E+03  0.15448278277E+03  0.00000000000E+00 0.  1.
          1   -1    0    0  501    0  0.00000000000E+00 -0.00000000000E+00 -0.28371033327E+03  0.28371033327E+03  0.00000000000E+00 0. -1.
         25    2    1    2    0    0 -0.54889169261E+02  0.16802898283E+03 -0.94723063481E+02  0.23636248559E+03  0.12509278902E+03 0.  0.
         23    2    1    2    0    0  0.54889169261E+02 -0.16802898283E+03 -0.34504487016E+02  0.20183063046E+03  0.91096014148E+02 0.  0.
          5    1    3    3  502    0 -0.38510249145E+02  0.83823987492E+02  0.18574889770E+02  0.94191289928E+02  0.41800000000E+01 0.  1.
         -5    1    3    3    0  502 -0.16378920115E+02  0.84204995340E+02 -0.11329795325E+03  0.14217119566E+03  0.41800000000E+01 0.  1.
        -11    1    4    4    0    0  0.69554118087E+02 -0.13230907145E+03  0.84585885220E+00  0.14947970166E+03  0.00000000000E+00 0.  1.
         11    1    4    4    0    0 -0.14664948826E+02 -0.35719911380E+02 -0.35350345868E+02  0.52350928798E+02  0.00000000000E+00 0. -1.
</event>
<event>
 8    1  0.3541538E-009  0.8299018E+02  0.7561462E-02  0.1320774E+00
          1   -1    0    0  501    0  0.00000000000E+00  0.00000000000E+00  0.32373846604E+03  0.32373846604E+03  0.00000000000E+00 0. -1.
         -1   -1    0    0    0  501 -0.00000000000E+00 -0.00000000000E+00 -0.42349452332E+02  0.42349452332E+02  0.00000000000E+00 0.  1.
         25    2    1    2    0    0 -0.36129913893E+02  0.10022871997E+02  0.11752843403E+03  0.17568490473E+03  0.12508566785E+03 0.  0.
         23    2    1    2    0    0  0.36129913893E+02 -0.10022871997E+02  0.16386057967E+03  0.19040301364E+03  0.89427005944E+02 0.  0.
          5    1    3    3  502    0  0.14211953618E+02  0.12411771265E+02 -0.20805608148E+02  0.28396785417E+02  0.41800000000E+01 0. -1.
         -5    1    3    3    0  502 -0.50341867511E+02 -0.23888992686E+01  0.13833404218E+03  0.14728811931E+03  0.41800000000E+01 0. -1.
        -11    1    4    4    0    0  0.36131373998E+02 -0.46900920150E+02  0.88122338875E+02  0.10616364305E+03  0.00000000000E+00 0.  1.
         11    1    4    4    0    0 -0.14601050292E-02  0.36878048153E+02  0.75738240797E+02  0.84239370586E+02  0.00000000000E+00 0. -1.
</event>
<event>
 8    1  0.3541538E-009  0.1487749E+03  0.7561462E-02  0.1201987E+00
         -4   -1    0    0    0  501 -0.00000000000E+00  0.00000000000E+00  0.39319339856E+02  0.39319339856E+02  0.00000000000E+00 0.  1.
          4   -1    0    0  501    0  0.00000000000E+00 -0.00000000000E+00 -0.69637399599E+03  0.69637399599E+03  0.00000000000E+00 0. -1.
         25    2    1    2    0    0 -0.10208211319E+02 -0.11677401676E+03 -0.25779625850E+03  0.30959194819E+03  0.12509150616E+03 0.  0.
         23    2    1    2    0    0  0.10208211319E+02  0.11677401676E+03 -0.39925839763E+03  0.42610138766E+03  0.91731924193E+02 0.  0.
          5    1    3    3  502    0 -0.57399866046E+02 -0.50291063744E+02 -0.65395318158E+02  0.10058804975E+03  0.41800000000E+01 0.  1.
         -5    1    3    3    0  502  0.47191654727E+02 -0.66482953021E+02 -0.19240094034E+03  0.20900389844E+03  0.41800000000E+01 0.  1.
        -11    1    4    4    0    0  0.25980983645E+02  0.48196818047E+01 -0.30272906496E+02  0.40183201858E+02  0.00000000000E+00 0.  1.
         11    1    4    4    0    0 -0.15772772326E+02  0.11195433496E+03 -0.36898549113E+03  0.38591818580E+03  0.00000000000E+00 0. -1.
</event>
<event>
 8    1  0.3541538E-009  0.1187011E+03  0.7561462E-02  0.1245255E+00
          1   -1    0    0  501    0  0.00000000000E+00  0.00000000000E+00  0.10351804930E+04  0.10351804930E+04  0.00000000000E+00 0. -1.
         -1   -1    0    0    0  501 -0.00000000000E+00 -0.00000000000E+00 -0.16755916455E+02  0.16755916455E+02  0.00000000000E+00 0.  1.
         25    2    1    2    0    0  0.34795626943E+02  0.65260785109E+02  0.52266550871E+03  0.54249040073E+03  0.12508754998E+03 0.  0.
         23    2    1    2    0    0 -0.34795626943E+02 -0.65260785109E+02  0.49575906788E+03  0.50944600877E+03  0.91041071730E+02 0.  0.
          5    1    3    3  502    0  0.55164732362E+02  0.40605515031E+01  0.95333160610E+02  0.11029741469E+03  0.41800000000E+01 0.  1.
         -5    1    3    3    0  502 -0.20369105420E+02  0.61200233606E+02  0.42733234810E+03  0.43219298604E+03  0.41800000000E+01 0.  1.
        -11    1    4    4    0    0 -0.42122383429E+02  0.86666667383E+01  0.18079225465E+03  0.18583661006E+03  0.00000000000E+00 0.  1.
         11    1    4    4    0    0  0.73267564865E+01 -0.73927451847E+02  0.31496681323E+03  0.32360939871E+03  0.00000000000E+00 0. -1.
</event>
<event>
 8    1  0.3541538E-009  0.3172653E+03  0.7561462E-02  0.1076915E+00
         -2   -1    0    0    0  501 -0.00000000000E+00  0.00000000000E+00  0.74208229738E+02  0.74208229738E+02  0.00000000000E+00 0.  1.
          2   -1    0    0  501    0  0.00000000000E+00 -0.00000000000E+00 -0.15246008553E+04  0.15246008553E+04  0.00000000000E+00 0. -1.
         25    2    1    2    0    0  0.18949318401E+03 -0.25397556847E+03 -0.78402644265E+03  0.85484235143E+03  0.12508687725E+03 0.  0.
         23    2    1    2    0    0 -0.18949318401E+03  0.25397556847E+03 -0.66636618288E+03  0.74396673358E+03  0.95033440526E+02 0.  0.
          5    1    3    3  502    0  0.56350682867E+02 -0.64438700978E+02 -0.95160927606E+02  0.12806568700E+03  0.41800000000E+01 0. -1.
         -5    1    3    3    0  502  0.13314250114E+03 -0.18953686749E+03 -0.68886551504E+03  0.72677666443E+03  0.41800000000E+01 0. -1.
        -11    1    4    4    0    0 -0.76808072046E+02  0.92063751114E+02 -0.15562653958E+03  0.19645567953E+03  0.00000000000E+00 0.  1.
         11    1    4    4    0    0 -0.11268511196E+03  0.16191181735E+03 -0.51073964330E+03  0.54751105404E+03  0.00000000000E+00 0. -1.
</event>
<event>
 8    1  0.3541538E-009  0.9593060E+02  0.7561462E-02  0.1289094E+00
          1   -1    0    0  501    0  0.00000000000E+00  0.00000000000E+00  0.12117374725E+02  0.12117374725E+02  0.00000000000E+00 0. -1.
         -1   -1    0    0    0  501 -0.00000000000E+00 -0.00000000000E+00 -0.97733215588E+03  0.97733215588E+03  0.00000000000E+00 0.  1.
         25    2    1    2    0    0  0.61647295001E+01 -0.44896869360E+01 -0.68565190632E+03  0.69700980388E+03  0.12508384742E+03 0.  0.
         23    2    1    2    0    0 -0.61647295001E+01  0.44896869360E+01 -0.27956287483E+03  0.29243972672E+03  0.85483516556E+02 0.  0.
          5    1    3    3  502    0 -0.21432404795E+02  0.51042256701E+02 -0.44549273820E+03  0.44893865074E+03  0.41800000000E+01 0.  1.
         -5    1    3    3    0  502  0.27597134296E+02 -0.55531943637E+02 -0.24015916813E+03  0.24807115314E+03  0.41800000000E+01 0.  1.
        -11    1    4    4    0    0  0.43034623382E+01 -0.34016939911E+02 -0.20521652745E+03  0.20806127734E+03  0.00000000000E+00 0.  1.
         11    1    4    4    0    0 -0.10468191838E+02  0.38506626847E+02 -0.74346347383E+02  0.84378449386E+02  0.00000000000E+00 0. -1.
</event>
<event>
 8    1  0.3541538E-009  0.1365147E+03  0.7561462E-02  0.1218097E+00
          2   -1    0    0  501    0  0.00000000000E+00  0.00000000000E+00  0.45676781723E+03  0.45676781723E+03  0.00000000000E+00 0. -1.
         -2   -1    0    0    0  501 -0.00000000000E+00 -0.00000000000E+00 -0.46661531043E+02  0.46661531043E+02  0.00000000000E+00 0.  1.
         25    2    1    2    0    0  0.76606546857E+02 -0.37791259912E+02  0.14171711901E+03  0.20742692680E+03  0.12508175644E+03 0.  0.
         23    2    1    2    0    0 -0.76606546857E+02  0.37791259912E+02  0.26838916719E+03  0.29600242148E+03  0.91038157452E+02 0.  0.
          5    1    3    3  502    0 -0.59705605600E+01  0.38234572249E+02  0.31671026929E+02  0.50180239688E+02  0.41800000000E+01 0. -1.
         -5    1    3    3    0  502  0.82577107417E+02 -0.76025832161E+02  0.11004609208E+03  0.15724668711E+03  0.41800000000E+01 0. -1.
        -11    1    4    4    0    0 -0.43865076512E+02 -0.25346458289E+02  0.80637713046E+02  0.95231447802E+02  0.00000000000E+00 0. -1.
         11    1    4    4    0    0 -0.32741470345E+02  0.63137718201E+02  0.18775145414E+03  0.20077097368E+03  0.00000000000E+00 0.  1.
</event>
<event>
 8    1  0.3541538E-009  0.1068898E+03  0.7561462E-02  0.1266440E+00
          2   -1    0    0  501    0  0.00000000000E+00  0.00000000000E+00  0.71485333558E+03  0.71485333558E+03  0.00000000000E+00 0. -1.
         -2   -1    0    0    0  501 -0.00000000000E+00 -0.00000000000E+00 -0.26444862535E+02  0.26444862535E+02  0.00000000000E+00 0.  1.
         25    2    1    2    0    0 -0.53747750672E+02  0.36699045851E+02  0.23360991977E+03  0.27286893701E+03  0.12509285152E+03 0.  0.
         23    2    1    2    0    0  0.53747750672E+02 -0.36699045851E+02  0.45479855328E+03  0.46842926111E+03  0.91370717024E+02 0.  0.
          5    1    3    3  502    0 -0.84825455149E+02  0.21892765454E+02  0.21772577628E+03  0.23472672851E+03  0.41800000000E+01 0.  1.
         -5    1    3    3    0  502  0.31077704477E+02  0.14806280397E+02  0.15884143487E+02  0.38142208498E+02  0.41800000000E+01 0.  1.
        -11    1    4    4    0    0  0.50636422658E+02 -0.53878412432E+02  0.43801426869E+03  0.44421101990E+03  0.00000000000E+00 0. -1.
         11    1    4    4    0    0  0.31113280137E+01  0.17179366581E+02  0.16784284599E+02  0.24218241217E+02  0.00000000000E+00 0.  1.
</event>
<event>
 8    1  0.3541538E-009  0.1836452E+03  0.7561462E-02  0.1164321E+00
          2   -1    0    0  501    0  0.00000000000E+00  0.00000000000E+00  0.75541354451E+03  0.75541354451E+03  0.00000000000E+00 0. -1.
         -2   -1    0    0    0  501 -0.00000000000E+00 -0.00000000000E+00 -0.60550837773E+02  0.60550837773E+02  0.00000000000E+00 0.  1.
         25    2    1    2    0    0  0.68753987696E+02 -0.16861087699E+03  0.41339385782E+03  0.46872151155E+03  0.12509450447E+03 0.  0.
         23    2    1    2    0    0 -0.68753987696E+02  0.16861087699E+03  0.28146884892E+03  0.34724287073E+03  0.90532644389E+02 0.  0.
          5    1    3    3  502    0  0.51853099570E+02 -0.99096167645E+02  0.36618583236E+03  0.38290773118E+03  0.41800000000E+01 0.  1.
         -5    1    3    3    0  502  0.16900888126E+02 -0.69514709340E+02  0.47208025459E+02  0.85813780372E+02  0.41800000000E+01 0.  1.
        -11    1    4    4    0    0 -0.65125707842E+02  0.13485247439E+03  0.27433606075E+03  0.31254891121E+03  0.00000000000E+00 0. -1.
         11    1    4    4    0    0 -0.36282798542E+01  0.33758402591E+02  0.71327881723E+01  0.34693959521E+02  0.00000000000E+00 0.  1.
</event>
<event>
 8    1  0.3541538E-009  0.1122533E+03  0.7561462E-02  0.1256453E+00
          2   -1    0    0  501    0  0.00000000000E+00  0.00000000000E+00  0.23464101674E+02  0.23464101674E+02  0.00000000000E+00 0. -1.
         -2   -1    0    0    0  501 -0.00000000000E+00 -0.00000000000E+00 -0.57041935146E+03  0.57041935146E+03  0.00000000000E+00 0.  1.
         25    2    1    2    0    0 -0.26251449005E+02  0.27512711441E+02 -0.27369673368E+03  0.30332041883E+03  0.12508911460E+03 0.  0.
         23    2    1    2    0    0  0.26251449005E+02 -0.27512711441E+02 -0.27325851611E+03  0.29056303430E+03  0.91162340952E+02 0.  0.
          5    1    3    3  502    0  0.39883645360E+02  0.42043165597E+02 -0.16762580241E+03  0.17740973754E+03  0.41800000000E+01 0. -1.
         -5    1    3    3    0  502 -0.66135094365E+02 -0.14530454155E+02 -0.10607093127E+03  0.12591068130E+03  0.41800000000E+01 0. -1.
        -11    1    4    4    0    0 -0.34148435938E+02 -0.77972781009E+01 -0.10639525327E+03  0.11201278115E+03  0.00000000000E+00 0.  1.
         11    1    4    4    0    0  0.60399884944E+02 -0.19715433340E+02 -0.16686326284E+03  0.17855025315E+03  0.00000000000E+00 0. -1.
</event>
<event>
 8    1  0.3541538E-009  0.1284950E+03  0.7561462E-02  0.1229706E+00
         -1   -1    0    0    0  501 -0.00000000000E+00  0.00000000000E+00  0.12559911806E+02  0.12559911806E+02  0.00000000000E+00 0.  1.
          1   -1    0    0  501    0  0.00000000000E+00 -0.00000000000E+00 -0.16569406026E+04  0.16569406026E+04  0.00000000000E+00 0. -1.
         25    2    1    2    0    0  0.40838818359E+02  0.83303185468E+02 -0.99397046432E+03  0.10060976698E+04  0.12509199611E+03 0.  0.
         23    2    1    2    0    0 -0.40838818359E+02 -0.83303185468E+02 -0.65041022647E+03  0.66340284458E+03  0.91992617660E+02 0.  0.
          5    1    3    3  502    0 -0.25367440084E+02  0.10296452873E+02 -0.51459662794E+02  0.58438799210E+02  0.41800000000E+01 0.  1.
         -5    1    3    3    0  502  0.66206258443E+02  0.73006732594E+02 -0.94251080153E+03  0.94765887062E+03  0.41800000000E+01 0.  1.
        -11    1    4    4    0    0  0.10041532156E+02 -0.78948575245E+02 -0.39508971012E+03  0.40302554378E+03  0.00000000000E+00 0. -1.
         11    1    4    4    0    0 -0.50880350515E+02 -0.43546102231E+01 -0.25532051636E+03  0.26037730080E+03  0.00000000000E+00 0.  1.
</event>
<event>
 8    1  0.3541538E-009  0.1781793E+03  0.7561462E-02  0.1169577E+00
         -1   -1    0    0    0  501 -0.00000000000E+00  0.00000000000E+00  0.41008921818E+03  0.41008921818E+03  0.00000000000E+00 0.  1.
          1   -1    0    0  501    0  0.00000000000E+00 -0.00000000000E+00 -0.99239902745E+02  0.99239902745E+02  0.00000000000E+00 0. -1.
         25    2    1    2    0    0  0.11086668507E+03 -0.11894706614E+03  0.22451174419E+03  0.30412554171E+03  0.12508795082E+03 0.  0.
         23    2    1    2    0    0 -0.11086668507E+03  0.11894706614E+03  0.86337571244E+02  0.20520357921E+03  0.90633913697E+02 0.  0.
          5    1    3    3  502    0  0.29826485876E+02 -0.37251233035E+01 -0.87612147782E+01  0.31586818259E+02  0.41800000000E+01 0.  1.
         -5    1    3    3    0  502  0.81040199194E+02 -0.11522194283E+03  0.23327295896E+03  0.27253872345E+03  0.41800000000E+01 0.  1.
        -11    1    4    4    0    0 -0.86519405316E+02  0.28008091375E+02  0.31421571159E+02  0.96215257693E+02  0.00000000000E+00 0. -1.
         11    1    4    4    0    0 -0.24347279753E+02  0.90938974762E+02  0.54916000085E+02  0.10898832152E+03  0.00000000000E+00 0.  1.
</event>
<event>
 8    1  0.3541538E-009  0.1112254E+03  0.7561462E-02  0.1258317E+00
         -1   -1    0    0    0  501 -0.00000000000E+00  0.00000000000E+00  0.32699605240E+03  0.32699605240E+03  0.00000000000E+00 0.  1.
          1   -1    0    0  501    0  0.00000000000E+00 -0.00000000000E+00 -0.51963190959E+02  0.51963190959E+02  0.00000000000E+00 0. -1.
         25    2    1    2    0    0 -0.14507569271E+02  0.71059444176E+02  0.15479722137E+03  0.21182381497E+03  0.12508890708E+03 0.  0.
         23    2    1    2    0    0  0.14507569271E+02 -0.71059444176E+02  0.12023564008E+03  0.16713542839E+03  0.90651685613E+02 0.  0.
          5    1    3    3  502    0 -0.51139128307E+01 -0.26383657226E+02 -0.16251954016E+01  0.27246341647E+02  0.41800000000E+01 0. -1.
         -5    1    3    3    0  502 -0.93936564402E+01  0.97443101402E+02  0.15642241677E+03  0.18457747333E+03  0.41800000000E+01 0. -1.
        -11    1    4    4    0    0  0.29818081941E+02 -0.75625876190E+02  0.50741717534E+02  0.95828560766E+02  0.00000000000E+00 0. -1.
         11    1    4    4    0    0 -0.15310512670E+02  0.45664320134E+01  0.69493922541E+02  0.71306867620E+02  0.00000000000E+00 0.  1.
</event>
<event>
 8    1  0.3541538E-009  0.1631477E+03  0.7561462E-02  0.1185188E+00
          2   -1    0    0  501    0  0.00000000000E+00  0.00000000000E+00  0.79264452431E+03  0.79264452431E+03  0.00000000000E+00 0. -1.
         -2   -1    0    0    0  501 -0.00000000000E+00 -0.00000000000E+00 -0.39651166095E+02  0.39651166095E+02  0.00000000000E+00 0.  1.
         25    2    1    2    0    0 -0.81140402698E+02 -0.10354198166E+03  0.28648696475E+03  0.33915663232E+03  0.12509090039E+03 0.  0.
         23    2    1    2    0    0  0.81140402698E+02  0.10354198166E+03  0.46650639347E+03  0.49313905808E+03  0.90847171371E+02 0.  0.
          5    1    3    3  502    0 -0.88462841675E+02 -0.22450235395E+02  0.99026673627E+02  0.13473470940E+03  0.41800000000E+01 0.  1.
         -5    1    3    3    0  502  0.73224389776E+01 -0.81091746265E+02  0.18746029112E+03  0.20442192293E+03  0.41800000000E+01 0.  1.
        -11    1    4    4    0    0 -0.95732897194E+01  0.43684368176E+02  0.80093459222E+02  0.91732949964E+02  0.00000000000E+00 0.  1.
         11    1    4    4    0    0  0.90713692417E+02  0.59857613484E+02  0.38641293425E+03  0.40140610812E+03  0.00000000000E+00 0. -1.
</event>
<event>
 8    1  0.3541538E-009  0.1396576E+03  0.7561462E-02  0.1213790E+00
          1   -1    0    0  501    0  0.00000000000E+00  0.00000000000E+00  0.49466188375E+03  0.49466188375E+03  0.00000000000E+00 0. -1.
         -1   -1    0    0    0  501 -0.00000000000E+00 -0.00000000000E+00 -0.43617114694E+02  0.43617114694E+02  0.00000000000E+00 0.  1.
         25    2    1    2    0    0 -0.97658942998E+02  0.26636615781E+01  0.25028446232E+03  0.29636476327E+03  0.12508155975E+03 0.  0.
         23    2    1    2    0    0  0.97658942998E+02 -0.26636615781E+01  0.20076030674E+03  0.24191423517E+03  0.93131263160E+02 0.  0.
          5    1    3    3  502    0 -0.10597420516E+03  0.36899672543E+02  0.22884634564E+03  0.25491222078E+03  0.41800000000E+01 0.  1.
         -5    1    3    3    0  502  0.83152621651E+01 -0.34236010965E+02  0.21438116678E+02  0.41452542484E+02  0.41800000000E+01 0.  1.
        -11    1    4    4    0    0 -0.25039251012E+01 -0.28092658342E+02  0.23415257455E+02  0.36657078107E+02  0.00000000000E+00 0.  1.
         11    1    4    4    0    0  0.10016286810E+03  0.25428996764E+02  0.17734504928E+03  0.20525715707E+03  0.00000000000E+00 0. -1.
</event>
<event>
 8    1  0.3541538E-009  0.2755158E+03  0.7561462E-02  0.1098164E+00
         -2   -1    0    0    0  501 -0.00000000000E+00  0.00000000000E+00  0.96953091668E+02  0.96953091668E+02  0.00000000000E+00 0.  1.
          2   -1    0    0  501    0  0.00000000000E+00 -0.00000000000E+00 -0.93073834291E+03  0.93073834291E+03  0.00000000000E+00 0. -1.
         25    2    1    2    0    0 -0.11291919372E+03 -0.24721895295E+03 -0.31668182124E+03  0.43566337892E+03  0.12508896363E+03 0.  0.
         23    2    1    2    0    0  0.11291919372E+03  0.24721895295E+03 -0.51710343001E+03  0.59202805566E+03  0.96090094975E+02 0.  0.
          5    1    3    3  502    0 -0.17337041409E+02 -0.26780511632E+02  0.66060550877E+01  0.32846326612E+02  0.41800000000E+01 0.  1.
         -5    1    3    3    0  502 -0.95582152309E+02 -0.22043844132E+03 -0.32328787632E+03  0.40281705231E+03  0.41800000000E+01 0.  1.
        -11    1    4    4    0    0  0.60660997971E+02  0.64661332886E+02 -0.99450556441E+02  0.13323384638E+03  0.00000000000E+00 0.  1.
         11    1    4    4    0    0  0.52258195748E+02  0.18255762007E+03 -0.41765287356E+03  0.45879420928E+03  0.00000000000E+00 0. -1.
</event>
<event>
 8    1  0.3541538E-009  0.1786391E+03  0.7561462E-02  0.1169127E+00
          2   -1    0    0  501    0  0.00000000000E+00  0.00000000000E+00  0.70541281923E+02  0.70541281923E+02  0.00000000000E+00 0. -1.
         -2   -1    0    0    0  501 -0.00000000000E+00 -0.00000000000E+00 -0.47790081553E+03  0.47790081553E+03  0.00000000000E+00 0.  1.
         25    2    1    2    0    0  0.10349562302E+03  0.10320489222E+03 -0.24828459456E+03  0.31409495055E+03  0.12509118396E+03 0.  0.
         23    2    1    2    0    0 -0.10349562302E+03 -0.10320489222E+03 -0.15907493905E+03  0.23434714690E+03  0.90835869936E+02 0.  0.
          5    1    3    3  502    0 -0.21492393010E+02  0.43152786364E+02 -0.99649455922E+02  0.11077712938E+03  0.41800000000E+01 0. -1.
         -5    1    3    3    0  502  0.12498801603E+03  0.60052105853E+02 -0.14863513863E+03  0.20331782117E+03  0.41800000000E+01 0. -1.
        -11    1    4    4    0    0 -0.47711713167E+02 -0.10394355112E+03 -0.89869265671E+02  0.14545499065E+03  0.00000000000E+00 0. -1.
         11    1    4    4    0    0 -0.55783909849E+02  0.73865890686E+00 -0.69205673380E+02  0.88892156251E+02  0.00000000000E+00 0.  1.
</event>
<event>
 8    1  0.3541538E-009  0.1023327E+03  0.7561462E-02  0.1275466E+00
          1   -1    0    0  501    0  0.00000000000E+00  0.00000000000E+00  0.22013514332E+02  0.22013514332E+02  0.00000000000E+00 0. -1.
         -1   -1    0    0    0  501 -0.00000000000E+00 -0.00000000000E+00 -0.10349500126E+04  0.10349500126E+04  0.00000000000E+00 0.  1.
         25    2    1    2    0    0  0.26473131994E+01  0.21401074227E+02 -0.90351332317E+03  0.91238608458E+03  0.12508808076E+03 0.  0.
         23    2    1    2    0    0 -0.26473131994E+01 -0.21401074227E+02 -0.10942317511E+03  0.14457744236E+03  0.92001039906E+02 0.  0.
          5    1    3    3  502    0  0.62889326219E+02  0.66914511252E+01 -0.38856059217E+03  0.39369613798E+03  0.41800000000E+01 0. -1.
         -5    1    3    3    0  502 -0.60242013020E+02  0.14709623101E+02 -0.51495273100E+03  0.51868994661E+03  0.41800000000E+01 0. -1.
        -11    1    4    4    0    0 -0.19096061974E+02  0.24099515871E+02 -0.73443530935E+01  0.31613063288E+02  0.00000000000E+00 0. -1.
         11    1    4    4    0    0  0.16448748774E+02 -0.45500590097E+02 -0.10207882202E+03  0.11296437907E+03  0.00000000000E+00 0.  1.
</event>
<event>
 8    1  0.3541538E-009  0.2461029E+03  0.7561462E-02  0.1115793E+00
          2   -1    0    0  501    0  0.00000000000E+00  0.00000000000E+00  0.72284839435E+03  0.72284839435E+03  0.00000000000E+00 0. -1.
         -2   -1    0    0    0  501 -0.00000000000E+00 -0.00000000000E+00 -0.12173796105E+03  0.12173796105E+03  0.00000000000E+00 0.  1.
         25    2    1    2    0    0  0.14690170026E+03 -0.17759601276E+03  0.52307991526E+03  0.58513334438E+03  0.12509188493E+03 0.  0.
         23    2    1    2    0    0 -0.14690170026E+03  0.17759601276E+03  0.78030518044E+02  0.25945301102E+03  0.90036936296E+02 0.  0.
          5    1    3    3  502    0  0.16476547479E+03 -0.14010453822E+03  0.39407051121E+03  0.44953974632E+03  0.41800000000E+01 0.  1.
         -5    1    3    3    0  502 -0.17863774535E+02 -0.37491474532E+02  0.12900940404E+03  0.13559359806E+03  0.41800000000E+01 0.  1.
        -11    1    4    4    0    0 -0.10509064512E+03  0.95431016960E+02  0.87533718105E+02  0.16677312282E+03  0.00000000000E+00 0.  1.
         11    1    4    4    0    0 -0.41811055132E+02  0.82164995796E+02 -0.95032000617E+01  0.92679888200E+02  0.00000000000E+00 0. -1.
</event>
<event>
 8    1  0.3541538E-009  0.1246747E+03  0.7561462E-02  0.1235579E+00
          1   -1    0    0  501    0  0.00000000000E+00  0.00000000000E+00  0.31921200637E+02  0.31921200637E+02  0.00000000000E+00 0. -1.
         -1   -1    0    0    0  501 -0.00000000000E+00 -0.00000000000E+00 -0.60313908951E+03  0.60313908951E+03  0.00000000000E+00 0.  1.
         25    2    1    2    0    0 -0.22829311311E+02  0.77517175687E+02 -0.24473561881E+03  0.28648380743E+03  0.12508940332E+03 0.  0.
         23    2    1    2    0    0  0.22829311311E+02 -0.77517175687E+02 -0.32648227006E+03  0.34857648272E+03  0.91568562606E+02 0.  0.
          5    1    3    3  502    0 -0.62830481082E+02  0.33374067308E+02 -0.19866330663E+03  0.21105942179E+03  0.41800000000E+01 0.  1.
         -5    1    3    3    0  502  0.40001169771E+02  0.44143108379E+02 -0.46072312180E+02  0.75424385646E+02  0.41800000000E+01 0.  1.
        -11    1    4    4    0    0 -0.29854343522E+02 -0.51688148742E+02 -0.12163556925E+03  0.13549228116E+03  0.00000000000E+00 0.  1.
         11    1    4    4    0    0  0.52683654833E+02 -0.25829026945E+02 -0.20484670081E+03  0.21308420156E+03  0.00000000000E+00 0. -1.
</event>
<event>
 8    1  0.3541538E-009  0.8362842E+02  0.7561462E-02  0.1319059E+00
          2   -1    0    0  501    0  0.00000000000E+00  0.00000000000E+00  0.15908775577E+03  0.15908775577E+03  0.00000000000E+00 0. -1.
         -2   -1    0    0    0  501 -0.00000000000E+00 -0.00000000000E+00 -0.30798209675E+03  0.30798209675E+03  0.00000000000E+00 0.  1.
         25    2    1    2    0    0 -0.63048111109E+02 -0.48247548579E+02 -0.26225346499E+03  0.30120881064E+03  0.12508787891E+03 0.  0.
         23    2    1    2    0    0  0.63048111109E+02  0.48247548579E+02  0.11335912401E+03  0.16586104187E+03  0.91415009472E+02 0.  0.
          5    1    3    3  502    0 -0.23370741123E+02 -0.34571821572E+02 -0.70300200435E+01  0.42524063414E+02  0.41800000000E+01 0. -1.
         -5    1    3    3    0  502 -0.39677369986E+02 -0.13675727008E+02 -0.25522344495E+03  0.25868474723E+03  0.41800000000E+01 0. -1.
        -11    1    4    4    0    0  0.23175257045E+02  0.38926685923E+01  0.10259905738E+03  0.10525593562E+03  0.00000000000E+00 0. -1.
         11    1    4    4    0    0  0.39872854064E+02  0.44354879987E+02  0.10760066627E+02  0.60605106251E+02  0.00000000000E+00 0.  1.
</event>
<event>
 8    1  0.3541538E-009  0.1328803E+03  0.7561462E-02  0.1223243E+00
         -1   -1    0    0    0  501 -0.00000000000E+00  0.00000000000E+00  0.17135380708E+03  0.17135380708E+03  0.00000000000E+00 0.  1.
          1   -1    0    0  501    0  0.00000000000E+00 -0.00000000000E+00 -0.13235203386E+03  0.13235203386E+03  0.00000000000E+00 0. -1.
         25    2    1    2    0    0 -0.87043024512E+02 -0.57476723651E+02  0.21727300857E+02  0.16432301824E+03  0.12509962768E+03 0.  0.
         23    2    1    2    0    0  0.87043024512E+02  0.57476723651E+02  0.17274472367E+02  0.13938282269E+03  0.90824567100E+02 0.  0.
          5    1    3    3  502    0 -0.44781847047E+02 -0.93973552237E+02  0.28262060916E+02  0.10794748182E+03  0.41800000000E+01 0. -1.
         -5    1    3    3    0  502 -0.42261177465E+02  0.36496828586E+02 -0.65347600595E+01  0.56375536420E+02  0.41800000000E+01 0. -1.
        -11    1    4    4    0    0  0.49033975423E+02  0.41930477944E+02  0.54119849362E+02  0.84210770222E+02  0.00000000000E+00 0.  1.
         11    1    4    4    0    0  0.38009049088E+02  0.15546245707E+02 -0.36845376994E+02  0.55172052473E+02  0.00000000000E+00 0. -1.
</event>
<event>
 8    1  0.3541538E-009  0.9517090E+02  0.7561462E-02  0.1290792E+00
          2   -1    0    0  501    0  0.00000000000E+00  0.00000000000E+00  0.28221749008E+02  0.28221749008E+02  0.00000000000E+00 0. -1.
         -2   -1    0    0    0  501 -0.00000000000E+00 -0.00000000000E+00 -0.45090214265E+03  0.45090214265E+03  0.00000000000E+00 0.  1.
         25    2    1    2    0    0  0.27363351541E+02  0.62077202914E+01 -0.27857377430E+03  0.30665617946E+03  0.12508947149E+03 0.  0.
         23    2    1    2    0    0 -0.27363351541E+02 -0.62077202914E+01 -0.14410661935E+03  0.17246771220E+03  0.90504724809E+02 0.  0.
          5    1    3    3  502    0  0.44636581616E+02 -0.43465230492E+02 -0.21582535859E+03  0.22467689799E+03  0.41800000000E+01 0. -1.
         -5    1    3    3    0  502 -0.17273230074E+02  0.49672950783E+02 -0.62748415706E+02  0.81979281470E+02  0.41800000000E+01 0. -1.
        -11    1    4    4    0    0 -0.52103320008E+01  0.31219037564E+02 -0.12791818952E+02  0.34138050590E+02  0.00000000000E+00 0. -1.
         11    1    4    4    0    0 -0.22153019540E+02 -0.37426757855E+02 -0.13131480039E+03  0.13832966161E+03  0.00000000000E+00 0.  1.
</event>
<event>
 8    1  0.3541538E-009  0.1412681E+03  0.7561462E-02  0.1211633E+00
          2   -1    0    0  501    0  0.00000000000E+00  0.00000000000E+00  0.11494834646E+04  0.11494834646E+04  0.00000000000E+00 0. -1.
         -2   -1    0    0    0  501 -0.00000000000E+00 -0.00000000000E+00 -0.17484495675E+02  0.17484495675E+02  0.00000000000E+00 0.  1.
         25    2    1    2    0    0 -0.66009861205E+02 -0.65465584940E+02  0.62580389814E+03  0.64491889561E+03  0.12508724316E+03 0.  0.
         23    2    1    2    0    0  0.66009861205E+02  0.65465584940E+02  0.50619507081E+03  0.52204906469E+03  0.87514179669E+02 0.  0.
          5    1    3    3  502    0  0.30948214908E+02  0.90455086756E+01  0.16326876611E+03  0.16647454947E+03  0.41800000000E+01 0. -1.
         -5    1    3    3    0  502 -0.96958076113E+02 -0.74511093615E+02  0.46253513203E+03  0.47844434615E+03  0.41800000000E+01 0. -1.
        -11    1    4    4    0    0  0.56439437867E+02  0.87228960473E+02  0.40962854838E+03  0.42259892255E+03  0.00000000000E+00 0.  1.
         11    1    4    4    0    0  0.95704233377E+01 -0.21763375533E+02  0.96566522431E+02  0.99450142141E+02  0.00000000000E+00 0. -1.
</event>
<event>
 8    1  0.3541538E-009  0.1209534E+03  0.7561462E-02  0.1241532E+00
          2   -1    0    0  501    0  0.00000000000E+00  0.00000000000E+00  0.15216564882E+03  0.15216564882E+03  0.00000000000E+00 0. -1.
         -2   -1    0    0    0  501 -0.00000000000E+00 -0.00000000000E+00 -0.10847105287E+03  0.10847105287E+03  0.00000000000E+00 0.  1.
         25    2    1    2    0    0  0.57728219433E+02 -0.26715548617E+02  0.57225178085E+02  0.15154398269E+03  0.12507833476E+03 0.  0.
         23    2    1    2    0    0 -0.57728219433E+02  0.26715548617E+02 -0.13530582130E+02  0.10909271900E+03  0.87589250652E+02 0.  0.
          5    1    3    3  502    0  0.94956421246E+02 -0.13533895193E+02  0.22082293119E+02  0.98513899143E+02  0.41800000000E+01 0. -1.
         -5    1    3    3    0  502 -0.37228201814E+02 -0.13181653424E+02  0.35142884966E+02  0.53030083547E+02  0.41800000000E+01 0. -1.
        -11    1    4    4    0    0 -0.69689991478E+02 -0.73547685927E+01 -0.18913653123E+02  0.72584528708E+02  0.00000000000E+00 0. -1.
         11    1    4    4    0    0  0.11961772045E+02  0.34070317210E+02  0.53830709923E+01  0.36508190294E+02  0.00000000000E+00 0.  1.
</event>
<event>
 8    1  0.3541538E-009  0.2076857E+03  0.7561462E-02  0.1143412E+00
         -2   -1    0    0    0  501 -0.00000000000E+00  0.00000000000E+00  0.50551284673E+02  0.50551284673E+02  0.00000000000E+00 0.  1.
          2   -1    0    0  501    0  0.00000000000E+00 -0.00000000000E+00 -0.11458772558E+04  0.11458772558E+04  0.00000000000E+00 0. -1.
         25    2    1    2    0    0  0.15487956856E+03 -0.11666260663E+03 -0.33775589848E+03  0.40905260898E+03  0.12508855027E+03 0.  0.
         23    2    1    2    0    0 -0.15487956856E+03  0.11666260663E+03 -0.75757007266E+03  0.78737593151E+03  0.91927134094E+02 0.  0.
          5    1    3    3  502    0  0.11795510288E+03 -0.43998538076E+02 -0.28573706522E+03  0.31226978799E+03  0.41800000000E+01 0.  1.
         -5    1    3    3    0  502  0.36924465680E+02 -0.72664068558E+02 -0.52018833258E+02  0.96782820989E+02  0.41800000000E+01 0.  1.
        -11    1    4    4    0    0 -0.41267338973E+02  0.77172991324E+02 -0.41991812450E+03  0.42894043309E+03  0.00000000000E+00 0. -1.
         11    1    4    4    0    0 -0.11361222959E+03  0.39489615310E+02 -0.33765194816E+03  0.35843549842E+03  0.00000000000E+00 0.  1.
</event>
<event>
 8    1  0.3541538E-009  0.2539298E+03  0.7561462E-02  0.1110846E+00
         -3   -1    0    0    0  501 -0.00000000000E+00  0.00000000000E+00  0.39692043371E+03  0.39692043371E+03  0.00000000000E+00 0.  1.
          3   -1    0    0  501    0  0.00000000000E+00 -0.00000000000E+00 -0.19061262962E+03  0.19061262962E+03  0.00000000000E+00 0. -1.
         25    2    1    2    0    0  0.12581919930E+03 -0.21833042809E+03  0.79459968960E+02  0.29234056922E+03  0.12510185852E+03 0.  0.
         23    2    1    2    0    0 -0.12581919930E+03  0.21833042809E+03  0.12684783512E+03  0.29519249410E+03  0.86888368379E+02 0.  0.
          5    1    3    3  502    0  0.87289496679E+01 -0.38567239548E+02  0.66366233718E+02  0.77366503777E+02  0.41800000000E+01 0.  1.
         -5    1    3    3    0  502  0.11709024963E+03 -0.17976318854E+03  0.13093735242E+02  0.21497406545E+03  0.41800000000E+01 0.  1.
        -11    1    4    4    0    0 -0.60346418081E+02  0.13228128888E+03  0.26728820371E+02  0.14783253837E+03  0.00000000000E+00 0. -1.
         11    1    4    4    0    0 -0.65472781219E+02  0.86049139204E+02  0.10011901475E+03  0.14735995573E+03  0.00000000000E+00 0.  1.
</event>
<event>
 8    1  0.3541538E-009  0.7771367E+02  0.7561462E-02  0.1335668E+00
          1   -1    0    0  501    0  0.00000000000E+00  0.00000000000E+00  0.93903346771E+02  0.93903346771E+02  0.00000000000E+00 0. -1.
         -1   -1    0    0    0  501 -0.00000000000E+00 -0.00000000000E+00 -0.14385565370E+03  0.14385565370E+03  0.00000000000E+00 0.  1.
         25    2    1    2    0    0  0.10453603674E+02 -0.40814258055E+02 -0.25083766640E+02  0.13436304566E+03  0.12509656750E+03 0.  0.
         23    2    1    2    0    0 -0.10453603674E+02  0.40814258055E+02 -0.24868540293E+02  0.10339595482E+03  0.91088954794E+02 0.  0.
          5    1    3    3  502    0  0.65918386128E+01  0.22439268078E+02  0.38020767530E+02  0.44833294010E+02  0.41800000000E+01 0.  1.
         -5    1    3    3    0  502  0.38617650609E+01 -0.63253526133E+02 -0.63104534170E+02  0.89529751650E+02  0.41800000000E+01 0.  1.
        -11    1    4    4    0    0  0.20693930445E+02  0.62167744833E+01 -0.47090607846E+02  0.51811315265E+02  0.00000000000E+00 0.  1.
         11    1    4    4    0    0 -0.31147534119E+02  0.34597483571E+02  0.22222067552E+02  0.51584639550E+02  0.00000000000E+00 0. -1.
</event>
<event>
 8    1  0.3541538E-009  0.1726647E+03  0.7561462E-02  0.1175097E+00
         -2   -1    0    0    0  501 -0.00000000000E+00  0.00000000000E+00  0.36948439768E+02  0.36948439768E+02  0.00000000000E+00 0.  1.
          2   -1    0    0  501    0  0.00000000000E+00 -0.00000000000E+00 -0.81766264779E+03  0.81766264779E+03  0.00000000000E+00 0. -1.
         25    2    1    2    0    0 -0.11454819031E+03  0.72275143839E+02 -0.38155824108E+03  0.42376791057E+03  0.12509023293E+03 0.  0.
         23    2    1    2    0    0  0.11454819031E+03 -0.72275143839E+02 -0.39915596695E+03  0.43084317699E+03  0.89192897062E+02 0.  0.
          5    1    3    3  502    0 -0.80533498586E+02  0.10774244438E+03 -0.26534013505E+03  0.29751796313E+03  0.41800000000E+01 0. -1.
         -5    1    3    3    0  502 -0.34014691728E+02 -0.35467300541E+02 -0.11621810603E+03  0.12624994744E+03  0.41800000000E+01 0. -1.
        -11    1    4    4    0    0  0.59884553375E+02 -0.86257501206E+02 -0.23944108016E+03  0.26145467507E+03  0.00000000000E+00 0.  1.
         11    1    4    4    0    0  0.54663636939E+02  0.13982357367E+02 -0.15971488679E+03  0.16938850192E+03  0.00000000000E+00 0. -1.
</event>
<event>
 8    1  0.3541538E-009  0.1367931E+03  0.7561462E-02  0.1217710E+00
          2   -1    0    0  501    0  0.00000000000E+00  0.00000000000E+00  0.13126871733E+04  0.13126871733E+04  0.00000000000E+00 0. -1.
         -2   -1    0    0    0  501 -0.00000000000E+00 -0.00000000000E+00 -0.19837201451E+02  0.19837201451E+02  0.00000000000E+00 0.  1.
         25    2    1    2    0    0 -0.11435406831E+03  0.32823284649E+02  0.70968850245E+03  0.73038317346E+03  0.12509032179E+03 0.  0.
         23    2    1    2    0    0  0.11435406831E+03 -0.32823284649E+02  0.58316146943E+03  0.60214120133E+03  0.91337319599E+02 0.  0.
          5    1    3    3  502    0 -0.24354833042E+02  0.22531702814E+02  0.30795727375E+02  0.45460804533E+02  0.41800000000E+01 0.  1.
         -5    1    3    3    0  502 -0.89999235265E+02  0.10291581836E+02  0.67889277508E+03  0.68492236893E+03  0.41800000000E+01 0.  1.
        -11    1    4    4    0    0  0.62056345759E+02  0.28990244644E+02  0.29252419000E+03  0.30043605986E+03  0.00000000000E+00 0. -1.
         11    1    4    4    0    0  0.52297722547E+02 -0.61813529293E+02  0.29063727944E+03  0.30170514146E+03  0.00000000000E+00 0.  1.
</event>
<event>
 8    1  0.3541538E-009  0.9671696E+02  0.7561462E-02  0.1287355E+00
          2   -1    0    0  501    0  0.00000000000E+00  0.00000000000E+00  0.14065858976E+04  0.14065858976E+04  0.00000000000E+00 0. -1.
         -2   -1    0    0    0  501 -0.00000000000E+00 -0.00000000000E+00 -0.19816009186E+02  0.19816009186E+02  0.00000000000E+00 0.  1.
         25    2    1    2    0    0 -0.94656228046E+01  0.70444705034E+02  0.11937813879E+04  0.12024199957E+04  0.12509112496E+03 0.  0.
         23    2    1    2    0    0  0.94656228046E+01 -0.70444705034E+02  0.19298850059E+03  0.22398191113E+03  0.88720238239E+02 0.  0.
          5    1    3    3  502    0 -0.87847256678E+01  0.75720300569E+02  0.33407153013E+03  0.34268352013E+03  0.41800000000E+01 0. -1.
         -5    1    3    3    0  502 -0.68089713680E+00 -0.52755955350E+01  0.85970985774E+03  0.85973647557E+03  0.41800000000E+01 0. -1.
        -11    1    4    4    0    0  0.38074258523E+02 -0.72241756034E+02  0.11625870909E+03  0.14207254455E+03  0.00000000000E+00 0.  1.
         11    1    4    4    0    0 -0.28608635718E+02  0.17970509995E+01  0.76729791503E+02  0.81909366583E+02  0.00000000000E+00 0. -1.
</event>
<event>
 8    1  0.3541538E-009  0.1280006E+03  0.7561462E-02  0.1230453E+00
          1   -1    0    0  501    0  0.00000000000E+00  0.00000000000E+00  0.12949081952E+03  0.12949081952E+03  0.00000000000E+00 0. -1.
         -1   -1    0    0    0  501 -0.00000000000E+00 -0.00000000000E+00 -0.22880894883E+03  0.22880894883E+03  0.00000000000E+00 0.  1.
         25    2    1    2    0    0  0.11569879983E+03  0.44559710527E+02 -0.10012067312E+01  0.17612728954E+03  0.12509212454E+03 0.  0.
         23    2    1    2    0    0 -0.11569879983E+03 -0.44559710527E+02 -0.98316922577E+02  0.18217247881E+03  0.90270785354E+02 0.  0.
          5    1    3    3  502    0  0.42149257007E+02  0.34087585673E+02  0.59226973339E+02  0.80397948569E+02  0.41800000000E+01 0. -1.
         -5    1    3    3    0  502  0.73549542821E+02  0.10472124854E+02 -0.60228180070E+02  0.95729340971E+02  0.41800000000E+01 0. -1.
        -11    1    4    4    0    0 -0.60028618915E+02 -0.78513525997E+01  0.32998101102E+01  0.60629758149E+02  0.00000000000E+00 0.  1.
         11    1    4    4    0    0 -0.55670180913E+02 -0.36708357928E+02 -0.10161673269E+03  0.12154272066E+03  0.00000000000E+00 0. -1.
</event>
<event>
 8    1  0.3541538E-009  0.1106922E+03  0.7561462E-02  0.1259293E+00
         -2   -1    0    0    0  501 -0.00000000000E+00  0.00000000000E+00  0.29103746969E+02  0.29103746969E+02  0.00000000000E+00 0. -1.
          2   -1    0    0  501    0  0.00000000000E+00 -0.00000000000E+00 -0.59300164564E+03  0.59300164564E+03  0.00000000000E+00 0.  1.
         25    2    1    2    0    0  0.59350293357E+02  0.13707879370E+02 -0.20783896053E+03  0.25010611856E+03  0.12508266766E+03 0.  0.
         23    2    1    2    0    0 -0.59350293357E+02 -0.13707879370E+02 -0.35605893813E+03  0.37199927404E+03  0.88854539467E+02 0.  0.
          5    1    3    3  502    0  0.29126155629E+02 -0.48965914795E+02 -0.44169053639E+02  0.72210604850E+02  0.41800000000E+01 0.  1.
         -5    1    3    3    0  502  0.30224137728E+02  0.62673794165E+02 -0.16366990689E+03  0.17789551371E+03  0.41800000000E+01 0.  1.
        -11    1    4    4    0    0 -0.48213201692E+02 -0.42128812548E+02 -0.31134061093E+03  0.31785582531E+03  0.00000000000E+00 0.  1.
         11    1    4    4    0    0 -0.11137091665E+02  0.28420933177E+02 -0.44718327200E+02  0.54143448736E+02  0.00000000000E+00 0. -1.
</event>
<event>
 8    1  0.3541538E-009  0.1113161E+03  0.7561462E-02  0.1258152E+00
         -1   -1    0    0    0  501 -0.00000000000E+00  0.00000000000E+00  0.21731279465E+03  0.21731279465E+03  0.00000000000E+00 0.  1.
          1   -1    0    0  501    0  0.00000000000E+00 -0.00000000000E+00 -0.76352162834E+02  0.76352162834E+02  0.00000000000E+00 0. -1.
         25    2    1    2    0    0  0.21282694837E+02 -0.59816570909E+02  0.49694766062E+02  0.14882667181E+03  0.12509529653E+03 0.  0.
         23    2    1    2    0    0 -0.21282694837E+02  0.59816570909E+02  0.91265865751E+02  0.14483828567E+03  0.92831543616E+02 0.  0.
          5    1    3    3  502    0 -0.35187164551E+02 -0.34632263927E+02  0.68064652865E+02  0.84189070689E+02  0.41800000000E+01 0. -1.
         -5    1    3    3    0  502  0.56469859388E+02 -0.25184306982E+02 -0.18369886803E+02  0.64637601120E+02  0.41800000000E+01 0. -1.
        -11    1    4    4    0    0 -0.51016110698E+02  0.63161251983E+02  0.76157956680E+02  0.11131945773E+03  0.00000000000E+00 0.  1.
         11    1    4    4    0    0  0.29733415862E+02 -0.33446810743E+01  0.15107909071E+02  0.33518827945E+02  0.00000000000E+00 0. -1.
</event>
<event>
 8    1  0.3541538E-009  0.2983171E+03  0.7561462E-02  0.1086085E+00
         -1   -1    0    0    0  501 -0.00000000000E+00  0.00000000000E+00  0.41466190249E+03  0.41466190249E+03  0.00000000000E+00 0.  1.
          1   -1    0    0  501    0  0.00000000000E+00 -0.00000000000E+00 -0.22588135026E+03  0.22588135026E+03  0.00000000000E+00 0. -1.
         25    2    1    2    0    0  0.23724044290E+03 -0.15837405363E+03  0.11397812322E+03  0.33166914455E+03  0.12509212710E+03 0.  0.
         23    2    1    2    0    0 -0.23724044290E+03  0.15837405363E+03  0.74802429011E+02  0.30887410821E+03  0.91882766224E+02 0.  0.
          5    1    3    3  502    0  0.17471672128E+03 -0.17374147678E+03  0.97963965435E+02  0.26519133540E+03  0.41800000000E+01 0. -1.
         -5    1    3    3    0  502  0.62523721615E+02  0.15367423153E+02  0.16014157783E+02  0.66477809143E+02  0.41800000000E+01 0. -1.
        -11    1    4    4    0    0 -0.89325678498E+02  0.50548296467E+02 -0.17105036769E+02  0.10405185917E+03  0.00000000000E+00 0. -1.
         11    1    4    4    0    0 -0.14791476440E+03  0.10782575716E+03  0.91907465779E+02  0.20482224904E+03  0.00000000000E+00 0.  1.
</event>
<event>
 8    1  0.3541538E-009  0.9457628E+02  0.7561462E-02  0.1292133E+00
         -3   -1    0    0    0  501 -0.00000000000E+00  0.00000000000E+00  0.21605036884E+03  0.21605036884E+03  0.00000000000E+00 0.  1.
          3   -1    0    0  501    0  0.00000000000E+00 -0.00000000000E+00 -0.12171137726E+03  0.12171137726E+03  0.00000000000E+00 0. -1.
         25    2    1    2    0    0 -0.16711428693E+02  0.73841679489E+02  0.14813931682E+03  0.20814469588E+03  0.12508833582E+03 0.  0.
         23    2    1    2    0    0  0.16711428693E+02 -0.73841679489E+02 -0.53800325247E+02  0.12961705021E+03  0.90411499440E+02 0.  0.
          5    1    3    3  502    0 -0.12335626257E+02 -0.84224474727E+01 -0.17328699354E+02  0.23256429603E+02  0.41800000000E+01 0.  1.
         -5    1    3    3    0  502 -0.43758024364E+01  0.82264126962E+02  0.16546801618E+03  0.18488826628E+03  0.41800000000E+01 0.  1.
        -11    1    4    4    0    0  0.30381720601E+02 -0.21918255877E+02  0.16685229729E+02  0.41010434995E+02  0.00000000000E+00 0.  1.
         11    1    4    4    0    0 -0.13670291908E+02 -0.51923423612E+02 -0.70485554975E+02  0.88606615219E+02  0.00000000000E+00 0. -1.
</event>
<event>
 8    1  0.3541538E-009  0.1700809E+03  0.7561462E-02  0.1177764E+00
         -1   -1    0    0    0  501 -0.00000000000E+00  0.00000000000E+00  0.43853468373E+03  0.43853468373E+03  0.00000000000E+00 0.  1.
          1   -1    0    0  501    0  0.00000000000E+00 -0.00000000000E+00 -0.82187787242E+02  0.82187787242E+02  0.00000000000E+00 0. -1.
         25    2    1    2    0    0  0.37201541399E+02 -0.14803610009E+03  0.23093706204E+03  0.30377311067E+03  0.12509010564E+03 0.  0.
         23    2    1    2    0    0 -0.37201541399E+02  0.14803610009E+03  0.12540983444E+03  0.21694936030E+03  0.89670266801E+02 0.  0.
          5    1    3    3  502    0  0.66918428814E+02 -0.10351491138E+03  0.21483540178E+03  0.24771987254E+03  0.41800000000E+01 0.  1.
         -5    1    3    3    0  502 -0.29716887415E+02 -0.44521188702E+02  0.16101660258E+02  0.56053238124E+02  0.41800000000E+01 0.  1.
        -11    1    4    4    0    0  0.13146946263E+02  0.62642121848E+02  0.92522728737E+02  0.11250481305E+03  0.00000000000E+00 0.  1.
         11    1    4    4    0    0 -0.50348487662E+02  0.85393978239E+02  0.32887105706E+02  0.10444454725E+03  0.00000000000E+00 0. -1.
</event>
<event>
 8    1  0.3541538E-009  0.9254717E+02  0.7561462E-02  0.1296798E+00
         -3   -1    0    0    0  501 -0.00000000000E+00  0.00000000000E+00  0.21880515123E+03  0.21880515123E+03  0.00000000000E+00 0.  1.
          3   -1    0    0  501    0  0.00000000000E+00 -0.00000000000E+00 -0.61923304265E+02  0.61923304265E+02  0.00000000000E+00 0. -1.
         25    2    1    2    0    0 -0.30827742034E+02 -0.30880344218E+02  0.91761944148E+02  0.16115726143E+03  0.12508982045E+03 0.  0.
         23    2    1    2    0    0  0.30827742034E+02  0.30880344218E+02  0.65119902816E+02  0.11957119407E+03  0.90292432515E+02 0.  0.
          5    1    3    3  502    0  0.52100838728E+01  0.44437706186E+02  0.14223073777E+02  0.47134095225E+02  0.41800000000E+01 0.  1.
         -5    1    3    3    0  502 -0.36037825907E+02 -0.75318050404E+02  0.77538870371E+02  0.11402316620E+03  0.41800000000E+01 0.  1.
        -11    1    4    4    0    0  0.27265804352E+02  0.18709757624E+01 -0.17149059610E+02  0.32264762246E+02  0.00000000000E+00 0. -1.
         11    1    4    4    0    0  0.35619376816E+01  0.29009368456E+02  0.82268962426E+02  0.87306431819E+02  0.00000000000E+00 0.  1.
</event>
<event>
 8    1  0.3541538E-009  0.1658208E+03  0.7561462E-02  0.1182277E+00
         -4   -1    0    0    0  501 -0.00000000000E+00  0.00000000000E+00  0.57606647321E+03  0.57606647321E+03  0.00000000000E+00 0.  1.
          4   -1    0    0  501    0  0.00000000000E+00 -0.00000000000E+00 -0.53728956247E+02  0.53728956247E+02  0.00000000000E+00 0. -1.
         25    2    1    2    0    0 -0.48471766699E+02  0.12714924911E+03  0.22805055096E+03  0.29354892277E+03  0.12508985790E+03 0.  0.
         23    2    1    2    0    0  0.48471766699E+02 -0.12714924911E+03  0.29428696600E+03  0.33624650668E+03  0.89109209323E+02 0.  0.
          5    1    3    3  502    0 -0.90072457166E+02  0.93803796557E+02  0.14552823871E+03  0.19521306424E+03  0.41800000000E+01 0. -1.
         -5    1    3    3    0  502  0.41600690467E+02  0.33345452548E+02  0.82522312257E+02  0.98335858532E+02  0.41800000000E+01 0. -1.
        -11    1    4    4    0    0 -0.37497763482E+01 -0.72000475592E+02  0.21358497738E+03  0.22542553509E+03  0.00000000000E+00 0.  1.
         11    1    4    4    0    0  0.52221543047E+02 -0.55148773514E+02  0.80701988618E+02  0.11082097159E+03  0.00000000000E+00 0. -1.
</event>
<event>
 8    1  0.3541538E-009  0.1239310E+03  0.7561462E-02  0.1236749E+00
         -2   -1    0    0    0  501 -0.00000000000E+00  0.00000000000E+00  0.18609131092E+03  0.18609131092E+03  0.00000000000E+00 0.  1.
          2   -1    0    0  501    0  0.00000000000E+00 -0.00000000000E+00 -0.95814119542E+02  0.95814119542E+02  0.00000000000E+00 0. -1.
         25    2    1    2    0    0 -0.66071258935E+02 -0.38114552565E+02  0.32573066588E+02  0.15007956077E+03  0.12507893316E+03 0.  0.
         23    2    1    2    0    0  0.66071258935E+02  0.38114552565E+02  0.57704124786E+02  0.13182586968E+03  0.90720248710E+02 0.  0.
          5    1    3    3  502    0 -0.86704040524E+02 -0.62598596263E+02  0.42148585133E+01  0.10710467931E+03  0.41800000000E+01 0.  1.
         -5    1    3    3    0  502  0.20632781589E+02  0.24484043698E+02  0.28358208075E+02  0.42974881467E+02  0.41800000000E+01 0.  1.
        -11    1    4    4    0    0 -0.12422796531E+02 -0.10461636011E+02 -0.84036781564E+01  0.18286429620E+02  0.00000000000E+00 0.  1.
         11    1    4    4    0    0  0.78494055466E+02  0.48576188576E+02  0.66107802942E+02  0.11353944006E+03  0.00000000000E+00 0. -1.
</event>
<event>
 8    1  0.3541538E-009  0.6909222E+02  0.7561462E-02  0.1363207E+00
          2   -1    0    0  501    0  0.00000000000E+00  0.00000000000E+00  0.27919146270E+02  0.27919146270E+02  0.00000000000E+00 0. -1.
         -2   -1    0    0    0  501 -0.00000000000E+00 -0.00000000000E+00 -0.45588325342E+03  0.45588325342E+03  0.00000000000E+00 0.  1.
         25    2    1    2    0    0 -0.84610042451E+01  0.15227406621E+02 -0.30003080438E+03  0.32552432903E+03  0.12507654740E+03 0.  0.
         23    2    1    2    0    0  0.84610042451E+01 -0.15227406621E+02 -0.12793330277E+03  0.15827807066E+03  0.91550833902E+02 0.  0.
          5    1    3    3  502    0 -0.30394641163E+02 -0.22086667667E+01 -0.29518473441E+03  0.29678310641E+03  0.41800000000E+01 0. -1.
         -5    1    3    3    0  502  0.21933636918E+02  0.17436073387E+02 -0.48460699661E+01  0.28741222621E+02  0.41800000000E+01 0. -1.
        -11    1    4    4    0    0 -0.34000145541E+02 -0.13548826210E+02 -0.10230214153E+03  0.10865223767E+03  0.00000000000E+00 0.  1.
         11    1    4    4    0    0  0.42461149786E+02 -0.16785804101E+01 -0.25631161237E+02  0.49625832987E+02  0.00000000000E+00 0. -1.
</event>
<event>
 8    1  0.3541538E-009  0.1693152E+03  0.7561462E-02  0.1178564E+00
         -3   -1    0    0    0  501 -0.00000000000E+00  0.00000000000E+00  0.55956689243E+02  0.55956689243E+02  0.00000000000E+00 0.  1.
          3   -1    0    0  501    0  0.00000000000E+00 -0.00000000000E+00 -0.61262270375E+03  0.61262270375E+03  0.00000000000E+00 0. -1.
         25    2    1    2    0    0 -0.12835931890E+03 -0.65882714277E+02 -0.36541957984E+03  0.41230777313E+03  0.12509829602E+03 0.  0.
         23    2    1    2    0    0  0.12835931890E+03  0.65882714277E+02 -0.19124643467E+03  0.25627161986E+03  0.91012623216E+02 0.  0.
          5    1    3    3  502    0  0.16114747264E+02 -0.38917911648E+02 -0.10567364937E+03  0.11383620469E+03  0.41800000000E+01 0. -1.
         -5    1    3    3    0  502 -0.14447406616E+03 -0.26964802629E+02 -0.25974593047E+03  0.29847156844E+03  0.41800000000E+01 0. -1.
        -11    1    4    4    0    0  0.66307187718E+02  0.12622187045E+02 -0.26816681519E+02  0.72629864082E+02  0.00000000000E+00 0.  1.
         11    1    4    4    0    0  0.62052131179E+02  0.53260527232E+02 -0.16442975315E+03  0.18364175578E+03  0.00000000000E+00 0. -1.
</event>
<event>
 8    1  0.3541538E-009  0.8354005E+02  0.7561462E-02  0.1319295E+00
         -4   -1    0    0    0  501 -0.00000000000E+00  0.00000000000E+00  0.38101314037E+03  0.38101314037E+03  0.00000000000E+00 0.  1.
          4   -1    0    0  501    0  0.00000000000E+00 -0.00000000000E+00 -0.37222645100E+02  0.37222645100E+02  0.00000000000E+00 0. -1.
         25    2    1    2    0    0 -0.91867843779E+00  0.16880729559E+02  0.27456710485E+03  0.30219014993E+03  0.12508392640E+03 0.  0.
         23    2    1    2    0    0  0.91867843779E+00 -0.16880729559E+02  0.69223390417E+02  0.11604563555E+03  0.91590986174E+02 0.  0.
          5    1    3    3  502    0  0.81527411093E+01  0.68725638768E+02  0.11686577122E+03  0.13588510402E+03  0.41800000000E+01 0.  1.
         -5    1    3    3    0  502 -0.90714195470E+01 -0.51844909209E+02  0.15770133363E+03  0.16630504590E+03  0.41800000000E+01 0.  1.
        -11    1    4    4    0    0  0.75600890918E+01  0.12618872186E+02 -0.18280690897E+02  0.23464324878E+02  0.00000000000E+00 0. -1.
         11    1    4    4    0    0 -0.66414106540E+01 -0.29499601745E+02  0.87504081315E+02  0.92581310670E+02  0.00000000000E+00 0.  1.
</event>
<event>
 8    1  0.3541538E-009  0.1216498E+03  0.7561462E-02  0.1240400E+00
          1   -1    0    0  501    0  0.00000000000E+00  0.00000000000E+00  0.30282061343E+03  0.30282061343E+03  0.00000000000E+00 0. -1.
         -1   -1    0    0    0  501 -0.00000000000E+00 -0.00000000000E+00 -0.67877482179E+02  0.67877482179E+02  0.00000000000E+00 0.  1.
         25    2    1    2    0    0  0.10169174875E+02  0.90864653505E+02  0.14983114382E+03  0.21553870178E+03  0.12509101860E+03 0.  0.
         23    2    1    2    0    0 -0.10169174875E+02 -0.90864653505E+02  0.85111987436E+02  0.15515939383E+03  0.92035806699E+02 0.  0.
          5    1    3    3  502    0  0.45640523592E+02  0.10324924325E+03  0.88543574099E+02  0.14353013809E+03  0.41800000000E+01 0. -1.
         -5    1    3    3    0  502 -0.35471348717E+02 -0.12384589745E+02  0.61287569720E+02  0.72008563693E+02  0.41800000000E+01 0. -1.
        -11    1    4    4    0    0  0.30939529070E+01 -0.34040486779E+02  0.90324470953E+02  0.96575552484E+02  0.00000000000E+00 0. -1.
         11    1    4    4    0    0 -0.13263127782E+02 -0.56824166726E+02 -0.52124835166E+01  0.58583841348E+02  0.00000000000E+00 0.  1.
</event>
<event>
 8    1  0.3541538E-009  0.1639707E+03  0.7561462E-02  0.1184285E+00
          1   -1    0    0  501    0  0.00000000000E+00  0.00000000000E+00  0.14650443779E+03  0.14650443779E+03  0.00000000000E+00 0. -1.
         -1   -1    0    0    0  501 -0.00000000000E+00 -0.00000000000E+00 -0.24288221869E+03  0.24288221869E+03  0.00000000000E+00 0.  1.
         25    2    1    2    0    0  0.13926964931E+03  0.55772752683E+02 -0.16268549766E+02  0.19600618068E+03  0.12508845668E+03 0.  0.
         23    2    1    2    0    0 -0.13926964931E+03 -0.55772752683E+02 -0.80109231134E+02  0.19338047580E+03  0.92042839739E+02 0.  0.
          5    1    3    3  502    0  0.56514585101E+02  0.41417311314E+02 -0.67626852069E+02  0.97468741278E+02  0.41800000000E+01 0.  1.
         -5    1    3    3    0  502  0.82755064207E+02  0.14355441370E+02  0.51358302303E+02  0.98537439404E+02  0.41800000000E+01 0.  1.
        -11    1    4    4    0    0 -0.10788855845E+03 -0.79748960738E+02 -0.48031775381E+02  0.14250224289E+03  0.00000000000E+00 0. -1.
         11    1    4    4    0    0 -0.31381090856E+02  0.23976208054E+02 -0.32077455753E+02  0.50878232905E+02  0.00000000000E+00 0.  1.
</event>
<event>
 8    1  0.3541538E-009  0.7994876E+02  0.7561462E-02  0.1329197E+00
         -1   -1    0    0    0  501 -0.00000000000E+00  0.00000000000E+00  0.12815126976E+03  0.12815126976E+03  0.00000000000E+00 0.  1.
          1   -1    0    0  501    0  0.00000000000E+00 -0.00000000000E+00 -0.97944522708E+02  0.97944522708E+02  0.00000000000E+00 0. -1.
         25    2    1    2    0    0  0.30617425740E+02 -0.98710210086E+01  0.15570424461E+02  0.13009663708E+03  0.12509129884E+03 0.  0.
         23    2    1    2    0    0 -0.30617425740E+02  0.98710210086E+01  0.14636322587E+02  0.95999155389E+02  0.89256664075E+02 0.  0.
          5    1    3    3  502    0  0.22063130224E+02  0.28896746831E+02 -0.44721672987E+02  0.57786712378E+02  0.41800000000E+01 0. -1.
         -5    1    3    3    0  502  0.85542955156E+01 -0.38767767840E+02  0.60292097448E+02  0.72309924697E+02  0.41800000000E+01 0. -1.
        -11    1    4    4    0    0 -0.25481221249E+02 -0.32163809122E+02  0.30128275623E+02  0.50906937107E+02  0.00000000000E+00 0.  1.
         11    1    4    4    0    0 -0.51362044906E+01  0.42034830130E+02 -0.15491953036E+02  0.45092218282E+02  0.00000000000E+00 0. -1.
</event>
<event>
 8    1  0.3541538E-009  0.3141966E+03  0.7561462E-02  0.1078352E+00
         -1   -1    0    0    0  501 -0.00000000000E+00  0.00000000000E+00  0.21212143673E+03  0.21212143673E+03  0.00000000000E+00 0.  1.
          1   -1    0    0  501    0  0.00000000000E+00 -0.00000000000E+00 -0.48543839679E+03  0.48543839679E+03  0.00000000000E+00 0. -1.
         25    2    1    2    0    0 -0.29350592962E+03 -0.72719404768E+02 -0.14483532748E+03  0.35785189515E+03  0.12508742632E+03 0.  0.
         23    2    1    2    0    0  0.29350592962E+03  0.72719404768E+02 -0.12848163257E+03  0.33970793837E+03  0.86371933695E+02 0.  0.
          5    1    3    3  502    0 -0.21286454616E+03 -0.10582606957E+03 -0.12390100659E+03  0.26810334546E+03  0.41800000000E+01 0.  1.
         -5    1    3    3    0  502 -0.80641383461E+02  0.33106664800E+02 -0.20934320891E+02  0.89748549692E+02  0.41800000000E+01 0.  1.
        -11    1    4    4    0    0  0.12501972476E+03  0.43447523872E+02 -0.12213563078E+02  0.13291647765E+03  0.00000000000E+00 0.  1.
         11    1    4    4    0    0  0.16848620487E+03  0.29271880896E+02 -0.11626806950E+03  0.20679146072E+03  0.00000000000E+00 0. -1.
</event>
<event>
 8    1  0.3541538E-009  0.1003078E+03  0.7561462E-02  0.1279650E+00
         -1   -1    0    0    0  501 -0.00000000000E+00  0.00000000000E+00  0.24301504382E+03  0.24301504382E+03  0.00000000000E+00 0.  1.
          1   -1    0    0  501    0  0.00000000000E+00 -0.00000000000E+00 -0.11617416663E+03  0.11617416663E+03  0.00000000000E+00 0. -1.
         25    2    1    2    0    0  0.39992494475E+01 -0.26736231981E+02  0.20154397087E+03  0.23874169697E+03  0.12508719193E+03 0.  0.
         23    2    1    2    0    0 -0.39992494475E+01  0.26736231981E+02 -0.74703093676E+02  0.12044751348E+03  0.90533039288E+02 0.  0.
          5    1    3    3  502    0  0.20828270152E+02 -0.74201917729E+02  0.11430173995E+03  0.13792063511E+03  0.41800000000E+01 0.  1.
         -5    1    3    3    0  502 -0.16829020704E+02  0.47465685748E+02  0.87242230916E+02  0.10082106187E+03  0.41800000000E+01 0.  1.
        -11    1    4    4    0    0  0.27832950229E+02  0.29972210319E+02 -0.19263556411E+01  0.40947739326E+02  0.00000000000E+00 0.  1.
         11    1    4    4    0    0 -0.31832199676E+02 -0.32359783377E+01 -0.72776738035E+02  0.79499774157E+02  0.00000000000E+00 0. -1.
</event>
<event>
 8    1  0.3541538E-009  0.1172017E+03  0.7561462E-02  0.1247786E+00
         -1   -1    0    0    0  501 -0.00000000000E+00  0.00000000000E+00  0.14265710299E+02  0.14265710299E+02  0.00000000000E+00 0.  1.
          1   -1    0    0  501    0  0.00000000000E+00 -0.00000000000E+00 -0.13238721598E+04  0.13238721598E+04  0.00000000000E+00 0. -1.
         25    2    1    2    0    0  0.25344269932E+02 -0.61245859781E+02 -0.96839330187E+03  0.97868623289E+03  0.12509103875E+03 0.  0.
         23    2    1    2    0    0 -0.25344269932E+02  0.61245859781E+02 -0.34121314765E+03  0.35945163723E+03  0.91573358682E+02 0.  0.
          5    1    3    3  502    0 -0.21089164337E+02  0.20938156888E+02 -0.82877287324E+02  0.88143499025E+02  0.41800000000E+01 0.  1.
         -5    1    3    3    0  502  0.46433434269E+02 -0.82184016669E+02 -0.88551601455E+03  0.89054273387E+03  0.41800000000E+01 0.  1.
        -11    1    4    4    0    0 -0.20370302323E+02  0.84092367250E+02 -0.22837252847E+03  0.24421401927E+03  0.00000000000E+00 0.  1.
         11    1    4    4    0    0 -0.49739676093E+01 -0.22846507469E+02 -0.11284061918E+03  0.11523761796E+03  0.00000000000E+00 0. -1.
</event>
<event>
 8    1  0.3541538E-009  0.8427486E+02  0.7561462E-02  0.1317340E+00
          2   -1    0    0  501    0  0.00000000000E+00  0.00000000000E+00  0.42634014077E+03  0.42634014077E+03  0.00000000000E+00 0. -1.
         -2   -1    0    0    0  501 -0.00000000000E+00 -0.00000000000E+00 -0.33998430857E+02  0.33998430857E+02  0.00000000000E+00 0.  1.
         25    2    1    2    0    0 -0.31180010642E+02  0.10535446299E+02  0.29945408254E+03  0.32619696470E+03  0.12509405877E+03 0.  0.
         23    2    1    2    0    0  0.31180010642E+02 -0.10535446299E+02  0.92887627371E+02  0.13414160692E+03  0.91009179187E+02 0.  0.
          5    1    3    3  502    0 -0.72977365371E+02 -0.25341651077E+01  0.24769590327E+03  0.25826895041E+03  0.41800000000E+01 0.  1.
         -5    1    3    3    0  502  0.41797354729E+02  0.13069611406E+02  0.51758179270E+02  0.67928014295E+02  0.41800000000E+01 0.  1.
        -11    1    4    4    0    0  0.18487967174E+02 -0.25688999912E+02 -0.69180499625E+01  0.32397361960E+02  0.00000000000E+00 0.  1.
         11    1    4    4    0    0  0.12692043467E+02  0.15153553613E+02  0.99805677334E+02  0.10174424496E+03  0.00000000000E+00 0. -1.
</event>
<event>
 8    1  0.3541538E-009  0.1032207E+03  0.7561462E-02  0.1273665E+00
         -2   -1    0    0    0  501 -0.00000000000E+00  0.00000000000E+00  0.17765914518E+02  0.17765914518E+02  0.00000000000E+00 0.  1.
          2   -1    0    0  501    0  0.00000000000E+00 -0.00000000000E+00 -0.92589376790E+03  0.92589376790E+03  0.00000000000E+00 0. -1.
         25    2    1    2    0    0  0.29570574755E+01 -0.46155178178E+02 -0.68654002365E+03  0.69937367236E+03  0.12508910768E+03 0.  0.
         23    2    1    2    0    0 -0.29570574755E+01  0.46155178178E+02 -0.22158782974E+03  0.24428601006E+03  0.91844671926E+02 0.  0.
          5    1    3    3  502    0  0.87683911359E+01  0.31899345282E+02 -0.42588545546E+03  0.42718888853E+03  0.41800000000E+01 0. -1.
         -5    1    3    3    0  502 -0.58113336604E+01 -0.78054523460E+02 -0.26065456819E+03  0.27218478383E+03  0.41800000000E+01 0. -1.
        -11    1    4    4    0    0 -0.34782260938E+02  0.51797550799E+02 -0.95146380776E+02  0.11377884566E+03  0.00000000000E+00 0.  1.
         11    1    4    4    0    0  0.31825203462E+02 -0.56423726208E+01 -0.12644144896E+03  0.13050716440E+03  0.00000000000E+00 0. -1.
</event>
<event>
 8    1  0.3541538E-009  0.1719967E+03  0.7561462E-02  0.1175781E+00
         -2   -1    0    0    0  501 -0.00000000000E+00  0.00000000000E+00  0.36242652309E+02  0.36242652309E+02  0.00000000000E+00 0.  1.
          2   -1    0    0  501    0  0.00000000000E+00 -0.00000000000E+00 -0.10081835973E+04  0.10081835973E+04  0.00000000000E+00 0. -1.
         25    2    1    2    0    0  0.15039453024E+03  0.31168570688E+01 -0.63210606920E+03  0.66169009968E+03  0.12508987075E+03 0.  0.
         23    2    1    2    0    0 -0.15039453024E+03 -0.31168570688E+01 -0.33983487578E+03  0.38273614992E+03  0.91493104299E+02 0.  0.
          5    1    3    3  502    0  0.10580086120E+03  0.57812895701E+02 -0.32819382026E+03  0.34966385171E+03  0.41800000000E+01 0. -1.
         -5    1    3    3    0  502  0.44593669046E+02 -0.54696038632E+02 -0.30391224895E+03  0.31202624797E+03  0.41800000000E+01 0. -1.
        -11    1    4    4    0    0 -0.44237976330E+02 -0.12828630434E+02 -0.29733167840E+02  0.54823658929E+02  0.00000000000E+00 0.  1.
         11    1    4    4    0    0 -0.10615655391E+03  0.97117733652E+01 -0.31010170794E+03  0.32791249099E+03  0.00000000000E+00 0. -1.
</event>
<event>
 8    1  0.3541538E-009  0.1221747E+03  0.7561462E-02  0.1239552E+00
          2   -1    0    0  501    0  0.00000000000E+00  0.00000000000E+00  0.33655179467E+03  0.33655179467E+03  0.00000000000E+00 0. -1.
         -2   -1    0    0    0  501 -0.00000000000E+00 -0.00000000000E+00 -0.60862827019E+02  0.60862827019E+02  0.00000000000E+00 0.  1.
         25    2    1    2    0    0  0.22048589680E+02  0.85370608744E+02  0.99503054035E+02  0.18254344228E+03  0.12508784678E+03 0.  0.
         23    2    1    2    0    0 -0.22048589680E+02 -0.85370608744E+02  0.17618591362E+03  0.21487117941E+03  0.85754687569E+02 0.  0.
          5    1    3    3  502    0  0.38581713078E+02  0.97318622852E+02  0.28539964070E+02  0.10858851176E+03  0.41800000000E+01 0. -1.
         -5    1    3    3    0  502 -0.16533123398E+02 -0.11948014108E+02  0.70963089964E+02  0.73954930516E+02  0.41800000000E+01 0. -1.
        -11    1    4    4    0    0 -0.45390627748E+02 -0.20483740513E+02  0.10246926226E+03  0.11392911139E+03  0.00000000000E+00 0. -1.
         11    1    4    4    0    0  0.23342038068E+02 -0.64886868231E+02  0.73716651352E+02  0.10094206802E+03  0.00000000000E+00 0.  1.
</event>
<event>
 8    1  0.3541538E-009  0.8816856E+02  0.7561462E-02  0.1307348E+00
         -1   -1    0    0    0  501 -0.00000000000E+00  0.00000000000E+00  0.68866221782E+02  0.68866221782E+02  0.00000000000E+00 0.  1.
          1   -1    0    0  501    0  0.00000000000E+00 -0.00000000000E+00 -0.17466925385E+03  0.17466925385E+03  0.00000000000E+00 0. -1.
         25    2    1    2    0    0  0.18723054165E+02  0.97805013751E+01 -0.47573057147E+02  0.13548981848E+03  0.12509230264E+03 0.  0.
         23    2    1    2    0    0 -0.18723054165E+02 -0.97805013751E+01 -0.58229974923E+02  0.10804565716E+03  0.88526397681E+02 0.  0.
          5    1    3    3  502    0  0.50343655226E+02 -0.42481851747E+01  0.23846341976E+02  0.56023665754E+02  0.41800000000E+01 0. -1.
         -5    1    3    3    0  502 -0.31620601061E+02  0.14028686550E+02 -0.71419399122E+02  0.79466152724E+02  0.41800000000E+01 0. -1.
        -11    1    4    4    0    0  0.35760964706E+02 -0.49031550951E+01 -0.26803606231E+02  0.44959101788E+02  0.00000000000E+00 0. -1.
         11    1    4    4    0    0 -0.54484018871E+02 -0.48773462799E+01 -0.31426368691E+02  0.63086555368E+02  0.00000000000E+00 0.  1.
</event>
<event>
 8    1  0.3541538E-009  0.1296415E+03  0.7561462E-02  0.1227989E+00
         -1   -1    0    0    0  501 -0.00000000000E+00  0.00000000000E+00  0.50638328223E+02  0.50638328223E+02  0.00000000000E+00 0.  1.
          1   -1    0    0  501    0  0.00000000000E+00 -0.00000000000E+00 -0.49327519998E+03  0.49327519998E+03  0.00000000000E+00 0. -1.
         25    2    1    2    0    0  0.10532062697E+03  0.14867654692E+02 -0.16457619170E+03  0.23247859207E+03  0.12508993274E+03 0.  0.
         23    2    1    2    0    0 -0.10532062697E+03 -0.14867654692E+02 -0.27806068005E+03  0.31143493613E+03  0.91435748115E+02 0.  0.
          5    1    3    3  502    0  0.86537607622E+02 -0.15626034719E+02 -0.17417987690E+03  0.19516411661E+03  0.41800000000E+01 0. -1.
         -5    1    3    3    0  502  0.18783019343E+02  0.30493689411E+02  0.96036851964E+01  0.37314475460E+02  0.41800000000E+01 0. -1.
        -11    1    4    4    0    0 -0.45071656200E+02 -0.48482872806E+02 -0.94861034989E+02  0.11567479893E+03  0.00000000000E+00 0. -1.
         11    1    4    4    0    0 -0.60248970765E+02  0.33615218114E+02 -0.18319964506E+03  0.19576013720E+03  0.00000000000E+00 0.  1.
</event>
<event>
 8    1  0.3541538E-009  0.8827918E+02  0.7561462E-02  0.1307073E+00
          2   -1    0    0  501    0  0.00000000000E+00  0.00000000000E+00  0.37165724749E+02  0.37165724749E+02  0.00000000000E+00 0.  1.
         -2   -1    0    0    0  501 -0.00000000000E+00 -0.00000000000E+00 -0.39890892613E+03  0.39890892613E+03  0.00000000000E+00 0. -1.
         25    2    1    2    0    0 -0.40182068920E+02  0.22273343897E+02 -0.14818798231E+03  0.19929629881E+03  0.12509450869E+03 0.  0.
         23    2    1    2    0    0  0.40182068920E+02 -0.22273343897E+02 -0.21355521906E+03  0.23677835207E+03  0.91364412695E+02 0.  0.
          5    1    3    3  502    0 -0.10200831223E+02  0.41940212964E+02 -0.15637851115E+03  0.16227984955E+03  0.41800000000E+01 0. -1.
         -5    1    3    3    0  502 -0.29981237698E+02 -0.19666869067E+02  0.81905288375E+01  0.37016449255E+02  0.41800000000E+01 0. -1.
        -11    1    4    4    0    0 -0.25995110120E+02 -0.16221621000E+02 -0.36461193078E+02  0.47626729246E+02  0.00000000000E+00 0.  1.
         11    1    4    4    0    0  0.66177179041E+02 -0.60517228963E+01 -0.17709402598E+03  0.18915162282E+03  0.00000000000E+00 0. -1.
</event>
<event>
 8    1  0.3541538E-009  0.1085316E+03  0.7561462E-02  0.1263314E+00
         -2   -1    0    0    0  501 -0.00000000000E+00  0.00000000000E+00  0.73482319594E+02  0.73482319594E+02  0.00000000000E+00 0.  1.
          2   -1    0    0  501    0  0.00000000000E+00 -0.00000000000E+00 -0.23844612997E+03  0.23844612997E+03  0.00000000000E+00 0. -1.
         25    2    1    2    0    0 -0.62155922082E+02 -0.18044429814E+02 -0.10587136559E+03  0.17619801310E+03  0.12509210076E+03 0.  0.
         23    2    1    2    0    0  0.62155922082E+02  0.18044429814E+02 -0.59092444787E+02  0.13573043646E+03  0.10364301353E+03 0.  0.
          5    1    3    3  502    0  0.12205356728E+02 -0.47892691260E+02 -0.89959048346E+01  0.50409119341E+02  0.41800000000E+01 0. -1.
         -5    1    3    3    0  502 -0.74361278810E+02  0.29848261446E+02 -0.96875460755E+02  0.12578889376E+03  0.41800000000E+01 0. -1.
        -11    1    4    4    0    0  0.37016731491E+02  0.39530413005E+02 -0.79999055769E+02  0.96606112056E+02  0.00000000000E+00 0. -1.
         11    1    4    4    0    0  0.25139190592E+02 -0.21485983191E+02  0.20906610982E+02  0.39124324404E+02  0.00000000000E+00 0.  1.
</event>
<event>
 8    1  0.3541538E-009  0.1227362E+03  0.7561462E-02  0.1238650E+00
         -4   -1    0    0    0  501 -0.00000000000E+00  0.00000000000E+00  0.80916986073E+02  0.80916986073E+02  0.00000000000E+00 0.  1.
          4   -1    0    0  501    0  0.00000000000E+00 -0.00000000000E+00 -0.23298002530E+03  0.23298002530E+03  0.00000000000E+00 0. -1.
         25    2    1    2    0    0 -0.75541907542E+02  0.34988425439E+02 -0.95978110941E+02  0.17829809307E+03  0.12509053722E+03 0.  0.
         23    2    1    2    0    0  0.75541907542E+02 -0.34988425439E+02 -0.56084928286E+02  0.13559891831E+03  0.91163467217E+02 0.  0.
          5    1    3    3  502    0 -0.10611653375E+03  0.44109906903E+01 -0.61206859201E+02  0.12265368966E+03  0.41800000000E+01 0. -1.
         -5    1    3    3    0  502  0.30574626205E+02  0.30577434749E+02 -0.34771251740E+02  0.55644403411E+02  0.41800000000E+01 0. -1.
        -11    1    4    4    0    0  0.31894061924E+02 -0.40712392640E+02  0.13324492874E+02  0.53406668225E+02  0.00000000000E+00 0.  1.
         11    1    4    4    0    0  0.43647845617E+02  0.57239672013E+01 -0.69409421160E+02  0.82192250081E+02  0.00000000000E+00 0. -1.
</event>
<event>
 8    1  0.3541538E-009  0.1536761E+03  0.7561462E-02  0.1196027E+00
          2   -1    0    0  501    0  0.00000000000E+00  0.00000000000E+00  0.10796796027E+04  0.10796796027E+04  0.00000000000E+00 0. -1.
         -2   -1    0    0    0  501 -0.00000000000E+00 -0.00000000000E+00 -0.26677865452E+02  0.26677865452E+02  0.00000000000E+00 0.  1.
         25    2    1    2    0    0  0.72075107411E+02  0.10658283258E+03  0.48605084855E+03  0.51811952891E+03  0.12509075727E+03 0.  0.
         23    2    1    2    0    0 -0.72075107411E+02 -0.10658283258E+03  0.56695088874E+03  0.58823793928E+03  0.89642856156E+02 0.  0.
          5    1    3    3  502    0 -0.22669393054E+02 -0.77893651193E+01  0.30887249694E+02  0.39320098983E+02  0.41800000000E+01 0.  1.
         -5    1    3    3    0  502  0.94744500465E+02  0.11437219770E+03  0.45516359885E+03  0.47879942992E+03  0.41800000000E+01 0.  1.
        -11    1    4    4    0    0 -0.76771248959E+02 -0.96436093333E+02  0.56306809816E+03  0.57640214081E+03  0.00000000000E+00 0. -1.
         11    1    4    4    0    0  0.46961415481E+01 -0.10146739249E+02  0.38827905802E+01  0.11835798474E+02  0.00000000000E+00 0.  1.
</event>
<event>
 8    1  0.3541538E-009  0.2304602E+03  0.7561462E-02  0.1126316E+00
         -2   -1    0    0    0  501 -0.00000000000E+00  0.00000000000E+00  0.28601118790E+02  0.28601118790E+02  0.00000000000E+00 0.  1.
          2   -1    0    0  501    0  0.00000000000E+00 -0.00000000000E+00 -0.19796947449E+04  0.19796947449E+04  0.00000000000E+00 0. -1.
         25    2    1    2    0    0 -0.78130897718E+02  0.18910819359E+03 -0.77802643518E+03  0.81414995869E+03  0.12509466552E+03 0.  0.
         23    2    1    2    0    0  0.78130897718E+02 -0.18910819359E+03 -0.11730671909E+04  0.11941459050E+04  0.89618423981E+02 0.  0.
          5    1    3    3  502    0 -0.85819189101E+02  0.52427057334E+02 -0.38514950954E+03  0.39808434616E+03  0.41800000000E+01 0.  1.
         -5    1    3    3    0  502  0.76882913832E+01  0.13668113626E+03 -0.39287692564E+03  0.41606561253E+03  0.41800000000E+01 0.  1.
        -11    1    4    4    0    0  0.61322940635E+02 -0.39914130990E+02 -0.37029277278E+03  0.37745248505E+03  0.00000000000E+00 0.  1.
         11    1    4    4    0    0  0.16807957083E+02 -0.14919406260E+03 -0.80277441811E+03  0.81669341990E+03  0.00000000000E+00 0. -1.
</event>
<event>
 8    1  0.3541538E-009  0.1225700E+03  0.7561462E-02  0.1238917E+00
         -2   -1    0    0    0  501 -0.00000000000E+00  0.00000000000E+00  0.31378596068E+03  0.31378596068E+03  0.00000000000E+00 0.  1.
          2   -1    0    0  501    0  0.00000000000E+00 -0.00000000000E+00 -0.49639889819E+02  0.49639889819E+02  0.00000000000E+00 0. -1.
         25    2    1    2    0    0  0.88075404941E+01 -0.62236790271E+02  0.13254446546E+03  0.19278723987E+03  0.12509154128E+03 0.  0.
         23    2    1    2    0    0 -0.88075404941E+01  0.62236790271E+02  0.13160160540E+03  0.17063861063E+03  0.88586466575E+02 0.  0.
          5    1    3    3  502    0 -0.46780124196E+02  0.85849079833E+01  0.62450003045E+02  0.78610151668E+02  0.41800000000E+01 0. -1.
         -5    1    3    3    0  502  0.55587664690E+02 -0.70821698254E+02  0.70094462419E+02  0.11417708821E+03  0.41800000000E+01 0. -1.
        -11    1    4    4    0    0 -0.27024695578E+02 -0.12905232948E+02  0.25375166723E+02  0.39252748881E+02  0.00000000000E+00 0.  1.
         11    1    4    4    0    0  0.18217155083E+02  0.75142023219E+02  0.10622643868E+03  0.13138586174E+03  0.00000000000E+00 0. -1.
</event>
<event>
 8    1  0.3541538E-009  0.9949950E+02  0.7561462E-02  0.1281352E+00
         -2   -1    0    0    0  501 -0.00000000000E+00  0.00000000000E+00  0.64394702961E+03  0.64394702961E+03  0.00000000000E+00 0.  1.
          2   -1    0    0  501    0  0.00000000000E+00 -0.00000000000E+00 -0.19326843577E+02  0.19326843577E+02  0.00000000000E+00 0. -1.
         25    2    1    2    0    0  0.31635352241E+02  0.84778238374E+01  0.32886167697E+03  0.35336983426E+03  0.12509024015E+03 0.  0.
         23    2    1    2    0    0 -0.31635352241E+02 -0.84778238374E+01  0.29575850907E+03  0.30990403893E+03  0.86572216381E+02 0.  0.
          5    1    3    3  502    0  0.68554228535E+02  0.90916495460E+00  0.29381225727E+03  0.30173435959E+03  0.41800000000E+01 0. -1.
         -5    1    3    3    0  502 -0.36918876294E+02  0.75686588828E+01  0.35049419695E+02  0.51635474676E+02  0.41800000000E+01 0. -1.
        -11    1    4    4    0    0 -0.51816533701E+02  0.21628274211E+02  0.18870128019E+03  0.19687790266E+03  0.00000000000E+00 0. -1.
         11    1    4    4    0    0  0.20181181459E+02 -0.30106098048E+02  0.10705722887E+03  0.11302613626E+03  0.00000000000E+00 0.  1.
</event>
<event>
 8    1  0.3541538E-009  0.1123138E+03  0.7561462E-02  0.1256344E+00
          2   -1    0    0  501    0  0.00000000000E+00  0.00000000000E+00  0.56880652981E+03  0.56880652981E+03  0.00000000000E+00 0. -1.
         -2   -1    0    0    0  501 -0.00000000000E+00 -0.00000000000E+00 -0.38026206823E+02  0.38026206823E+02  0.00000000000E+00 0.  1.
         25    2    1    2    0    0  0.79627669494E+02 -0.39024800844E+02  0.19666380042E+03  0.24937515962E+03  0.12509124273E+03 0.  0.
         23    2    1    2    0    0 -0.79627669494E+02  0.39024800844E+02  0.33411652256E+03  0.35745757701E+03  0.90986635742E+02 0.  0.
          5    1    3    3  502    0  0.68080641169E+02 -0.56383112553E+02  0.20744681418E+03  0.22553421513E+03  0.41800000000E+01 0. -1.
         -5    1    3    3    0  502  0.11547028325E+02  0.17358311709E+02 -0.10783013752E+02  0.23840944489E+02  0.41800000000E+01 0. -1.
        -11    1    4    4    0    0 -0.46537301818E+02 -0.17212465855E+02  0.72685279726E+02  0.88006473229E+02  0.00000000000E+00 0.  1.
         11    1    4    4    0    0 -0.33090367676E+02  0.56237266700E+02  0.26143124283E+03  0.26945110378E+03  0.00000000000E+00 0. -1.
</event>
<event>
 8    1  0.3541538E-009  0.2401843E+03  0.7561462E-02  0.1119670E+00
         -2   -1    0    0    0  501 -0.00000000000E+00  0.00000000000E+00  0.22304921359E+03  0.22304921359E+03  0.00000000000E+00 0.  1.
          2   -1    0    0  501    0  0.00000000000E+00 -0.00000000000E+00 -0.29223743457E+03  0.29223743457E+03  0.00000000000E+00 0. -1.
         25    2    1    2    0    0 -0.20183947839E+03  0.79608350718E+02 -0.11577531535E+03  0.27591283100E+03  0.12508917669E+03 0.  0.
         23    2    1    2    0    0  0.20183947839E+03 -0.79608350718E+02  0.46587094369E+02  0.23937381716E+03  0.89737408249E+02 0.  0.
          5    1    3    3  502    0 -0.84111932714E+01 -0.26273116572E+02 -0.24817369619E+02  0.37341653170E+02  0.41800000000E+01 0.  1.
         -5    1    3    3    0  502 -0.19342828512E+03  0.10588146729E+03 -0.90957945727E+02  0.23857117783E+03  0.41800000000E+01 0.  1.
        -11    1    4    4    0    0  0.83696678575E+02 -0.77024152065E+02  0.41716454900E+01  0.11382116074E+03  0.00000000000E+00 0. -1.
         11    1    4    4    0    0  0.11814279982E+03 -0.25841986530E+01  0.42415448879E+02  0.12555265642E+03  0.00000000000E+00 0.  1.
</event>
<event>
 8    1  0.3541538E-009  0.1264833E+03  0.7561462E-02  0.1232769E+00
          2   -1    0    0  501    0  0.00000000000E+00  0.00000000000E+00  0.64277892343E+03  0.64277892343E+03  0.00000000000E+00 0. -1.
         -2   -1    0    0    0  501 -0.00000000000E+00 -0.00000000000E+00 -0.32430578263E+02  0.32430578263E+02  0.00000000000E+00 0.  1.
         25    2    1    2    0    0  0.46971228784E+02 -0.73702689318E+02  0.24130402720E+03  0.28550427767E+03  0.12508667505E+03 0.  0.
         23    2    1    2    0    0 -0.46971228784E+02  0.73702689318E+02  0.36904431797E+03  0.38970522403E+03  0.89655285762E+02 0.  0.
          5    1    3    3  502    0  0.11028181585E+02  0.22764370508E+02  0.29149182660E+01  0.25803226585E+02  0.41800000000E+01 0. -1.
         -5    1    3    3    0  502  0.35943047199E+02 -0.96467059825E+02  0.23838910894E+03  0.25970105108E+03  0.41800000000E+01 0. -1.
        -11    1    4    4    0    0 -0.11504123020E+01 -0.19978398401E+02  0.78541049530E+02  0.81050331970E+02  0.00000000000E+00 0.  1.
         11    1    4    4    0    0 -0.45820816482E+02  0.93681087718E+02  0.29050326844E+03  0.30865489206E+03  0.00000000000E+00 0. -1.
</event>
<event>
 8    1  0.3541538E-009  0.8462035E+02  0.7561462E-02  0.1316428E+00
          1   -1    0    0  501    0  0.00000000000E+00  0.00000000000E+00  0.70195469509E+02  0.70195469509E+02  0.00000000000E+00 0. -1.
         -1   -1    0    0    0  501 -0.00000000000E+00 -0.00000000000E+00 -0.26048039363E+03  0.26048039363E+03  0.00000000000E+00 0.  1.
         25    2    1    2    0    0 -0.36865232605E+02 -0.28716192166E+02 -0.18328494641E+03  0.22676858165E+03  0.12508778108E+03 0.  0.
         23    2    1    2    0    0  0.36865232605E+02  0.28716192166E+02 -0.69999777084E+01  0.10390728148E+03  0.92542197888E+02 0.  0.
          5    1    3    3  502    0 -0.30851067549E+02  0.28286746470E+02 -0.15883817028E+03  0.16431361822E+03  0.41800000000E+01 0.  1.
         -5    1    3    3    0  502 -0.60141650562E+01 -0.57002938636E+02 -0.24446776134E+02  0.62454963436E+02  0.41800000000E+01 0.  1.
        -11    1    4    4    0    0 -0.12079173705E+02  0.14222253359E+02 -0.39297336905E+02  0.43502409311E+02  0.00000000000E+00 0.  1.
         11    1    4    4    0    0  0.48944406310E+02  0.14493938807E+02  0.32297359197E+02  0.60404872173E+02  0.00000000000E+00 0. -1.
</event>
<event>
 8    1  0.3541538E-009  0.1674183E+03  0.7561462E-02  0.1180567E+00
          1   -1    0    0  501    0  0.00000000000E+00  0.00000000000E+00  0.69517300839E+02  0.69517300839E+02  0.00000000000E+00 0. -1.
         -1   -1    0    0    0  501 -0.00000000000E+00 -0.00000000000E+00 -0.99406976576E+03  0.99406976576E+03  0.00000000000E+00 0.  1.
         25    2    1    2    0    0  0.82679626551E+02 -0.13404812641E+03 -0.83802061342E+03  0.86181816131E+03  0.12508866377E+03 0.  0.
         23    2    1    2    0    0 -0.82679626551E+02  0.13404812641E+03 -0.86531851496E+02  0.20176890529E+03  0.91750253280E+02 0.  0.
          5    1    3    3  502    0  0.45743193579E+02 -0.10715829625E+03 -0.77580225041E+03  0.78451382674E+03  0.41800000000E+01 0. -1.
         -5    1    3    3    0  502  0.36936432972E+02 -0.26889830158E+02 -0.62218363012E+02  0.77304334565E+02  0.41800000000E+01 0. -1.
        -11    1    4    4    0    0  0.12114763620E+02  0.25665472468E+02 -0.42672022997E+02  0.51248273349E+02  0.00000000000E+00 0.  1.
         11    1    4    4    0    0 -0.94794390170E+02  0.10838265394E+03 -0.43859828498E+02  0.15052063194E+03  0.00000000000E+00 0. -1.
</event>
<event>
 8    1  0.3541538E-009  0.1105353E+03  0.7561462E-02  0.1259582E+00
          1   -1    0    0  501    0  0.00000000000E+00  0.00000000000E+00  0.26016296046E+03  0.26016296046E+03  0.00000000000E+00 0. -1.
         -1   -1    0    0    0  501 -0.00000000000E+00 -0.00000000000E+00 -0.53477607297E+02  0.53477607297E+02  0.00000000000E+00 0.  1.
         25    2    1    2    0    0 -0.33995447312E+02  0.20260768796E+02  0.15263327353E+03  0.20127226023E+03  0.12508963729E+03 0.  0.
         23    2    1    2    0    0  0.33995447312E+02 -0.20260768796E+02  0.54052079634E+02  0.11236830753E+03  0.90215409076E+02 0.  0.
          5    1    3    3  502    0 -0.38784013021E+02 -0.45490065516E+02  0.10096027128E+03  0.11740525756E+03  0.41800000000E+01 0. -1.
         -5    1    3    3    0  502  0.47885657083E+01  0.65750834312E+02  0.51673002253E+02  0.83867002665E+02  0.41800000000E+01 0. -1.
        -11    1    4    4    0    0  0.51527504943E+02  0.16711406082E+02  0.45089364362E+02  0.70479824329E+02  0.00000000000E+00 0.  1.
         11    1    4    4    0    0 -0.17532057631E+02 -0.36972174878E+02  0.89627152716E+01  0.41888483203E+02  0.00000000000E+00 0. -1.
</event>
<event>
 8    1  0.3541538E-009  0.5796634E+02  0.7561462E-02  0.1406570E+00
         -2   -1    0    0    0  501 -0.00000000000E+00  0.00000000000E+00  0.15013122227E+02  0.15013122227E+02  0.00000000000E+00 0.  1.
          2   -1    0    0  501    0  0.00000000000E+00 -0.00000000000E+00 -0.93712640391E+03  0.93712640391E+03  0.00000000000E+00 0. -1.
         25    2    1    2    0    0  0.32503435714E+02 -0.18267144568E+02 -0.63391188662E+03  0.64721087318E+03  0.12508985758E+03 0.  0.
         23    2    1    2    0    0 -0.32503435714E+02  0.18267144568E+02 -0.28820139507E+03  0.30492865296E+03  0.92364914172E+02 0.  0.
          5    1    3    3  502    0  0.52112201641E+01  0.32797018142E+01  0.39246042990E+01  0.84135710904E+01  0.41800000000E+01 0.  1.
         -5    1    3    3    0  502  0.27292215550E+02 -0.21546846382E+02 -0.63783649091E+03  0.63879730209E+03  0.41800000000E+01 0.  1.
        -11    1    4    4    0    0  0.13933323779E+01 -0.21311806391E+02 -0.13362133085E+02  0.25192877314E+02  0.00000000000E+00 0.  1.
         11    1    4    4    0    0 -0.33896768092E+02  0.39578950959E+02 -0.27483926198E+03  0.27973577564E+03  0.00000000000E+00 0. -1.
</event>
<event>
 8    1  0.3541538E-009  0.1010352E+03  0.7561462E-02  0.1278134E+00
         -2   -1    0    0    0  501 -0.00000000000E+00  0.00000000000E+00  0.60967360347E+02  0.60967360347E+02  0.00000000000E+00 0.  1.
          2   -1    0    0  501    0  0.00000000000E+00 -0.00000000000E+00 -0.13235153269E+04  0.13235153269E+04  0.00000000000E+00 0. -1.
         25    2    1    2    0    0 -0.28201406499E+02 -0.61505097205E+02 -0.12660415363E+04  0.12740043749E+04  0.12509108424E+03 0.  0.
         23    2    1    2    0    0  0.28201406499E+02  0.61505097205E+02  0.34935697424E+01  0.11047831234E+03  0.87264289125E+02 0.  0.
          5    1    3    3  502    0  0.29597765047E+02 -0.68164791527E+02 -0.47298882122E+03  0.47880931894E+03  0.41800000000E+01 0. -1.
         -5    1    3    3    0  502 -0.57799171546E+02  0.66596943225E+01 -0.79305271510E+03  0.79519505600E+03  0.41800000000E+01 0. -1.
        -11    1    4    4    0    0  0.16043863103E+02  0.17890603267E+02  0.43735336805E+02  0.49902494065E+02  0.00000000000E+00 0.  1.
         11    1    4    4    0    0  0.12157543396E+02  0.43614493938E+02 -0.40241767062E+02  0.60575818271E+02  0.00000000000E+00 0. -1.
</event>
<event>
 8    1  0.3541538E-009  0.6893314E+02  0.7561462E-02  0.1363759E+00
          1   -1    0    0  501    0  0.00000000000E+00  0.00000000000E+00  0.47409914525E+03  0.47409914525E+03  0.00000000000E+00 0. -1.
         -1   -1    0    0    0  501 -0.00000000000E+00 -0.00000000000E+00 -0.30060670066E+02  0.30060670066E+02  0.00000000000E+00 0.  1.
         25    2    1    2    0    0 -0.18450651039E+02 -0.37302842029E+02  0.30468669075E+03  0.33198490985E+03  0.12509225516E+03 0.  0.
         23    2    1    2    0    0  0.18450651039E+02  0.37302842029E+02  0.13935178443E+03  0.17217490546E+03  0.92159371195E+02 0.  0.
          5    1    3    3  502    0 -0.50692236265E+02 -0.17119728326E+02  0.28291048252E+03  0.28795590190E+03  0.41800000000E+01 0. -1.
         -5    1    3    3    0  502  0.32241585226E+02 -0.20183113703E+02  0.21776208224E+02  0.44029007952E+02  0.41800000000E+01 0. -1.
        -11    1    4    4    0    0  0.22327534080E+02  0.27718369234E+02  0.15184373820E+03  0.15595944217E+03  0.00000000000E+00 0. -1.
         11    1    4    4    0    0 -0.38768830414E+01  0.95844727950E+01 -0.12491953767E+02  0.16215463293E+02  0.00000000000E+00 0.  1.
</event>
<event>
 8    1  0.3541538E-009  0.1128180E+03  0.7561462E-02  0.1255439E+00
         -1   -1    0    0    0  501 -0.00000000000E+00  0.00000000000E+00  0.10094209663E+03  0.10094209663E+03  0.00000000000E+00 0.  1.
          1   -1    0    0  501    0  0.00000000000E+00 -0.00000000000E+00 -0.15766160160E+03  0.15766160160E+03  0.00000000000E+00 0. -1.
         25    2    1    2    0    0  0.55618996755E+02 -0.25483321624E+02 -0.14162597655E+02  0.13996983042E+03  0.12509237296E+03 0.  0.
         23    2    1    2    0    0 -0.55618996755E+02  0.25483321624E+02 -0.42556907323E+02  0.11863386781E+03  0.92304018062E+02 0.  0.
          5    1    3    3  502    0  0.42662360026E+02 -0.62887606854E+02 -0.46060915714E+02  0.88960712762E+02  0.41800000000E+01 0.  1.
         -5    1    3    3    0  502  0.12956636730E+02  0.37404285230E+02  0.31898318059E+02  0.51009117655E+02  0.41800000000E+01 0.  1.
        -11    1    4    4    0    0 -0.22649164058E+02 -0.34503517650E+02 -0.23870320346E+02  0.47678816640E+02  0.00000000000E+00 0. -1.
         11    1    4    4    0    0 -0.32969832698E+02  0.59986839274E+02 -0.18686586977E+02  0.70955051174E+02  0.00000000000E+00 0.  1.
</event>
<event>
 8    1  0.3541538E-009  0.1031373E+03  0.7561462E-02  0.1273834E+00
         -1   -1    0    0    0  501 -0.00000000000E+00  0.00000000000E+00  0.31658560494E+03  0.31658560494E+03  0.00000000000E+00 0.  1.
          1   -1    0    0  501    0  0.00000000000E+00 -0.00000000000E+00 -0.55359631972E+02  0.55359631972E+02  0.00000000000E+00 0. -1.
         25    2    1    2    0    0 -0.47597392457E+02 -0.51595001924E+02  0.18795064817E+03  0.23643209674E+03  0.12508850559E+03 0.  0.
         23    2    1    2    0    0  0.47597392457E+02  0.51595001924E+02  0.73275324803E+02  0.13551314017E+03  0.89816379029E+02 0.  0.
          5    1    3    3  502    0 -0.57935030217E+02  0.18036312815E+02  0.40747124318E+02  0.73209130895E+02  0.41800000000E+01 0. -1.
         -5    1    3    3    0  502  0.10337637761E+02 -0.69631314739E+02  0.14720352385E+03  0.16322296585E+03  0.41800000000E+01 0. -1.
        -11    1    4    4    0    0  0.57507534393E+01  0.24304578040E+02  0.81177714757E+02  0.84932944444E+02  0.00000000000E+00 0.  1.
         11    1    4    4    0    0  0.41846639017E+02  0.27290423884E+02 -0.79023899538E+01  0.50580195727E+02  0.00000000000E+00 0. -1.
</event>
<event>
 8    1  0.3541538E-009  0.1281947E+03  0.7561462E-02  0.1230159E+00
         -1   -1    0    0    0  501 -0.00000000000E+00  0.00000000000E+00  0.13401173680E+03  0.13401173680E+03  0.00000000000E+00 0.  1.
          1   -1    0    0  501    0  0.00000000000E+00 -0.00000000000E+00 -0.17733035121E+03  0.17733035121E+03  0.00000000000E+00 0. -1.
         25    2    1    2    0    0 -0.39394216042E+02  0.73877930407E+02 -0.95999687881E+02  0.17853121257E+03  0.12509037105E+03 0.  0.
         23    2    1    2    0    0  0.39394216042E+02 -0.73877930407E+02  0.52681073469E+02  0.13281087543E+03  0.88620428080E+02 0.  0.
          5    1    3    3  502    0  0.29709061481E+02  0.74673149050E+02 -0.60815891384E+02  0.10086997853E+03  0.41800000000E+01 0. -1.
         -5    1    3    3    0  502 -0.69103277522E+02 -0.79521864341E+00 -0.35183796497E+02  0.77661234042E+02  0.41800000000E+01 0. -1.
        -11    1    4    4    0    0  0.57265194443E+02 -0.65314728278E+02  0.65863049091E+02  0.10901035483E+03  0.00000000000E+00 0.  1.
         11    1    4    4    0    0 -0.17870978402E+02 -0.85632021290E+01 -0.13181975622E+02  0.23800520604E+02  0.00000000000E+00 0. -1.
</event>
<event>
 8    1  0.3541538E-009  0.1540469E+03  0.7561462E-02  0.1195587E+00
         -2   -1    0    0    0  501 -0.00000000000E+00  0.00000000000E+00  0.36979910900E+02  0.36979910900E+02  0.00000000000E+00 0.  1.
          2   -1    0    0  501    0  0.00000000000E+00 -0.00000000000E+00 -0.80734794735E+03  0.80734794735E+03  0.00000000000E+00 0. -1.
         25    2    1    2    0    0  0.56025369694E+02  0.11818466899E+03 -0.33479978138E+03  0.38058376010E+03  0.12508655726E+03 0.  0.
         23    2    1    2    0    0 -0.56025369694E+02 -0.11818466899E+03 -0.43556825508E+03  0.46374409815E+03  0.90732715757E+02 0.  0.
          5    1    3    3  502    0  0.87084714742E+02  0.98164549811E+02 -0.30778847401E+03  0.33462104463E+03  0.41800000000E+01 0. -1.
         -5    1    3    3    0  502 -0.31059345048E+02  0.20020119182E+02 -0.27011307369E+02  0.45962715462E+02  0.41800000000E+01 0. -1.
        -11    1    4    4    0    0 -0.62581276715E+02 -0.83684267418E+02 -0.40128176919E+03  0.41466435956E+03  0.00000000000E+00 0. -1.
         11    1    4    4    0    0  0.65559070212E+01 -0.34500401575E+02 -0.34286485887E+02  0.49079738591E+02  0.00000000000E+00 0.  1.
</event>
<event>
 8    1  0.3541538E-009  0.8207693E+02  0.7561462E-02  0.1323259E+00
          2   -1    0    0  501    0  0.00000000000E+00  0.00000000000E+00  0.96179643503E+03  0.96179643503E+03  0.00000000000E+00 0. -1.
         -2   -1    0    0    0  501 -0.00000000000E+00 -0.00000000000E+00 -0.12300172013E+02  0.12300172013E+02  0.00000000000E+00 0.  1.
         25    2    1    2    0    0 -0.85410318251E+01  0.78743784217E+01  0.55471492415E+03  0.56876086828E+03  0.12508126620E+03 0.  0.
         23    2    1    2    0    0  0.85410318251E+01 -0.78743784217E+01  0.39478133887E+03  0.40533573876E+03  0.91158107361E+02 0.  0.
          5    1    3    3  502    0 -0.38406314045E+02  0.20842530342E+02  0.51658679138E+03  0.51844849450E+03  0.41800000000E+01 0.  1.
         -5    1    3    3    0  502  0.29865282220E+02 -0.12968151920E+02  0.38128132770E+02  0.50312373774E+02  0.41800000000E+01 0.  1.
        -11    1    4    4    0    0 -0.23379940732E+02 -0.37296301314E+02  0.13622747255E+03  0.14316270464E+03  0.00000000000E+00 0. -1.
         11    1    4    4    0    0  0.31920972557E+02  0.29421922893E+02  0.25855386631E+03  0.26217303412E+03  0.00000000000E+00 0.  1.
</event>
<event>
 8    1  0.3541538E-009  0.8831078E+02  0.7561462E-02  0.1306995E+00
          1   -1    0    0  501    0  0.00000000000E+00  0.00000000000E+00  0.14266837144E+04  0.14266837144E+04  0.00000000000E+00 0. -1.
         -1   -1    0    0    0  501 -0.00000000000E+00 -0.00000000000E+00 -0.17091284329E+02  0.17091284329E+02  0.00000000000E+00 0.  1.
         25    2    1    2    0    0  0.39166414012E+02  0.43122235895E+02  0.11875670941E+04  0.11955576161E+04  0.12509546476E+03 0.  0.
         23    2    1    2    0    0 -0.39166414012E+02 -0.43122235895E+02  0.22202533600E+03  0.24821738262E+03  0.94462077014E+02 0.  0.
          5    1    3    3  502    0 -0.30203199977E+00  0.68114984248E+02  0.99588960222E+03  0.99822508208E+03  0.41800000000E+01 0.  1.
         -5    1    3    3    0  502  0.39468446012E+02 -0.24992748352E+02  0.19167749187E+03  0.19733253404E+03  0.41800000000E+01 0.  1.
        -11    1    4    4    0    0 -0.18363940115E+02 -0.34243895227E+02  0.22222704052E+03  0.22559861745E+03  0.00000000000E+00 0. -1.
         11    1    4    4    0    0 -0.20802473898E+02 -0.88783406687E+01 -0.20170451625E+00  0.22618765174E+02  0.00000000000E+00 0.  1.
</event>
<event>
 8    1  0.3541538E-009  0.8423164E+02  0.7561462E-02  0.1317454E+00
         -2   -1    0    0    0  501 -0.00000000000E+00  0.00000000000E+00  0.61278619424E+02  0.61278619424E+02  0.00000000000E+00 0.  1.
          2   -1    0    0  501    0  0.00000000000E+00 -0.00000000000E+00 -0.24296112564E+03  0.24296112564E+03  0.00000000000E+00 0. -1.
         25    2    1    2    0    0  0.41464508962E+02 -0.16054879255E+02 -0.63242558329E+02  0.14705198048E+03  0.12509036385E+03 0.  0.
         23    2    1    2    0    0 -0.41464508962E+02  0.16054879255E+02 -0.11843994789E+03  0.15718776458E+03  0.93289374679E+02 0.  0.
          5    1    3    3  502    0  0.51171333228E+02 -0.46983247812E+02 -0.83422173992E+02  0.10864005906E+03  0.41800000000E+01 0.  1.
         -5    1    3    3    0  502 -0.97068242655E+01  0.30928368557E+02  0.20179615663E+02  0.38411921420E+02  0.41800000000E+01 0.  1.
        -11    1    4    4    0    0 -0.29362602059E+02 -0.14915378812E+02  0.12575338740E+01  0.32957735302E+02  0.00000000000E+00 0.  1.
         11    1    4    4    0    0 -0.12101906904E+02  0.30970258067E+02 -0.11969748176E+03  0.12423002928E+03  0.00000000000E+00 0. -1.
</event>
<event>
 8    1  0.3541538E-009  0.1783131E+03  0.7561462E-02  0.1169446E+00
         -2   -1    0    0    0  501 -0.00000000000E+00  0.00000000000E+00  0.24067820085E+03  0.24067820085E+03  0.00000000000E+00 0.  1.
          2   -1    0    0  501    0  0.00000000000E+00 -0.00000000000E+00 -0.18633014577E+03  0.18633014577E+03  0.00000000000E+00 0. -1.
         25    2    1    2    0    0 -0.11089133090E+03  0.87566956657E+02  0.14313267359E+03  0.23685199864E+03  0.12508816029E+03 0.  0.
         23    2    1    2    0    0  0.11089133090E+03 -0.87566956657E+02 -0.88784618520E+02  0.19015634798E+03  0.91169452257E+02 0.  0.
          5    1    3    3  502    0  0.40180266218E+01  0.72508153016E+02  0.55954668601E+02  0.91771314309E+02  0.41800000000E+01 0. -1.
         -5    1    3    3    0  502 -0.11490935752E+03  0.15058803641E+02  0.87178004992E+02  0.14508068433E+03  0.41800000000E+01 0. -1.
        -11    1    4    4    0    0  0.69482108332E+02 -0.10255935219E+03 -0.60994629777E+02  0.13808160255E+03  0.00000000000E+00 0.  1.
         11    1    4    4    0    0  0.41409222564E+02  0.14992395537E+02 -0.27789988744E+02  0.52074745431E+02  0.00000000000E+00 0. -1.
</event>
<event>
 8    1  0.3541538E-009  0.1735588E+03  0.7561462E-02  0.1174187E+00
          1   -1    0    0  501    0  0.00000000000E+00  0.00000000000E+00  0.25410828118E+03  0.25410828118E+03  0.00000000000E+00 0. -1.
         -1   -1    0    0    0  501 -0.00000000000E+00 -0.00000000000E+00 -0.14062902359E+03  0.14062902359E+03  0.00000000000E+00 0.  1.
         25    2    1    2    0    0  0.14442291150E+03  0.45732000177E+02  0.90564483369E+02  0.21633073390E+03  0.12509063744E+03 0.  0.
         23    2    1    2    0    0 -0.14442291150E+03 -0.45732000177E+02  0.22914774217E+02  0.17840657087E+03  0.91402540688E+02 0.  0.
          5    1    3    3  502    0 -0.11332886610E+02 -0.22468240120E+02  0.52302466825E+01  0.26040046340E+02  0.41800000000E+01 0.  1.
         -5    1    3    3    0  502  0.15575579811E+03  0.68200240297E+02  0.85334236686E+02  0.19029068756E+03  0.41800000000E+01 0.  1.
        -11    1    4    4    0    0 -0.62962316858E+02 -0.21598129819E+02 -0.35368122895E+02  0.75376632141E+02  0.00000000000E+00 0.  1.
         11    1    4    4    0    0 -0.81460594642E+02 -0.24133870358E+02  0.58282897112E+02  0.10302993872E+03  0.00000000000E+00 0. -1.
</event>
<event>
 8    1  0.3541538E-009  0.1371745E+03  0.7561462E-02  0.1217182E+00
         -1   -1    0    0    0  501 -0.00000000000E+00  0.00000000000E+00  0.25233070693E+02  0.25233070693E+02  0.00000000000E+00 0.  1.
          1   -1    0    0  501    0  0.00000000000E+00 -0.00000000000E+00 -0.80622697343E+03  0.80622697343E+03  0.00000000000E+00 0. -1.
         25    2    1    2    0    0  0.27707768268E+02  0.82920270327E+02 -0.34016231441E+03  0.37282844002E+03  0.12508858415E+03 0.  0.
         23    2    1    2    0    0 -0.27707768268E+02 -0.82920270327E+02 -0.44083158833E+03  0.45863160411E+03  0.91471128608E+02 0.  0.
          5    1    3    3  502    0  0.53985175064E+02 -0.66992017499E+01 -0.84231118091E+02  0.10035752132E+03  0.41800000000E+01 0. -1.
         -5    1    3    3    0  502 -0.26277406796E+02  0.89619472077E+02 -0.25593119632E+03  0.27247091869E+03  0.41800000000E+01 0. -1.
        -11    1    4    4    0    0 -0.60607967744E+02 -0.64867693471E+02 -0.32213736520E+03  0.33414611395E+03  0.00000000000E+00 0.  1.
         11    1    4    4    0    0  0.32900199476E+02 -0.18052576856E+02 -0.11869422313E+03  0.12448549016E+03  0.00000000000E+00 0. -1.
</event>
<event>
 8    1  0.3541538E-009  0.1161768E+03  0.7561462E-02  0.1249541E+00
          1   -1    0    0  501    0  0.00000000000E+00  0.00000000000E+00  0.64846001901E+02  0.64846001901E+02  0.00000000000E+00 0. -1.
         -1   -1    0    0    0  501 -0.00000000000E+00 -0.00000000000E+00 -0.35437277413E+03  0.35437277413E+03  0.00000000000E+00 0.  1.
         25    2    1    2    0    0  0.66777809558E+02  0.78310833279E+02 -0.11846411973E+03  0.20067964929E+03  0.12508681593E+03 0.  0.
         23    2    1    2    0    0 -0.66777809558E+02 -0.78310833279E+02 -0.17106265250E+03  0.21853912673E+03  0.88910383959E+02 0.  0.
          5    1    3    3  502    0  0.21306151621E+02  0.32117317333E+02 -0.12915864185E+03  0.13485140464E+03  0.41800000000E+01 0.  1.
         -5    1    3    3    0  502  0.45471657937E+02  0.46193515946E+02  0.10694522119E+02  0.65828244655E+02  0.41800000000E+01 0.  1.
        -11    1    4    4    0    0  0.14612702652E+02 -0.31538689734E+02 -0.82328724962E+02  0.89365759566E+02  0.00000000000E+00 0.  1.
         11    1    4    4    0    0 -0.81390512210E+02 -0.46772143545E+02 -0.88733927536E+02  0.12917336717E+03  0.00000000000E+00 0. -1.
</event>
<event>
 8    1  0.3541538E-009  0.1315006E+03  0.7561462E-02  0.1225246E+00
          1   -1    0    0  501    0  0.00000000000E+00  0.00000000000E+00  0.81116064988E+03  0.81116064988E+03  0.00000000000E+00 0. -1.
         -1   -1    0    0    0  501 -0.00000000000E+00 -0.00000000000E+00 -0.26435663329E+02  0.26435663329E+02  0.00000000000E+00 0.  1.
         25    2    1    2    0    0  0.57640895522E+02  0.77900494876E+02  0.39129052241E+03  0.42207727417E+03  0.12509993005E+03 0.  0.
         23    2    1    2    0    0 -0.57640895522E+02 -0.77900494876E+02  0.39343446414E+03  0.41551903904E+03  0.92056690670E+02 0.  0.
          5    1    3    3  502    0 -0.21953171075E+02  0.82794546236E+01  0.21604928471E+03  0.21735974079E+03  0.41800000000E+01 0.  1.
         -5    1    3    3    0  502  0.79594066597E+02  0.69621040252E+02  0.17524123770E+03  0.20471753338E+03  0.41800000000E+01 0.  1.
        -11    1    4    4    0    0 -0.69052486583E+02 -0.16644310972E+02  0.19515410315E+03  0.20767860498E+03  0.00000000000E+00 0. -1.
         11    1    4    4    0    0  0.11411591061E+02 -0.61256183904E+02  0.19828036099E+03  0.20784043406E+03  0.00000000000E+00 0.  1.
</event>
<event>
 8    1  0.3541538E-009  0.2415018E+03  0.7561462E-02  0.1118796E+00
          1   -1    0    0  501    0  0.00000000000E+00  0.00000000000E+00  0.54388729390E+03  0.54388729390E+03  0.00000000000E+00 0. -1.
         -1   -1    0    0    0  501 -0.00000000000E+00 -0.00000000000E+00 -0.15505347041E+03  0.15505347041E+03  0.00000000000E+00 0.  1.
         25    2    1    2    0    0 -0.95085223689E+02 -0.21210467917E+03  0.34869154431E+02  0.26625535913E+03  0.12508582512E+03 0.  0.
         23    2    1    2    0    0  0.95085223689E+02  0.21210467917E+03  0.35396466906E+03  0.43268540517E+03  0.88859879687E+02 0.  0.
          5    1    3    3  502    0 -0.23864202632E+02 -0.99056303931E+02  0.75110135950E+02  0.12665171313E+03  0.41800000000E+01 0.  1.
         -5    1    3    3    0  502 -0.71221021057E+02 -0.11304837524E+03 -0.40240981519E+02  0.13960364600E+03  0.41800000000E+01 0.  1.
        -11    1    4    4    0    0  0.52105738460E+02  0.19371598147E+03  0.26710662161E+03  0.33404615963E+03  0.00000000000E+00 0.  1.
         11    1    4    4    0    0  0.42979485229E+02  0.18388697693E+02  0.86858047451E+02  0.98639245538E+02  0.00000000000E+00 0. -1.
</event>
<event>
 8    1  0.3541538E-009  0.1248760E+03  0.7561462E-02  0.1235263E+00
          1   -1    0    0  501    0  0.00000000000E+00  0.00000000000E+00  0.30270997842E+03  0.30270997842E+03  0.00000000000E+00 0. -1.
         -1   -1    0    0    0  501 -0.00000000000E+00 -0.00000000000E+00 -0.80354427704E+02  0.80354427704E+02  0.00000000000E+00 0.  1.
         25    2    1    2    0    0  0.10295943354E+03 -0.45080298244E+01  0.66262921911E+02  0.17509688779E+03  0.12508868057E+03 0.  0.
         23    2    1    2    0    0 -0.10295943354E+03  0.45080298244E+01  0.15609262881E+03  0.20796751834E+03  0.90909914906E+02 0.  0.
          5    1    3    3  502    0  0.77324775656E+02  0.17867003126E+02 -0.20273530440E+02  0.82017310169E+02  0.41800000000E+01 0. -1.
         -5    1    3    3    0  502  0.25634657883E+02 -0.22375032951E+02  0.86536452351E+02  0.93079577619E+02  0.41800000000E+01 0. -1.
        -11    1    4    4    0    0 -0.33284694742E+02  0.44569903020E+02  0.78840295713E+02  0.96489063564E+02  0.00000000000E+00 0.  1.
         11    1    4    4    0    0 -0.69674738797E+02 -0.40061873196E+02  0.77252333093E+02  0.11147845477E+03  0.00000000000E+00 0. -1.
</event>
<event>
 8    1  0.3541538E-009  0.3072468E+03  0.7561462E-02  0.1081673E+00
         -2   -1    0    0    0  501 -0.00000000000E+00  0.00000000000E+00  0.80209184522E+02  0.80209184522E+02  0.00000000000E+00 0.  1.
          2   -1    0    0  501    0  0.00000000000E+00 -0.00000000000E+00 -0.12377373093E+04  0.12377373093E+04  0.00000000000E+00 0. -1.
         25    2    1    2    0    0 -0.14589909856E+03  0.25634940614E+03 -0.57654140953E+03  0.65958207563E+03  0.12508777956E+03 0.  0.
         23    2    1    2    0    0  0.14589909856E+03 -0.25634940614E+03 -0.58098671526E+03  0.65836441821E+03  0.94321677578E+02 0.  0.
          5    1    3    3  502    0 -0.13271315102E+03  0.11184838611E+03 -0.34669726531E+03  0.38773613206E+03  0.41800000000E+01 0.  1.
         -5    1    3    3    0  502 -0.13185947542E+02  0.14450102003E+03 -0.22984414422E+03  0.27184594357E+03  0.41800000000E+01 0.  1.
        -11    1    4    4    0    0  0.80860089383E+02 -0.12062933665E+03 -0.18808765438E+03  0.23762734827E+03  0.00000000000E+00 0.  1.
         11    1    4    4    0    0  0.65039009179E+02 -0.13572006949E+03 -0.39289906089E+03  0.42073706995E+03  0.00000000000E+00 0. -1.
</event>
<event>
 8    1  0.3541538E-009  0.1139564E+03  0.7561462E-02  0.1253414E+00
         -4   -1    0    0    0  501 -0.00000000000E+00  0.00000000000E+00  0.30916776321E+02  0.30916776321E+02  0.00000000000E+00 0. -1.
          4   -1    0    0  501    0  0.00000000000E+00 -0.00000000000E+00 -0.47341915932E+03  0.47341915932E+03  0.00000000000E+00 0.  1.
         25    2    1    2    0    0  0.40833858111E+02 -0.32891420277E+02 -0.23284289095E+03  0.26945784568E+03  0.12506985742E+03 0.  0.
         23    2    1    2    0    0 -0.40833858111E+02  0.32891420277E+02 -0.20965949205E+03  0.23487808996E+03  0.91985678470E+02 0.  0.
          5    1    3    3  502    0  0.74154922157E+02 -0.56501022991E+02 -0.17768328384E+03  0.20069912764E+03  0.41800000000E+01 0.  1.
         -5    1    3    3    0  502 -0.33321064046E+02  0.23609602713E+02 -0.55159607114E+02  0.68758718039E+02  0.41800000000E+01 0.  1.
        -11    1    4    4    0    0 -0.71807620348E+01 -0.25310872563E+02 -0.18290536391E+02  0.32042898352E+02  0.00000000000E+00 0. -1.
         11    1    4    4    0    0 -0.33653096076E+02  0.58202292841E+02 -0.19136895565E+03  0.20283519161E+03  0.00000000000E+00 0.  1.
</event>
<event>
 8    1  0.3541538E-009  0.1350210E+03  0.7561462E-02  0.1220190E+00
         -2   -1    0    0    0  501 -0.00000000000E+00  0.00000000000E+00  0.67547936734E+02  0.67547936734E+02  0.00000000000E+00 0.  1.
          2   -1    0    0  501    0  0.00000000000E+00 -0.00000000000E+00 -0.10968468347E+04  0.10968468347E+04  0.00000000000E+00 0. -1.
         25    2    1    2    0    0 -0.11173363073E+03 -0.47285522849E+01 -0.10027474962E+04  0.10166889906E+04  0.12508876508E+03 0.  0.
         23    2    1    2    0    0  0.11173363073E+03  0.47285522849E+01 -0.26551401785E+02  0.14770578079E+03  0.92764526083E+02 0.  0.
          5    1    3    3  502    0  0.74896846475E+01 -0.25192546093E+02 -0.45269669207E+03  0.45347825435E+03  0.41800000000E+01 0.  1.
         -5    1    3    3    0  502 -0.11922331538E+03  0.20463993808E+02 -0.55005080410E+03  0.56321073628E+03  0.41800000000E+01 0.  1.
        -11    1    4    4    0    0  0.81096760088E+02 -0.19409240455E+02  0.21209918805E+02  0.86042220842E+02  0.00000000000E+00 0.  1.
         11    1    4    4    0    0  0.30636870646E+02  0.24137792740E+02 -0.47761320590E+02  0.61663559951E+02  0.00000000000E+00 0. -1.
</event>
<event>
 8    1  0.3541538E-009  0.1172164E+03  0.7561462E-02  0.1247761E+00
         -2   -1    0    0    0  501 -0.00000000000E+00  0.00000000000E+00  0.22436430589E+03  0.22436430589E+03  0.00000000000E+00 0.  1.
          2   -1    0    0  501    0  0.00000000000E+00 -0.00000000000E+00 -0.64766642062E+02  0.64766642062E+02  0.00000000000E+00 0. -1.
         25    2    1    2    0    0  0.42073351407E+02 -0.29509841917E+02  0.79768444653E+02  0.15700869917E+03  0.12509088369E+03 0.  0.
         23    2    1    2    0    0 -0.42073351407E+02  0.29509841917E+02  0.79829219176E+02  0.13212224878E+03  0.91883549784E+02 0.  0.
          5    1    3    3  502    0  0.63180539108E+02  0.30852274351E+02  0.33677363605E+02  0.78072277884E+02  0.41800000000E+01 0.  1.
         -5    1    3    3    0  502 -0.21107187700E+02 -0.60362116268E+02  0.46091081047E+02  0.78936421284E+02  0.41800000000E+01 0.  1.
        -11    1    4    4    0    0 -0.34249064864E+01  0.54034047041E+02  0.63676907194E+02  0.83583232373E+02  0.00000000000E+00 0.  1.
         11    1    4    4    0    0 -0.38648444921E+02 -0.24524205124E+02  0.16152311982E+02  0.48539016411E+02  0.00000000000E+00 0. -1.
</event>
<event>
 8    1  0.3541538E-009  0.5416257E+02  0.7561462E-02  0.1424101E+00
         -2   -1    0    0    0  501 -0.00000000000E+00  0.00000000000E+00  0.36834068713E+02  0.36834068713E+02  0.00000000000E+00 0.  1.
          2   -1    0    0  501    0  0.00000000000E+00 -0.00000000000E+00 -0.36061334203E+03  0.36061334203E+03  0.00000000000E+00 0. -1.
         25    2    1    2    0    0 -0.54472612538E+01 -0.11895596193E+02 -0.12056224661E+03  0.17422295997E+03  0.12508879490E+03 0.  0.
         23    2    1    2    0    0  0.54472612538E+01  0.11895596193E+02 -0.20321702671E+03  0.22322445078E+03  0.91437506616E+02 0.  0.
          5    1    3    3  502    0  0.15716177193E+02 -0.74528534537E+01  0.22911743674E+02  0.29068258433E+02  0.41800000000E+01 0. -1.
         -5    1    3    3    0  502 -0.21163438447E+02 -0.44427427394E+01 -0.14347399028E+03  0.14515470153E+03  0.41800000000E+01 0. -1.
        -11    1    4    4    0    0  0.50545252601E+01 -0.28030770923E+02 -0.17867994155E+02  0.33623467389E+02  0.00000000000E+00 0.  1.
         11    1    4    4    0    0  0.39273599363E+00  0.39926367116E+02 -0.18534903255E+03  0.18960098339E+03  0.00000000000E+00 0. -1.
</event>
<event>
 8    1  0.3541538E-009  0.1255227E+03  0.7561462E-02  0.1234255E+00
         -1   -1    0    0    0  501 -0.00000000000E+00  0.00000000000E+00  0.18290671424E+03  0.18290671424E+03  0.00000000000E+00 0.  1.
          1   -1    0    0  501    0  0.00000000000E+00 -0.00000000000E+00 -0.12938435387E+03  0.12938435387E+03  0.00000000000E+00 0. -1.
         25    2    1    2    0    0 -0.81396458502E+02  0.68351548565E+02  0.35858635828E+02  0.16802086685E+03  0.12509137575E+03 0.  0.
         23    2    1    2    0    0  0.81396458502E+02 -0.68351548565E+02  0.17663724541E+02  0.14427020125E+03  0.95940430247E+02 0.  0.
          5    1    3    3  502    0 -0.38828389154E+02  0.73579121757E+02 -0.30660475953E+02  0.88764115207E+02  0.41800000000E+01 0. -1.
         -5    1    3    3    0  502 -0.42568069348E+02 -0.52275731921E+01  0.66519111781E+02  0.79256751647E+02  0.41800000000E+01 0. -1.
        -11    1    4    4    0    0 -0.69681562761E-01  0.10957747485E+02  0.28037003730E+02  0.30102336514E+02  0.00000000000E+00 0.  1.
         11    1    4    4    0    0  0.81466140065E+02 -0.79309296049E+02 -0.10373279190E+02  0.11416786473E+03  0.00000000000E+00 0. -1.
</event>
<event>
 8    1  0.3541538E-009  0.1511710E+03  0.7561462E-02  0.1199041E+00
          2   -1    0    0  501    0  0.00000000000E+00  0.00000000000E+00  0.69782343332E+03  0.69782343332E+03  0.00000000000E+00 0. -1.
         -2   -1    0    0    0  501 -0.00000000000E+00 -0.00000000000E+00 -0.59146110510E+02  0.59146110510E+02  0.00000000000E+00 0.  1.
         25    2    1    2    0    0 -0.12350269587E+03  0.85298872666E+02  0.17895210950E+03  0.26495421746E+03  0.12509223113E+03 0.  0.
         23    2    1    2    0    0  0.12350269587E+03 -0.85298872666E+02  0.45972521331E+03  0.49201532637E+03  0.90570392880E+02 0.  0.
          5    1    3    3  502    0 -0.86832270172E+02  0.69751873123E+02  0.36964469256E+02  0.11742662106E+03  0.41800000000E+01 0.  1.
         -5    1    3    3    0  502 -0.36670425698E+02  0.15546999543E+02  0.14198764025E+03  0.14752759640E+03  0.41800000000E+01 0.  1.
        -11    1    4    4    0    0  0.48679187535E+02 -0.42597984292E+02  0.81228587884E+02  0.10383802316E+03  0.00000000000E+00 0.  1.
         11    1    4    4    0    0  0.74823508335E+02 -0.42700888374E+02  0.37849662542E+03  0.38817730320E+03  0.00000000000E+00 0. -1.
</event>
<event>
 8    1  0.3541538E-009  0.1066855E+03  0.7561462E-02  0.1266834E+00
          1   -1    0    0  501    0  0.00000000000E+00  0.00000000000E+00  0.93117786834E+03  0.93117786834E+03  0.00000000000E+00 0. -1.
         -1   -1    0    0    0  501 -0.00000000000E+00 -0.00000000000E+00 -0.13965261674E+02  0.13965261674E+02  0.00000000000E+00 0.  1.
         25    2    1    2    0    0  0.23043621693E+01  0.11703484229E+02  0.66558999418E+03  0.67734743865E+03  0.12508889104E+03 0.  0.
         23    2    1    2    0    0 -0.23043621693E+01 -0.11703484229E+02  0.25162261248E+03  0.26779569136E+03  0.90875252801E+02 0.  0.
          5    1    3    3  502    0 -0.52814325523E+02  0.33183168150E+02  0.25798740247E+03  0.26545328754E+03  0.41800000000E+01 0. -1.
         -5    1    3    3    0  502  0.55118687692E+02 -0.21479683920E+02  0.40760259171E+03  0.41189415111E+03  0.41800000000E+01 0. -1.
        -11    1    4    4    0    0 -0.40800631944E+02 -0.28276864546E+02  0.13014658920E+03  0.13929252426E+03  0.00000000000E+00 0.  1.
         11    1    4    4    0    0  0.38496269774E+02  0.16573380317E+02  0.12147602328E+03  0.12850316710E+03  0.00000000000E+00 0. -1.
</event>
<event>
 8    1  0.3541538E-009  0.1570933E+03  0.7561462E-02  0.1192018E+00
         -1   -1    0    0    0  501 -0.00000000000E+00  0.00000000000E+00  0.20307397733E+02  0.20307397733E+02  0.00000000000E+00 0.  1.
          1   -1    0    0  501    0  0.00000000000E+00 -0.00000000000E+00 -0.13411179502E+04  0.13411179502E+04  0.00000000000E+00 0. -1.
         25    2    1    2    0    0  0.11630226766E+03  0.41396703722E+02 -0.72618321498E+03  0.74714878470E+03  0.12509732299E+03 0.  0.
         23    2    1    2    0    0 -0.11630226766E+03 -0.41396703722E+02 -0.59462733745E+03  0.61427656320E+03  0.92271995245E+02 0.  0.
          5    1    3    3  502    0  0.78510719569E+02 -0.29470069456E+02 -0.23779186899E+03  0.25218022016E+03  0.41800000000E+01 0.  1.
         -5    1    3    3    0  502  0.37791548093E+02  0.70866773178E+02 -0.48839134599E+03  0.49496856454E+03  0.41800000000E+01 0.  1.
        -11    1    4    4    0    0 -0.44257821277E+02  0.25845167644E+02 -0.13988534910E+03  0.14897865058E+03  0.00000000000E+00 0. -1.
         11    1    4    4    0    0 -0.72044446386E+02 -0.67241871365E+02 -0.45474198835E+03  0.46529791262E+03  0.00000000000E+00 0.  1.
</event>
<event>
 8    1  0.3541538E-009  0.1330996E+03  0.7561462E-02  0.1222928E+00
         -1   -1    0    0    0  501 -0.00000000000E+00  0.00000000000E+00  0.76993622872E+02  0.76993622872E+02  0.00000000000E+00 0. -1.
          1   -1    0    0  501    0  0.00000000000E+00 -0.00000000000E+00 -0.28501058722E+03  0.28501058722E+03  0.00000000000E+00 0.  1.
         25    2    1    2    0    0 -0.70652305901E+02  0.71025926024E+02 -0.13044637623E+03  0.20664107768E+03  0.12509135627E+03 0.  0.
         23    2    1    2    0    0  0.70652305901E+02 -0.71025926024E+02 -0.77570588116E+02  0.15536313242E+03  0.89911491355E+02 0.  0.
          5    1    3    3  502    0  0.35252190130E+02  0.67346340385E+01 -0.25551658877E+02  0.44254173543E+02  0.41800000000E+01 0. -1.
         -5    1    3    3    0  502 -0.10590449603E+03  0.64291291985E+02 -0.10489471736E+03  0.16238690413E+03  0.41800000000E+01 0. -1.
        -11    1    4    4    0    0  0.29767285219E+02 -0.54313572702E+02 -0.90206442981E+02  0.10942238256E+03  0.00000000000E+00 0.  1.
         11    1    4    4    0    0  0.40885020682E+02 -0.16712353322E+02  0.12635854865E+02  0.45940749862E+02  0.00000000000E+00 0. -1.
</event>
<event>
 8    1  0.3541538E-009  0.6431686E+02  0.7561462E-02  0.1380560E+00
         -2   -1    0    0    0  501 -0.00000000000E+00  0.00000000000E+00  0.14652778574E+03  0.14652778574E+03  0.00000000000E+00 0.  1.
          2   -1    0    0  501    0  0.00000000000E+00 -0.00000000000E+00 -0.90926949019E+02  0.90926949019E+02  0.00000000000E+00 0. -1.
         25    2    1    2    0    0  0.75429375550E+01 -0.19317741157E+02 -0.40163724466E+01  0.12685972882E+03  0.12508872259E+03 0.  0.
         23    2    1    2    0    0 -0.75429375550E+01  0.19317741157E+02  0.59617209164E+02  0.11059500594E+03  0.90812844240E+02 0.  0.
          5    1    3    3  502    0  0.49891440449E+01  0.81613950282E+01  0.57957546926E+02  0.58890148351E+02  0.41800000000E+01 0.  1.
         -5    1    3    3    0  502  0.25537935101E+01 -0.27479136186E+02 -0.61973919372E+02  0.67969580469E+02  0.41800000000E+01 0.  1.
        -11    1    4    4    0    0 -0.15808287210E+02 -0.33383359564E+02  0.38123164070E+02  0.53082259551E+02  0.00000000000E+00 0.  1.
         11    1    4    4    0    0  0.82653496546E+01  0.52701100722E+02  0.21494045094E+02  0.57512746385E+02  0.00000000000E+00 0. -1.
</event>
<event>
 8    1  0.3541538E-009  0.1057117E+03  0.7561462E-02  0.1268724E+00
          1   -1    0    0  501    0  0.00000000000E+00  0.00000000000E+00  0.72544091790E+02  0.72544091790E+02  0.00000000000E+00 0. -1.
         -1   -1    0    0    0  501 -0.00000000000E+00 -0.00000000000E+00 -0.18513922715E+03  0.18513922715E+03  0.00000000000E+00 0.  1.
         25    2    1    2    0    0  0.35874647983E+02 -0.14745979962E+02 -0.51159809086E+02  0.14060508420E+03  0.12509208346E+03 0.  0.
         23    2    1    2    0    0 -0.35874647983E+02  0.14745979962E+02 -0.61435326278E+02  0.11707823475E+03  0.91807295153E+02 0.  0.
          5    1    3    3  502    0  0.46054241396E+02  0.41625651717E+02 -0.54997316943E+02  0.83041346944E+02  0.41800000000E+01 0. -1.
         -5    1    3    3    0  502 -0.10179593413E+02 -0.56371631678E+02  0.38375078567E+01  0.57563737254E+02  0.41800000000E+01 0. -1.
        -11    1    4    4    0    0 -0.27516626861E+02  0.49169459413E+02 -0.14328725900E+02  0.58138738194E+02  0.00000000000E+00 0. -1.
         11    1    4    4    0    0 -0.83580211216E+01 -0.34423479452E+02 -0.47106600377E+02  0.58939496551E+02  0.00000000000E+00 0.  1.
</event>
<event>
 8    1  0.3541538E-009  0.1245340E+03  0.7561462E-02  0.1235799E+00
          2   -1    0    0  501    0  0.00000000000E+00  0.00000000000E+00  0.68324028499E+03  0.68324028499E+03  0.00000000000E+00 0. -1.
         -2   -1    0    0    0  501 -0.00000000000E+00 -0.00000000000E+00 -0.28050492379E+02  0.28050492379E+02  0.00000000000E+00 0.  1.
         25    2    1    2    0    0  0.72053260488E+02 -0.45156123468E+02  0.31851490585E+03  0.35260471198E+03  0.12509032669E+03 0.  0.
         23    2    1    2    0    0 -0.72053260488E+02  0.45156123468E+02  0.33667488676E+03  0.35868606539E+03  0.89860816221E+02 0.  0.
          5    1    3    3  502    0  0.10308890776E+03 -0.53517614872E+02  0.21880891531E+03  0.24776253111E+03  0.41800000000E+01 0. -1.
         -5    1    3    3    0  502 -0.31035647273E+02  0.83614914040E+01  0.99705990539E+02  0.10484218087E+03  0.41800000000E+01 0. -1.
        -11    1    4    4    0    0 -0.21992865412E+02 -0.11504205356E+02  0.16737137211E+02  0.29936008951E+02  0.00000000000E+00 0.  1.
         11    1    4    4    0    0 -0.50060395076E+02  0.56660328824E+02  0.31993774955E+03  0.32875005643E+03  0.00000000000E+00 0. -1.
</event>
<event>
 8    1  0.3541538E-009  0.1120017E+03  0.7561462E-02  0.1256907E+00
         -2   -1    0    0    0  501 -0.00000000000E+00  0.00000000000E+00  0.54100411706E+02  0.54100411706E+02  0.00000000000E+00 0.  1.
          2   -1    0    0  501    0  0.00000000000E+00 -0.00000000000E+00 -0.37709729856E+03  0.37709729856E+03  0.00000000000E+00 0. -1.
         25    2    1    2    0    0 -0.53453730192E+02 -0.88438483617E+01 -0.61751145763E+02  0.14965242569E+03  0.12508848702E+03 0.  0.
         23    2    1    2    0    0  0.53453730192E+02  0.88438483617E+01 -0.26124574110E+03  0.28154528459E+03  0.89904922593E+02 0.  0.
          5    1    3    3  502    0  0.40974960191E+02 -0.69222853025E+01 -0.17999750398E+02  0.45478883131E+02  0.41800000000E+01 0. -1.
         -5    1    3    3    0  502 -0.94428690383E+02 -0.19215630592E+01 -0.43751395365E+02  0.10417354255E+03  0.41800000000E+01 0. -1.
        -11    1    4    4    0    0  0.34110791065E+02  0.39036492870E+02 -0.70780198917E+02  0.87733861202E+02  0.00000000000E+00 0.  1.
         11    1    4    4    0    0  0.19342939127E+02 -0.30192644509E+02 -0.19046554218E+03  0.19381142338E+03  0.00000000000E+00 0. -1.
</event>
<event>
 8    1  0.3541538E-009  0.8397995E+02  0.7561462E-02  0.1318122E+00
         -4   -1    0    0    0  501 -0.00000000000E+00  0.00000000000E+00  0.24749653741E+03  0.24749653741E+03  0.00000000000E+00 0.  1.
          4   -1    0    0  501    0  0.00000000000E+00 -0.00000000000E+00 -0.67027615575E+02  0.67027615575E+02  0.00000000000E+00 0. -1.
         25    2    1    2    0    0  0.10584293395E+02  0.17996028808E+02  0.18108527896E+03  0.22107800422E+03  0.12509085248E+03 0.  0.
         23    2    1    2    0    0 -0.10584293395E+02 -0.17996028808E+02 -0.61635712228E+00  0.93446148769E+02  0.91081932918E+02 0.  0.
          5    1    3    3  502    0 -0.50098772651E+02  0.67753572830E+01  0.13418756759E+03  0.14345580568E+03  0.41800000000E+01 0.  1.
         -5    1    3    3    0  502  0.60683066046E+02  0.11220671525E+02  0.46897711366E+02  0.77622198536E+02  0.41800000000E+01 0.  1.
        -11    1    4    4    0    0 -0.57168253954E+01 -0.36142313628E+02  0.36601289522E+02  0.51755225066E+02  0.00000000000E+00 0.  1.
         11    1    4    4    0    0 -0.48674679999E+01  0.18146284820E+02 -0.37217646644E+02  0.41690923703E+02  0.00000000000E+00 0. -1.
</event>
<event>
 8    1  0.3541538E-009  0.2544901E+03  0.7561462E-02  0.1110500E+00
          2   -1    0    0  501    0  0.00000000000E+00  0.00000000000E+00  0.16705217259E+03  0.16705217259E+03  0.00000000000E+00 0. -1.
         -2   -1    0    0    0  501 -0.00000000000E+00 -0.00000000000E+00 -0.60458923076E+03  0.60458923076E+03  0.00000000000E+00 0.  1.
         25    2    1    2    0    0 -0.24959681327E+03  0.28051030746E+01 -0.41844682891E+03  0.50304270375E+03  0.12509106835E+03 0.  0.
         23    2    1    2    0    0  0.24959681327E+03 -0.28051030746E+01 -0.19090229260E+02  0.26859869960E+03  0.97336461697E+02 0.  0.
          5    1    3    3  502    0 -0.92997922701E+02  0.33267093018E+02 -0.74209575720E+02  0.12361167677E+03  0.41800000000E+01 0. -1.
         -5    1    3    3    0  502 -0.15659889056E+03 -0.30461989943E+02 -0.34423725319E+03  0.37943102699E+03  0.41800000000E+01 0. -1.
        -11    1    4    4    0    0  0.14868494382E+03 -0.12206007533E+02 -0.57964338015E+02  0.16005019094E+03  0.00000000000E+00 0.  1.
         11    1    4    4    0    0  0.10091186944E+03  0.94009044582E+01  0.38874108755E+02  0.10854850865E+03  0.00000000000E+00 0. -1.
</event>
<event>
 8    1  0.3541538E-009  0.7816276E+02  0.7561462E-02  0.1334348E+00
          3   -1    0    0  501    0  0.00000000000E+00  0.00000000000E+00  0.35997315842E+02  0.35997315842E+02  0.00000000000E+00 0. -1.
         -3   -1    0    0    0  501 -0.00000000000E+00 -0.00000000000E+00 -0.35654329589E+03  0.35654329589E+03  0.00000000000E+00 0.  1.
         25    2    1    2    0    0  0.16639837058E+02  0.42664235550E+01 -0.13375563076E+03  0.18393631854E+03  0.12508762516E+03 0.  0.
         23    2    1    2    0    0 -0.16639837058E+02 -0.42664235550E+01 -0.18679034928E+03  0.20860429319E+03  0.91268998054E+02 0.  0.
          5    1    3    3  502    0 -0.35462279796E+02  0.22290361777E+02 -0.32707806307E+01  0.42220894382E+02  0.41800000000E+01 0.  1.
         -5    1    3    3    0  502  0.52102116854E+02 -0.18023938222E+02 -0.13048485013E+03  0.14171542416E+03  0.41800000000E+01 0.  1.
        -11    1    4    4    0    0 -0.14153607049E+00  0.25184258858E+02 -0.76641286349E+01  0.26325003218E+02  0.00000000000E+00 0. -1.
         11    1    4    4    0    0 -0.16498300988E+02 -0.29450682413E+02 -0.17912622065E+03  0.18227928997E+03  0.00000000000E+00 0.  1.
</event>
<event>
 8    1  0.3541538E-009  0.1698152E+03  0.7561462E-02  0.1178041E+00
         -1   -1    0    0    0  501 -0.00000000000E+00  0.00000000000E+00  0.37924350135E+03  0.37924350135E+03  0.00000000000E+00 0.  1.
          1   -1    0    0  501    0  0.00000000000E+00 -0.00000000000E+00 -0.10462713381E+03  0.10462713381E+03  0.00000000000E+00 0. -1.
         25    2    1    2    0    0 -0.15907798866E+03 -0.22080733496E+02  0.20028084215E+03  0.28557533302E+03  0.12508992697E+03 0.  0.
         23    2    1    2    0    0  0.15907798866E+03  0.22080733496E+02  0.74335525383E+02  0.19829530214E+03  0.89453290875E+02 0.  0.
          5    1    3    3  502    0 -0.15751319446E+03 -0.34297711424E+02  0.11198929833E+03  0.19633088086E+03  0.41800000000E+01 0.  1.
         -5    1    3    3    0  502 -0.15647941942E+01  0.12216977928E+02  0.88291543827E+02  0.89244452163E+02  0.41800000000E+01 0.  1.
        -11    1    4    4    0    0  0.12477538158E+03  0.33531096631E+02  0.16732278448E+02  0.13028123208E+03  0.00000000000E+00 0.  1.
         11    1    4    4    0    0  0.34302607075E+02 -0.11450363134E+02  0.57603246935E+02  0.68014070056E+02  0.00000000000E+00 0. -1.
</event>
<event>
 8    1  0.3541538E-009  0.2056977E+03  0.7561462E-02  0.1145019E+00
         -2   -1    0    0    0  501 -0.00000000000E+00  0.00000000000E+00  0.43677926364E+02  0.43677926364E+02  0.00000000000E+00 0.  1.
          2   -1    0    0  501    0  0.00000000000E+00 -0.00000000000E+00 -0.11790433556E+04  0.11790433556E+04  0.00000000000E+00 0. -1.
         25    2    1    2    0    0  0.11769040897E+03 -0.14797136230E+03 -0.42313911574E+03  0.48004208993E+03  0.12508853028E+03 0.  0.
         23    2    1    2    0    0 -0.11769040897E+03  0.14797136230E+03 -0.71222631347E+03  0.74267919201E+03  0.92517588709E+02 0.  0.
          5    1    3    3  502    0  0.52500330316E+02  0.72020649859E+01 -0.15045883853E+03  0.15957283263E+03  0.41800000000E+01 0.  1.
         -5    1    3    3    0  502  0.65190078656E+02 -0.15517342728E+03 -0.27268027721E+03  0.32046925729E+03  0.41800000000E+01 0.  1.
        -11    1    4    4    0    0 -0.57105832769E+02  0.57886851651E+02 -0.47344946701E+03  0.48038147502E+03  0.00000000000E+00 0. -1.
         11    1    4    4    0    0 -0.60584576204E+02  0.90084510648E+02 -0.23877684645E+03  0.26229771698E+03  0.00000000000E+00 0.  1.
</event>
<event>
 8    1  0.3541538E-009  0.1321439E+03  0.7561462E-02  0.1224309E+00
         -3   -1    0    0    0  501 -0.00000000000E+00  0.00000000000E+00  0.15235942798E+03  0.15235942798E+03  0.00000000000E+00 0.  1.
          3   -1    0    0  501    0  0.00000000000E+00 -0.00000000000E+00 -0.21388941172E+03  0.21388941172E+03  0.00000000000E+00 0. -1.
         25    2    1    2    0    0 -0.89200939347E+02 -0.50084371303E+02 -0.13513158465E+03  0.21064619385E+03  0.12508405966E+03 0.  0.
         23    2    1    2    0    0  0.89200939347E+02  0.50084371303E+02  0.73601600910E+02  0.15560264586E+03  0.91267386904E+02 0.  0.
          5    1    3    3  502    0 -0.12062034824E+03 -0.45193886810E+02 -0.11539074922E+03  0.17298628044E+03  0.41800000000E+01 0. -1.
         -5    1    3    3    0  502  0.31419408898E+02 -0.48904844925E+01 -0.19740835433E+02  0.37659913405E+02  0.41800000000E+01 0. -1.
        -11    1    4    4    0    0  0.65682357269E+01  0.87625983826E+01  0.61450209832E+02  0.62418371809E+02  0.00000000000E+00 0.  1.
         11    1    4    4    0    0  0.82632703620E+02  0.41321772920E+02  0.12151391079E+02  0.93184274049E+02  0.00000000000E+00 0. -1.
</event>
<event>
 8    1  0.3541538E-009  0.1175444E+03  0.7561462E-02  0.1247204E+00
          2   -1    0    0  501    0  0.00000000000E+00  0.00000000000E+00  0.22142136425E+03  0.22142136425E+03  0.00000000000E+00 0. -1.
         -2   -1    0    0    0  501 -0.00000000000E+00 -0.00000000000E+00 -0.77360207584E+02  0.77360207584E+02  0.00000000000E+00 0.  1.
         25    2    1    2    0    0  0.34635750023E+02 -0.61163281033E+02  0.50609999855E+02  0.15214976232E+03  0.12509035120E+03 0.  0.
         23    2    1    2    0    0 -0.34635750023E+02  0.61163281033E+02  0.93451156807E+02  0.14663180951E+03  0.88471389304E+02 0.  0.
          5    1    3    3  502    0  0.32557381791E+02 -0.98902598929E+02  0.27979104136E+02  0.10789814573E+03  0.41800000000E+01 0.  1.
         -5    1    3    3    0  502  0.20783682313E+01  0.37739317895E+02  0.22630895719E+02  0.44251616589E+02  0.41800000000E+01 0.  1.
        -11    1    4    4    0    0 -0.37181835856E+01  0.61818189589E+02  0.17087386225E+02  0.64244005333E+02  0.00000000000E+00 0.  1.
         11    1    4    4    0    0 -0.30917566437E+02 -0.65490855574E+00  0.76363770582E+02  0.82387804177E+02  0.00000000000E+00 0. -1.
</event>
<event>
 8    1  0.3541538E-009  0.1128822E+03  0.7561462E-02  0.1255324E+00
          1   -1    0    0  501    0  0.00000000000E+00  0.00000000000E+00  0.16293473504E+02  0.16293473504E+02  0.00000000000E+00 0. -1.
         -1   -1    0    0    0  501 -0.00000000000E+00 -0.00000000000E+00 -0.13877272338E+04  0.13877272338E+04  0.00000000000E+00 0.  1.
         25    2    1    2    0    0 -0.60456056908E+02  0.66009402829E+01 -0.11256141076E+04  0.11341749405E+04  0.12508864546E+03 0.  0.
         23    2    1    2    0    0  0.60456056908E+02 -0.66009402829E+01 -0.24581965271E+03  0.26984576681E+03  0.93225152060E+02 0.  0.
          5    1    3    3  502    0  0.26132572046E+02  0.19689825341E+02 -0.11146625512E+03  0.11624456535E+03  0.41800000000E+01 0.  1.
         -5    1    3    3    0  502 -0.86588628953E+02 -0.13088885058E+02 -0.10141478525E+04  0.10179303752E+04  0.41800000000E+01 0.  1.
        -11    1    4    4    0    0 -0.11983810350E+01  0.32223822624E+02 -0.39215941009E+02  0.50771063519E+02  0.00000000000E+00 0. -1.
         11    1    4    4    0    0  0.61654437943E+02 -0.38824762907E+02 -0.20660371170E+03  0.21907470329E+03  0.00000000000E+00 0.  1.
</event>
<event>
 8    1  0.3541538E-009  0.9045527E+02  0.7561462E-02  0.1301753E+00
          2   -1    0    0  501    0  0.00000000000E+00  0.00000000000E+00  0.33265111543E+03  0.33265111543E+03  0.00000000000E+00 0. -1.
         -2   -1    0    0    0  501 -0.00000000000E+00 -0.00000000000E+00 -0.53980677311E+02  0.53980677311E+02  0.00000000000E+00 0.  1.
         25    2    1    2    0    0 -0.43762949187E+02  0.42739048690E+02  0.85050434987E+02  0.16316636755E+03  0.12509142658E+03 0.  0.
         23    2    1    2    0    0  0.43762949187E+02 -0.42739048690E+02  0.19362000313E+03  0.22346542519E+03  0.93307387904E+02 0.  0.
          5    1    3    3  502    0 -0.41036050904E+02 -0.44795347141E+01  0.10405548854E+03  0.11202250132E+03  0.41800000000E+01 0.  1.
         -5    1    3    3    0  502 -0.27268982821E+01  0.47218583405E+02 -0.19005053557E+02  0.51143866237E+02  0.41800000000E+01 0.  1.
        -11    1    4    4    0    0  0.62378712593E+02 -0.36665679705E+02  0.19031676182E+03  0.20360733210E+03  0.00000000000E+00 0. -1.
         11    1    4    4    0    0 -0.18615763407E+02 -0.60733689853E+01  0.33032413081E+01  0.19858093090E+02  0.00000000000E+00 0.  1.
</event>
<event>
 8    1  0.3541538E-009  0.1393356E+03  0.7561462E-02  0.1214226E+00
         -2   -1    0    0    0  501 -0.00000000000E+00  0.00000000000E+00  0.49130734606E+02  0.49130734606E+02  0.00000000000E+00 0.  1.
          2   -1    0    0  501    0  0.00000000000E+00 -0.00000000000E+00 -0.41123455229E+03  0.41123455229E+03  0.00000000000E+00 0. -1.
         25    2    1    2    0    0  0.72982617035E+02 -0.49369749833E+02 -0.21886414891E+03  0.26704719378E+03  0.12509537738E+03 0.  0.
         23    2    1    2    0    0 -0.72982617035E+02  0.49369749833E+02 -0.14323966878E+03  0.19331809312E+03  0.95343840001E+02 0.  0.
          5    1    3    3  502    0  0.10330328627E+03 -0.60694340030E+02 -0.16286233132E+03  0.20223002554E+03  0.41800000000E+01 0.  1.
         -5    1    3    3    0  502 -0.30320669237E+02  0.11324590197E+02 -0.56001817592E+02  0.64817168248E+02  0.41800000000E+01 0.  1.
        -11    1    4    4    0    0 -0.74343705692E+02  0.71990612420E+02 -0.13281657563E+03  0.16837421897E+03  0.00000000000E+00 0.  1.
         11    1    4    4    0    0  0.13610886572E+01 -0.22620862587E+02 -0.10423093152E+02  0.24943874145E+02  0.00000000000E+00 0. -1.
</event>
<event>
 8    1  0.3541538E-009  0.1481596E+03  0.7561462E-02  0.1202753E+00
         -2   -1    0    0    0  501 -0.00000000000E+00  0.00000000000E+00  0.89989470798E+02  0.89989470798E+02  0.00000000000E+00 0.  1.
          2   -1    0    0  501    0  0.00000000000E+00 -0.00000000000E+00 -0.30543396786E+03  0.30543396786E+03  0.00000000000E+00 0. -1.
         25    2    1    2    0    0  0.11749363474E+03 -0.20551474158E+02 -0.70958668229E+02  0.18684559792E+03  0.12509607336E+03 0.  0.
         23    2    1    2    0    0 -0.11749363474E+03  0.20551474158E+02 -0.14448582883E+03  0.20857784074E+03  0.91659389144E+02 0.  0.
          5    1    3    3  502    0  0.76620444228E+02 -0.54945435126E+02 -0.89578047177E+02  0.13012068341E+03  0.41800000000E+01 0. -1.
         -5    1    3    3    0  502  0.40873190514E+02  0.34393960968E+02  0.18619378948E+02  0.56724914511E+02  0.41800000000E+01 0. -1.
        -11    1    4    4    0    0 -0.11971366361E+03 -0.77563611814E+01 -0.12928869584E+03  0.17637201951E+03  0.00000000000E+00 0.  1.
         11    1    4    4    0    0  0.22200288697E+01  0.28307835339E+02 -0.15197132997E+02  0.32205821230E+02  0.00000000000E+00 0. -1.
</event>
<event>
 8    1  0.3541538E-009  0.1407719E+03  0.7561462E-02  0.1212294E+00
         -1   -1    0    0    0  501 -0.00000000000E+00  0.00000000000E+00  0.28382430774E+02  0.28382430774E+02  0.00000000000E+00 0.  1.
          1   -1    0    0  501    0  0.00000000000E+00 -0.00000000000E+00 -0.74118181512E+03  0.74118181512E+03  0.00000000000E+00 0. -1.
         25    2    1    2    0    0 -0.91276029285E+02 -0.28772188476E+02 -0.42183923582E+03  0.45028315965E+03  0.12508969034E+03 0.  0.
         23    2    1    2    0    0  0.91276029285E+02  0.28772188476E+02 -0.29096014853E+03  0.31928108625E+03  0.90130192803E+02 0.  0.
          5    1    3    3  502    0 -0.10860393557E+03 -0.57761278127E+02 -0.34294202110E+03  0.36435955087E+03  0.41800000000E+01 0.  1.
         -5    1    3    3    0  502  0.17327906281E+02  0.28989089651E+02 -0.78897214722E+02  0.85923608780E+02  0.41800000000E+01 0.  1.
        -11    1    4    4    0    0 -0.12342605030E+02 -0.77411436050E+01 -0.10183318023E+02  0.17775409115E+02  0.00000000000E+00 0. -1.
         11    1    4    4    0    0  0.10361863432E+03  0.36513332081E+02 -0.28077683050E+03  0.30150567713E+03  0.00000000000E+00 0.  1.
</event>
<event>
 8    1  0.3541538E-009  0.1546247E+03  0.7561462E-02  0.1194903E+00
         -1   -1    0    0    0  501 -0.00000000000E+00  0.00000000000E+00  0.37990414744E+02  0.37990414744E+02  0.00000000000E+00 0.  1.
          1   -1    0    0  501    0  0.00000000000E+00 -0.00000000000E+00 -0.87560403515E+03  0.87560403515E+03  0.00000000000E+00 0. -1.
         25    2    1    2    0    0 -0.57178175608E+02  0.10196178727E+03 -0.66002011615E+03  0.68186501768E+03  0.12509116188E+03 0.  0.
         23    2    1    2    0    0  0.57178175608E+02 -0.10196178727E+03 -0.17759350425E+03  0.23172943221E+03  0.92160334046E+02 0.  0.
          5    1    3    3  502    0 -0.26444045006E+00  0.10778790706E+03 -0.50929376238E+03  0.52059188587E+03  0.41800000000E+01 0.  1.
         -5    1    3    3    0  502 -0.56913735158E+02 -0.58261197882E+01 -0.15072635377E+03  0.16127313181E+03  0.41800000000E+01 0.  1.
        -11    1    4    4    0    0  0.39117629063E+02  0.13470257439E+01 -0.77161131026E+02  0.86520769316E+02  0.00000000000E+00 0. -1.
         11    1    4    4    0    0  0.18060546545E+02 -0.10330881302E+03 -0.10043237323E+03  0.14520866290E+03  0.00000000000E+00 0.  1.
</event>
<event>
 8    1  0.3541538E-009  0.1205796E+03  0.7561462E-02  0.1242144E+00
          2   -1    0    0  501    0  0.00000000000E+00  0.00000000000E+00  0.18119582833E+03  0.18119582833E+03  0.00000000000E+00 0. -1.
         -2   -1    0    0    0  501 -0.00000000000E+00 -0.00000000000E+00 -0.88088409638E+02  0.88088409638E+02  0.00000000000E+00 0.  1.
         25    2    1    2    0    0  0.34867164119E+01 -0.65062310514E+02  0.47527893092E+02  0.14883544305E+03  0.12509127486E+03 0.  0.
         23    2    1    2    0    0 -0.34867164119E+01  0.65062310514E+02  0.45579525603E+02  0.12044879492E+03  0.90471860836E+02 0.  0.
          5    1    3    3  502    0 -0.35004734589E+02 -0.88242923635E+02  0.24302013998E+02  0.98082645252E+02  0.41800000000E+01 0.  1.
         -5    1    3    3    0  502  0.38491451001E+02  0.23180613121E+02  0.23225879094E+02  0.50752797800E+02  0.41800000000E+01 0.  1.
        -11    1    4    4    0    0  0.28195418738E+02  0.63278594932E+02  0.57359382303E+01  0.69513043393E+02  0.00000000000E+00 0.  1.
         11    1    4    4    0    0 -0.31682135150E+02  0.17837155812E+01  0.39843587373E+02  0.50935751528E+02  0.00000000000E+00 0. -1.
</event>
<event>
 8    1  0.3541538E-009  0.8429670E+02  0.7561462E-02  0.1317282E+00
         -3   -1    0    0    0  501 -0.00000000000E+00  0.00000000000E+00  0.23325344132E+03  0.23325344132E+03  0.00000000000E+00 0. -1.
          3   -1    0    0  501    0  0.00000000000E+00 -0.00000000000E+00 -0.60005405661E+02  0.60005405661E+02  0.00000000000E+00 0.  1.
         25    2    1    2    0    0  0.38141359639E+02 -0.91212541730E+01  0.66758749151E+02  0.14711633229E+03  0.12509406079E+03 0.  0.
         23    2    1    2    0    0 -0.38141359639E+02  0.91212541730E+01  0.10648928651E+03  0.14614251469E+03  0.92085318410E+02 0.  0.
          5    1    3    3  502    0  0.36685915104E+02  0.25246348341E+02 -0.23434031519E+02  0.50496145445E+02  0.41800000000E+01 0.  1.
         -5    1    3    3    0  502  0.14554445347E+01 -0.34367602514E+02  0.90192780669E+02  0.96620186846E+02  0.41800000000E+01 0.  1.
        -11    1    4    4    0    0 -0.63438967642E+02  0.59594375008E+01  0.40754360023E+02  0.75636865163E+02  0.00000000000E+00 0. -1.
         11    1    4    4    0    0  0.25297608003E+02  0.31618166723E+01  0.65734926489E+02  0.70505649531E+02  0.00000000000E+00 0.  1.
</event>
<event>
 8    1  0.3541538E-009  0.9636846E+02  0.7561462E-02  0.1288123E+00
         -3   -1    0    0    0  501 -0.00000000000E+00  0.00000000000E+00  0.70071890621E+02  0.70071890621E+02  0.00000000000E+00 0.  1.
          3   -1    0    0  501    0  0.00000000000E+00 -0.00000000000E+00 -0.17862195252E+03  0.17862195252E+03  0.00000000000E+00 0. -1.
         25    2    1    2    0    0  0.26319941921E+02  0.12370809295E+02 -0.67036395906E+02  0.14486992023E+03  0.12509052381E+03 0.  0.
         23    2    1    2    0    0 -0.26319941921E+02 -0.12370809295E+02 -0.41513665996E+02  0.10382392291E+03  0.90610409112E+02 0.  0.
          5    1    3    3  502    0  0.76156003051E+02  0.11553061821E+02 -0.50452839655E+02  0.92174679101E+02  0.41800000000E+01 0.  1.
         -5    1    3    3    0  502 -0.49836061130E+02  0.81774747401E+00 -0.16583556251E+02  0.52695241130E+02  0.41800000000E+01 0.  1.
        -11    1    4    4    0    0  0.18199012529E+02  0.30735067376E+01  0.19422617645E+02  0.26793442797E+02  0.00000000000E+00 0.  1.
         11    1    4    4    0    0 -0.44518954450E+02 -0.15444316032E+02 -0.60936283641E+02  0.77030480117E+02  0.00000000000E+00 0. -1.
</event>
<event>
 8    1  0.3541538E-009  0.1793853E+03  0.7561462E-02  0.1168399E+00
          2   -1    0    0  501    0  0.00000000000E+00  0.00000000000E+00  0.21673750205E+04  0.21673750205E+04  0.00000000000E+00 0. -1.
         -2   -1    0    0    0  501 -0.00000000000E+00 -0.00000000000E+00 -0.17142846687E+02  0.17142846687E+02  0.00000000000E+00 0.  1.
         25    2    1    2    0    0  0.85468621977E+02  0.13372702532E+03  0.12116395266E+04  0.12283753976E+04  0.12509185592E+03 0.  0.
         23    2    1    2    0    0 -0.85468621977E+02 -0.13372702532E+03  0.93859264717E+03  0.95614246952E+03  0.89802349981E+02 0.  0.
          5    1    3    3  502    0  0.94053109692E+02  0.71890962126E+02  0.10182270071E+04  0.10250941461E+04  0.41800000000E+01 0. -1.
         -5    1    3    3    0  502 -0.85844877150E+01  0.61836063192E+02  0.19341251948E+03  0.20328125155E+03  0.41800000000E+01 0. -1.
        -11    1    4    4    0    0  0.70259192203E+01 -0.57390061381E+02  0.21310344302E+03  0.22080774469E+03  0.00000000000E+00 0.  1.
         11    1    4    4    0    0 -0.92494541197E+02 -0.76336963937E+02  0.72548920415E+03  0.73533472484E+03  0.00000000000E+00 0. -1.
</event>
<event>
 8    1  0.3541538E-009  0.9655484E+02  0.7561462E-02  0.1287712E+00
         -1   -1    0    0    0  501 -0.00000000000E+00  0.00000000000E+00  0.87694583205E+02  0.87694583205E+02  0.00000000000E+00 0.  1.
          1   -1    0    0  501    0  0.00000000000E+00 -0.00000000000E+00 -0.21898253931E+03  0.21898253931E+03  0.00000000000E+00 0. -1.
         25    2    1    2    0    0  0.80040474192E+02 -0.62369358110E+01 -0.39071465901E+02  0.15368800354E+03  0.12509215046E+03 0.  0.
         23    2    1    2    0    0 -0.80040474192E+02  0.62369358110E+01 -0.92216490205E+02  0.15298911897E+03  0.91958754787E+02 0.  0.
          5    1    3    3  502    0  0.70078956718E+02 -0.20153658514E+02 -0.80483429082E+02  0.10868433596E+03  0.41800000000E+01 0.  1.
         -5    1    3    3    0  502  0.99615174731E+01  0.13916722704E+02  0.41411963181E+02  0.45003667581E+02  0.41800000000E+01 0.  1.
        -11    1    4    4    0    0  0.11058278593E+02  0.21315743286E+01  0.10664925469E+02  0.15510311725E+02  0.00000000000E+00 0.  1.
         11    1    4    4    0    0 -0.91098752785E+02  0.41053614823E+01 -0.10288141567E+03  0.13747880725E+03  0.00000000000E+00 0. -1.
</event>
<event>
 8    1  0.3541538E-009  0.1256246E+03  0.7561462E-02  0.1234096E+00
          1   -1    0    0  501    0  0.00000000000E+00  0.00000000000E+00  0.52770758886E+02  0.52770758886E+02  0.00000000000E+00 0. -1.
         -1   -1    0    0    0  501 -0.00000000000E+00 -0.00000000000E+00 -0.55801259958E+03  0.55801259958E+03  0.00000000000E+00 0.  1.
         25    2    1    2    0    0  0.11685664805E+03  0.32825971816E+02 -0.36242058455E+03  0.40215579881E+03  0.12509031056E+03 0.  0.
         23    2    1    2    0    0 -0.11685664805E+03 -0.32825971816E+02 -0.14282125615E+03  0.20862755965E+03  0.91621650391E+02 0.  0.
          5    1    3    3  502    0  0.34059556232E+02  0.24654188025E+02 -0.28601276093E+03  0.28911702505E+03  0.41800000000E+01 0. -1.
         -5    1    3    3    0  502  0.82797091819E+02  0.81717837915E+01 -0.76407823616E+02  0.11303877376E+03  0.41800000000E+01 0. -1.
        -11    1    4    4    0    0 -0.62978811269E+02 -0.34457373506E+02 -0.13666733966E+03  0.15437487810E+03  0.00000000000E+00 0.  1.
         11    1    4    4    0    0 -0.53877836782E+02  0.16314016897E+01 -0.61539164850E+01  0.54252681555E+02  0.00000000000E+00 0. -1.
</event>
<event>
 8    1  0.3541538E-009  0.8455583E+02  0.7561462E-02  0.1316598E+00
          2   -1    0    0  501    0  0.00000000000E+00  0.00000000000E+00  0.17518519708E+03  0.17518519708E+03  0.00000000000E+00 0. -1.
         -2   -1    0    0    0  501 -0.00000000000E+00 -0.00000000000E+00 -0.86494726577E+02  0.86494726577E+02  0.00000000000E+00 0.  1.
         25    2    1    2    0    0  0.16820027857E+02 -0.10116393863E+02  0.10268570407E+03  0.16302152391E+03  0.12508560539E+03 0.  0.
         23    2    1    2    0    0 -0.16820027857E+02  0.10116393863E+02 -0.13995233572E+02  0.98658399741E+02  0.95667959709E+02 0.  0.
          5    1    3    3  502    0  0.40136558081E+02 -0.34400423819E+02 -0.19111199979E+01  0.53060882326E+02  0.41800000000E+01 0.  1.
         -5    1    3    3    0  502 -0.23316530224E+02  0.24284029956E+02  0.10459682407E+03  0.10996064159E+03  0.41800000000E+01 0.  1.
        -11    1    4    4    0    0 -0.49115392190E+02  0.38739482724E+01  0.18304291004E+02  0.52558313275E+02  0.00000000000E+00 0. -1.
         11    1    4    4    0    0  0.32295364332E+02  0.62424455904E+01 -0.32299524576E+02  0.46100086466E+02  0.00000000000E+00 0.  1.
</event>
<event>
 8    1  0.3541538E-009  0.1170239E+03  0.7561462E-02  0.1248089E+00
          2   -1    0    0  501    0  0.00000000000E+00  0.00000000000E+00  0.60240981707E+03  0.60240981707E+03  0.00000000000E+00 0. -1.
         -2   -1    0    0    0  501 -0.00000000000E+00 -0.00000000000E+00 -0.39721882801E+02  0.39721882801E+02  0.00000000000E+00 0.  1.
         25    2    1    2    0    0  0.58473175955E+02 -0.17398109474E+02  0.49391914562E+03  0.51315054358E+03  0.12508217877E+03 0.  0.
         23    2    1    2    0    0 -0.58473175955E+02  0.17398109474E+02  0.68768788646E+02  0.12898115629E+03  0.90472017035E+02 0.  0.
          5    1    3    3  502    0  0.94371296321E+02 -0.24715155681E+02  0.41035986195E+03  0.42181686689E+03  0.41800000000E+01 0. -1.
         -5    1    3    3    0  502 -0.35898120366E+02  0.73170462067E+01  0.83559283669E+02  0.91333676693E+02  0.41800000000E+01 0. -1.
        -11    1    4    4    0    0 -0.17203572458E+02 -0.31288305297E+02  0.76002209432E+00  0.35714123078E+02  0.00000000000E+00 0.  1.
         11    1    4    4    0    0 -0.41269603496E+02  0.48686414771E+02  0.68008766552E+02  0.93267033211E+02  0.00000000000E+00 0. -1.
</event>
<event>
 8    1  0.3541538E-009  0.1819691E+03  0.7561462E-02  0.1165911E+00
         -1   -1    0    0    0  501 -0.00000000000E+00  0.00000000000E+00  0.62283627138E+03  0.62283627138E+03  0.00000000000E+00 0.  1.
          1   -1    0    0  501    0  0.00000000000E+00 -0.00000000000E+00 -0.55199108793E+02  0.55199108793E+02  0.00000000000E+00 0. -1.
         25    2    1    2    0    0  0.94517739342E+02 -0.11230604171E+03  0.35741730823E+03  0.40612804010E+03  0.12508638087E+03 0.  0.
         23    2    1    2    0    0 -0.94517739342E+02  0.11230604171E+03  0.21021985435E+03  0.27190734006E+03  0.90526042451E+02 0.  0.
          5    1    3    3  502    0  0.96623250554E+02 -0.19173608885E+02  0.20436951765E+03  0.22690978818E+03  0.41800000000E+01 0. -1.
         -5    1    3    3    0  502 -0.21055112125E+01 -0.93132432829E+02  0.15304779058E+03  0.17921825193E+03  0.41800000000E+01 0. -1.
        -11    1    4    4    0    0 -0.83028489329E+01  0.79365998177E+02  0.88705717708E+02  0.11931723816E+03  0.00000000000E+00 0. -1.
         11    1    4    4    0    0 -0.86214890409E+02  0.32940043537E+02  0.12151413664E+03  0.15259010191E+03  0.00000000000E+00 0.  1.
</event>
<event>
 8    1  0.3541538E-009  0.5030140E+02  0.7561462E-02  0.1443723E+00
          2   -1    0    0  501    0  0.00000000000E+00  0.00000000000E+00  0.42814209297E+03  0.42814209297E+03  0.00000000000E+00 0. -1.
         -2   -1    0    0    0  501 -0.00000000000E+00 -0.00000000000E+00 -0.33902908969E+02  0.33902908969E+02  0.00000000000E+00 0.  1.
         25    2    1    2    0    0 -0.17206556971E+01  0.21047454106E+02  0.30991078548E+03  0.33487125331E+03  0.12509238728E+03 0.  0.
         23    2    1    2    0    0  0.17206556971E+01 -0.21047454106E+02  0.84328398515E+02  0.12717374863E+03  0.92822020895E+02 0.  0.
          5    1    3    3  502    0  0.19390425932E+02 -0.74617550381E+01  0.29565166189E+03  0.29641026295E+03  0.41800000000E+01 0.  1.
         -5    1    3    3    0  502 -0.21111081629E+02  0.28509209145E+02  0.14259123592E+02  0.38460990357E+02  0.41800000000E+01 0.  1.
        -11    1    4    4    0    0  0.18684542391E+02 -0.18923578108E+02  0.10030730762E+03  0.10377268376E+03  0.00000000000E+00 0. -1.
         11    1    4    4    0    0 -0.16963886694E+02 -0.21238759981E+01 -0.15978909100E+02  0.23401064870E+02  0.00000000000E+00 0.  1.
</event>
<event>
 8    1  0.3541538E-009  0.1586767E+03  0.7561462E-02  0.1190199E+00
         -1   -1    0    0    0  501 -0.00000000000E+00  0.00000000000E+00  0.28888270085E+02  0.28888270085E+02  0.00000000000E+00 0.  1.
          1   -1    0    0  501    0  0.00000000000E+00 -0.00000000000E+00 -0.10551826017E+04  0.10551826017E+04  0.00000000000E+00 0. -1.
         25    2    1    2    0    0 -0.52613294807E+02 -0.12434810101E+03 -0.48704394645E+03  0.52066333114E+03  0.12509152490E+03 0.  0.
         23    2    1    2    0    0  0.52613294807E+02  0.12434810101E+03 -0.53925038521E+03  0.56340754070E+03  0.91686803551E+02 0.  0.
          5    1    3    3  502    0 -0.72905206088E+02 -0.58317097471E+02 -0.15109527290E+03  0.17766065075E+03  0.41800000000E+01 0. -1.
         -5    1    3    3    0  502  0.20291911282E+02 -0.66031003539E+02 -0.33594867355E+03  0.34300268039E+03  0.41800000000E+01 0. -1.
        -11    1    4    4    0    0  0.42216915019E+02  0.14922312362E+02 -0.24995507649E+03  0.25393401423E+03  0.00000000000E+00 0. -1.
         11    1    4    4    0    0  0.10396379788E+02  0.10942578865E+03 -0.28929530872E+03  0.30947352646E+03  0.00000000000E+00 0.  1.
</event>
<event>
 8    1  0.3541538E-009  0.1230508E+03  0.7561462E-02  0.1238147E+00
         -1   -1    0    0    0  501 -0.00000000000E+00  0.00000000000E+00  0.64087330026E+02  0.64087330026E+02  0.00000000000E+00 0. -1.
          1   -1    0    0  501    0  0.00000000000E+00 -0.00000000000E+00 -0.27645843703E+03  0.27645843703E+03  0.00000000000E+00 0.  1.
         25    2    1    2    0    0  0.27835735077E+02  0.68434034628E+02 -0.92013913615E+02  0.17196603799E+03  0.12509081773E+03 0.  0.
         23    2    1    2    0    0 -0.27835735077E+02 -0.68434034628E+02 -0.12035719339E+03  0.16857972907E+03  0.92060989615E+02 0.  0.
          5    1    3    3  502    0 -0.11804756036E+02  0.95926423475E+02 -0.58056584912E+02  0.11282406852E+03  0.41800000000E+01 0.  1.
         -5    1    3    3    0  502  0.39640491113E+02 -0.27492388847E+02 -0.33957328703E+02  0.59141969470E+02  0.41800000000E+01 0.  1.
        -11    1    4    4    0    0  0.20177536864E+02 -0.40862549568E+02 -0.99454635851E+02  0.10939883703E+03  0.00000000000E+00 0.  1.
         11    1    4    4    0    0 -0.48013271941E+02 -0.27571485060E+02 -0.20902557543E+02  0.59180892040E+02  0.00000000000E+00 0. -1.
</event>
<event>
 8    1  0.3541538E-009  0.1760469E+03  0.7561462E-02  0.1171685E+00
          3   -1    0    0  501    0  0.00000000000E+00  0.00000000000E+00  0.18913429259E+03  0.18913429259E+03  0.00000000000E+00 0. -1.
         -3   -1    0    0    0  501 -0.00000000000E+00 -0.00000000000E+00 -0.17883557599E+03  0.17883557599E+03  0.00000000000E+00 0.  1.
         25    2    1    2    0    0  0.13144765776E+03 -0.63246792681E+02  0.33041159201E+02  0.19498106085E+03  0.12508897783E+03 0.  0.
         23    2    1    2    0    0 -0.13144765776E+03  0.63246792681E+02 -0.22742442604E+02  0.17298880773E+03  0.90162438899E+02 0.  0.
          5    1    3    3  502    0  0.94326667876E+02 -0.10087647402E+03  0.15043692163E+02  0.13898693592E+03  0.41800000000E+01 0.  1.
         -5    1    3    3    0  502  0.37120989884E+02  0.37629681335E+02  0.17997467037E+02  0.55994124933E+02  0.41800000000E+01 0.  1.
        -11    1    4    4    0    0 -0.78832853576E+02  0.26512938521E+00 -0.41084868159E+02  0.88896881206E+02  0.00000000000E+00 0.  1.
         11    1    4    4    0    0 -0.52614804184E+02  0.62981663296E+02  0.18342425554E+02  0.84091926521E+02  0.00000000000E+00 0. -1.
</event>
<event>
 8    1  0.3541538E-009  0.1692542E+03  0.7561462E-02  0.1178628E+00
         -1   -1    0    0    0  501 -0.00000000000E+00  0.00000000000E+00  0.33900378974E+02  0.33900378974E+02  0.00000000000E+00 0.  1.
          1   -1    0    0  501    0  0.00000000000E+00 -0.00000000000E+00 -0.97197466185E+03  0.97197466185E+03  0.00000000000E+00 0. -1.
         25    2    1    2    0    0 -0.14319288958E+03 -0.23649189792E+01 -0.43375010723E+03  0.47359913595E+03  0.12508872681E+03 0.  0.
         23    2    1    2    0    0  0.14319288958E+03  0.23649189792E+01 -0.50432417564E+03  0.53227590487E+03  0.92005262379E+02 0.  0.
          5    1    3    3  502    0 -0.69564629026E+02 -0.63246408909E+02 -0.19962381821E+03  0.22069546223E+03  0.41800000000E+01 0. -1.
         -5    1    3    3    0  502 -0.73628260557E+02  0.60881489930E+02 -0.23412628902E+03  0.25290367372E+03  0.41800000000E+01 0. -1.
        -11    1    4    4    0    0  0.97734793547E+02 -0.17272056549E+02 -0.44024214684E+03  0.45129099444E+03  0.00000000000E+00 0. -1.
         11    1    4    4    0    0  0.45458096036E+02  0.19636975528E+02 -0.64082028801E+02  0.80984910436E+02  0.00000000000E+00 0.  1.
</event>
<event>
 8    1  0.3541538E-009  0.8597497E+02  0.7561462E-02  0.1312902E+00
          2   -1    0    0  501    0  0.00000000000E+00  0.00000000000E+00  0.25525570098E+03  0.25525570098E+03  0.00000000000E+00 0. -1.
         -2   -1    0    0    0  501 -0.00000000000E+00 -0.00000000000E+00 -0.80160080776E+02  0.80160080776E+02  0.00000000000E+00 0.  1.
         25    2    1    2    0    0  0.68674059893E+02  0.41774402043E+02  0.14793150728E+03  0.20974383638E+03  0.12509004312E+03 0.  0.
         23    2    1    2    0    0 -0.68674059893E+02 -0.41774402043E+02  0.27164112924E+02  0.12567194537E+03  0.92705564310E+02 0.  0.
          5    1    3    3  502    0  0.17761190677E+02 -0.82737583035E+01 -0.19327231401E+02  0.27837550976E+02  0.41800000000E+01 0. -1.
         -5    1    3    3    0  502  0.50912869216E+02  0.50048160347E+02  0.16725873868E+03  0.18190628541E+03  0.41800000000E+01 0. -1.
        -11    1    4    4    0    0 -0.43966617603E+02 -0.27707732990E+02 -0.31296062061E+02  0.60664861588E+02  0.00000000000E+00 0.  1.
         11    1    4    4    0    0 -0.24707442290E+02 -0.14066669053E+02  0.58460174984E+02  0.65007083783E+02  0.00000000000E+00 0. -1.
</event>
<event>
 8    1  0.3541538E-009  0.1202470E+03  0.7561462E-02  0.1242690E+00
          2   -1    0    0  501    0  0.00000000000E+00  0.00000000000E+00  0.17115819622E+03  0.17115819622E+03  0.00000000000E+00 0.  1.
         -2   -1    0    0    0  501 -0.00000000000E+00 -0.00000000000E+00 -0.16942247265E+03  0.16942247265E+03  0.00000000000E+00 0. -1.
         25    2    1    2    0    0 -0.54999076834E+02 -0.81817657986E+02  0.88185895021E+02  0.18205715930E+03  0.12509608132E+03 0.  0.
         23    2    1    2    0    0  0.54999076834E+02  0.81817657986E+02 -0.86450171446E+02  0.15852350957E+03  0.89090085489E+02 0.  0.
          5    1    3    3  502    0 -0.42050773253E+02  0.34934270817E+01  0.85718461661E+02  0.95632623270E+02  0.41800000000E+01 0.  1.
         -5    1    3    3    0  502 -0.12948303580E+02 -0.85311085068E+02  0.24674333598E+01  0.86424536033E+02  0.41800000000E+01 0.  1.
        -11    1    4    4    0    0 -0.84927734181E+01  0.25343974106E+02  0.11285445841E+02  0.29013884808E+02  0.00000000000E+00 0.  1.
         11    1    4    4    0    0  0.63491850252E+02  0.56473683881E+02 -0.97735617288E+02  0.12950962476E+03  0.00000000000E+00 0. -1.
</event>
<event>
 8    1  0.3541538E-009  0.1221708E+03  0.7561462E-02  0.1239558E+00
         -2   -1    0    0    0  501 -0.00000000000E+00  0.00000000000E+00  0.35310332350E+02  0.35310332350E+02  0.00000000000E+00 0.  1.
          2   -1    0    0  501    0  0.00000000000E+00 -0.00000000000E+00 -0.52839458902E+03  0.52839458902E+03  0.00000000000E+00 0. -1.
         25    2    1    2    0    0  0.90290103888E+01 -0.81540637968E+02 -0.25026600904E+03  0.29156610390E+03  0.12508924411E+03 0.  0.
         23    2    1    2    0    0 -0.90290103888E+01  0.81540637968E+02 -0.24281824763E+03  0.27213881748E+03  0.91479155693E+02 0.  0.
          5    1    3    3  502    0 -0.24271532507E+02 -0.10164555890E+03 -0.14134357139E+03  0.17583061311E+03  0.41800000000E+01 0. -1.
         -5    1    3    3    0  502  0.33300542896E+02  0.20104920933E+02 -0.10892243765E+03  0.11573549078E+03  0.41800000000E+01 0. -1.
        -11    1    4    4    0    0 -0.30494739047E+02  0.22752983921E+02 -0.17806560141E+03  0.18208510591E+03  0.00000000000E+00 0. -1.
         11    1    4    4    0    0  0.21465728658E+02  0.58787654046E+02 -0.64752646219E+02  0.90053711570E+02  0.00000000000E+00 0.  1.
</event>
<event>
 8    1  0.3541538E-009  0.1303434E+03  0.7561462E-02  0.1226947E+00
          2   -1    0    0  501    0  0.00000000000E+00  0.00000000000E+00  0.13320181195E+03  0.13320181195E+03  0.00000000000E+00 0. -1.
         -2   -1    0    0    0  501 -0.00000000000E+00 -0.00000000000E+00 -0.14738203139E+03  0.14738203139E+03  0.00000000000E+00 0.  1.
         25    2    1    2    0    0  0.79924464535E+02 -0.39112076707E+02 -0.19062507822E+02  0.15468763252E+03  0.12508880795E+03 0.  0.
         23    2    1    2    0    0 -0.79924464535E+02  0.39112076707E+02  0.48822883842E+01  0.12589621082E+03  0.88928873732E+02 0.  0.
          5    1    3    3  502    0 -0.29190880795E+02  0.35641767221E+00 -0.24661345372E+02  0.38443320755E+02  0.41800000000E+01 0. -1.
         -5    1    3    3    0  502  0.10911534533E+03 -0.39468494379E+02  0.55988375502E+01  0.11624431176E+03  0.41800000000E+01 0. -1.
        -11    1    4    4    0    0 -0.47782632660E+02  0.60039065150E+02 -0.21087137836E+02  0.79577237387E+02  0.00000000000E+00 0.  1.
         11    1    4    4    0    0 -0.32141831876E+02 -0.20926988443E+02  0.25969426221E+02  0.46318973433E+02  0.00000000000E+00 0. -1.
</event>
<event>
 8    1  0.3541538E-009  0.1277885E+03  0.7561462E-02  0.1230775E+00
         -1   -1    0    0    0  501 -0.00000000000E+00  0.00000000000E+00  0.24480094925E+02  0.24480094925E+02  0.00000000000E+00 0.  1.
          1   -1    0    0  501    0  0.00000000000E+00 -0.00000000000E+00 -0.83978227680E+03  0.83978227680E+03  0.00000000000E+00 0. -1.
         25    2    1    2    0    0  0.58818602306E+02 -0.71136061008E+02 -0.48544078660E+03  0.50972580635E+03  0.12509066000E+03 0.  0.
         23    2    1    2    0    0 -0.58818602306E+02  0.71136061008E+02 -0.32986139528E+03  0.35453656537E+03  0.91474963445E+02 0.  0.
          5    1    3    3  502    0  0.28438240211E+01 -0.76041537251E+02 -0.13709994942E+03  0.15685748708E+03  0.41800000000E+01 0. -1.
         -5    1    3    3    0  502  0.55974778285E+02  0.49054762437E+01 -0.34834083718E+03  0.35286831927E+03  0.41800000000E+01 0. -1.
        -11    1    4    4    0    0 -0.78561595995E+02  0.66044052874E+02 -0.21952776601E+03  0.24233485373E+03  0.00000000000E+00 0.  1.
         11    1    4    4    0    0  0.19742993688E+02  0.50920081333E+01 -0.11033362927E+03  0.11220171164E+03  0.00000000000E+00 0. -1.
</event>
<event>
 8    1  0.3541538E-009  0.1058679E+03  0.7561462E-02  0.1268419E+00
         -4   -1    0    0    0  501 -0.00000000000E+00  0.00000000000E+00  0.18448883651E+03  0.18448883651E+03  0.00000000000E+00 0. -1.
          4   -1    0    0  501    0  0.00000000000E+00 -0.00000000000E+00 -0.78423988505E+02  0.78423988505E+02  0.00000000000E+00 0.  1.
         25    2    1    2    0    0 -0.13487304823E+02  0.47779749437E+02  0.39229408030E+02  0.14018239493E+03  0.12508935025E+03 0.  0.
         23    2    1    2    0    0  0.13487304823E+02 -0.47779749437E+02  0.66835439975E+02  0.12273043008E+03  0.90171894646E+02 0.  0.
          5    1    3    3  502    0  0.37896955681E+02 -0.61037975372E+00  0.55776804958E+02  0.67565347514E+02  0.41800000000E+01 0. -1.
         -5    1    3    3    0  502 -0.51384260505E+02  0.48390129191E+02 -0.16547396928E+02  0.72617047419E+02  0.41800000000E+01 0. -1.
        -11    1    4    4    0    0 -0.48137101211E+01 -0.72211387076E+02  0.45469661016E+02  0.85470148599E+02  0.00000000000E+00 0. -1.
         11    1    4    4    0    0  0.18301014944E+02  0.24431637639E+02  0.21365778959E+02  0.37260281484E+02  0.00000000000E+00 0.  1.
</event>
<event>
 8    1  0.3541538E-009  0.1459006E+03  0.7561462E-02  0.1205603E+00
          2   -1    0    0  501    0  0.00000000000E+00  0.00000000000E+00  0.61708498114E+03  0.61708498114E+03  0.00000000000E+00 0. -1.
         -2   -1    0    0    0  501 -0.00000000000E+00 -0.00000000000E+00 -0.66817006509E+02  0.66817006509E+02  0.00000000000E+00 0.  1.
         25    2    1    2    0    0  0.53568112468E+02  0.11893729547E+03  0.47405955249E+03  0.50734091381E+03  0.12508685220E+03 0.  0.
         23    2    1    2    0    0 -0.53568112468E+02 -0.11893729547E+03  0.76208422144E+02  0.17656107384E+03  0.91380885660E+02 0.  0.
          5    1    3    3  502    0  0.47019210745E+02  0.75845769642E+02  0.11500449184E+03  0.14562586479E+03  0.41800000000E+01 0. -1.
         -5    1    3    3    0  502  0.65489017223E+01  0.43091525825E+02  0.35905506065E+03  0.36171504902E+03  0.41800000000E+01 0. -1.
        -11    1    4    4    0    0 -0.76321936370E+01 -0.11195595162E+03  0.60680894441E+02  0.12757176973E+03  0.00000000000E+00 0. -1.
         11    1    4    4    0    0 -0.45935918831E+02 -0.69813438516E+01  0.15527527703E+02  0.48989304112E+02  0.00000000000E+00 0.  1.
</event>
<event>
 8    1  0.3541538E-009  0.1465202E+03  0.7561462E-02  0.1204815E+00
          2   -1    0    0  501    0  0.00000000000E+00  0.00000000000E+00  0.11228490851E+04  0.11228490851E+04  0.00000000000E+00 0. -1.
         -2   -1    0    0    0  501 -0.00000000000E+00 -0.00000000000E+00 -0.19623850041E+02  0.19623850041E+02  0.00000000000E+00 0.  1.
         25    2    1    2    0    0 -0.60601052099E+02 -0.80725772321E+02  0.61143652397E+03  0.63221114607E+03  0.12508865871E+03 0.  0.
         23    2    1    2    0    0  0.60601052099E+02  0.80725772321E+02  0.49178871113E+03  0.51026178911E+03  0.91224005621E+02 0.  0.
          5    1    3    3  502    0 -0.97822171462E+02 -0.50748644168E+02  0.37139914418E+03  0.38742663668E+03  0.41800000000E+01 0. -1.
         -5    1    3    3    0  502  0.37221119363E+02 -0.29977128153E+02  0.24003737980E+03  0.24478450939E+03  0.41800000000E+01 0. -1.
        -11    1    4    4    0    0  0.31927325168E+01  0.77202217764E+02  0.31567426520E+03  0.32499325789E+03  0.00000000000E+00 0.  1.
         11    1    4    4    0    0  0.57408319582E+02  0.35235545571E+01  0.17611444594E+03  0.18526853122E+03  0.00000000000E+00 0. -1.
</event>
<event>
 8    1  0.3541538E-009  0.6878407E+02  0.7561462E-02  0.1364277E+00
         -1   -1    0    0    0  501 -0.00000000000E+00  0.00000000000E+00  0.30194364963E+02  0.30194364963E+02  0.00000000000E+00 0.  1.
          1   -1    0    0  501    0  0.00000000000E+00 -0.00000000000E+00 -0.40359304763E+03  0.40359304763E+03  0.00000000000E+00 0. -1.
         25    2    1    2    0    0  0.93104762624E+01 -0.63491407235E+01 -0.20678169507E+03  0.24193477606E+03  0.12508704926E+03 0.  0.
         23    2    1    2    0    0 -0.93104762624E+01  0.63491407235E+01 -0.16661698759E+03  0.19185263654E+03  0.94441606479E+02 0.  0.
          5    1    3    3  502    0  0.22381132976E+02  0.13235689454E+02 -0.21503114910E+03  0.21663786851E+03  0.41800000000E+01 0.  1.
         -5    1    3    3    0  502 -0.13070656714E+02 -0.19584830178E+02  0.82494540245E+01  0.25296907553E+02  0.41800000000E+01 0.  1.
        -11    1    4    4    0    0  0.26565203444E+02 -0.27328352728E+02 -0.11215663737E+03  0.11845530889E+03  0.00000000000E+00 0. -1.
         11    1    4    4    0    0 -0.35875679706E+02  0.33677493452E+02 -0.54460350221E+02  0.73397327648E+02  0.00000000000E+00 0.  1.
</event>
<event>
 8    1  0.3541538E-009  0.8167441E+02  0.7561462E-02  0.1324366E+00
          2   -1    0    0  501    0  0.00000000000E+00  0.00000000000E+00  0.13348270529E+04  0.13348270529E+04  0.00000000000E+00 0. -1.
         -2   -1    0    0    0  501 -0.00000000000E+00 -0.00000000000E+00 -0.11387549884E+02  0.11387549884E+02  0.00000000000E+00 0.  1.
         25    2    1    2    0    0  0.15687875473E+02 -0.47864878094E+02  0.85603752670E+03  0.86659500349E+03  0.12509794944E+03 0.  0.
         23    2    1    2    0    0 -0.15687875473E+02  0.47864878094E+02  0.46740197629E+03  0.47961959927E+03  0.95043130080E+02 0.  0.
          5    1    3    3  502    0  0.21558781912E+02 -0.34048179651E+02  0.84817198298E+03  0.84913911977E+03  0.41800000000E+01 0. -1.
         -5    1    3    3    0  502 -0.58709064393E+01 -0.13816698443E+02  0.78655437253E+01  0.17455883718E+02  0.41800000000E+01 0. -1.
        -11    1    4    4    0    0  0.29825058956E+02  0.53637634798E+02  0.28544093396E+03  0.29196413613E+03  0.00000000000E+00 0.  1.
         11    1    4    4    0    0 -0.45512934428E+02 -0.57727567040E+01  0.18196104233E+03  0.18765546314E+03  0.00000000000E+00 0. -1.
</event>
<event>
 8    1  0.3541538E-009  0.7894438E+02  0.7561462E-02  0.1332074E+00
          1   -1    0    0  501    0  0.00000000000E+00  0.00000000000E+00  0.68274541890E+02  0.68274541890E+02  0.00000000000E+00 0. -1.
         -1   -1    0    0    0  501 -0.00000000000E+00 -0.00000000000E+00 -0.32206376463E+03  0.32206376463E+03  0.00000000000E+00 0.  1.
         25    2    1    2    0    0  0.52804674014E+02 -0.28743949249E+02 -0.24680017174E+03  0.28314832326E+03  0.12509236578E+03 0.  0.
         23    2    1    2    0    0 -0.52804674014E+02  0.28743949249E+02 -0.69890510041E+01  0.10718998326E+03  0.88466363450E+02 0.  0.
          5    1    3    3  502    0  0.27069951708E+02  0.25018698014E+02 -0.20939327273E+03  0.21265402089E+03  0.41800000000E+01 0.  1.
         -5    1    3    3    0  502  0.25734722306E+02 -0.53762647263E+02 -0.37406899008E+02  0.70494302367E+02  0.41800000000E+01 0.  1.
        -11    1    4    4    0    0 -0.30372716738E+02  0.10532638072E+02  0.40435255493E+02  0.51657025404E+02  0.00000000000E+00 0. -1.
         11    1    4    4    0    0 -0.22431957276E+02  0.18211311177E+02 -0.47424306497E+02  0.55532957861E+02  0.00000000000E+00 0.  1.
</event>
<event>
 8    1  0.3541538E-009  0.8708753E+02  0.7561462E-02  0.1310062E+00
          4   -1    0    0  501    0  0.00000000000E+00  0.00000000000E+00  0.32883698533E+02  0.32883698533E+02  0.00000000000E+00 0. -1.
         -4   -1    0    0    0  501 -0.00000000000E+00 -0.00000000000E+00 -0.41212497988E+03  0.41212497988E+03  0.00000000000E+00 0.  1.
         25    2    1    2    0    0  0.37549923026E+02  0.18993626344E+02 -0.21320371130E+03  0.25074704662E+03  0.12508998487E+03 0.  0.
         23    2    1    2    0    0 -0.37549923026E+02 -0.18993626344E+02 -0.16603757004E+03  0.19426163179E+03  0.91642524839E+02 0.  0.
          5    1    3    3  502    0  0.57060691317E+02  0.21282555829E+02 -0.22094481240E+03  0.22922249497E+03  0.41800000000E+01 0.  1.
         -5    1    3    3    0  502 -0.19510768291E+02 -0.22889294845E+01  0.77411010956E+01  0.21524551649E+02  0.41800000000E+01 0.  1.
        -11    1    4    4    0    0  0.19408746621E+02 -0.29317848295E+02 -0.10223756186E+03  0.10811454449E+03  0.00000000000E+00 0.  1.
         11    1    4    4    0    0 -0.56958669647E+02  0.10324221951E+02 -0.63800008178E+02  0.86147087301E+02  0.00000000000E+00 0. -1.
</event>
<event>
 8    1  0.3541538E-009  0.1095526E+03  0.7561462E-02  0.1261401E+00
          1   -1    0    0  501    0  0.00000000000E+00  0.00000000000E+00  0.51928930523E+03  0.51928930523E+03  0.00000000000E+00 0. -1.
         -1   -1    0    0    0  501 -0.00000000000E+00 -0.00000000000E+00 -0.29842416603E+02  0.29842416603E+02  0.00000000000E+00 0.  1.
         25    2    1    2    0    0 -0.32495232630E+02  0.28842667765E+02  0.36686385765E+03  0.39003145439E+03  0.12509039026E+03 0.  0.
         23    2    1    2    0    0  0.32495232630E+02 -0.28842667765E+02  0.12258303098E+03  0.15910026745E+03  0.91643090249E+02 0.  0.
          5    1    3    3  502    0  0.11766541847E+02  0.61627730561E+02  0.10486488004E+03  0.12227241777E+03  0.41800000000E+01 0.  1.
         -5    1    3    3    0  502 -0.44261774477E+02 -0.32785062796E+02  0.26199897761E+03  0.26775903662E+03  0.41800000000E+01 0.  1.
        -11    1    4    4    0    0  0.40024745964E+02  0.24622883111E+02  0.64429943968E+02  0.79746375102E+02  0.00000000000E+00 0. -1.
         11    1    4    4    0    0 -0.75295133346E+01 -0.53465550876E+02  0.58153087012E+02  0.79353892347E+02  0.00000000000E+00 0.  1.
</event>
<event>
 8    1  0.3541538E-009  0.1011310E+03  0.7561462E-02  0.1277935E+00
         -1   -1    0    0    0  501 -0.00000000000E+00  0.00000000000E+00  0.26539566834E+02  0.26539566834E+02  0.00000000000E+00 0. -1.
          1   -1    0    0  501    0  0.00000000000E+00 -0.00000000000E+00 -0.55105658467E+03  0.55105658467E+03  0.00000000000E+00 0.  1.
         25    2    1    2    0    0 -0.10715372275E+01  0.44480428406E+02 -0.36332541956E+03  0.38682990425E+03  0.12510938263E+03 0.  0.
         23    2    1    2    0    0  0.10715372275E+01 -0.44480428406E+02 -0.16119159828E+03  0.19076624726E+03  0.91811617092E+02 0.  0.
          5    1    3    3  502    0  0.29267187343E+02 -0.35475676356E+02 -0.15056113877E+03  0.15748403340E+03  0.41800000000E+01 0.  1.
         -5    1    3    3    0  502 -0.30338724571E+02  0.79956104761E+02 -0.21276428078E+03  0.22934587084E+03  0.41800000000E+01 0.  1.
        -11    1    4    4    0    0  0.27633487896E+02 -0.27194299236E+02 -0.15327305616E+03  0.15810050382E+03  0.00000000000E+00 0.  1.
         11    1    4    4    0    0 -0.26561950669E+02 -0.17286129170E+02 -0.79185421246E+01  0.32665743438E+02  0.00000000000E+00 0. -1.
</event>
<event>
 8    1  0.3541538E-009  0.1077928E+03  0.7561462E-02  0.1264713E+00
         -1   -1    0    0    0  501 -0.00000000000E+00  0.00000000000E+00  0.50861098933E+03  0.50861098933E+03  0.00000000000E+00 0.  1.
          1   -1    0    0  501    0  0.00000000000E+00 -0.00000000000E+00 -0.82839167234E+02  0.82839167234E+02  0.00000000000E+00 0. -1.
         25    2    1    2    0    0 -0.48048871786E+02 -0.27765249260E+02  0.45876203499E+03  0.47873795273E+03  0.12509124463E+03 0.  0.
         23    2    1    2    0    0  0.48048871786E+02  0.27765249260E+02 -0.32990212894E+02  0.11271220384E+03  0.92390928133E+02 0.  0.
          5    1    3    3  502    0 -0.20213302818E+02 -0.67176228018E+02  0.37871576891E+03  0.38518090457E+03  0.41800000000E+01 0.  1.
         -5    1    3    3    0  502 -0.27835568968E+02  0.39410978759E+02  0.80046266076E+02  0.93557048154E+02  0.41800000000E+01 0.  1.
        -11    1    4    4    0    0  0.69260283070E+02  0.30142049810E+02 -0.26054076424E+01  0.75579879112E+02  0.00000000000E+00 0.  1.
         11    1    4    4    0    0 -0.21211411283E+02 -0.23768005506E+01 -0.30384805251E+02  0.37132324727E+02  0.00000000000E+00 0. -1.
</event>
<event>
 8    1  0.3541538E-009  0.1086689E+03  0.7561462E-02  0.1263055E+00
         -2   -1    0    0    0  501 -0.00000000000E+00  0.00000000000E+00  0.79197389331E+02  0.79197389331E+02  0.00000000000E+00 0. -1.
          2   -1    0    0  501    0  0.00000000000E+00 -0.00000000000E+00 -0.17599712357E+03  0.17599712357E+03  0.00000000000E+00 0.  1.
         25    2    1    2    0    0 -0.43777836750E+01 -0.41751248801E+02 -0.32445884152E+02  0.13587819563E+03  0.12509123424E+03 0.  0.
         23    2    1    2    0    0  0.43777836750E+01  0.41751248801E+02 -0.64353850086E+02  0.11931631727E+03  0.91283261218E+02 0.  0.
          5    1    3    3  502    0 -0.36139988102E+02 -0.69707676284E+02 -0.46189352606E+02  0.91193133333E+02  0.41800000000E+01 0.  1.
         -5    1    3    3    0  502  0.31762204427E+02  0.27956427483E+02  0.13743468455E+02  0.44685062301E+02  0.41800000000E+01 0.  1.
        -11    1    4    4    0    0 -0.33466950622E+02  0.47296411156E+02 -0.21310820704E+02  0.61734418044E+02  0.00000000000E+00 0.  1.
         11    1    4    4    0    0  0.37844734297E+02 -0.55451623557E+01 -0.43043029382E+02  0.57581899221E+02  0.00000000000E+00 0. -1.
</event>
<event>
 8    1  0.3541538E-009  0.1315198E+03  0.7561462E-02  0.1225218E+00
          1   -1    0    0  501    0  0.00000000000E+00  0.00000000000E+00  0.17728864078E+03  0.17728864078E+03  0.00000000000E+00 0. -1.
         -1   -1    0    0    0  501 -0.00000000000E+00 -0.00000000000E+00 -0.14376315949E+03  0.14376315949E+03  0.00000000000E+00 0.  1.
         25    2    1    2    0    0 -0.48240595644E+02 -0.99443975721E+02 -0.19307324348E+02  0.16803823862E+03  0.12509123666E+03 0.  0.
         23    2    1    2    0    0  0.48240595644E+02  0.99443975721E+02  0.52832805637E+02  0.15301356166E+03  0.91681979282E+02 0.  0.
          5    1    3    3  502    0 -0.53559332277E+02 -0.11230577964E+03 -0.49937261793E+02  0.13413572503E+03  0.41800000000E+01 0. -1.
         -5    1    3    3    0  502  0.53187366336E+01  0.12861803919E+02  0.30629937445E+02  0.33902513584E+02  0.41800000000E+01 0. -1.
        -11    1    4    4    0    0  0.96622585151E+00  0.66232330513E+02 -0.10746466351E+02  0.67105452362E+02  0.00000000000E+00 0.  1.
         11    1    4    4    0    0  0.47274369792E+02  0.33211645208E+02  0.63579271989E+02  0.85908109299E+02  0.00000000000E+00 0. -1.
</event>
<event>
 8    1  0.3541538E-009  0.7781441E+02  0.7561462E-02  0.1335371E+00
         -2   -1    0    0    0  501 -0.00000000000E+00  0.00000000000E+00  0.42808049210E+02  0.42808049210E+02  0.00000000000E+00 0.  1.
          2   -1    0    0  501    0  0.00000000000E+00 -0.00000000000E+00 -0.33904152729E+03  0.33904152729E+03  0.00000000000E+00 0. -1.
         25    2    1    2    0    0  0.23560328405E+02 -0.17107004213E+02 -0.23871322755E+03  0.27107033026E+03  0.12508948905E+03 0.  0.
         23    2    1    2    0    0 -0.23560328405E+02  0.17107004213E+02 -0.57520250530E+02  0.11077924624E+03  0.90087310479E+02 0.  0.
          5    1    3    3  502    0  0.37589415453E+02 -0.34289542793E+02 -0.24281875424E+03  0.24812729940E+03  0.41800000000E+01 0. -1.
         -5    1    3    3    0  502 -0.14029087049E+02  0.17182538580E+02  0.41055266874E+01  0.22943030856E+02  0.41800000000E+01 0. -1.
        -11    1    4    4    0    0 -0.29787979401E+02 -0.25337312913E+02 -0.10346641410E+00  0.39106442534E+02  0.00000000000E+00 0.  1.
         11    1    4    4    0    0  0.62276509959E+01  0.42444317125E+02 -0.57416784116E+02  0.71672803708E+02  0.00000000000E+00 0. -1.
</event>
<event>
 8    1  0.3541538E-009  0.1271848E+03  0.7561462E-02  0.1231694E+00
          2   -1    0    0  501    0  0.00000000000E+00  0.00000000000E+00  0.22798542721E+03  0.22798542721E+03  0.00000000000E+00 0. -1.
         -2   -1    0    0    0  501 -0.00000000000E+00 -0.00000000000E+00 -0.82648455057E+02  0.82648455057E+02  0.00000000000E+00 0.  1.
         25    2    1    2    0    0  0.82468751635E+02 -0.93321750282E+01  0.61499570697E+02  0.16222500894E+03  0.12508625761E+03 0.  0.
         23    2    1    2    0    0 -0.82468751635E+02  0.93321750282E+01  0.83837401452E+02  0.14840887332E+03  0.90046095483E+02 0.  0.
          5    1    3    3  502    0  0.47084988952E+02  0.49326058907E+02 -0.25257719842E+01  0.68365987129E+02  0.41800000000E+01 0. -1.
         -5    1    3    3    0  502  0.35383762683E+02 -0.58658233935E+02  0.64025342681E+02  0.93859021812E+02  0.41800000000E+01 0. -1.
        -11    1    4    4    0    0 -0.35220291441E+02 -0.37113150198E+02  0.16055207001E+02  0.53624849824E+02  0.00000000000E+00 0.  1.
         11    1    4    4    0    0 -0.47248460194E+02  0.46445325226E+02  0.67782194451E+02  0.94784023499E+02  0.00000000000E+00 0. -1.
</event>
<event>
 8    1  0.3541538E-009  0.8675332E+02  0.7561462E-02  0.1310910E+00
         -2   -1    0    0    0  501 -0.00000000000E+00  0.00000000000E+00  0.16728136758E+02  0.16728136758E+02  0.00000000000E+00 0.  1.
          2   -1    0    0  501    0  0.00000000000E+00 -0.00000000000E+00 -0.10306144143E+04  0.10306144143E+04  0.00000000000E+00 0. -1.
         25    2    1    2    0    0 -0.42856264827E+02  0.46200951322E+01 -0.79829585930E+03  0.80918759966E+03  0.12510111010E+03 0.  0.
         23    2    1    2    0    0  0.42856264827E+02 -0.46200951322E+01 -0.21559041821E+03  0.23815495137E+03  0.91545331524E+02 0.  0.
          5    1    3    3  502    0 -0.58911404789E+02  0.99781780699E+01 -0.78494947516E+03  0.78723139458E+03  0.41800000000E+01 0. -1.
         -5    1    3    3    0  502  0.16055139963E+02 -0.53580829377E+01 -0.13346384143E+02  0.21956205084E+02  0.41800000000E+01 0. -1.
        -11    1    4    4    0    0  0.57379193843E+02 -0.31622345070E+02 -0.17782871163E+03  0.18951357544E+03  0.00000000000E+00 0. -1.
         11    1    4    4    0    0 -0.14522929016E+02  0.27002249938E+02 -0.37761706573E+02  0.48641375929E+02  0.00000000000E+00 0.  1.
</event>
<event>
 8    1  0.3541538E-009  0.1153719E+03  0.7561462E-02  0.1250933E+00
          2   -1    0    0  501    0  0.00000000000E+00  0.00000000000E+00  0.33985279602E+03  0.33985279602E+03  0.00000000000E+00 0. -1.
         -2   -1    0    0    0  501 -0.00000000000E+00 -0.00000000000E+00 -0.57228390843E+02  0.57228390843E+02  0.00000000000E+00 0.  1.
         25    2    1    2    0    0  0.16188368298E+02 -0.76243566073E+02  0.98802533913E+02  0.17743962456E+03  0.12509090703E+03 0.  0.
         23    2    1    2    0    0 -0.16188368298E+02  0.76243566073E+02  0.18382187126E+03  0.21964156230E+03  0.91524810290E+02 0.  0.
          5    1    3    3  502    0  0.76226664469E+00 -0.91653632674E+02  0.11703345933E+03  0.14871204537E+03  0.41800000000E+01 0. -1.
         -5    1    3    3    0  502  0.15426101653E+02  0.15410066601E+02 -0.18230925422E+02  0.28727579199E+02  0.41800000000E+01 0. -1.
        -11    1    4    4    0    0 -0.21878397365E+02  0.94846217631E+02  0.12993032422E+03  0.16234641487E+03  0.00000000000E+00 0.  1.
         11    1    4    4    0    0  0.56900290666E+01 -0.18602651559E+02  0.53891547045E+02  0.57295147427E+02  0.00000000000E+00 0. -1.
</event>
<event>
 8    1  0.3541538E-009  0.1109478E+03  0.7561462E-02  0.1258825E+00
          1   -1    0    0  501    0  0.00000000000E+00  0.00000000000E+00  0.43171577546E+03  0.43171577546E+03  0.00000000000E+00 0. -1.
         -1   -1    0    0    0  501 -0.00000000000E+00 -0.00000000000E+00 -0.37865140352E+02  0.37865140352E+02  0.00000000000E+00 0.  1.
         25    2    1    2    0    0  0.31012439754E+02  0.69398014080E+01  0.10657704218E+03  0.16738402740E+03  0.12509522151E+03 0.  0.
         23    2    1    2    0    0 -0.31012439754E+02 -0.69398014080E+01  0.28727359293E+03  0.30219688842E+03  0.88243469497E+02 0.  0.
          5    1    3    3  502    0  0.78838458925E+02 -0.61498024523E+01  0.68934270959E+02  0.10498918415E+03  0.41800000000E+01 0. -1.
         -5    1    3    3    0  502 -0.47826019171E+02  0.13089603860E+02  0.37642771218E+02  0.62394843248E+02  0.41800000000E+01 0. -1.
        -11    1    4    4    0    0  0.30586168061E+02  0.22373668914E+01  0.11471708836E+03  0.11874565192E+03  0.00000000000E+00 0. -1.
         11    1    4    4    0    0 -0.61598607816E+02 -0.91771682994E+01  0.17255650457E+03  0.18345123649E+03  0.00000000000E+00 0.  1.
</event>
<event>
 8    1  0.3541538E-009  0.1114562E+03  0.7561462E-02  0.1257897E+00
         -2   -1    0    0    0  501 -0.00000000000E+00  0.00000000000E+00  0.72270633481E+02  0.72270633481E+02  0.00000000000E+00 0.  1.
          2   -1    0    0  501    0  0.00000000000E+00 -0.00000000000E+00 -0.23248119756E+03  0.23248119756E+03  0.00000000000E+00 0. -1.
         25    2    1    2    0    0  0.56375750572E+02 -0.35928870439E+02 -0.62198006846E+02  0.15487364138E+03  0.12509254077E+03 0.  0.
         23    2    1    2    0    0 -0.56375750572E+02  0.35928870439E+02 -0.98012557231E+02  0.14987818966E+03  0.91585486709E+02 0.  0.
          5    1    3    3  502    0  0.73380012212E+01 -0.57836237535E+02 -0.79155212912E+02  0.98396629847E+02  0.41800000000E+01 0.  1.
         -5    1    3    3    0  502  0.49037749351E+02  0.21907367096E+02  0.16957206065E+02  0.56477011536E+02  0.41800000000E+01 0.  1.
        -11    1    4    4    0    0  0.82690922665E+01 -0.22178336537E+02 -0.36072917789E+02  0.43145241873E+02  0.00000000000E+00 0. -1.
         11    1    4    4    0    0 -0.64644842839E+02  0.58107206976E+02 -0.61939639442E+02  0.10673294778E+03  0.00000000000E+00 0.  1.
</event>
<event>
 8    1  0.3541538E-009  0.8823966E+02  0.7561462E-02  0.1307171E+00
         -2   -1    0    0    0  501 -0.00000000000E+00  0.00000000000E+00  0.36885730272E+02  0.36885730272E+02  0.00000000000E+00 0.  1.
          2   -1    0    0  501    0  0.00000000000E+00 -0.00000000000E+00 -0.35987714852E+03  0.35987714852E+03  0.00000000000E+00 0. -1.
         25    2    1    2    0    0  0.34563261959E+02 -0.23555299825E+02 -0.19011909974E+03  0.23138237457E+03  0.12507221893E+03 0.  0.
         23    2    1    2    0    0 -0.34563261959E+02  0.23555299825E+02 -0.13287231851E+03  0.16538050422E+03  0.89141387267E+02 0.  0.
          5    1    3    3  502    0  0.86670703059E+00  0.25663645778E+02 -0.16413774529E+03  0.16618677963E+03  0.41800000000E+01 0.  1.
         -5    1    3    3    0  502  0.33696554929E+02 -0.49218945602E+02 -0.25981354453E+02  0.65195594939E+02  0.41800000000E+01 0.  1.
        -11    1    4    4    0    0 -0.54887316532E+02 -0.55519765558E+01 -0.47052520922E+02  0.72507804303E+02  0.00000000000E+00 0.  1.
         11    1    4    4    0    0  0.20324054573E+02  0.29107276380E+02 -0.85819797584E+02  0.92872699918E+02  0.00000000000E+00 0. -1.
</event>
<event>
 8    1  0.3541538E-009  0.8898371E+02  0.7561462E-02  0.1305332E+00
         -2   -1    0    0    0  501 -0.00000000000E+00  0.00000000000E+00  0.12954660747E+03  0.12954660747E+03  0.00000000000E+00 0. -1.
          2   -1    0    0  501    0  0.00000000000E+00 -0.00000000000E+00 -0.93042136208E+02  0.93042136208E+02  0.00000000000E+00 0.  1.
         25    2    1    2    0    0  0.74263686023E+01  0.41937123098E+01  0.40045179356E+02  0.13163177372E+03  0.12510223535E+03 0.  0.
         23    2    1    2    0    0 -0.74263686023E+01 -0.41937123098E+01 -0.35407080903E+01  0.90956969961E+02  0.90486991314E+02 0.  0.
          5    1    3    3  502    0  0.30032342935E+02  0.44262324979E+02 -0.18772773399E+02  0.56841749232E+02  0.41800000000E+01 0. -1.
         -5    1    3    3    0  502 -0.22605974333E+02 -0.40068612669E+02  0.58817952755E+02  0.74790024489E+02  0.41800000000E+01 0. -1.
        -11    1    4    4    0    0 -0.13466967134E+02 -0.39793913067E+02  0.21326051523E+02  0.47113853531E+02  0.00000000000E+00 0. -1.
         11    1    4    4    0    0  0.60405985313E+01  0.35600200757E+02 -0.24866759614E+02  0.43843116430E+02  0.00000000000E+00 0.  1.
</event>
<event>
 8    1  0.3541538E-009  0.1332093E+03  0.7561462E-02  0.1222770E+00
          2   -1    0    0  501    0  0.00000000000E+00  0.00000000000E+00  0.96588180777E+02  0.96588180777E+02  0.00000000000E+00 0. -1.
         -2   -1    0    0    0  501 -0.00000000000E+00 -0.00000000000E+00 -0.20893487972E+03  0.20893487972E+03  0.00000000000E+00 0.  1.
         25    2    1    2    0    0  0.75019223052E+02 -0.46719662386E+02 -0.99779830993E+02  0.18279477140E+03  0.12508918058E+03 0.  0.
         23    2    1    2    0    0 -0.75019223052E+02  0.46719662386E+02 -0.12566867950E+02  0.12272828909E+03  0.84224082620E+02 0.  0.
          5    1    3    3  502    0  0.79220043740E+02 -0.83909821002E+02 -0.76706119458E+02  0.13862890951E+03  0.41800000000E+01 0. -1.
         -5    1    3    3    0  502 -0.42008206882E+01  0.37190158616E+02 -0.23073711535E+02  0.44165861888E+02  0.41800000000E+01 0. -1.
        -11    1    4    4    0    0  0.88266946904E+01  0.25230262012E+02  0.16511758964E+02  0.31418383861E+02  0.00000000000E+00 0. -1.
         11    1    4    4    0    0 -0.83845917742E+02  0.21489400374E+02 -0.29078626914E+02  0.91309905233E+02  0.00000000000E+00 0.  1.
</event>
<event>
 8    1  0.3541538E-009  0.1346135E+03  0.7561462E-02  0.1220766E+00
         -1   -1    0    0    0  501 -0.00000000000E+00  0.00000000000E+00  0.49359556330E+02  0.49359556330E+02  0.00000000000E+00 0.  1.
          1   -1    0    0  501    0  0.00000000000E+00 -0.00000000000E+00 -0.42940083053E+03  0.42940083053E+03  0.00000000000E+00 0. -1.
         25    2    1    2    0    0  0.40391239979E+02 -0.88132144972E+02 -0.21607094208E+03  0.26783142649E+03  0.12509314034E+03 0.  0.
         23    2    1    2    0    0 -0.40391239979E+02  0.88132144972E+02 -0.16397033211E+03  0.21092896036E+03  0.90587136297E+02 0.  0.
          5    1    3    3  502    0  0.80718510791E+02 -0.52775185606E+02 -0.95424302016E+02  0.13573491819E+03  0.41800000000E+01 0. -1.
         -5    1    3    3    0  502 -0.40327270812E+02 -0.35356959367E+02 -0.12064664007E+03  0.13209650830E+03  0.41800000000E+01 0. -1.
        -11    1    4    4    0    0 -0.14481508074E+02 -0.98747053886E+01  0.71631478567E+00  0.17542433967E+02  0.00000000000E+00 0.  1.
         11    1    4    4    0    0 -0.25909731904E+02  0.98006850361E+02 -0.16468664690E+03  0.19338652640E+03  0.00000000000E+00 0. -1.
</event>
<event>
 8    1  0.3541538E-009  0.1113125E+03  0.7561462E-02  0.1258158E+00
         -1   -1    0    0    0  501 -0.00000000000E+00  0.00000000000E+00  0.20510149376E+02  0.20510149376E+02  0.00000000000E+00 0. -1.
          1   -1    0    0  501    0  0.00000000000E+00 -0.00000000000E+00 -0.79863840727E+03  0.79863840727E+03  0.00000000000E+00 0.  1.
         25    2    1    2    0    0 -0.15853844578E+02 -0.31228070501E+02 -0.61782419678E+03  0.63133262654E+03  0.12509040901E+03 0.  0.
         23    2    1    2    0    0  0.15853844578E+02  0.31228070501E+02 -0.16030406111E+03  0.18781593011E+03  0.91383230510E+02 0.  0.
          5    1    3    3  502    0  0.28826301827E+02  0.35074408920E+02 -0.15243383298E+03  0.15910598881E+03  0.41800000000E+01 0. -1.
         -5    1    3    3    0  502 -0.44680146405E+02 -0.66302479421E+02 -0.46539036381E+03  0.47222663773E+03  0.41800000000E+01 0. -1.
        -11    1    4    4    0    0  0.32381236852E+02 -0.23365609929E+02 -0.78726934568E+02  0.88274721489E+02  0.00000000000E+00 0. -1.
         11    1    4    4    0    0 -0.16527392275E+02  0.54593680430E+02 -0.81577126546E+02  0.99541208621E+02  0.00000000000E+00 0.  1.
</event>
<event>
 8    1  0.3541538E-009  0.1522686E+03  0.7561462E-02  0.1197713E+00
         -2   -1    0    0    0  501 -0.00000000000E+00  0.00000000000E+00  0.40480291458E+03  0.40480291458E+03  0.00000000000E+00 0.  1.
          2   -1    0    0  501    0  0.00000000000E+00 -0.00000000000E+00 -0.63917750445E+02  0.63917750445E+02  0.00000000000E+00 0. -1.
         25    2    1    2    0    0  0.28753528103E+02  0.11294942083E+03  0.21047521457E+03  0.27116854975E+03  0.12509288302E+03 0.  0.
         23    2    1    2    0    0 -0.28753528103E+02 -0.11294942083E+03  0.13040994956E+03  0.19755211527E+03  0.91846318696E+02 0.  0.
          5    1    3    3  502    0 -0.39190432696E+02  0.27619158965E+02  0.21019143687E+02  0.52516518907E+02  0.41800000000E+01 0. -1.
         -5    1    3    3    0  502  0.67943960799E+02  0.85330261865E+02  0.18945607088E+03  0.21865203085E+03  0.41800000000E+01 0. -1.
        -11    1    4    4    0    0 -0.61268396938E+02 -0.65043130279E+02  0.66991680945E+02  0.11167949935E+03  0.00000000000E+00 0. -1.
         11    1    4    4    0    0  0.32514868835E+02 -0.47906290551E+02  0.63418268617E+02  0.85872615915E+02  0.00000000000E+00 0.  1.
</event>
<event>
 8    1  0.3541538E-009  0.1579644E+03  0.7561462E-02  0.1191014E+00
          2   -1    0    0  501    0  0.00000000000E+00  0.00000000000E+00  0.30713123317E+03  0.30713123317E+03  0.00000000000E+00 0. -1.
         -2   -1    0    0    0  501 -0.00000000000E+00 -0.00000000000E+00 -0.10692069919E+03  0.10692069919E+03  0.00000000000E+00 0.  1.
         25    2    1    2    0    0 -0.13461901247E+03 -0.81055158712E+00  0.16953037635E+03  0.25002361260E+03  0.12509325657E+03 0.  0.
         23    2    1    2    0    0  0.13461901247E+03  0.81055158712E+00  0.30680157637E+02  0.16402831976E+03  0.88549884811E+02 0.  0.
          5    1    3    3  502    0 -0.11408483531E+03  0.51144442844E+02  0.13578046367E+03  0.18462099121E+03  0.41800000000E+01 0.  1.
         -5    1    3    3    0  502 -0.20534177155E+02 -0.51954994432E+02  0.33749912679E+02  0.65402621382E+02  0.41800000000E+01 0.  1.
        -11    1    4    4    0    0  0.15964698427E+02 -0.22280425522E+01  0.41814574489E+02  0.44813997916E+02  0.00000000000E+00 0. -1.
         11    1    4    4    0    0  0.11865431404E+03  0.30385941393E+01 -0.11134416852E+02  0.11921432185E+03  0.00000000000E+00 0.  1.
</event>
<event>
 8    1  0.3541538E-009  0.1110823E+03  0.7561462E-02  0.1258579E+00
         -2   -1    0    0    0  501 -0.00000000000E+00  0.00000000000E+00  0.39445378343E+02  0.39445378343E+02  0.00000000000E+00 0.  1.
          2   -1    0    0  501    0  0.00000000000E+00 -0.00000000000E+00 -0.41696468368E+03  0.41696468368E+03  0.00000000000E+00 0. -1.
         25    2    1    2    0    0 -0.66822036047E+02  0.16593381930E+02 -0.22959288129E+03  0.27037125918E+03  0.12508877579E+03 0.  0.
         23    2    1    2    0    0  0.66822036047E+02 -0.16593381930E+02 -0.14792642405E+03  0.18603880284E+03  0.89373846309E+02 0.  0.
          5    1    3    3  502    0 -0.90488632849E+02  0.13007041160E+02 -0.22839015497E+03  0.24604249853E+03  0.41800000000E+01 0. -1.
         -5    1    3    3    0  502  0.23666596802E+02  0.35863407706E+01 -0.12027263145E+01  0.24328760653E+02  0.41800000000E+01 0. -1.
        -11    1    4    4    0    0 -0.72092447488E-01  0.26680426982E+02 -0.13809133681E+02  0.30042346018E+02  0.00000000000E+00 0.  1.
         11    1    4    4    0    0  0.66894128494E+02 -0.43273808912E+02 -0.13411729037E+03  0.15599645682E+03  0.00000000000E+00 0. -1.
</event>
<event>
 8    1  0.3541538E-009  0.1182411E+03  0.7561462E-02  0.1246027E+00
         -1   -1    0    0    0  501 -0.00000000000E+00  0.00000000000E+00  0.38006046976E+02  0.38006046976E+02  0.00000000000E+00 0.  1.
          1   -1    0    0  501    0  0.00000000000E+00 -0.00000000000E+00 -0.40773416568E+03  0.40773416568E+03  0.00000000000E+00 0. -1.
         25    2    1    2    0    0  0.38341660312E+02  0.39676935138E+02 -0.25491318784E+03  0.28926236246E+03  0.12509052285E+03 0.  0.
         23    2    1    2    0    0 -0.38341660312E+02 -0.39676935138E+02 -0.11481493086E+03  0.15647785019E+03  0.90876328899E+02 0.  0.
          5    1    3    3  502    0  0.45825272849E+02  0.81532519144E+02 -0.18468308871E+03  0.20705753540E+03  0.41800000000E+01 0. -1.
         -5    1    3    3    0  502 -0.74836125369E+01 -0.41855584006E+02 -0.70230099131E+02  0.82204827066E+02  0.41800000000E+01 0. -1.
        -11    1    4    4    0    0 -0.59667230947E+02 -0.48662623051E+02 -0.10745889344E+03  0.13219547311E+03  0.00000000000E+00 0. -1.
         11    1    4    4    0    0  0.21325570635E+02  0.89856879128E+01 -0.73560374212E+01  0.24282377082E+02  0.00000000000E+00 0.  1.
</event>
<event>
 8    1  0.3541538E-009  0.1375404E+03  0.7561462E-02  0.1216677E+00
          2   -1    0    0  501    0  0.00000000000E+00  0.00000000000E+00  0.12349722220E+04  0.12349722220E+04  0.00000000000E+00 0. -1.
         -2   -1    0    0    0  501 -0.00000000000E+00 -0.00000000000E+00 -0.22634354902E+02  0.22634354902E+02  0.00000000000E+00 0.  1.
         25    2    1    2    0    0  0.52909243537E+02  0.99301589153E+02  0.86313140179E+03  0.87937628178E+03  0.12508650819E+03 0.  0.
         23    2    1    2    0    0 -0.52909243537E+02 -0.99301589153E+02  0.34920646529E+03  0.37823029511E+03  0.91939148778E+02 0.  0.
          5    1    3    3  502    0  0.61774381706E+02  0.39802130017E+02  0.19335873590E+03  0.20689455512E+03  0.41800000000E+01 0.  1.
         -5    1    3    3    0  502 -0.88651381686E+01  0.59499459136E+02  0.66977266589E+03  0.67248172665E+03  0.41800000000E+01 0.  1.
        -11    1    4    4    0    0 -0.14181687079E+02 -0.10140272655E+03  0.20861581061E+03  0.23238801526E+03  0.00000000000E+00 0.  1.
         11    1    4    4    0    0 -0.38727556459E+02  0.21011374013E+01  0.14059065468E+03  0.14584227985E+03  0.00000000000E+00 0. -1.
</event>
<event>
 8    1  0.3541538E-009  0.8363445E+02  0.7561462E-02  0.1319043E+00
         -1   -1    0    0    0  501 -0.00000000000E+00  0.00000000000E+00  0.19267095602E+03  0.19267095602E+03  0.00000000000E+00 0.  1.
          1   -1    0    0  501    0  0.00000000000E+00 -0.00000000000E+00 -0.71558650443E+02  0.71558650443E+02  0.00000000000E+00 0. -1.
         25    2    1    2    0    0 -0.26281915467E+02  0.39601683431E+01  0.30101137513E+02  0.13138107323E+03  0.12509390837E+03 0.  0.
         23    2    1    2    0    0  0.26281915467E+02 -0.39601683431E+01  0.91011168069E+02  0.13284853323E+03  0.93055241953E+02 0.  0.
          5    1    3    3  502    0  0.40969232350E+02  0.22357746712E+01  0.46354773087E+02  0.62046064143E+02  0.41800000000E+01 0. -1.
         -5    1    3    3    0  502 -0.67251147818E+02  0.17243936719E+01 -0.16253635574E+02  0.69335009091E+02  0.41800000000E+01 0. -1.
        -11    1    4    4    0    0  0.15624494892E+02 -0.28146884710E+02  0.99903378813E+02  0.10496216965E+03  0.00000000000E+00 0.  1.
         11    1    4    4    0    0  0.10657420575E+02  0.24186716367E+02 -0.88922107436E+01  0.27886363583E+02  0.00000000000E+00 0. -1.
</event>
<event>
 8    1  0.3541538E-009  0.1036686E+03  0.7561462E-02  0.1272765E+00
         -1   -1    0    0    0  501 -0.00000000000E+00  0.00000000000E+00  0.16630971195E+03  0.16630971195E+03  0.00000000000E+00 0.  1.
          1   -1    0    0  501    0  0.00000000000E+00 -0.00000000000E+00 -0.10835414459E+03  0.10835414459E+03  0.00000000000E+00 0. -1.
         25    2    1    2    0    0 -0.33725896556E+02 -0.33411544022E+02  0.98779314519E+02  0.16630775875E+03  0.12508856971E+03 0.  0.
         23    2    1    2    0    0  0.33725896556E+02  0.33411544022E+02 -0.40823747165E+02  0.10835609779E+03  0.88434711640E+02 0.  0.
          5    1    3    3  502    0  0.11566035244E+02 -0.71991421204E+02  0.64962512055E+02  0.97745272370E+02  0.41800000000E+01 0. -1.
         -5    1    3    3    0  502 -0.45291931800E+02  0.38579877182E+02  0.33816802464E+02  0.68562486379E+02  0.41800000000E+01 0. -1.
        -11    1    4    4    0    0  0.49536337201E+02  0.18355150912E+02 -0.59541121802E+02  0.79598401075E+02  0.00000000000E+00 0. -1.
         11    1    4    4    0    0 -0.15810440645E+02  0.15056393111E+02  0.18717374638E+02  0.28757696713E+02  0.00000000000E+00 0.  1.
</event>
<event>
 8    1  0.3541538E-009  0.1450198E+03  0.7561462E-02  0.1206730E+00
          1   -1    0    0  501    0  0.00000000000E+00  0.00000000000E+00  0.43251542302E+03  0.43251542302E+03  0.00000000000E+00 0. -1.
         -1   -1    0    0    0  501 -0.00000000000E+00 -0.00000000000E+00 -0.13019360621E+03  0.13019360621E+03  0.00000000000E+00 0.  1.
         25    2    1    2    0    0 -0.10435619065E+03 -0.55425785351E+02  0.36302663899E+03  0.40174407972E+03  0.12509089802E+03 0.  0.
         23    2    1    2    0    0  0.10435619065E+03  0.55425785351E+02 -0.60704822180E+02  0.16096494950E+03  0.90897785028E+02 0.  0.
          5    1    3    3  502    0 -0.16096446247E+02 -0.78652728810E+02  0.15768253259E+03  0.17699322251E+03  0.41800000000E+01 0.  1.
         -5    1    3    3    0  502 -0.88259744406E+02  0.23226943458E+02  0.20534410639E+03  0.22475085721E+03  0.41800000000E+01 0.  1.
        -11    1    4    4    0    0  0.19234258894E+02  0.78696087478E+01 -0.59957012837E+02  0.63456527208E+02  0.00000000000E+00 0.  1.
         11    1    4    4    0    0  0.85121931758E+02  0.47556176604E+02 -0.74780934323E+00  0.97508422294E+02  0.00000000000E+00 0. -1.
</event>
<event>
 8    1  0.3541538E-009  0.1005102E+03  0.7561462E-02  0.1279227E+00
          4   -1    0    0  501    0  0.00000000000E+00  0.00000000000E+00  0.14579254215E+03  0.14579254215E+03  0.00000000000E+00 0. -1.
         -4   -1    0    0    0  501 -0.00000000000E+00 -0.00000000000E+00 -0.14084695799E+03  0.14084695799E+03  0.00000000000E+00 0.  1.
         25    2    1    2    0    0  0.72865797192E+02  0.58353375865E+02  0.48417241144E+01  0.15615798326E+03  0.12508929838E+03 0.  0.
         23    2    1    2    0    0 -0.72865797192E+02 -0.58353375865E+02  0.10386003990E+00  0.13048151688E+03  0.91163998289E+02 0.  0.
          5    1    3    3  502    0  0.61091972664E+02  0.38375468203E+02 -0.55668744575E+02  0.91221637818E+02  0.41800000000E+01 0.  1.
         -5    1    3    3    0  502  0.11773824528E+02  0.19977907662E+02  0.60510468690E+02  0.64936345444E+02  0.41800000000E+01 0. -1.
        -11    1    4    4    0    0 -0.28818793788E+02 -0.53641887571E+02  0.38344910984E+02  0.71960455640E+02  0.00000000000E+00 0. -1.
         11    1    4    4    0    0 -0.44047003404E+02 -0.47114882941E+01 -0.38241050944E+02  0.58521061236E+02  0.00000000000E+00 0.  1.
</event>
<event>
 8    1  0.3541538E-009  0.1378882E+03  0.7561462E-02  0.1216199E+00
          2   -1    0    0  501    0  0.00000000000E+00  0.00000000000E+00  0.73071479728E+03  0.73071479728E+03  0.00000000000E+00 0. -1.
         -2   -1    0    0    0  501 -0.00000000000E+00 -0.00000000000E+00 -0.31750822140E+02  0.31750822140E+02  0.00000000000E+00 0.  1.
         25    2    1    2    0    0  0.24102073757E+01  0.10692046219E+03  0.35477930453E+03  0.39109269759E+03  0.12508936346E+03 0.  0.
         23    2    1    2    0    0 -0.24102073757E+01 -0.10692046219E+03  0.34418467061E+03  0.37137292183E+03  0.89537507511E+02 0.  0.
          5    1    3    3  502    0  0.60351481879E+02  0.30693404641E+02  0.16748571371E+03  0.18070230533E+03  0.41800000000E+01 0.  1.
         -5    1    3    3    0  502 -0.57941274503E+02  0.76227057554E+02  0.18729359082E+03  0.21039039226E+03  0.41800000000E+01 0.  1.
        -11    1    4    4    0    0  0.15630118749E+02 -0.48272057526E+02  0.27173069874E+03  0.27642732279E+03  0.00000000000E+00 0. -1.
         11    1    4    4    0    0 -0.18040326125E+02 -0.58648404668E+02  0.72453971875E+02  0.94945599041E+02  0.00000000000E+00 0.  1.
</event>
<event>
 8    1  0.3541538E-009  0.8603995E+02  0.7561462E-02  0.1312735E+00
          2   -1    0    0  501    0  0.00000000000E+00  0.00000000000E+00  0.89041470595E+02  0.89041470595E+02  0.00000000000E+00 0. -1.
         -2   -1    0    0    0  501 -0.00000000000E+00 -0.00000000000E+00 -0.17871193529E+03  0.17871193529E+03  0.00000000000E+00 0.  1.
         25    2    1    2    0    0  0.24343351760E+02  0.17572657373E+02 -0.10622608512E+03  0.16682822008E+03  0.12508507822E+03 0.  0.
         23    2    1    2    0    0 -0.24343351760E+02 -0.17572657373E+02  0.16555620422E+02  0.10092518581E+03  0.94923166301E+02 0.  0.
          5    1    3    3  502    0  0.40422769566E+02  0.41587632823E+02 -0.15626438536E+01  0.58167394295E+02  0.41800000000E+01 0.  1.
         -5    1    3    3    0  502 -0.16079417807E+02 -0.24014975450E+02 -0.10466344126E+03  0.10866082578E+03  0.41800000000E+01 0.  1.
        -11    1    4    4    0    0  0.28454666049E+02  0.17515633199E+01 -0.19130822636E+02  0.34332555523E+02  0.00000000000E+00 0.  1.
         11    1    4    4    0    0 -0.52798017809E+02 -0.19324220693E+02  0.35686443058E+02  0.66592630283E+02  0.00000000000E+00 0. -1.
</event>
<event>
 8    1  0.3541538E-009  0.2043566E+03  0.7561462E-02  0.1146115E+00
         -1   -1    0    0    0  501 -0.00000000000E+00  0.00000000000E+00  0.72379197189E+02  0.72379197189E+02  0.00000000000E+00 0.  1.
          1   -1    0    0  501    0  0.00000000000E+00 -0.00000000000E+00 -0.80175081314E+03  0.80175081314E+03  0.00000000000E+00 0. -1.
         25    2    1    2    0    0  0.53678202883E+02  0.17591380178E+03 -0.57750462775E+03  0.61885845890E+03  0.12508869637E+03 0.  0.
         23    2    1    2    0    0 -0.53678202883E+02 -0.17591380178E+03 -0.15186698820E+03  0.25527155143E+03  0.90955856000E+02 0.  0.
          5    1    3    3  502    0 -0.31273105805E+02  0.76598039881E+02 -0.14473427914E+03  0.16676555645E+03  0.41800000000E+01 0. -1.
         -5    1    3    3    0  502  0.84951308688E+02  0.99315761902E+02 -0.43277034861E+03  0.45209290245E+03  0.41800000000E+01 0. -1.
        -11    1    4    4    0    0 -0.52002653025E+02 -0.60878297913E+02 -0.10253862177E+03  0.13009462723E+03  0.00000000000E+00 0.  1.
         11    1    4    4    0    0 -0.16755498578E+01 -0.11503550387E+03 -0.49328366429E+02  0.12517692420E+03  0.00000000000E+00 0. -1.
</event>
<event>
 8    1  0.3541538E-009  0.9062939E+02  0.7561462E-02  0.1301335E+00
         -1   -1    0    0    0  501 -0.00000000000E+00  0.00000000000E+00  0.16938723922E+03  0.16938723922E+03  0.00000000000E+00 0.  1.
          1   -1    0    0  501    0  0.00000000000E+00 -0.00000000000E+00 -0.85308192927E+02  0.85308192927E+02  0.00000000000E+00 0. -1.
         25    2    1    2    0    0  0.35241271722E+02 -0.91402000816E+01  0.57492331127E+01  0.13040686891E+03  0.12508959704E+03 0.  0.
         23    2    1    2    0    0 -0.35241271722E+02  0.91402000816E+01  0.78329813179E+02  0.12428856324E+03  0.89367761685E+02 0.  0.
          5    1    3    3  502    0 -0.14512576973E+02  0.47762400996E+02 -0.14300608762E+02  0.52094545302E+02  0.41800000000E+01 0.  1.
         -5    1    3    3    0  502  0.49753848695E+02 -0.56902601078E+02  0.20049841874E+02  0.78312323606E+02  0.41800000000E+01 0.  1.
        -11    1    4    4    0    0  0.32789856086E+01  0.16003879158E+02  0.83264216688E+02  0.84851668666E+02  0.00000000000E+00 0.  1.
         11    1    4    4    0    0 -0.38520257331E+02 -0.68636790764E+01 -0.49344035096E+01  0.39436894570E+02  0.00000000000E+00 0. -1.
</event>
<event>
 8    1  0.3541538E-009  0.1197502E+03  0.7561462E-02  0.1243510E+00
          1   -1    0    0  501    0  0.00000000000E+00  0.00000000000E+00  0.46021203078E+03  0.46021203078E+03  0.00000000000E+00 0. -1.
         -1   -1    0    0    0  501 -0.00000000000E+00 -0.00000000000E+00 -0.45881756787E+02  0.45881756787E+02  0.00000000000E+00 0.  1.
         25    2    1    2    0    0  0.93606318389E+02 -0.24261711851E+02  0.22557719795E+03  0.27546827785E+03  0.12508767471E+03 0.  0.
         23    2    1    2    0    0 -0.93606318389E+02  0.24261711851E+02  0.18875307604E+03  0.23062550971E+03  0.90607000345E+02 0.  0.
          5    1    3    3  502    0  0.94650111270E+02 -0.31824500041E+02  0.75797618891E+02  0.12543601475E+03  0.41800000000E+01 0. -1.
         -5    1    3    3    0  502 -0.10437928814E+01  0.75627881899E+01  0.14977957906E+03  0.15003226310E+03  0.41800000000E+01 0. -1.
        -11    1    4    4    0    0 -0.10671008811E+03  0.36640877666E+02  0.17377150109E+03  0.20718622399E+03  0.00000000000E+00 0. -1.
         11    1    4    4    0    0  0.13103769721E+02 -0.12379165815E+02  0.14981574950E+02  0.23439285722E+02  0.00000000000E+00 0.  1.
</event>
<event>
 8    1  0.3541538E-009  0.1126506E+03  0.7561462E-02  0.1255739E+00
         -1   -1    0    0    0  501 -0.00000000000E+00  0.00000000000E+00  0.57777008343E+03  0.57777008343E+03  0.00000000000E+00 0.  1.
          1   -1    0    0  501    0  0.00000000000E+00 -0.00000000000E+00 -0.35164230679E+02  0.35164230679E+02  0.00000000000E+00 0. -1.
         25    2    1    2    0    0 -0.53528888631E+02  0.30055623375E+02  0.44196266009E+03  0.46340435361E+03  0.12507565558E+03 0.  0.
         23    2    1    2    0    0  0.53528888631E+02 -0.30055623375E+02  0.10064319266E+03  0.14952996049E+03  0.91986273118E+02 0.  0.
          5    1    3    3  502    0 -0.67102643474E+02 -0.14512037900E+02  0.37775058184E+03  0.38396137629E+03  0.41800000000E+01 0.  1.
         -5    1    3    3    0  502  0.13573754842E+02  0.44567661275E+02  0.64212078251E+02  0.79442977319E+02  0.41800000000E+01 0.  1.
        -11    1    4    4    0    0 -0.24638893400E+02  0.31043007467E+01  0.15445020140E+02  0.29244835412E+02  0.00000000000E+00 0.  1.
         11    1    4    4    0    0  0.78167782032E+02 -0.33159924121E+02  0.85198172518E+02  0.12028512508E+03  0.00000000000E+00 0. -1.
</event>
<event>
 8    1  0.3541538E-009  0.6154134E+02  0.7561462E-02  0.1391475E+00
          1   -1    0    0  501    0  0.00000000000E+00  0.00000000000E+00  0.13885007266E+03  0.13885007266E+03  0.00000000000E+00 0. -1.
         -1   -1    0    0    0  501 -0.00000000000E+00 -0.00000000000E+00 -0.95907427277E+02  0.95907427277E+02  0.00000000000E+00 0.  1.
         25    2    1    2    0    0  0.16820489598E+01  0.36874382127E+02  0.25122305053E+02  0.13281965608E+03  0.12508949390E+03 0.  0.
         23    2    1    2    0    0 -0.16820489598E+01 -0.36874382127E+02  0.17820340326E+02  0.10193784385E+03  0.93333863815E+02 0.  0.
          5    1    3    3  502    0 -0.17707762077E+02  0.32516559211E+02 -0.45802667849E+02  0.59044459882E+02  0.41800000000E+01 0.  1.
         -5    1    3    3    0  502  0.19389811037E+02  0.43578229155E+01  0.70924972902E+02  0.73775196196E+02  0.41800000000E+01 0.  1.
        -11    1    4    4    0    0 -0.15225189967E+02  0.89969580488E+01  0.43994233396E+02  0.47415653911E+02  0.00000000000E+00 0. -1.
         11    1    4    4    0    0  0.13543141007E+02 -0.45871340175E+02 -0.26173893071E+02  0.54522189944E+02  0.00000000000E+00 0.  1.
</event>
<event>
 8    1  0.3541538E-009  0.3054241E+03  0.7561462E-02  0.1082560E+00
         -2   -1    0    0    0  501 -0.00000000000E+00  0.00000000000E+00  0.26692824252E+03  0.26692824252E+03  0.00000000000E+00 0.  1.
          2   -1    0    0  501    0  0.00000000000E+00 -0.00000000000E+00 -0.63117741702E+03  0.63117741702E+03  0.00000000000E+00 0. -1.
         25    2    1    2    0    0  0.20919490951E+03  0.20517812703E+03 -0.47498237190E+03  0.57194294317E+03  0.12509957092E+03 0.  0.
         23    2    1    2    0    0 -0.20919490951E+03 -0.20517812703E+03  0.11073319740E+03  0.32616271637E+03  0.90882905807E+02 0.  0.
          5    1    3    3  502    0  0.85149937754E+02  0.25186331654E+02 -0.75874622374E+02  0.11687298200E+03  0.41800000000E+01 0.  1.
         -5    1    3    3    0  502  0.12404497176E+03  0.17999179538E+03 -0.39910774953E+03  0.45506996117E+03  0.41800000000E+01 0.  1.
        -11    1    4    4    0    0 -0.17424435828E+03 -0.12090173549E+03  0.99419804290E+02  0.23422771724E+03  0.00000000000E+00 0. -1.
         11    1    4    4    0    0 -0.34950551231E+02 -0.84276391542E+02  0.11313393112E+02  0.91934999137E+02  0.00000000000E+00 0.  1.
</event>
<event>
 8    1  0.3541538E-009  0.1069234E+03  0.7561462E-02  0.1266376E+00
         -1   -1    0    0    0  501 -0.00000000000E+00  0.00000000000E+00  0.30676077223E+03  0.30676077223E+03  0.00000000000E+00 0.  1.
          1   -1    0    0  501    0  0.00000000000E+00 -0.00000000000E+00 -0.65905833610E+02  0.65905833610E+02  0.00000000000E+00 0. -1.
         25    2    1    2    0    0 -0.61691297855E+02  0.63542674099E+02  0.95735665147E+02  0.18070357925E+03  0.12507988771E+03 0.  0.
         23    2    1    2    0    0  0.61691297855E+02 -0.63542674099E+02  0.14511927347E+03  0.19196302659E+03  0.89144334545E+02 0.  0.
          5    1    3    3  502    0 -0.55214541800E+02  0.44278575895E+02 -0.11195619733E+02  0.71777797477E+02  0.41800000000E+01 0.  1.
         -5    1    3    3    0  502 -0.64767560546E+01  0.19264098204E+02  0.10693128488E+03  0.10892578177E+03  0.41800000000E+01 0.  1.
        -11    1    4    4    0    0  0.13574400842E+01 -0.61825118187E+02  0.95760804018E+02  0.11399262901E+03  0.00000000000E+00 0.  1.
         11    1    4    4    0    0  0.60333857771E+02 -0.17175559120E+01  0.49358469453E+02  0.77970397579E+02  0.00000000000E+00 0. -1.
</event>
<event>
 8    1  0.3541538E-009  0.1347740E+03  0.7561462E-02  0.1220539E+00
         -3   -1    0    0    0  501 -0.00000000000E+00  0.00000000000E+00  0.19013912301E+03  0.19013912301E+03  0.00000000000E+00 0.  1.
          3   -1    0    0  501    0  0.00000000000E+00 -0.00000000000E+00 -0.13803654916E+03  0.13803654916E+03  0.00000000000E+00 0. -1.
         25    2    1    2    0    0  0.64920126379E+02 -0.91652672274E+02 -0.15290549247E+02  0.16880599335E+03  0.12508727893E+03 0.  0.
         23    2    1    2    0    0 -0.64920126379E+02  0.91652672274E+02  0.67393123095E+02  0.15936967882E+03  0.90785606470E+02 0.  0.
          5    1    3    3  502    0  0.24658223991E+02 -0.86697880428E+02  0.41150772672E+02  0.99173630429E+02  0.41800000000E+01 0. -1.
         -5    1    3    3    0  502  0.40261902388E+02 -0.49547918461E+01 -0.56441321920E+02  0.69632362923E+02  0.41800000000E+01 0. -1.
        -11    1    4    4    0    0 -0.24229163175E+02 -0.12103774504E+02 -0.34596691518E+01  0.27304267360E+02  0.00000000000E+00 0. -1.
         11    1    4    4    0    0 -0.40690963204E+02  0.10375644678E+03  0.70852792247E+02  0.13206541146E+03  0.00000000000E+00 0.  1.
</event>
<event>
 8    1  0.3541538E-009  0.1263985E+03  0.7561462E-02  0.1232900E+00
          3   -1    0    0  501    0  0.00000000000E+00  0.00000000000E+00  0.35775555619E+02  0.35775555619E+02  0.00000000000E+00 0. -1.
         -3   -1    0    0    0  501 -0.00000000000E+00 -0.00000000000E+00 -0.68397938759E+03  0.68397938759E+03  0.00000000000E+00 0.  1.
         25    2    1    2    0    0  0.68348817435E+02  0.65345862473E+00 -0.54296410122E+03  0.56136104843E+03  0.12507687089E+03 0.  0.
         23    2    1    2    0    0 -0.68348817435E+02 -0.65345862473E+00 -0.10523973075E+03  0.15839389477E+03  0.96650075635E+02 0.  0.
          5    1    3    3  502    0  0.10100431119E+03  0.52277424896E+01 -0.47547785273E+03  0.48613358350E+03  0.41800000000E+01 0.  1.
         -5    1    3    3    0  502 -0.32655493752E+02 -0.45742838649E+01 -0.67486248488E+02  0.75227464932E+02  0.41800000000E+01 0.  1.
        -11    1    4    4    0    0 -0.15100878596E+02 -0.45985890994E+02 -0.45186777400E+02  0.66216188026E+02  0.00000000000E+00 0.  1.
         11    1    4    4    0    0 -0.53247938840E+02  0.45332432370E+02 -0.60052953349E+02  0.92177706747E+02  0.00000000000E+00 0. -1.
</event>
<event>
 8    1  0.3541538E-009  0.1067482E+03  0.7561462E-02  0.1266713E+00
          2   -1    0    0  501    0  0.00000000000E+00  0.00000000000E+00  0.21874106580E+03  0.21874106580E+03  0.00000000000E+00 0. -1.
         -2   -1    0    0    0  501 -0.00000000000E+00 -0.00000000000E+00 -0.11743739877E+03  0.11743739877E+03  0.00000000000E+00 0.  1.
         25    2    1    2    0    0 -0.17505196853E+02 -0.63128719102E+00 -0.67967877204E+02  0.14343706267E+03  0.12509087966E+03 0.  0.
         23    2    1    2    0    0  0.17505196853E+02  0.63128719102E+00  0.16927154423E+03  0.19274140190E+03  0.90496198155E+02 0.  0.
          5    1    3    3  502    0 -0.60236840108E+02 -0.36309354490E+02 -0.39441159530E+02  0.80746043833E+02  0.41800000000E+01 0.  1.
         -5    1    3    3    0  502  0.42731643254E+02  0.35678067299E+02 -0.28526717674E+02  0.62691018836E+02  0.41800000000E+01 0.  1.
        -11    1    4    4    0    0  0.13607944562E+02 -0.42131133876E+02  0.54605696314E+02  0.70299293501E+02  0.00000000000E+00 0.  1.
         11    1    4    4    0    0  0.38972522913E+01  0.42762421067E+02  0.11466584792E+03  0.12244210840E+03  0.00000000000E+00 0. -1.
</event>
<event>
 8    1  0.3541538E-009  0.1088030E+03  0.7561462E-02  0.1262803E+00
          2   -1    0    0  501    0  0.00000000000E+00  0.00000000000E+00  0.10047757579E+04  0.10047757579E+04  0.00000000000E+00 0. -1.
         -2   -1    0    0    0  501 -0.00000000000E+00 -0.00000000000E+00 -0.21314557580E+02  0.21314557580E+02  0.00000000000E+00 0.  1.
         25    2    1    2    0    0 -0.34371278823E+02  0.51900538528E+02  0.79508325614E+03  0.80726698468E+03  0.12509016614E+03 0.  0.
         23    2    1    2    0    0  0.34371278823E+02 -0.51900538528E+02  0.18837794419E+03  0.21882333080E+03  0.92316572392E+02 0.  0.
          5    1    3    3  502    0 -0.77994092474E+02  0.33562149969E+02  0.62201252230E+03  0.62779498777E+03  0.41800000000E+01 0. -1.
         -5    1    3    3    0  502  0.43622813651E+02  0.18338388559E+02  0.17307073383E+03  0.17947199691E+03  0.41800000000E+01 0. -1.
        -11    1    4    4    0    0  0.41936772020E+02 -0.10809006145E+02  0.24614180588E+02  0.49813505672E+02  0.00000000000E+00 0.  1.
         11    1    4    4    0    0 -0.75654931974E+01 -0.41091532383E+02  0.16376376360E+03  0.16900982513E+03  0.00000000000E+00 0. -1.
</event>
<event>
 8    1  0.3541538E-009  0.1220701E+03  0.7561462E-02  0.1239721E+00
         -4   -1    0    0    0  501 -0.00000000000E+00  0.00000000000E+00  0.43506795495E+03  0.43506795495E+03  0.00000000000E+00 0.  1.
          4   -1    0    0  501    0  0.00000000000E+00 -0.00000000000E+00 -0.48505055415E+02  0.48505055415E+02  0.00000000000E+00 0. -1.
         25    2    1    2    0    0 -0.22516144557E+02  0.64424435081E+02  0.32298212016E+03  0.35301940897E+03  0.12509104111E+03 0.  0.
         23    2    1    2    0    0  0.22516144557E+02 -0.64424435081E+02  0.63580779379E+02  0.13055360140E+03  0.91346826600E+02 0.  0.
          5    1    3    3  502    0 -0.46613638515E+02  0.85734675459E+02  0.29297980736E+03  0.30883313584E+03  0.41800000000E+01 0.  1.
         -5    1    3    3    0  502  0.24097493958E+02 -0.21310240378E+02  0.30002312799E+02  0.44186273132E+02  0.41800000000E+01 0.  1.
        -11    1    4    4    0    0  0.41027408356E+02 -0.79951284606E+02  0.49927092056E+02  0.10280160829E+03  0.00000000000E+00 0.  1.
         11    1    4    4    0    0 -0.18511263799E+02  0.15526849526E+02  0.13653687324E+02  0.27751993103E+02  0.00000000000E+00 0. -1.
</event>
<event>
 8    1  0.3541538E-009  0.1571201E+03  0.7561462E-02  0.1191987E+00
         -2   -1    0    0    0  501 -0.00000000000E+00  0.00000000000E+00  0.26741844818E+03  0.26741844818E+03  0.00000000000E+00 0.  1.
          2   -1    0    0  501    0  0.00000000000E+00 -0.00000000000E+00 -0.17433554365E+03  0.17433554365E+03  0.00000000000E+00 0. -1.
         25    2    1    2    0    0  0.94997263004E+02 -0.80686954312E+02  0.19024327687E+03  0.25956716654E+03  0.12509094682E+03 0.  0.
         23    2    1    2    0    0 -0.94997263004E+02  0.80686954312E+02 -0.97160372339E+02  0.18218682529E+03  0.90647872467E+02 0.  0.
          5    1    3    3  502    0  0.73940465204E+02  0.28164309185E+01  0.34938240782E+02  0.81934594322E+02  0.41800000000E+01 0. -1.
         -5    1    3    3    0  502  0.21056797800E+02 -0.83503385231E+02  0.15530503609E+03  0.17763257222E+03  0.41800000000E+01 0. -1.
        -11    1    4    4    0    0 -0.11235035976E+03  0.76900579004E+02 -0.82825405899E+02  0.15936232381E+03  0.00000000000E+00 0.  1.
         11    1    4    4    0    0  0.17353096754E+02  0.37863753082E+01 -0.14334966440E+02  0.22824501479E+02  0.00000000000E+00 0. -1.
</event>
<event>
 8    1  0.3541538E-009  0.1802117E+03  0.7561462E-02  0.1167598E+00
         -1   -1    0    0    0  501 -0.00000000000E+00  0.00000000000E+00  0.38072048329E+02  0.38072048329E+02  0.00000000000E+00 0.  1.
          1   -1    0    0  501    0  0.00000000000E+00 -0.00000000000E+00 -0.92207506875E+03  0.92207506875E+03  0.00000000000E+00 0. -1.
         25    2    1    2    0    0  0.43286140351E+02 -0.13498787610E+03 -0.59204778324E+03  0.62150095017E+03  0.12508971496E+03 0.  0.
         23    2    1    2    0    0 -0.43286140351E+02  0.13498787610E+03 -0.29195523718E+03  0.33864616690E+03  0.96684793020E+02 0.  0.
          5    1    3    3  502    0  0.78456142389E+02 -0.41461193553E+02 -0.26381576722E+03  0.27837138553E+03  0.41800000000E+01 0. -1.
         -5    1    3    3    0  502 -0.35170002038E+02 -0.93526682543E+02 -0.32823201602E+03  0.34312956464E+03  0.41800000000E+01 0. -1.
        -11    1    4    4    0    0  0.10288537543E+02  0.11332392541E+03 -0.19548091599E+03  0.22618787454E+03  0.00000000000E+00 0.  1.
         11    1    4    4    0    0 -0.53574677894E+02  0.21663950687E+02 -0.96474321188E+02  0.11245829236E+03  0.00000000000E+00 0. -1.
</event>
<event>
 8    1  0.3541538E-009  0.9914184E+02  0.7561462E-02  0.1282111E+00
         -1   -1    0    0    0  501 -0.00000000000E+00  0.00000000000E+00  0.20485817748E+03  0.20485817748E+03  0.00000000000E+00 0.  1.
          1   -1    0    0  501    0  0.00000000000E+00 -0.00000000000E+00 -0.59670488146E+02  0.59670488146E+02  0.00000000000E+00 0. -1.
         25    2    1    2    0    0 -0.99157899402E+01 -0.83409456833E+01  0.62920651205E+02  0.14062164013E+03  0.12509013974E+03 0.  0.
         23    2    1    2    0    0  0.99157899402E+01  0.83409456833E+01  0.82267038126E+02  0.12390702549E+03  0.91745251318E+02 0.  0.
          5    1    3    3  502    0  0.45773238834E+01  0.57173426392E+02  0.37969873845E+02  0.68912526431E+02  0.41800000000E+01 0.  1.
         -5    1    3    3    0  502 -0.14493113824E+02 -0.65514372075E+02  0.24950777360E+02  0.71709113699E+02  0.41800000000E+01 0.  1.
        -11    1    4    4    0    0  0.97744359801E+01  0.40360363997E+02  0.81966562369E+02  0.91885885354E+02  0.00000000000E+00 0.  1.
         11    1    4    4    0    0  0.14135396013E+00 -0.32019418313E+02  0.30047575630E+00  0.32021140138E+02  0.00000000000E+00 0. -1.
</event>
<event>
 8    1  0.3541538E-009  0.1089521E+03  0.7561462E-02  0.1262523E+00
          4   -1    0    0  501    0  0.00000000000E+00  0.00000000000E+00  0.58506931969E+02  0.58506931969E+02  0.00000000000E+00 0.  1.
         -4   -1    0    0    0  501 -0.00000000000E+00 -0.00000000000E+00 -0.27876470018E+03  0.27876470018E+03  0.00000000000E+00 0. -1.
         25    2    1    2    0    0 -0.48263612869E+02 -0.45591350529E+02 -0.14076146036E+03  0.19967581533E+03  0.12509474383E+03 0.  0.
         23    2    1    2    0    0  0.48263612869E+02  0.45591350529E+02 -0.79496307851E+02  0.13759581682E+03  0.90581445529E+02 0.  0.
          5    1    3    3  502    0 -0.84637734006E+02 -0.56955523436E+01 -0.10377555258E+03  0.13410004865E+03  0.41800000000E+01 0.  1.
         -5    1    3    3    0  502  0.36374121138E+02 -0.39895798185E+02 -0.36985907774E+02  0.65575766676E+02  0.41800000000E+01 0.  1.
        -11    1    4    4    0    0  0.23686040657E+02 -0.34797070508E+01 -0.79172551814E+02  0.82712936376E+02  0.00000000000E+00 0. -1.
         11    1    4    4    0    0  0.24577572212E+02  0.49071057580E+02 -0.32375603641E+00  0.54882880443E+02  0.00000000000E+00 0.  1.
</event>
<event>
 8    1  0.3541538E-009  0.1145193E+03  0.7561462E-02  0.1252423E+00
         -1   -1    0    0    0  501 -0.00000000000E+00  0.00000000000E+00  0.94717081221E+02  0.94717081221E+02  0.00000000000E+00 0.  1.
          1   -1    0    0  501    0  0.00000000000E+00 -0.00000000000E+00 -0.24264634191E+03  0.24264634191E+03  0.00000000000E+00 0. -1.
         25    2    1    2    0    0  0.23212785393E+02  0.65771949060E+02  0.83525262087E+01  0.14346531723E+03  0.12509096636E+03 0.  0.
         23    2    1    2    0    0 -0.23212785393E+02 -0.65771949060E+02 -0.15628178690E+03  0.19389810590E+03  0.91146562561E+02 0.  0.
          5    1    3    3  502    0 -0.24371113179E+02 -0.17834808534E+02  0.32119841413E+02  0.44285304170E+02  0.41800000000E+01 0. -1.
         -5    1    3    3    0  502  0.47583898572E+02  0.83606757594E+02 -0.23767315205E+02  0.99180013061E+02  0.41800000000E+01 0. -1.
        -11    1    4    4    0    0 -0.49216732987E+02 -0.55816390337E+02 -0.14662201864E+03  0.16442558374E+03  0.00000000000E+00 0. -1.
         11    1    4    4    0    0  0.26003947593E+02 -0.99555587230E+01 -0.96597682547E+01  0.29472522163E+02  0.00000000000E+00 0.  1.
</event>
<event>
 8    1  0.3541538E-009  0.1118393E+03  0.7561462E-02  0.1257201E+00
          2   -1    0    0  501    0  0.00000000000E+00  0.00000000000E+00  0.30066014335E+03  0.30066014335E+03  0.00000000000E+00 0. -1.
         -2   -1    0    0    0  501 -0.00000000000E+00 -0.00000000000E+00 -0.44585190513E+02  0.44585190513E+02  0.00000000000E+00 0.  1.
         25    2    1    2    0    0 -0.32316886325E+02 -0.26344911159E+02  0.14957653377E+03  0.19939323343E+03  0.12508431795E+03 0.  0.
         23    2    1    2    0    0  0.32316886325E+02  0.26344911159E+02  0.10649841907E+03  0.14585210043E+03  0.90512355242E+02 0.  0.
          5    1    3    3  502    0  0.82990655504E+00 -0.69420315674E+02  0.49281598360E+02  0.85240936821E+02  0.41800000000E+01 0.  1.
         -5    1    3    3    0  502 -0.33146792880E+02  0.43075404515E+02  0.10029493541E+03  0.11415229661E+03  0.41800000000E+01 0.  1.
        -11    1    4    4    0    0  0.55593251050E+02 -0.99702258483E+01  0.58346308452E+02  0.81205336498E+02  0.00000000000E+00 0. -1.
         11    1    4    4    0    0 -0.23276364725E+02  0.36315137008E+02  0.48152110616E+02  0.64646763936E+02  0.00000000000E+00 0.  1.
</event>
<event>
 8    1  0.3541538E-009  0.1038729E+03  0.7561462E-02  0.1272356E+00
         -3   -1    0    0    0  501 -0.00000000000E+00  0.00000000000E+00  0.17616024782E+03  0.17616024782E+03  0.00000000000E+00 0.  1.
          3   -1    0    0  501    0  0.00000000000E+00 -0.00000000000E+00 -0.12004707426E+03  0.12004707426E+03  0.00000000000E+00 0. -1.
         25    2    1    2    0    0 -0.32426805632E+02  0.23087675277E+02  0.11868454754E+03  0.17696850926E+03  0.12508914011E+03 0.  0.
         23    2    1    2    0    0  0.32426805632E+02 -0.23087675277E+02 -0.62571373985E+02  0.11923881282E+03  0.93371190241E+02 0.  0.
          5    1    3    3  502    0  0.32015006125E+02 -0.13568081810E+02  0.91364442821E+02  0.97846754025E+02  0.41800000000E+01 0. -1.
         -5    1    3    3    0  502 -0.64441811757E+02  0.36655757087E+02  0.27320104720E+02  0.79121755239E+02  0.41800000000E+01 0. -1.
        -11    1    4    4    0    0  0.60900885921E+02 -0.31784257115E+02 -0.56285393480E+02  0.88809923013E+02  0.00000000000E+00 0. -1.
         11    1    4    4    0    0 -0.28474080289E+02  0.86965818379E+01 -0.62859805046E+01  0.30428889807E+02  0.00000000000E+00 0.  1.
</event>
<event>
 8    1  0.3541538E-009  0.9860609E+02  0.7561462E-02  0.1283255E+00
          2   -1    0    0  501    0  0.00000000000E+00  0.00000000000E+00  0.23527371889E+03  0.23527371889E+03  0.00000000000E+00 0. -1.
         -2   -1    0    0    0  501 -0.00000000000E+00 -0.00000000000E+00 -0.67702054946E+02  0.67702054946E+02  0.00000000000E+00 0.  1.
         25    2    1    2    0    0  0.14103947835E+02  0.64638113653E+02  0.10141295815E+03  0.17409467368E+03  0.12508940900E+03 0.  0.
         23    2    1    2    0    0 -0.14103947835E+02 -0.64638113653E+02  0.66158705801E+02  0.12888110016E+03  0.88636090526E+02 0.  0.
          5    1    3    3  502    0  0.55396399738E+02  0.31092333445E+01  0.78883318619E+02  0.96532268140E+02  0.41800000000E+01 0. -1.
         -5    1    3    3    0  502 -0.41292451903E+02  0.61528880308E+02  0.22529639528E+02  0.77562405542E+02  0.41800000000E+01 0. -1.
        -11    1    4    4    0    0 -0.14837301002E+02 -0.39348971954E+02 -0.14394172509E+02  0.44448614119E+02  0.00000000000E+00 0.  1.
         11    1    4    4    0    0  0.73335316784E+00 -0.25289141699E+02  0.80552878311E+02  0.84432486040E+02  0.00000000000E+00 0. -1.
</event>
<event>
 8    1  0.3541538E-009  0.1020559E+03  0.7561462E-02  0.1276031E+00
          4   -1    0    0  501    0  0.00000000000E+00  0.00000000000E+00  0.16325921477E+03  0.16325921477E+03  0.00000000000E+00 0. -1.
         -4   -1    0    0    0  501 -0.00000000000E+00 -0.00000000000E+00 -0.79156292597E+02  0.79156292597E+02  0.00000000000E+00 0.  1.
         25    2    1    2    0    0 -0.28527070879E+02  0.17083620492E+02  0.52167990283E+02  0.13956256089E+03  0.12510221952E+03 0.  0.
         23    2    1    2    0    0  0.28527070879E+02 -0.17083620492E+02  0.31934931886E+02  0.10285294648E+03  0.91941529584E+02 0.  0.
          5    1    3    3  502    0 -0.64659433263E+02 -0.52588284786E+01  0.67962280720E+02  0.94047017962E+02  0.41800000000E+01 0.  1.
         -5    1    3    3    0  502  0.36132362384E+02  0.22342448970E+02 -0.15794290437E+02  0.45515542926E+02  0.41800000000E+01 0.  1.
        -11    1    4    4    0    0  0.17746773194E+02 -0.54584708797E+02  0.10554727076E+02  0.58359580678E+02  0.00000000000E+00 0.  1.
         11    1    4    4    0    0  0.10780297685E+02  0.37501088306E+02  0.21380204810E+02  0.44493365798E+02  0.00000000000E+00 0. -1.
</event>
<event>
 8    1  0.3541538E-009  0.1040182E+03  0.7561462E-02  0.1272066E+00
          2   -1    0    0  501    0  0.00000000000E+00  0.00000000000E+00  0.22160228620E+03  0.22160228620E+03  0.00000000000E+00 0.  1.
         -2   -1    0    0    0  501 -0.00000000000E+00 -0.00000000000E+00 -0.54948940321E+02  0.54948940321E+02  0.00000000000E+00 0. -1.
         25    2    1    2    0    0  0.23369113848E+02  0.44785446179E+01  0.10768810946E+03  0.16676443543E+03  0.12508986833E+03 0.  0.
         23    2    1    2    0    0 -0.23369113848E+02 -0.44785446179E+01  0.58965236413E+02  0.10978679109E+03  0.89498980716E+02 0.  0.
          5    1    3    3  502    0 -0.30458415979E+02  0.41279179328E+02  0.81459574166E+02  0.96357772770E+02  0.41800000000E+01 0.  1.
         -5    1    3    3    0  502  0.53827529827E+02 -0.36800634710E+02  0.26228535298E+02  0.70406662655E+02  0.41800000000E+01 0.  1.
        -11    1    4    4    0    0  0.25780108712E+02 -0.26853123717E+02  0.33507490964E+02  0.50084490706E+02  0.00000000000E+00 0.  1.
         11    1    4    4    0    0 -0.49149222560E+02  0.22374579099E+02  0.25457745448E+02  0.59702300386E+02  0.00000000000E+00 0. -1.
</event>
<event>
 8    1  0.3541538E-009  0.1385150E+03  0.7561462E-02  0.1215341E+00
         -3   -1    0    0    0  501 -0.00000000000E+00  0.00000000000E+00  0.15317872043E+03  0.15317872043E+03  0.00000000000E+00 0.  1.
          3   -1    0    0  501    0  0.00000000000E+00 -0.00000000000E+00 -0.18910837030E+03  0.18910837030E+03  0.00000000000E+00 0. -1.
         25    2    1    2    0    0 -0.71411037746E+02  0.10706267965E+03 -0.43853988312E+02  0.18474945847E+03  0.12508891409E+03 0.  0.
         23    2    1    2    0    0  0.71411037746E+02 -0.10706267965E+03  0.79243384416E+01  0.15753763226E+03  0.90517162757E+02 0.  0.
          5    1    3    3  502    0 -0.19002368838E+02  0.27138798537E+02 -0.76658151984E+02  0.83615483453E+02  0.41800000000E+01 0. -1.
         -5    1    3    3    0  502 -0.52408668908E+02  0.79923881115E+02  0.32804163672E+02  0.10113397502E+03  0.41800000000E+01 0. -1.
        -11    1    4    4    0    0  0.27887185034E+02 -0.10007772083E+03  0.30141307574E+02  0.10817459830E+03  0.00000000000E+00 0.  1.
         11    1    4    4    0    0  0.43523852712E+02 -0.69849588235E+01 -0.22216969133E+02  0.49363033964E+02  0.00000000000E+00 0. -1.
</event>
<event>
 8    1  0.3541538E-009  0.8706406E+02  0.7561462E-02  0.1310121E+00
          2   -1    0    0  501    0  0.00000000000E+00  0.00000000000E+00  0.54772032650E+03  0.54772032650E+03  0.00000000000E+00 0.  1.
         -2   -1    0    0    0  501 -0.00000000000E+00 -0.00000000000E+00 -0.25165336317E+02  0.25165336317E+02  0.00000000000E+00 0. -1.
         25    2    1    2    0    0 -0.21194881351E+02 -0.25797192514E+02  0.37258740456E+03  0.39443912865E+03  0.12508450758E+03 0.  0.
         23    2    1    2    0    0  0.21194881351E+02  0.25797192514E+02  0.14996758562E+03  0.17844653416E+03  0.90764369006E+02 0.  0.
          5    1    3    3  502    0  0.19297974057E+01 -0.56052330908E+02  0.33856100411E+03  0.34320054461E+03  0.41800000000E+01 0. -1.
         -5    1    3    3    0  502 -0.23124678756E+02  0.30255138394E+02  0.34026400454E+02  0.51238584042E+02  0.41800000000E+01 0. -1.
        -11    1    4    4    0    0 -0.24798636487E+02  0.22469314205E+02  0.11718010385E+03  0.12186475779E+03  0.00000000000E+00 0.  1.
         11    1    4    4    0    0  0.45993517837E+02  0.33278783090E+01  0.32787481774E+02  0.56581776379E+02  0.00000000000E+00 0. -1.
</event>
<event>
 8    1  0.3541538E-009  0.1123545E+03  0.7561462E-02  0.1256271E+00
         -1   -1    0    0    0  501 -0.00000000000E+00  0.00000000000E+00  0.88639294498E+02  0.88639294498E+02  0.00000000000E+00 0.  1.
          1   -1    0    0  501    0  0.00000000000E+00 -0.00000000000E+00 -0.21559470041E+03  0.21559470041E+03  0.00000000000E+00 0. -1.
         25    2    1    2    0    0 -0.21127835246E+02  0.29642773873E+02 -0.15436561043E+03  0.20199412538E+03  0.12509118890E+03 0.  0.
         23    2    1    2    0    0  0.21127835246E+02 -0.29642773873E+02  0.27410204521E+02  0.10223986952E+03  0.91523724482E+02 0.  0.
          5    1    3    3  502    0 -0.58502101424E+02  0.56286711830E+02 -0.11797713518E+03  0.14327165325E+03  0.41800000000E+01 0. -1.
         -5    1    3    3    0  502  0.37374266178E+02 -0.26643937958E+02 -0.36388475253E+02  0.58722472134E+02  0.41800000000E+01 0. -1.
        -11    1    4    4    0    0 -0.21686058367E+01  0.31667701987E+02  0.16422393559E+02  0.35738511589E+02  0.00000000000E+00 0.  1.
         11    1    4    4    0    0  0.23296441083E+02 -0.61310475860E+02  0.10987810963E+02  0.66501357934E+02  0.00000000000E+00 0. -1.
</event>
<event>
 8    1  0.3541538E-009  0.1036875E+03  0.7561462E-02  0.1272727E+00
          2   -1    0    0  501    0  0.00000000000E+00  0.00000000000E+00  0.16035588770E+03  0.16035588770E+03  0.00000000000E+00 0.  1.
         -2   -1    0    0    0  501 -0.00000000000E+00 -0.00000000000E+00 -0.90761561719E+02  0.90761561719E+02  0.00000000000E+00 0. -1.
         25    2    1    2    0    0  0.51886408034E+02 -0.12238868155E+01  0.21919531005E+02  0.13719090525E+03  0.12508869415E+03 0.  0.
         23    2    1    2    0    0 -0.51886408034E+02  0.12238868155E+01  0.47674794976E+02  0.11392654417E+03  0.89513541733E+02 0.  0.
          5    1    3    3  502    0  0.60185936014E+02 -0.37390343150E+02 -0.26746137353E+02  0.75849936837E+02  0.41800000000E+01 0. -1.
         -5    1    3    3    0  502 -0.82995279802E+01  0.36166456335E+02  0.48665668358E+02  0.61340968408E+02  0.41800000000E+01 0. -1.
        -11    1    4    4    0    0 -0.16263379724E+02 -0.40825473760E+02  0.37742116652E+02  0.57928267686E+02  0.00000000000E+00 0.  1.
         11    1    4    4    0    0 -0.35623028311E+02  0.42049360575E+02  0.99326783240E+01  0.55998276487E+02  0.00000000000E+00 0. -1.
</event>
<event>
 8    1  0.3541538E-009  0.8693917E+02  0.7561462E-02  0.1310438E+00
          2   -1    0    0  501    0  0.00000000000E+00  0.00000000000E+00  0.16144846410E+03  0.16144846410E+03  0.00000000000E+00 0. -1.
         -2   -1    0    0    0  501 -0.00000000000E+00 -0.00000000000E+00 -0.82920111584E+02  0.82920111584E+02  0.00000000000E+00 0.  1.
         25    2    1    2    0    0  0.58983358085E+01 -0.58934843937E+01  0.80246080349E+02  0.14885578170E+03  0.12509631014E+03 0.  0.
         23    2    1    2    0    0 -0.58983358085E+01  0.58934843937E+01 -0.17177278315E+01  0.95512793990E+02  0.95132642680E+02 0.  0.
          5    1    3    3  502    0  0.72238721221E+01 -0.61329237093E+02  0.16085934135E+02  0.63950678869E+02  0.41800000000E+01 0.  1.
         -5    1    3    3    0  502 -0.13255363136E+01  0.55435752699E+02  0.64160146214E+02  0.84905102827E+02  0.41800000000E+01 0.  1.
        -11    1    4    4    0    0 -0.20886358016E+02  0.24686716758E+02  0.37498414492E+02  0.49515704831E+02  0.00000000000E+00 0. -1.
         11    1    4    4    0    0  0.14988022208E+02 -0.18793232365E+02 -0.39216142323E+02  0.45997089159E+02  0.00000000000E+00 0.  1.
</event>
<event>
 8    1  0.3541538E-009  0.8971696E+02  0.7561462E-02  0.1303539E+00
         -1   -1    0    0    0  501 -0.00000000000E+00  0.00000000000E+00  0.27608878617E+03  0.27608878617E+03  0.00000000000E+00 0.  1.
          1   -1    0    0  501    0  0.00000000000E+00 -0.00000000000E+00 -0.52748099297E+02  0.52748099297E+02  0.00000000000E+00 0. -1.
         25    2    1    2    0    0 -0.12520274768E+02 -0.25877166112E+02  0.62474224330E+02  0.14274810046E+03  0.12509039321E+03 0.  0.
         23    2    1    2    0    0  0.12520274768E+02  0.25877166112E+02  0.16086646254E+03  0.18608878500E+03  0.89020402876E+02 0.  0.
          5    1    3    3  502    0  0.24418920234E+02  0.17653380365E+02 -0.24203050389E+02  0.38873970106E+02  0.41800000000E+01 0. -1.
         -5    1    3    3    0  502 -0.36939195002E+02 -0.43530546477E+02  0.86677274719E+02  0.10387413035E+03  0.41800000000E+01 0. -1.
        -11    1    4    4    0    0  0.50206241458E+02  0.17454163288E+02  0.74863628512E+02  0.91814363644E+02  0.00000000000E+00 0. -1.
         11    1    4    4    0    0 -0.37685966690E+02  0.84230028235E+01  0.86002834028E+02  0.94274421360E+02  0.00000000000E+00 0.  1.
</event>
<event>
 8    1  0.3541538E-009  0.1085089E+03  0.7561462E-02  0.1263356E+00
          1   -1    0    0  501    0  0.00000000000E+00  0.00000000000E+00  0.86547327547E+02  0.86547327547E+02  0.00000000000E+00 0. -1.
         -1   -1    0    0    0  501 -0.00000000000E+00 -0.00000000000E+00 -0.15371770297E+03  0.15371770297E+03  0.00000000000E+00 0.  1.
         25    2    1    2    0    0 -0.23075395742E+02 -0.36589384025E+00 -0.11266638569E+02  0.12769770115E+03  0.12508860047E+03 0.  0.
         23    2    1    2    0    0  0.23075395742E+02  0.36589384025E+00 -0.55903736858E+02  0.11256732937E+03  0.94939812929E+02 0.  0.
          5    1    3    3  502    0 -0.54464973338E+02 -0.45777622582E+02 -0.36193753831E+00  0.71271505167E+02  0.41800000000E+01 0. -1.
         -5    1    3    3    0  502  0.31389577596E+02  0.45411728742E+02 -0.10904701031E+02  0.56426195987E+02  0.41800000000E+01 0. -1.
        -11    1    4    4    0    0 -0.26423606430E+02 -0.23564356100E+02 -0.43712515857E+02  0.56251843505E+02  0.00000000000E+00 0. -1.
         11    1    4    4    0    0  0.49499002172E+02  0.23930249941E+02 -0.12191221001E+02  0.56315485861E+02  0.00000000000E+00 0.  1.
</event>
<event>
 8    1  0.3541538E-009  0.9727094E+02  0.7561462E-02  0.1286142E+00
         -2   -1    0    0    0  501 -0.00000000000E+00  0.00000000000E+00  0.76850873943E+02  0.76850873943E+02  0.00000000000E+00 0.  1.
          2   -1    0    0  501    0  0.00000000000E+00 -0.00000000000E+00 -0.27843574811E+03  0.27843574811E+03  0.00000000000E+00 0. -1.
         25    2    1    2    0    0 -0.30229077563E+02  0.89766430844E+02 -0.14718102373E+03  0.21513182690E+03  0.12509052706E+03 0.  0.
         23    2    1    2    0    0  0.30229077563E+02 -0.89766430844E+02 -0.54403850434E+02  0.14015479515E+03  0.87816732037E+02 0.  0.
          5    1    3    3  502    0 -0.75012840349E+01  0.29991114000E+02  0.19339674026E+02  0.36704653282E+02  0.41800000000E+01 0. -1.
         -5    1    3    3    0  502 -0.22727793528E+02  0.59775316844E+02 -0.16652069776E+03  0.17842717361E+03  0.41800000000E+01 0. -1.
        -11    1    4    4    0    0  0.53871666517E+01 -0.61054840844E+02 -0.75081509351E+02  0.96922382355E+02  0.00000000000E+00 0. -1.
         11    1    4    4    0    0  0.24841910912E+02 -0.28711590000E+02  0.20677658917E+02  0.43232412798E+02  0.00000000000E+00 0.  1.
</event>
<event>
 8    1  0.3541538E-009  0.9723590E+02  0.7561462E-02  0.1286218E+00
         -1   -1    0    0    0  501 -0.00000000000E+00  0.00000000000E+00  0.39391225210E+03  0.39391225210E+03  0.00000000000E+00 0.  1.
          1   -1    0    0  501    0  0.00000000000E+00 -0.00000000000E+00 -0.37070674023E+02  0.37070674023E+02  0.00000000000E+00 0. -1.
         25    2    1    2    0    0  0.33813087493E+02 -0.46042258234E+02  0.18900740085E+03  0.23374045742E+03  0.12509032509E+03 0.  0.
         23    2    1    2    0    0 -0.33813087493E+02  0.46042258234E+02  0.16783417723E+03  0.19724246870E+03  0.86446896908E+02 0.  0.
          5    1    3    3  502    0 -0.42832981628E+02  0.22403809193E+01  0.88086249512E+02  0.98062956181E+02  0.41800000000E+01 0.  1.
         -5    1    3    3    0  502  0.76646069121E+02 -0.48282639154E+02  0.10092115134E+03  0.13567750124E+03  0.41800000000E+01 0.  1.
        -11    1    4    4    0    0 -0.23990156453E+02  0.15378851063E+02  0.16204041293E+03  0.16452699502E+03  0.00000000000E+00 0.  1.
         11    1    4    4    0    0 -0.98229310401E+01  0.30663407171E+02  0.57937642939E+01  0.32715473682E+02  0.00000000000E+00 0. -1.
</event>
<event>
 8    1  0.3541538E-009  0.1833694E+03  0.7561462E-02  0.1164581E+00
         -1   -1    0    0    0  501 -0.00000000000E+00  0.00000000000E+00  0.11985462536E+03  0.11985462536E+03  0.00000000000E+00 0.  1.
          1   -1    0    0  501    0  0.00000000000E+00 -0.00000000000E+00 -0.36585246972E+03  0.36585246972E+03  0.00000000000E+00 0. -1.
         25    2    1    2    0    0 -0.16325510997E+02  0.15553926699E+03 -0.26574148207E+02  0.20202393776E+03  0.12509396544E+03 0.  0.
         23    2    1    2    0    0  0.16325510997E+02 -0.15553926699E+03 -0.21942369615E+03  0.28368315732E+03  0.88715215310E+02 0.  0.
          5    1    3    3  502    0 -0.48747592455E+02  0.90065476069E+01 -0.12222016531E+01  0.49763559427E+02  0.41800000000E+01 0.  1.
         -5    1    3    3    0  502  0.32422081458E+02  0.14653271938E+03 -0.25351946553E+02  0.15226037833E+03  0.41800000000E+01 0.  1.
        -11    1    4    4    0    0 -0.12473448632E+02 -0.12205211713E+03 -0.10662650472E+03  0.16254697083E+03  0.00000000000E+00 0.  1.
         11    1    4    4    0    0  0.28798959629E+02 -0.33487149852E+02 -0.11279719143E+03  0.12113618648E+03  0.00000000000E+00 0. -1.
</event>
<event>
 8    1  0.3541538E-009  0.8708913E+02  0.7561462E-02  0.1310058E+00
         -1   -1    0    0    0  501 -0.00000000000E+00  0.00000000000E+00  0.12629999864E+03  0.12629999864E+03  0.00000000000E+00 0.  1.
          1   -1    0    0  501    0  0.00000000000E+00 -0.00000000000E+00 -0.12800341116E+03  0.12800341116E+03  0.00000000000E+00 0. -1.
         25    2    1    2    0    0 -0.85949517409E+01  0.66010619189E+02  0.12321992431E+02  0.14223463702E+03  0.12509030909E+03 0.  0.
         23    2    1    2    0    0  0.85949517409E+01 -0.66010619189E+02 -0.14025404951E+02  0.11206877278E+03  0.89058535847E+02 0.  0.
          5    1    3    3  502    0  0.64575985631E+01  0.75270302445E+02 -0.40893205591E+02  0.86006079278E+02  0.41800000000E+01 0. -1.
         -5    1    3    3    0  502 -0.15052550304E+02 -0.92596832552E+01  0.53215198022E+02  0.56228557737E+02  0.41800000000E+01 0. -1.
        -11    1    4    4    0    0  0.20046067591E+02 -0.85978899609E+01 -0.41892710625E+02  0.47231004024E+02  0.00000000000E+00 0. -1.
         11    1    4    4    0    0 -0.11451115851E+02 -0.57412729229E+02  0.27867305673E+02  0.64837768756E+02  0.00000000000E+00 0.  1.
</event>
<event>
 8    1  0.3541538E-009  0.2996466E+03  0.7561462E-02  0.1085417E+00
         -2   -1    0    0    0  501 -0.00000000000E+00  0.00000000000E+00  0.16047264189E+03  0.16047264189E+03  0.00000000000E+00 0. -1.
          2   -1    0    0  501    0  0.00000000000E+00 -0.00000000000E+00 -0.82381322781E+03  0.82381322781E+03  0.00000000000E+00 0.  1.
         25    2    1    2    0    0  0.22245368803E+03 -0.20047814066E+03 -0.57234850361E+03  0.65795741965E+03  0.12509207920E+03 0.  0.
         23    2    1    2    0    0 -0.22245368803E+03  0.20047814066E+03 -0.90992082304E+02  0.32632845006E+03  0.92377324452E+02 0.  0.
          5    1    3    3  502    0  0.19644113373E+03 -0.17934163313E+03 -0.56334852164E+03  0.62300206230E+03  0.41800000000E+01 0.  1.
         -5    1    3    3    0  502  0.26012554304E+02 -0.21136507528E+02 -0.89999819753E+01  0.34955357350E+02  0.41800000000E+01 0.  1.
        -11    1    4    4    0    0 -0.14168275325E+03  0.13035396891E+03 -0.10358925181E+03  0.21862500513E+03  0.00000000000E+00 0.  1.
         11    1    4    4    0    0 -0.80770934783E+02  0.70124171744E+02  0.12597169503E+02  0.10770344492E+03  0.00000000000E+00 0. -1.
</event>
<event>
 8    1  0.3541538E-009  0.1225569E+03  0.7561462E-02  0.1238938E+00
         -2   -1    0    0    0  501 -0.00000000000E+00  0.00000000000E+00  0.22591159233E+02  0.22591159233E+02  0.00000000000E+00 0.  1.
          2   -1    0    0  501    0  0.00000000000E+00 -0.00000000000E+00 -0.83252724104E+03  0.83252724104E+03  0.00000000000E+00 0. -1.
         25    2    1    2    0    0 -0.23117138732E+02 -0.70743823578E+02 -0.56067844403E+03  0.57926409267E+03  0.12508989083E+03 0.  0.
         23    2    1    2    0    0  0.23117138732E+02  0.70743823578E+02 -0.24925763778E+03  0.27585430760E+03  0.91799446361E+02 0.  0.
          5    1    3    3  502    0  0.38171523831E+02 -0.65743055733E+02 -0.21378315717E+03  0.22693594977E+03  0.41800000000E+01 0. -1.
         -5    1    3    3    0  502 -0.61288662563E+02 -0.50007678449E+01 -0.34689528686E+03  0.35232814291E+03  0.41800000000E+01 0. -1.
        -11    1    4    4    0    0  0.28438628881E+02 -0.71052605898E+01 -0.25399578608E+02  0.38786324060E+02  0.00000000000E+00 0.  1.
         11    1    4    4    0    0 -0.53214901489E+01  0.77849084167E+02 -0.22385805917E+03  0.23706798354E+03  0.00000000000E+00 0. -1.
</event>
<event>
 8    1  0.3541538E-009  0.1146173E+03  0.7561462E-02  0.1252251E+00
         -1   -1    0    0    0  501 -0.00000000000E+00  0.00000000000E+00  0.43534551640E+03  0.43534551640E+03  0.00000000000E+00 0.  1.
          1   -1    0    0  501    0  0.00000000000E+00 -0.00000000000E+00 -0.57838485755E+02  0.57838485755E+02  0.00000000000E+00 0. -1.
         25    2    1    2    0    0  0.58814833542E+02  0.95059553558E+02  0.24633894628E+03  0.29803793072E+03  0.12509287881E+03 0.  0.
         23    2    1    2    0    0 -0.58814833542E+02 -0.95059553558E+02  0.13116808436E+03  0.19514607143E+03  0.91550092691E+02 0.  0.
          5    1    3    3  502    0  0.41496384295E+02  0.57887958843E+02  0.29316557046E+02  0.77135585858E+02  0.41800000000E+01 0. -1.
         -5    1    3    3    0  502  0.17318449247E+02  0.37171594715E+02  0.21702238924E+03  0.22090234487E+03  0.41800000000E+01 0. -1.
        -11    1    4    4    0    0 -0.22934947612E+02 -0.67893785681E+02  0.18780730195E+02  0.74083019530E+02  0.00000000000E+00 0. -1.
         11    1    4    4    0    0 -0.35879885929E+02 -0.27165767877E+02  0.11238735416E+03  0.12106305190E+03  0.00000000000E+00 0.  1.
</event>
<event>
 8    1  0.3541538E-009  0.1624664E+03  0.7561462E-02  0.1185940E+00
         -2   -1    0    0    0  501 -0.00000000000E+00  0.00000000000E+00  0.22601567323E+02  0.22601567323E+02  0.00000000000E+00 0.  1.
          2   -1    0    0  501    0  0.00000000000E+00 -0.00000000000E+00 -0.13734391412E+04  0.13734391412E+04  0.00000000000E+00 0. -1.
         25    2    1    2    0    0 -0.62135766177E+02 -0.12315299136E+03 -0.72867216525E+03  0.75208971294E+03  0.12509316200E+03 0.  0.
         23    2    1    2    0    0  0.62135766177E+02  0.12315299136E+03 -0.62216540867E+03  0.64395099563E+03  0.92496358336E+02 0.  0.
          5    1    3    3  502    0 -0.15014855758E+02  0.14132173983E+02 -0.21192889369E+02  0.29862605290E+02  0.41800000000E+01 0.  1.
         -5    1    3    3    0  502 -0.47120910419E+02 -0.13728516534E+03 -0.70747927588E+03  0.72222710765E+03  0.41800000000E+01 0.  1.
        -11    1    4    4    0    0 -0.12274260570E+02  0.59538931276E+02 -0.33728135317E+03  0.34271599468E+03  0.00000000000E+00 0. -1.
         11    1    4    4    0    0  0.74410026747E+02  0.63614060081E+02 -0.28488405550E+03  0.30123500095E+03  0.00000000000E+00 0.  1.
</event>
<event>
 8    1  0.3541538E-009  0.1157466E+03  0.7561462E-02  0.1250283E+00
          4   -1    0    0  501    0  0.00000000000E+00  0.00000000000E+00  0.17935929726E+03  0.17935929726E+03  0.00000000000E+00 0. -1.
         -4   -1    0    0    0  501 -0.00000000000E+00 -0.00000000000E+00 -0.85520887423E+02  0.85520887423E+02  0.00000000000E+00 0.  1.
         25    2    1    2    0    0 -0.21521328817E+02 -0.50670895473E+02  0.58185327187E+02  0.14854015306E+03  0.12509171647E+03 0.  0.
         23    2    1    2    0    0  0.21521328817E+02  0.50670895473E+02  0.35653082655E+02  0.11634003163E+03  0.96089299163E+02 0.  0.
          5    1    3    3  502    0 -0.73633280827E+02 -0.21680556898E+02  0.31533938966E+02  0.83088918030E+02  0.41800000000E+01 0.  1.
         -5    1    3    3    0  502  0.52111952010E+02 -0.28990338576E+02  0.26651388221E+02  0.65451235032E+02  0.41800000000E+01 0.  1.
        -11    1    4    4    0    0  0.50845103753E+02  0.31824523489E+02 -0.79589194163E+01  0.60509249451E+02  0.00000000000E+00 0.  1.
         11    1    4    4    0    0 -0.29323774936E+02  0.18846371985E+02  0.43612002071E+02  0.55830782174E+02  0.00000000000E+00 0. -1.
</event>
<event>
 8    1  0.3541538E-009  0.7274926E+02  0.7561462E-02  0.1350986E+00
          2   -1    0    0  501    0  0.00000000000E+00  0.00000000000E+00  0.13278610293E+03  0.13278610293E+03  0.00000000000E+00 0.  1.
         -2   -1    0    0    0  501 -0.00000000000E+00 -0.00000000000E+00 -0.14565805801E+03  0.14565805801E+03  0.00000000000E+00 0. -1.
         25    2    1    2    0    0 -0.11889189812E+02 -0.11936418071E+02 -0.91447186907E+02  0.15586469334E+03  0.12508950286E+03 0.  0.
         23    2    1    2    0    0  0.11889189812E+02  0.11936418071E+02  0.78575231831E+02  0.12257946760E+03  0.92562562138E+02 0.  0.
          5    1    3    3  502    0  0.99589226966E+01  0.38227088260E+02  0.96105964424E+01  0.40869626645E+02  0.41800000000E+01 0.  1.
         -5    1    3    3    0  502 -0.21848112509E+02 -0.50163506331E+02 -0.10105778335E+03  0.11499506669E+03  0.41800000000E+01 0.  1.
        -11    1    4    4    0    0  0.53758418792E+01  0.30633448187E+02  0.93013160008E+02  0.98075255586E+02  0.00000000000E+00 0.  1.
         11    1    4    4    0    0  0.65133479330E+01 -0.18697030116E+02 -0.14437928177E+02  0.24504212015E+02  0.00000000000E+00 0. -1.
</event>
<event>
 8    1  0.3541538E-009  0.6243624E+02  0.7561462E-02  0.1387883E+00
         -1   -1    0    0    0  501 -0.00000000000E+00  0.00000000000E+00  0.37979982630E+03  0.37979982630E+03  0.00000000000E+00 0.  1.
          1   -1    0    0  501    0  0.00000000000E+00 -0.00000000000E+00 -0.33995177024E+02  0.33995177024E+02  0.00000000000E+00 0. -1.
         25    2    1    2    0    0 -0.36645656406E+01 -0.38069732086E+02  0.18422673392E+03  0.22594184500E+03  0.12508994479E+03 0.  0.
         23    2    1    2    0    0  0.36645656406E+01  0.38069732086E+02  0.16157791535E+03  0.18785315832E+03  0.87855863891E+02 0.  0.
          5    1    3    3  502    0 -0.64913509682E+01 -0.35614997109E+02  0.20305290364E+03  0.20629716365E+03  0.41800000000E+01 0. -1.
         -5    1    3    3    0  502  0.28267853276E+01 -0.24547349767E+01 -0.18826169713E+02  0.19644681345E+02  0.41800000000E+01 0. -1.
        -11    1    4    4    0    0 -0.25169663371E+02  0.46415788963E+02  0.51507011630E+02  0.73762522098E+02  0.00000000000E+00 0. -1.
         11    1    4    4    0    0  0.28834229012E+02 -0.83460568770E+01  0.11007090372E+03  0.11409063622E+03  0.00000000000E+00 0.  1.
</event>
<event>
 8    1  0.3541538E-009  0.2072116E+03  0.7561462E-02  0.1143793E+00
          1   -1    0    0  501    0  0.00000000000E+00  0.00000000000E+00  0.35381227323E+03  0.35381227323E+03  0.00000000000E+00 0.  1.
         -1   -1    0    0    0  501 -0.00000000000E+00 -0.00000000000E+00 -0.12864704925E+03  0.12864704925E+03  0.00000000000E+00 0. -1.
         25    2    1    2    0    0  0.17985368796E+03 -0.22209834836E+02  0.89263030824E+02  0.23760949639E+03  0.12509899385E+03 0.  0.
         23    2    1    2    0    0 -0.17985368796E+03  0.22209834836E+02  0.13590219316E+03  0.24484982610E+03  0.92959159844E+02 0.  0.
          5    1    3    3  502    0  0.99304471323E+02 -0.74228861008E+02  0.55035359991E+02  0.13571169839E+03  0.41800000000E+01 0. -1.
         -5    1    3    3    0  502  0.80549216641E+02  0.52019026172E+02  0.34227670833E+02  0.10189779799E+03  0.41800000000E+01 0. -1.
        -11    1    4    4    0    0 -0.17957967382E+03  0.75564559505E+01  0.99125431939E+02  0.20526034818E+03  0.00000000000E+00 0. -1.
         11    1    4    4    0    0 -0.27401414019E+00  0.14653378885E+02  0.36776761217E+02  0.39589477921E+02  0.00000000000E+00 0.  1.
</event>
<event>
 8    1  0.3541538E-009  0.1266158E+03  0.7561462E-02  0.1232566E+00
         -1   -1    0    0    0  501 -0.00000000000E+00  0.00000000000E+00  0.23099382731E+02  0.23099382731E+02  0.00000000000E+00 0.  1.
          1   -1    0    0  501    0  0.00000000000E+00 -0.00000000000E+00 -0.97216168959E+03  0.97216168959E+03  0.00000000000E+00 0. -1.
         25    2    1    2    0    0 -0.29513421407E+02 -0.91919793970E+02 -0.38314245960E+03  0.41444643487E+03  0.12508961775E+03 0.  0.
         23    2    1    2    0    0  0.29513421407E+02  0.91919793970E+02 -0.56591984726E+03  0.58081463745E+03  0.88091310450E+02 0.  0.
          5    1    3    3  502    0  0.26158417796E+02 -0.23208760443E+02 -0.19654555125E+02  0.40332162353E+02  0.41800000000E+01 0.  1.
         -5    1    3    3    0  502 -0.55671839203E+02 -0.68711033527E+02 -0.36348790447E+03  0.37411427252E+03  0.41800000000E+01 0.  1.
        -11    1    4    4    0    0  0.59291756332E+02  0.73622488957E+02 -0.44587787569E+03  0.45578817808E+03  0.00000000000E+00 0.  1.
         11    1    4    4    0    0 -0.29778334925E+02  0.18297305013E+02 -0.12004197158E+03  0.12502645937E+03  0.00000000000E+00 0. -1.
</event>
<event>
 8    1  0.3541538E-009  0.7373218E+02  0.7561462E-02  0.1347843E+00
         -1   -1    0    0    0  501 -0.00000000000E+00  0.00000000000E+00  0.19025120395E+03  0.19025120395E+03  0.00000000000E+00 0.  1.
          1   -1    0    0  501    0  0.00000000000E+00 -0.00000000000E+00 -0.74631202446E+02  0.74631202446E+02  0.00000000000E+00 0. -1.
         25    2    1    2    0    0  0.29570252753E+02 -0.26962586245E+02  0.96890005795E+02  0.16320697955E+03  0.12508982391E+03 0.  0.
         23    2    1    2    0    0 -0.29570252753E+02  0.26962586245E+02  0.18729995706E+02  0.10167542685E+03  0.91573461115E+02 0.  0.
          5    1    3    3  502    0  0.11316116367E+02 -0.31796389378E+02 -0.23458784830E+02  0.41314063620E+02  0.41800000000E+01 0. -1.
         -5    1    3    3    0  502  0.18254136386E+02  0.48338031335E+01  0.12034879063E+03  0.12189291593E+03  0.41800000000E+01 0. -1.
        -11    1    4    4    0    0 -0.90069629802E+01  0.57003833165E+02  0.27947020173E+02  0.64121746032E+02  0.00000000000E+00 0.  1.
         11    1    4    4    0    0 -0.20563289772E+02 -0.30041246920E+02 -0.92170244675E+01  0.37553680815E+02  0.00000000000E+00 0. -1.
</event>
<event>
 8    1  0.3541538E-009  0.8504701E+02  0.7561462E-02  0.1315310E+00
          1   -1    0    0  501    0  0.00000000000E+00  0.00000000000E+00  0.79445904493E+02  0.79445904493E+02  0.00000000000E+00 0. -1.
         -1   -1    0    0    0  501 -0.00000000000E+00 -0.00000000000E+00 -0.17797381640E+03  0.17797381640E+03  0.00000000000E+00 0.  1.
         25    2    1    2    0    0  0.11866366315E+02  0.43724230519E+02 -0.32129801961E+02  0.13686138609E+03  0.12508435491E+03 0.  0.
         23    2    1    2    0    0 -0.11866366315E+02 -0.43724230519E+02 -0.66398109943E+02  0.12055833480E+03  0.89849786324E+02 0.  0.
          5    1    3    3  502    0  0.38316652466E+02  0.43358909519E+02  0.32786556600E+02  0.66637763952E+02  0.41800000000E+01 0.  1.
         -5    1    3    3    0  502 -0.26450286150E+02  0.36532099972E+00 -0.64916358560E+02  0.70223622134E+02  0.41800000000E+01 0.  1.
        -11    1    4    4    0    0  0.14731294585E+02  0.14881708585E+02  0.77923110080E+01  0.22342703539E+02  0.00000000000E+00 0. -1.
         11    1    4    4    0    0 -0.26597660900E+02 -0.58605939104E+02 -0.74190420951E+02  0.98215631264E+02  0.00000000000E+00 0.  1.
</event>
<event>
 8    1  0.3541538E-009  0.1221639E+03  0.7561462E-02  0.1239569E+00
         -1   -1    0    0    0  501 -0.00000000000E+00  0.00000000000E+00  0.14130373635E+02  0.14130373635E+02  0.00000000000E+00 0.  1.
          1   -1    0    0  501    0  0.00000000000E+00 -0.00000000000E+00 -0.11289275825E+04  0.11289275825E+04  0.00000000000E+00 0. -1.
         25    2    1    2    0    0 -0.16985078383E+02 -0.57600143729E+02 -0.75131493334E+03  0.76402100917E+03  0.12509078279E+03 0.  0.
         23    2    1    2    0    0  0.16985078383E+02  0.57600143729E+02 -0.36348227557E+03  0.37903694701E+03  0.89125602970E+02 0.  0.
          5    1    3    3  502    0  0.53613352297E+02 -0.35726389426E+02 -0.36888268566E+03  0.37448988587E+03  0.41800000000E+01 0.  1.
         -5    1    3    3    0  502 -0.70598430679E+02 -0.21873754303E+02 -0.38243224769E+03  0.38953112329E+03  0.41800000000E+01 0.  1.
        -11    1    4    4    0    0  0.50628574090E+02  0.17899403611E+02 -0.15063103989E+03  0.15991670126E+03  0.00000000000E+00 0. -1.
         11    1    4    4    0    0 -0.33643495707E+02  0.39700740118E+02 -0.21285123568E+03  0.21912024575E+03  0.00000000000E+00 0.  1.
</event>
<event>
 8    1  0.3541538E-009  0.2388553E+03  0.7561462E-02  0.1120558E+00
         -1   -1    0    0    0  501 -0.00000000000E+00  0.00000000000E+00  0.16802703867E+04  0.16802703867E+04  0.00000000000E+00 0.  1.
          1   -1    0    0  501    0  0.00000000000E+00 -0.00000000000E+00 -0.45823204000E+02  0.45823204000E+02  0.00000000000E+00 0. -1.
         25    2    1    2    0    0 -0.20666980581E+03 -0.10710116206E+03  0.11600233458E+04  0.11897412931E+04  0.12508842520E+03 0.  0.
         23    2    1    2    0    0  0.20666980581E+03  0.10710116206E+03  0.47442383690E+03  0.53635229761E+03  0.91721004108E+02 0.  0.
          5    1    3    3  502    0 -0.10502121189E+03 -0.72497648235E+02  0.89015065337E+03  0.89926137582E+03  0.41800000000E+01 0.  1.
         -5    1    3    3    0  502 -0.10164859391E+03 -0.34603513820E+02  0.26987269244E+03  0.29047991727E+03  0.41800000000E+01 0.  1.
        -11    1    4    4    0    0  0.11883139967E+03  0.98432643084E+02  0.36127790792E+03  0.39285062495E+03  0.00000000000E+00 0.  1.
         11    1    4    4    0    0  0.87838406134E+02  0.86685189717E+01  0.11314592897E+03  0.14350167266E+03  0.00000000000E+00 0. -1.
</event>
<event>
 8    1  0.3541538E-009  0.1415124E+03  0.7561462E-02  0.1211308E+00
          1   -1    0    0  501    0  0.00000000000E+00  0.00000000000E+00  0.35873802476E+03  0.35873802476E+03  0.00000000000E+00 0. -1.
         -1   -1    0    0    0  501 -0.00000000000E+00 -0.00000000000E+00 -0.78120930936E+02  0.78120930936E+02  0.00000000000E+00 0.  1.
         25    2    1    2    0    0  0.51868890859E+02  0.10069146499E+03  0.22445327686E+03  0.28081331448E+03  0.12509073161E+03 0.  0.
         23    2    1    2    0    0 -0.51868890859E+02 -0.10069146499E+03  0.56163816959E+02  0.15604564121E+03  0.91469748257E+02 0.  0.
          5    1    3    3  502    0  0.65521216781E+02  0.42476656668E+02  0.41991688622E+02  0.88758495500E+02  0.41800000000E+01 0.  1.
         -5    1    3    3    0  502 -0.13652325922E+02  0.58214808319E+02  0.18246158824E+03  0.19205481898E+03  0.41800000000E+01 0.  1.
        -11    1    4    4    0    0 -0.61565983245E+02 -0.11332071189E+03  0.54598397356E+02  0.14004620320E+03  0.00000000000E+00 0. -1.
         11    1    4    4    0    0  0.96970923861E+01  0.12629246907E+02  0.15654196034E+01  0.15999438013E+02  0.00000000000E+00 0.  1.
</event>
<event>
 8    1  0.3541538E-009  0.4876379E+02  0.7561462E-02  0.1452126E+00
         -2   -1    0    0    0  501 -0.00000000000E+00  0.00000000000E+00  0.73040894651E+02  0.73040894651E+02  0.00000000000E+00 0.  1.
          2   -1    0    0  501    0  0.00000000000E+00 -0.00000000000E+00 -0.16772008876E+03  0.16772008876E+03  0.00000000000E+00 0. -1.
         25    2    1    2    0    0 -0.19897343560E+02 -0.19039577641E+02 -0.52989691486E+02  0.13861552067E+03  0.12509174781E+03 0.  0.
         23    2    1    2    0    0  0.19897343560E+02  0.19039577641E+02 -0.41689502626E+02  0.10214546274E+03  0.89091363961E+02 0.  0.
          5    1    3    3  502    0 -0.27181027123E+02 -0.16516928976E+02  0.36559340684E+02  0.48638204834E+02  0.41800000000E+01 0. -1.
         -5    1    3    3    0  502  0.72836835634E+01 -0.25226486655E+01 -0.89549032169E+02  0.89977315836E+02  0.41800000000E+01 0. -1.
        -11    1    4    4    0    0 -0.16587690896E+02  0.88373940442E+01  0.21445632860E+02  0.28516069005E+02  0.00000000000E+00 0.  1.
         11    1    4    4    0    0  0.36485034455E+02  0.10202183597E+02 -0.63135135486E+02  0.73629393738E+02  0.00000000000E+00 0. -1.
</event>
<event>
 8    1  0.3541538E-009  0.8230671E+02  0.7561462E-02  0.1322630E+00
          1   -1    0    0  501    0  0.00000000000E+00  0.00000000000E+00  0.94144741162E+02  0.94144741162E+02  0.00000000000E+00 0. -1.
         -1   -1    0    0    0  501 -0.00000000000E+00 -0.00000000000E+00 -0.13003219840E+03  0.13003219840E+03  0.00000000000E+00 0.  1.
         25    2    1    2    0    0  0.14718496937E+02  0.19109605099E+02 -0.20668148254E+02  0.12906426040E+03  0.12509436359E+03 0.  0.
         23    2    1    2    0    0 -0.14718496937E+02 -0.19109605099E+02 -0.15219308987E+02  0.95112679166E+02  0.90735787940E+02 0.  0.
          5    1    3    3  502    0 -0.97181770321E+00 -0.42440280871E+02 -0.43985346543E+02  0.61272383507E+02  0.41800000000E+01 0. -1.
         -5    1    3    3    0  502  0.15690314640E+02  0.61549885970E+02  0.23317198289E+02  0.67791876892E+02  0.41800000000E+01 0. -1.
        -11    1    4    4    0    0 -0.29831461201E+02  0.46003173063E+01 -0.44980979506E+02  0.54169802602E+02  0.00000000000E+00 0.  1.
         11    1    4    4    0    0  0.15112964264E+02 -0.23709922405E+02  0.29761670519E+02  0.40942876564E+02  0.00000000000E+00 0. -1.
</event>
<event>
 8    1  0.3541538E-009  0.5459637E+02  0.7561462E-02  0.1422017E+00
         -1   -1    0    0    0  501 -0.00000000000E+00  0.00000000000E+00  0.17689543906E+03  0.17689543906E+03  0.00000000000E+00 0.  1.
          1   -1    0    0  501    0  0.00000000000E+00 -0.00000000000E+00 -0.72384172142E+02  0.72384172142E+02  0.00000000000E+00 0. -1.
         25    2    1    2    0    0  0.22157345809E+01  0.60962589967E+01  0.92573193698E+02  0.15576034339E+03  0.12509762000E+03 0.  0.
         23    2    1    2    0    0 -0.22157345809E+01 -0.60962589967E+01  0.11938073221E+02  0.93519267810E+02  0.92527087958E+02 0.  0.
          5    1    3    3  502    0  0.73529024761E+01  0.15761610859E+02  0.12240760360E+03  0.12370766901E+03  0.41800000000E+01 0. -1.
         -5    1    3    3    0  502 -0.51371678952E+01 -0.96653518620E+01 -0.29834409907E+02  0.32052674383E+02  0.41800000000E+01 0. -1.
        -11    1    4    4    0    0  0.38562960873E+02 -0.22448779067E+01  0.29846258864E+02  0.48815372541E+02  0.00000000000E+00 0.  1.
         11    1    4    4    0    0 -0.40778695454E+02 -0.38513810899E+01 -0.17908185643E+02  0.44703895270E+02  0.00000000000E+00 0. -1.
</event>
<event>
 8    1  0.3541538E-009  0.2766558E+03  0.7561462E-02  0.1097530E+00
         -1   -1    0    0    0  501 -0.00000000000E+00  0.00000000000E+00  0.72026679390E+02  0.72026679390E+02  0.00000000000E+00 0.  1.
          1   -1    0    0  501    0  0.00000000000E+00 -0.00000000000E+00 -0.12854426733E+04  0.12854426733E+04  0.00000000000E+00 0. -1.
         25    2    1    2    0    0 -0.10717151612E+03  0.25473634578E+03 -0.46751986740E+03  0.55731394018E+03  0.12509061430E+03 0.  0.
         23    2    1    2    0    0  0.10717151612E+03 -0.25473634578E+03 -0.74589612650E+03  0.80015541250E+03  0.86667830767E+02 0.  0.
          5    1    3    3  502    0 -0.19819416355E+02  0.63285470026E+02 -0.23255664604E+03  0.24186344494E+03  0.41800000000E+01 0.  1.
         -5    1    3    3    0  502 -0.87352099760E+02  0.19145087575E+03 -0.23496322136E+03  0.31545049524E+03  0.41800000000E+01 0.  1.
        -11    1    4    4    0    0  0.81714633284E+02 -0.19031035298E+03 -0.43711407949E+03  0.48369828430E+03  0.00000000000E+00 0. -1.
         11    1    4    4    0    0  0.25456882832E+02 -0.64425992802E+02 -0.30878204701E+03  0.31645712820E+03  0.00000000000E+00 0.  1.
</event>
<event>
 8    1  0.3541538E-009  0.1209773E+03  0.7561462E-02  0.1241493E+00
          2   -1    0    0  501    0  0.00000000000E+00  0.00000000000E+00  0.20769064055E+03  0.20769064055E+03  0.00000000000E+00 0. -1.
         -2   -1    0    0    0  501 -0.00000000000E+00 -0.00000000000E+00 -0.82117773492E+02  0.82117773492E+02  0.00000000000E+00 0.  1.
         25    2    1    2    0    0 -0.66893244868E+02  0.24192694286E+02  0.56400610887E+02  0.15455978513E+03  0.12509078945E+03 0.  0.
         23    2    1    2    0    0  0.66893244868E+02 -0.24192694286E+02  0.69172256174E+02  0.13524862891E+03  0.91909727084E+02 0.  0.
          5    1    3    3  502    0 -0.51977510636E+02  0.73794709832E+02  0.24642753864E+02  0.93659268249E+02  0.41800000000E+01 0.  1.
         -5    1    3    3    0  502 -0.14915734233E+02 -0.49602015546E+02  0.31757857023E+02  0.60900516883E+02  0.41800000000E+01 0.  1.
        -11    1    4    4    0    0  0.39467762430E+02  0.22535887028E+02 -0.23631495570E+01  0.45509943432E+02  0.00000000000E+00 0.  1.
         11    1    4    4    0    0  0.27425482438E+02 -0.46728581314E+02  0.71535405731E+02  0.89738685480E+02  0.00000000000E+00 0. -1.
</event>
<event>
 8    1  0.3541538E-009  0.1096199E+03  0.7561462E-02  0.1261275E+00
          1   -1    0    0  501    0  0.00000000000E+00  0.00000000000E+00  0.78695761977E+03  0.78695761977E+03  0.00000000000E+00 0. -1.
         -1   -1    0    0    0  501 -0.00000000000E+00 -0.00000000000E+00 -0.19156047089E+02  0.19156047089E+02  0.00000000000E+00 0.  1.
         25    2    1    2    0    0 -0.30937802180E+02  0.22357512871E+02  0.56479458402E+03  0.57973880099E+03  0.12508856564E+03 0.  0.
         23    2    1    2    0    0  0.30937802180E+02 -0.22357512871E+02  0.20300698867E+03  0.22637486587E+03  0.92610671443E+02 0.  0.
          5    1    3    3  502    0  0.25663382274E+02 -0.31772519647E+02  0.95728538111E+02  0.10416106568E+03  0.41800000000E+01 0. -1.
         -5    1    3    3    0  502 -0.56601184454E+02  0.54130032518E+02  0.46906604591E+03  0.47557773531E+03  0.41800000000E+01 0. -1.
        -11    1    4    4    0    0  0.58996834783E+02  0.66814728911E+01  0.11057391234E+03  0.12550640893E+03  0.00000000000E+00 0.  1.
         11    1    4    4    0    0 -0.28059032603E+02 -0.29038985762E+02  0.92433076332E+02  0.10086845694E+03  0.00000000000E+00 0. -1.
</event>
<event>
 8    1  0.3541538E-009  0.9803486E+02  0.7561462E-02  0.1284483E+00
          1   -1    0    0  501    0  0.00000000000E+00  0.00000000000E+00  0.71754617551E+02  0.71754617551E+02  0.00000000000E+00 0. -1.
         -1   -1    0    0    0  501 -0.00000000000E+00 -0.00000000000E+00 -0.23502026554E+03  0.23502026554E+03  0.00000000000E+00 0.  1.
         25    2    1    2    0    0  0.45415633187E+01 -0.70847460244E+02 -0.71353525471E+02  0.16055607597E+03  0.12508772726E+03 0.  0.
         23    2    1    2    0    0 -0.45415633187E+01  0.70847460244E+02 -0.91912122518E+02  0.14621880712E+03  0.88837564525E+02 0.  0.
          5    1    3    3  502    0 -0.32907746646E+02 -0.62166276900E+02 -0.92657926949E+02  0.11640674207E+03  0.41800000000E+01 0. -1.
         -5    1    3    3    0  502  0.37449309965E+02 -0.86811833436E+01  0.21304401478E+02  0.44149333896E+02  0.41800000000E+01 0. -1.
        -11    1    4    4    0    0  0.14365031988E+02  0.80405326417E+00 -0.68484925457E+02  0.69979894688E+02  0.00000000000E+00 0.  1.
         11    1    4    4    0    0 -0.18906595307E+02  0.70043406979E+02 -0.23427197061E+02  0.76238912437E+02  0.00000000000E+00 0. -1.
</event>
<event>
 8    1  0.3541538E-009  0.9762598E+02  0.7561462E-02  0.1285369E+00
         -1   -1    0    0    0  501 -0.00000000000E+00  0.00000000000E+00  0.49736058023E+03  0.49736058023E+03  0.00000000000E+00 0.  1.
          1   -1    0    0  501    0  0.00000000000E+00 -0.00000000000E+00 -0.34054556800E+02  0.34054556800E+02  0.00000000000E+00 0. -1.
         25    2    1    2    0    0 -0.52134854352E+02 -0.15836594820E+02  0.15826503859E+03  0.20896007839E+03  0.12509057177E+03 0.  0.
         23    2    1    2    0    0  0.52134854352E+02  0.15836594820E+02  0.30504098484E+03  0.32245505865E+03  0.89209986215E+02 0.  0.
          5    1    3    3  502    0 -0.28430268394E+02 -0.50632590898E+02  0.15770599563E+02  0.60316860267E+02  0.41800000000E+01 0.  1.
         -5    1    3    3    0  502 -0.23704585959E+02  0.34795996077E+02  0.14249443903E+03  0.14864321812E+03  0.41800000000E+01 0.  1.
        -11    1    4    4    0    0  0.57200670099E+02  0.40151619483E+02  0.27361543387E+03  0.28239949515E+03  0.00000000000E+00 0.  1.
         11    1    4    4    0    0 -0.50658157465E+01 -0.24315024663E+02  0.31425550970E+02  0.40055563500E+02  0.00000000000E+00 0. -1.
</event>
<event>
 8    1  0.3541538E-009  0.1061218E+03  0.7561462E-02  0.1267925E+00
         -1   -1    0    0    0  501 -0.00000000000E+00  0.00000000000E+00  0.41837871263E+02  0.41837871263E+02  0.00000000000E+00 0.  1.
          1   -1    0    0  501    0  0.00000000000E+00 -0.00000000000E+00 -0.38433210010E+03  0.38433210010E+03  0.00000000000E+00 0. -1.
         25    2    1    2    0    0 -0.15008130062E+02  0.63195890035E+02 -0.22614247219E+03  0.26646977763E+03  0.12508701042E+03 0.  0.
         23    2    1    2    0    0  0.15008130062E+02 -0.63195890035E+02 -0.11635175665E+03  0.15970019374E+03  0.88019634852E+02 0.  0.
          5    1    3    3  502    0 -0.21920590590E+02 -0.24796758239E+02 -0.13681001805E+03  0.14081848228E+03  0.41800000000E+01 0. -1.
         -5    1    3    3    0  502  0.69124605286E+01  0.87992648274E+02 -0.89332454137E+02  0.12565129535E+03  0.41800000000E+01 0. -1.
        -11    1    4    4    0    0 -0.11956436289E+02  0.80029178659E+01  0.60052119947E+01  0.15590562344E+02  0.00000000000E+00 0.  1.
         11    1    4    4    0    0  0.26964566350E+02 -0.71198807901E+02 -0.12235696865E+03  0.14410963140E+03  0.00000000000E+00 0. -1.
</event>
<event>
 8    1  0.3541538E-009  0.1767506E+03  0.7561462E-02  0.1170985E+00
          2   -1    0    0  501    0  0.00000000000E+00  0.00000000000E+00  0.52421018200E+03  0.52421018200E+03  0.00000000000E+00 0. -1.
         -2   -1    0    0    0  501 -0.00000000000E+00 -0.00000000000E+00 -0.67370834013E+02  0.67370834013E+02  0.00000000000E+00 0.  1.
         25    2    1    2    0    0  0.14198975485E+03 -0.49888285392E+02  0.18525541053E+03  0.26947138102E+03  0.12508127979E+03 0.  0.
         23    2    1    2    0    0 -0.14198975485E+03  0.49888285392E+02  0.27158393746E+03  0.32210963500E+03  0.85713770014E+02 0.  0.
          5    1    3    3  502    0  0.44880499157E+02  0.33704403597E+02  0.18736760046E+02  0.59319344259E+02  0.41800000000E+01 0. -1.
         -5    1    3    3    0  502  0.97109255698E+02 -0.83592688988E+02  0.16651865049E+03  0.21015203676E+03  0.41800000000E+01 0. -1.
        -11    1    4    4    0    0 -0.10456429981E+03  0.70673751164E+02  0.23041759446E+03  0.26271798518E+03  0.00000000000E+00 0.  1.
         11    1    4    4    0    0 -0.37425455041E+02 -0.20785465773E+02  0.41166342996E+02  0.59391649818E+02  0.00000000000E+00 0. -1.
</event>
<event>
 8    1  0.3541538E-009  0.1058978E+03  0.7561462E-02  0.1268361E+00
          2   -1    0    0  501    0  0.00000000000E+00  0.00000000000E+00  0.23140125268E+03  0.23140125268E+03  0.00000000000E+00 0. -1.
         -2   -1    0    0    0  501 -0.00000000000E+00 -0.00000000000E+00 -0.74065236687E+02  0.74065236687E+02  0.00000000000E+00 0.  1.
         25    2    1    2    0    0 -0.62533122135E+02  0.29476130657E+01  0.44940936587E+02  0.14692282309E+03  0.12509016100E+03 0.  0.
         23    2    1    2    0    0  0.62533122135E+02 -0.29476130657E+01  0.11239507941E+03  0.15854366628E+03  0.92651823805E+02 0.  0.
          5    1    3    3  502    0 -0.82676623707E+02 -0.38255028954E+01  0.73712508271E+02  0.11091016570E+03  0.41800000000E+01 0. -1.
         -5    1    3    3    0  502  0.20143501572E+02  0.67731159612E+01 -0.28771571684E+02  0.36012657394E+02  0.41800000000E+01 0. -1.
        -11    1    4    4    0    0  0.55106865141E+02  0.37167446599E+02  0.90366164721E+02  0.11217945177E+03  0.00000000000E+00 0.  1.
         11    1    4    4    0    0  0.74262569943E+01 -0.40115059664E+02  0.22028914689E+02  0.46364214511E+02  0.00000000000E+00 0. -1.
</event>
<event>
 8    1  0.3541538E-009  0.1673261E+03  0.7561462E-02  0.1180665E+00
          2   -1    0    0  501    0  0.00000000000E+00  0.00000000000E+00  0.49975353185E+03  0.49975353185E+03  0.00000000000E+00 0. -1.
         -2   -1    0    0    0  501 -0.00000000000E+00 -0.00000000000E+00 -0.74214014974E+02  0.74214014974E+02  0.00000000000E+00 0.  1.
         25    2    1    2    0    0  0.57719611600E+02  0.11616209201E+03  0.35206515087E+03  0.39550317278E+03  0.12509078319E+03 0.  0.
         23    2    1    2    0    0 -0.57719611600E+02 -0.11616209201E+03  0.73474366008E+02  0.17846437404E+03  0.98111493517E+02 0.  0.
          5    1    3    3  502    0 -0.20681005805E+02 -0.14911355930E+02  0.71631131989E+02  0.76148171395E+02  0.41800000000E+01 0.  1.
         -5    1    3    3    0  502  0.78400617405E+02  0.13107344794E+03  0.28043401888E+03  0.31935500138E+03  0.41800000000E+01 0.  1.
        -11    1    4    4    0    0  0.62318943630E+01 -0.84386660604E+02  0.64697872654E+02  0.10651647629E+03  0.00000000000E+00 0. -1.
         11    1    4    4    0    0 -0.63951505963E+02 -0.31775431404E+02  0.87764933537E+01  0.71947897755E+02  0.00000000000E+00 0.  1.
</event>
<event>
 8    1  0.3541538E-009  0.2052590E+03  0.7561462E-02  0.1145376E+00
          1   -1    0    0  501    0  0.00000000000E+00  0.00000000000E+00  0.16950668509E+04  0.16950668509E+04  0.00000000000E+00 0. -1.
         -1   -1    0    0    0  501 -0.00000000000E+00 -0.00000000000E+00 -0.35497466364E+02  0.35497466364E+02  0.00000000000E+00 0.  1.
         25    2    1    2    0    0 -0.37893945296E+02 -0.19659837972E+03  0.11804249139E+04  0.12038010141E+04  0.12508808993E+03 0.  0.
         23    2    1    2    0    0  0.37893945296E+02  0.19659837972E+03  0.47914447072E+03  0.52676330322E+03  0.88392758788E+02 0.  0.
          5    1    3    3  502    0  0.35789689198E+01 -0.25977394612E+02  0.30075629275E+02  0.40120442740E+02  0.41800000000E+01 0. -1.
         -5    1    3    3    0  502 -0.41472914216E+02 -0.17062098511E+03  0.11503492846E+04  0.11636805713E+04  0.41800000000E+01 0. -1.
        -11    1    4    4    0    0  0.66551741970E+01  0.16028951687E+03  0.42606643658E+03  0.45526874365E+03  0.00000000000E+00 0. -1.
         11    1    4    4    0    0  0.31238771099E+02  0.36308862847E+02  0.53078034135E+02  0.71494559574E+02  0.00000000000E+00 0.  1.
</event>
<event>
 8    1  0.3541538E-009  0.9971527E+02  0.7561462E-02  0.1280896E+00
          2   -1    0    0  501    0  0.00000000000E+00  0.00000000000E+00  0.15470104028E+03  0.15470104028E+03  0.00000000000E+00 0. -1.
         -2   -1    0    0    0  501 -0.00000000000E+00 -0.00000000000E+00 -0.90896457262E+02  0.90896457262E+02  0.00000000000E+00 0.  1.
         25    2    1    2    0    0 -0.48285047391E+02  0.37163317106E+01  0.46300493777E+02  0.14190249677E+03  0.12508927189E+03 0.  0.
         23    2    1    2    0    0  0.48285047391E+02 -0.37163317106E+01  0.17504089243E+02  0.10369500077E+03  0.90005572728E+02 0.  0.
          5    1    3    3  502    0  0.13290671226E+02  0.32166111565E+02 -0.25265704676E+02  0.43210287058E+02  0.41800000000E+01 0.  1.
         -5    1    3    3    0  502 -0.61575718617E+02 -0.28449779855E+02  0.71566198453E+02  0.98692209712E+02  0.41800000000E+01 0.  1.
        -11    1    4    4    0    0  0.15036049301E+02  0.39283346506E+02 -0.93180036579E+01  0.43082354665E+02  0.00000000000E+00 0.  1.
         11    1    4    4    0    0  0.33248998090E+02 -0.42999678216E+02  0.26822092901E+02  0.60612646109E+02  0.00000000000E+00 0. -1.
</event>
<event>
 8    1  0.3541538E-009  0.3847137E+03  0.7561462E-02  0.1049205E+00
         -1   -1    0    0    0  501 -0.00000000000E+00  0.00000000000E+00  0.11113300079E+04  0.11113300079E+04  0.00000000000E+00 0.  1.
          1   -1    0    0  501    0  0.00000000000E+00 -0.00000000000E+00 -0.14109106674E+03  0.14109106674E+03  0.00000000000E+00 0. -1.
         25    2    1    2    0    0  0.36201010007E+03  0.10882036824E+03  0.41988457861E+03  0.57865679444E+03  0.12508973300E+03 0.  0.
         23    2    1    2    0    0 -0.36201010007E+03 -0.10882036824E+03  0.55035436255E+03  0.67376428020E+03  0.90416789400E+02 0.  0.
          5    1    3    3  502    0  0.91075253673E+02 -0.16064067522E+02  0.56406726589E+02  0.10840639880E+03  0.41800000000E+01 0.  1.
         -5    1    3    3    0  502  0.27093484640E+03  0.12488443576E+03  0.36347785202E+03  0.47025039564E+03  0.41800000000E+01 0.  1.
        -11    1    4    4    0    0 -0.31638627125E+03 -0.10159998354E+03  0.52428636730E+03  0.62072459612E+03  0.00000000000E+00 0.  1.
         11    1    4    4    0    0 -0.45623828819E+02 -0.72203846983E+01  0.26067995245E+02  0.53039684081E+02  0.00000000000E+00 0. -1.
</event>
<event>
 8    1  0.3541538E-009  0.8498219E+02  0.7561462E-02  0.1315479E+00
         -2   -1    0    0    0  501 -0.00000000000E+00  0.00000000000E+00  0.21441231489E+02  0.21441231489E+02  0.00000000000E+00 0. -1.
          2   -1    0    0  501    0  0.00000000000E+00 -0.00000000000E+00 -0.60727901278E+03  0.60727901278E+03  0.00000000000E+00 0.  1.
         25    2    1    2    0    0 -0.14116013055E+02  0.32339526364E+02 -0.32233057821E+03  0.34754813966E+03  0.12509037111E+03 0.  0.
         23    2    1    2    0    0  0.14116013055E+02 -0.32339526364E+02 -0.26350720308E+03  0.28117210460E+03  0.91523764905E+02 0.  0.
          5    1    3    3  502    0  0.29179188541E+02 -0.13097664818E+01 -0.11145165684E+02  0.31540888546E+02  0.41800000000E+01 0.  1.
         -5    1    3    3    0  502 -0.43295201596E+02  0.33649292846E+02 -0.31118541252E+03  0.31600725112E+03  0.41800000000E+01 0.  1.
        -11    1    4    4    0    0 -0.29812871110E+02 -0.28705856875E+02 -0.19757120325E+03  0.20185939130E+03  0.00000000000E+00 0.  1.
         11    1    4    4    0    0  0.43928884165E+02 -0.36336694891E+01 -0.65935999831E+02  0.79312713304E+02  0.00000000000E+00 0. -1.
</event>
<event>
 8    1  0.3541538E-009  0.1211283E+03  0.7561462E-02  0.1241247E+00
         -1   -1    0    0    0  501 -0.00000000000E+00  0.00000000000E+00  0.12325456886E+03  0.12325456886E+03  0.00000000000E+00 0.  1.
          1   -1    0    0  501    0  0.00000000000E+00 -0.00000000000E+00 -0.18003868300E+03  0.18003868300E+03  0.00000000000E+00 0. -1.
         25    2    1    2    0    0 -0.24057404694E+02 -0.59649035010E+02 -0.10959651927E+03  0.17831068303E+03  0.12508611654E+03 0.  0.
         23    2    1    2    0    0  0.24057404694E+02  0.59649035010E+02  0.52812405124E+02  0.12498256883E+03  0.93245516131E+02 0.  0.
          5    1    3    3  502    0  0.24851722466E+02 -0.77751062423E+02 -0.39324654123E+02  0.90701359633E+02  0.41800000000E+01 0. -1.
         -5    1    3    3    0  502 -0.48909127160E+02  0.18102027413E+02 -0.70271865144E+02  0.87609323401E+02  0.41800000000E+01 0. -1.
        -11    1    4    4    0    0  0.47161780806E+02  0.32700019977E+01  0.41720249718E+02  0.63051611545E+02  0.00000000000E+00 0.  1.
         11    1    4    4    0    0 -0.23104376112E+02  0.56379033012E+02  0.11092155406E+02  0.61930957287E+02  0.00000000000E+00 0. -1.
</event>
<event>
 8    1  0.3541538E-009  0.1315831E+03  0.7561462E-02  0.1225125E+00
          3   -1    0    0  501    0  0.00000000000E+00  0.00000000000E+00  0.23475039835E+03  0.23475039835E+03  0.00000000000E+00 0. -1.
         -3   -1    0    0    0  501 -0.00000000000E+00 -0.00000000000E+00 -0.11486160329E+03  0.11486160329E+03  0.00000000000E+00 0.  1.
         25    2    1    2    0    0 -0.88629774941E+02  0.36971191230E+02  0.14573778379E+03  0.21473098895E+03  0.12509112680E+03 0.  0.
         23    2    1    2    0    0  0.88629774941E+02 -0.36971191230E+02 -0.25848988731E+02  0.13488101269E+03  0.91118666474E+02 0.  0.
          5    1    3    3  502    0 -0.86366989124E+02  0.62545303644E+02  0.54442827447E+02  0.11980261132E+03  0.41800000000E+01 0. -1.
         -5    1    3    3    0  502 -0.22627858170E+01 -0.25574112414E+02  0.91294956345E+02  0.94928377630E+02  0.41800000000E+01 0. -1.
        -11    1    4    4    0    0  0.67972472519E+01  0.26193951631E+02  0.38268896365E+01  0.27330765751E+02  0.00000000000E+00 0. -1.
         11    1    4    4    0    0  0.81832527689E+02 -0.63165142861E+02 -0.29675878368E+02  0.10755024694E+03  0.00000000000E+00 0.  1.
</event>
<event>
 8    1  0.3541538E-009  0.1874977E+03  0.7561462E-02  0.1160738E+00
         -1   -1    0    0    0  501 -0.00000000000E+00  0.00000000000E+00  0.13683468537E+03  0.13683468537E+03  0.00000000000E+00 0.  1.
          1   -1    0    0  501    0  0.00000000000E+00 -0.00000000000E+00 -0.32910553377E+03  0.32910553377E+03  0.00000000000E+00 0. -1.
         25    2    1    2    0    0 -0.12584761862E+03  0.10780571845E+03 -0.18303289592E+03  0.27678170430E+03  0.12508946718E+03 0.  0.
         23    2    1    2    0    0  0.12584761862E+03 -0.10780571845E+03 -0.92379524786E+01  0.18915851484E+03  0.90751903152E+02 0.  0.
          5    1    3    3  502    0 -0.14136329547E+03  0.12115816465E+03 -0.17004135419E+03  0.25217933441E+03  0.41800000000E+01 0.  1.
         -5    1    3    3    0  502  0.15515676849E+02 -0.13352446197E+02 -0.12991541735E+02  0.24602369889E+02  0.41800000000E+01 0.  1.
        -11    1    4    4    0    0  0.53492665991E+02 -0.63522602310E+02  0.38808852311E+02  0.91666315170E+02  0.00000000000E+00 0.  1.
         11    1    4    4    0    0  0.72354952634E+02 -0.44283116140E+02 -0.48046804790E+02  0.97492199669E+02  0.00000000000E+00 0. -1.
</event>
<event>
 8    1  0.3541538E-009  0.2061064E+03  0.7561462E-02  0.1144687E+00
          1   -1    0    0  501    0  0.00000000000E+00  0.00000000000E+00  0.16358852138E+03  0.16358852138E+03  0.00000000000E+00 0. -1.
         -1   -1    0    0    0  501 -0.00000000000E+00 -0.00000000000E+00 -0.30992314020E+03  0.30992314020E+03  0.00000000000E+00 0.  1.
         25    2    1    2    0    0 -0.14285425929E+02  0.18527714313E+03 -0.28078842286E+01  0.22402506463E+03  0.12509057602E+03 0.  0.
         23    2    1    2    0    0  0.14285425929E+02 -0.18527714313E+03 -0.14352673459E+03  0.24948659695E+03  0.84332350594E+02 0.  0.
          5    1    3    3  502    0  0.72883532311E+01 -0.15847653406E+02 -0.11855701525E+02  0.21501122527E+02  0.41800000000E+01 0. -1.
         -5    1    3    3    0  502 -0.21573779161E+02  0.20112479654E+03  0.90478172959E+01  0.20252394211E+03  0.41800000000E+01 0. -1.
        -11    1    4    4    0    0  0.27358745345E+02 -0.59376689329E+02 -0.91909075571E+02  0.11278905246E+03  0.00000000000E+00 0.  1.
         11    1    4    4    0    0 -0.13073319415E+02 -0.12590045380E+03 -0.51617659021E+02  0.13669754449E+03  0.00000000000E+00 0. -1.
</event>
<event>
 8    1  0.3541538E-009  0.1478214E+03  0.7561462E-02  0.1203176E+00
         -3   -1    0    0    0  501 -0.00000000000E+00  0.00000000000E+00  0.82578769677E+02  0.82578769677E+02  0.00000000000E+00 0.  1.
          3   -1    0    0  501    0  0.00000000000E+00 -0.00000000000E+00 -0.29955892838E+03  0.29955892838E+03  0.00000000000E+00 0. -1.
         25    2    1    2    0    0  0.10695033394E+03 -0.85798561180E+01 -0.13917796823E+03  0.21569789804E+03  0.12507233315E+03 0.  0.
         23    2    1    2    0    0 -0.10695033394E+03  0.85798561180E+01 -0.77802190473E+02  0.16643980001E+03  0.10068286014E+03 0.  0.
          5    1    3    3  502    0  0.11637671800E+03  0.29529668076E+02 -0.12595538787E+03  0.17406255750E+03  0.41800000000E+01 0. -1.
         -5    1    3    3    0  502 -0.94263840684E+01 -0.38109524194E+02 -0.13222580360E+02  0.41635340545E+02  0.41800000000E+01 0. -1.
        -11    1    4    4    0    0 -0.33387408789E+02  0.43302678762E+02 -0.63582198306E+02  0.83860222961E+02  0.00000000000E+00 0.  1.
         11    1    4    4    0    0 -0.73562925147E+02 -0.34722822644E+02 -0.14219992167E+02  0.82579577050E+02  0.00000000000E+00 0. -1.
</event>
<event>
 8    1  0.3541538E-009  0.1835208E+03  0.7561462E-02  0.1164438E+00
          1   -1    0    0  501    0  0.00000000000E+00  0.00000000000E+00  0.21414724569E+03  0.21414724569E+03  0.00000000000E+00 0. -1.
         -1   -1    0    0    0  501 -0.00000000000E+00 -0.00000000000E+00 -0.18636247043E+03  0.18636247043E+03  0.00000000000E+00 0.  1.
         25    2    1    2    0    0  0.12964077264E+03 -0.94359338311E+02  0.56669684367E+02  0.21111502114E+03  0.12509070456E+03 0.  0.
         23    2    1    2    0    0 -0.12964077264E+03  0.94359338311E+02 -0.28884909108E+02  0.18939469498E+03  0.96569135099E+02 0.  0.
          5    1    3    3  502    0 -0.23398119761E+02 -0.15162694987E+02  0.20849828835E+02  0.35065183446E+02  0.41800000000E+01 0. -1.
         -5    1    3    3    0  502  0.15303889240E+03 -0.79196643324E+02  0.35819855532E+02  0.17604983770E+03  0.41800000000E+01 0. -1.
        -11    1    4    4    0    0 -0.10150167037E+03  0.48067643256E+02 -0.59576396804E+02  0.12713156363E+03  0.00000000000E+00 0.  1.
         11    1    4    4    0    0 -0.28139102275E+02  0.46291695055E+02  0.30691487696E+02  0.62263131345E+02  0.00000000000E+00 0. -1.
</event>
<event>
 8    1  0.3541538E-009  0.1439032E+03  0.7561462E-02  0.1208171E+00
         -2   -1    0    0    0  501 -0.00000000000E+00  0.00000000000E+00  0.28758046709E+03  0.28758046709E+03  0.00000000000E+00 0.  1.
          2   -1    0    0  501    0  0.00000000000E+00 -0.00000000000E+00 -0.89855989367E+02  0.89855989367E+02  0.00000000000E+00 0. -1.
         25    2    1    2    0    0 -0.94135328117E+02  0.62896860392E+02  0.70353387234E+02  0.18280165843E+03  0.12509745074E+03 0.  0.
         23    2    1    2    0    0  0.94135328117E+02 -0.62896860392E+02  0.12737109049E+03  0.19463479803E+03  0.94031031388E+02 0.  0.
          5    1    3    3  502    0 -0.17379899077E+02 -0.20511876373E+02 -0.23211181998E+02  0.35763519598E+02  0.41800000000E+01 0.  1.
         -5    1    3    3    0  502 -0.76755429040E+02  0.83408736764E+02  0.93564569233E+02  0.14703813883E+03  0.41800000000E+01 0.  1.
        -11    1    4    4    0    0 -0.53624047265E+01 -0.45923562914E+02  0.39817087495E+02  0.61017452190E+02  0.00000000000E+00 0. -1.
         11    1    4    4    0    0  0.99497732843E+02 -0.16973297478E+02  0.87554002996E+02  0.13361734584E+03  0.00000000000E+00 0.  1.
</event>
<event>
 8    1  0.3541538E-009  0.7370901E+02  0.7561462E-02  0.1347916E+00
         -2   -1    0    0    0  501 -0.00000000000E+00  0.00000000000E+00  0.14867506558E+02  0.14867506558E+02  0.00000000000E+00 0. -1.
          2   -1    0    0  501    0  0.00000000000E+00 -0.00000000000E+00 -0.14392174860E+04  0.14392174860E+04  0.00000000000E+00 0.  1.
         25    2    1    2    0    0  0.25451808266E+02 -0.33281720684E+02 -0.11974908463E+04  0.12047357230E+04  0.12509343587E+03 0.  0.
         23    2    1    2    0    0 -0.25451808266E+02  0.33281720684E+02 -0.22685913312E+03  0.24934926959E+03  0.94628349287E+02 0.  0.
          5    1    3    3  502    0  0.67973335923E+01  0.70151364712E+01 -0.10627828765E+04  0.10628359849E+04  0.41800000000E+01 0.  1.
         -5    1    3    3    0  502  0.18654474674E+02 -0.40296857155E+02 -0.13470796984E+03  0.14189973805E+03  0.41800000000E+01 0.  1.
        -11    1    4    4    0    0  0.29156498357E+02  0.21759310678E+02 -0.38822200326E+02  0.53204626075E+02  0.00000000000E+00 0. -1.
         11    1    4    4    0    0 -0.54608306623E+02  0.11522410006E+02 -0.18803693280E+03  0.19614464352E+03  0.00000000000E+00 0.  1.
</event>
<event>
 8    1  0.3541538E-009  0.6192457E+02  0.7561462E-02  0.1389928E+00
          2   -1    0    0  501    0  0.00000000000E+00  0.00000000000E+00  0.58437628537E+03  0.58437628537E+03  0.00000000000E+00 0. -1.
         -2   -1    0    0    0  501 -0.00000000000E+00 -0.00000000000E+00 -0.21241875819E+02  0.21241875819E+02  0.00000000000E+00 0.  1.
         25    2    1    2    0    0 -0.19509596897E+02  0.29079497875E+01  0.28134444476E+03  0.30853671724E+03  0.12510447132E+03 0.  0.
         23    2    1    2    0    0  0.19509596897E+02 -0.29079497875E+01  0.28178996479E+03  0.29708144395E+03  0.91993040719E+02 0.  0.
          5    1    3    3  502    0  0.11870356753E+01 -0.55374752610E+01 -0.12214918245E+02  0.14097847839E+02  0.41800000000E+01 0.  1.
         -5    1    3    3    0  502 -0.20696632572E+02  0.84454250485E+01  0.29355936301E+03  0.29443886940E+03  0.41800000000E+01 0.  1.
        -11    1    4    4    0    0  0.87589254498E+00 -0.46579996491E+02  0.13694195296E+03  0.14464978998E+03  0.00000000000E+00 0. -1.
         11    1    4    4    0    0  0.18633704352E+02  0.43672046704E+02  0.14484801183E+03  0.15243165397E+03  0.00000000000E+00 0.  1.
</event>
<event>
 8    1  0.3541538E-009  0.8964708E+02  0.7561462E-02  0.1303709E+00
         -2   -1    0    0    0  501 -0.00000000000E+00  0.00000000000E+00  0.17227034292E+03  0.17227034292E+03  0.00000000000E+00 0.  1.
          2   -1    0    0  501    0  0.00000000000E+00 -0.00000000000E+00 -0.90843197766E+02  0.90843197766E+02  0.00000000000E+00 0. -1.
         25    2    1    2    0    0  0.25997800548E+02  0.38766817101E+02  0.97821191190E+02  0.16551649454E+03  0.12509185736E+03 0.  0.
         23    2    1    2    0    0 -0.25997800548E+02 -0.38766817101E+02 -0.16394046035E+02  0.97597046145E+02  0.84128870961E+02 0.  0.
          5    1    3    3  502    0  0.24398745820E+02  0.82731913884E+02  0.80478923482E+02  0.11804320352E+03  0.41800000000E+01 0. -1.
         -5    1    3    3    0  502  0.15990547281E+01 -0.43965096783E+02  0.17342267708E+02  0.47473291022E+02  0.41800000000E+01 0. -1.
        -11    1    4    4    0    0 -0.35460897046E+00 -0.10786861628E+02 -0.47384751855E+02  0.48598321367E+02  0.00000000000E+00 0. -1.
         11    1    4    4    0    0 -0.25643191578E+02 -0.27979955473E+02  0.30990705820E+02  0.48998724777E+02  0.00000000000E+00 0.  1.
</event>
<event>
 8    1  0.3541538E-009  0.1209932E+03  0.7561462E-02  0.1241468E+00
          2   -1    0    0  501    0  0.00000000000E+00  0.00000000000E+00  0.14178343885E+03  0.14178343885E+03  0.00000000000E+00 0. -1.
         -2   -1    0    0    0  501 -0.00000000000E+00 -0.00000000000E+00 -0.12462193198E+03  0.12462193198E+03  0.00000000000E+00 0.  1.
         25    2    1    2    0    0  0.62203982343E+02  0.44420295869E+02  0.19758380170E+02  0.14793388660E+03  0.12510612740E+03 0.  0.
         23    2    1    2    0    0 -0.62203982343E+02 -0.44420295869E+02 -0.25968732938E+01  0.11847148423E+03  0.90477901838E+02 0.  0.
          5    1    3    3  502    0  0.93786233571E+02  0.17019364841E+02 -0.10739885205E+02  0.96012155070E+02  0.41800000000E+01 0. -1.
         -5    1    3    3    0  502 -0.31582251228E+02  0.27400931029E+02  0.30498265376E+02  0.51921731527E+02  0.41800000000E+01 0. -1.
        -11    1    4    4    0    0 -0.20132451949E+02 -0.57157080514E+02  0.26095236261E+02  0.65978851384E+02  0.00000000000E+00 0. -1.
         11    1    4    4    0    0 -0.42071530394E+02  0.12736784645E+02 -0.28692109555E+02  0.52492632849E+02  0.00000000000E+00 0.  1.
</event>
<event>
 8    1  0.3541538E-009  0.1286843E+03  0.7561462E-02  0.1229421E+00
          2   -1    0    0  501    0  0.00000000000E+00  0.00000000000E+00  0.53016729630E+03  0.53016729630E+03  0.00000000000E+00 0. -1.
         -2   -1    0    0    0  501 -0.00000000000E+00 -0.00000000000E+00 -0.38734340856E+02  0.38734340856E+02  0.00000000000E+00 0.  1.
         25    2    1    2    0    0  0.59249614616E+02  0.73123219488E+02  0.27571563588E+03  0.31705382890E+03  0.12508595642E+03 0.  0.
         23    2    1    2    0    0 -0.59249614616E+02 -0.73123219488E+02  0.21571731957E+03  0.25184780826E+03  0.89642816230E+02 0.  0.
          5    1    3    3  502    0  0.81071892746E+02  0.49884899341E+02  0.26736524413E+03  0.28383587008E+03  0.41800000000E+01 0. -1.
         -5    1    3    3    0  502 -0.21822278130E+02  0.23238320147E+02  0.83503917528E+01  0.33217958825E+02  0.41800000000E+01 0. -1.
        -11    1    4    4    0    0  0.22092094118E+02 -0.31740903354E+02  0.61409651312E+02  0.72571970088E+02  0.00000000000E+00 0.  1.
         11    1    4    4    0    0 -0.81341708734E+02 -0.41382316135E+02  0.15430766826E+03  0.17927583817E+03  0.00000000000E+00 0. -1.
</event>
<event>
 8    1  0.3541538E-009  0.6499930E+02  0.7561462E-02  0.1377974E+00
         -2   -1    0    0    0  501 -0.00000000000E+00  0.00000000000E+00  0.20460691697E+03  0.20460691697E+03  0.00000000000E+00 0.  1.
          2   -1    0    0  501    0  0.00000000000E+00 -0.00000000000E+00 -0.79087021747E+02  0.79087021747E+02  0.00000000000E+00 0. -1.
         25    2    1    2    0    0  0.41295003123E+01 -0.59461719580E+02  0.92869680446E+02  0.16682352622E+03  0.12511020137E+03 0.  0.
         23    2    1    2    0    0 -0.41295003123E+01  0.59461719580E+02  0.32650214773E+02  0.11687041249E+03  0.95078430374E+02 0.  0.
          5    1    3    3  502    0 -0.23176611547E+01  0.19938201432E+01 -0.29352035912E+02  0.29805390186E+02  0.41800000000E+01 0.  1.
         -5    1    3    3    0  502  0.64471614670E+01 -0.61455539724E+02  0.12222171636E+03  0.13701813604E+03  0.41800000000E+01 0.  1.
        -11    1    4    4    0    0  0.72299799298E+01  0.37170637545E+02  0.65451833934E+02  0.75616608431E+02  0.00000000000E+00 0.  1.
         11    1    4    4    0    0 -0.11359480242E+02  0.22291082036E+02 -0.32801619161E+02  0.41253804059E+02  0.00000000000E+00 0. -1.
</event>
<event>
 8    1  0.3541538E-009  0.9530352E+02  0.7561462E-02  0.1290494E+00
         -1   -1    0    0    0  501 -0.00000000000E+00  0.00000000000E+00  0.32267834101E+03  0.32267834101E+03  0.00000000000E+00 0.  1.
          1   -1    0    0  501    0  0.00000000000E+00 -0.00000000000E+00 -0.10778492733E+03  0.10778492733E+03  0.00000000000E+00 0. -1.
         25    2    1    2    0    0  0.10893640796E+02 -0.65542741862E+02  0.26940413768E+03  0.30436948355E+03  0.12509064992E+03 0.  0.
         23    2    1    2    0    0 -0.10893640796E+02  0.65542741862E+02 -0.54510723991E+02  0.12609378479E+03  0.92269719369E+02 0.  0.
          5    1    3    3  502    0 -0.41395941418E+01 -0.85168271681E+02  0.93198948230E+02  0.12638942635E+03  0.41800000000E+01 0.  1.
         -5    1    3    3    0  502  0.15033234938E+02  0.19625529819E+02  0.17620518945E+03  0.17798005720E+03  0.41800000000E+01 0.  1.
        -11    1    4    4    0    0  0.17346790106E+02  0.19040145868E+02  0.20855346183E+02  0.33141873002E+02  0.00000000000E+00 0.  1.
         11    1    4    4    0    0 -0.28240430902E+02  0.46502595994E+02 -0.75366070174E+02  0.92951911789E+02  0.00000000000E+00 0. -1.
</event>
<event>
 8    1  0.3541538E-009  0.1053195E+03  0.7561462E-02  0.1269491E+00
         -2   -1    0    0    0  501 -0.00000000000E+00  0.00000000000E+00  0.29727846549E+03  0.29727846549E+03  0.00000000000E+00 0.  1.
          2   -1    0    0  501    0  0.00000000000E+00 -0.00000000000E+00 -0.49378875956E+02  0.49378875956E+02  0.00000000000E+00 0. -1.
         25    2    1    2    0    0  0.31723935105E+01  0.51093528857E+02  0.11059684005E+03  0.17464193808E+03  0.12509009847E+03 0.  0.
         23    2    1    2    0    0 -0.31723935105E+01 -0.51093528857E+02  0.13730274948E+03  0.17201540337E+03  0.90092403729E+02 0.  0.
          5    1    3    3  502    0 -0.28765477703E+02 -0.16181124275E+02  0.91914383753E+02  0.97749720363E+02  0.41800000000E+01 0.  1.
         -5    1    3    3    0  502  0.31937871213E+02  0.67274653131E+02  0.18682456299E+02  0.76892217714E+02  0.41800000000E+01 0.  1.
        -11    1    4    4    0    0 -0.40383834430E+02 -0.51654848667E+02  0.76785485439E+02  0.10097072966E+03  0.00000000000E+00 0. -1.
         11    1    4    4    0    0  0.37211440920E+02  0.56131981002E+00  0.60517264041E+02  0.71044673708E+02  0.00000000000E+00 0.  1.
</event>
<event>
 8    1  0.3541538E-009  0.9473823E+02  0.7561462E-02  0.1291767E+00
         -3   -1    0    0    0  501 -0.00000000000E+00  0.00000000000E+00  0.56526002994E+03  0.56526002994E+03  0.00000000000E+00 0. -1.
          3   -1    0    0  501    0  0.00000000000E+00 -0.00000000000E+00 -0.28593434538E+02  0.28593434538E+02  0.00000000000E+00 0.  1.
         25    2    1    2    0    0  0.57374521317E+02  0.33562476697E+02  0.31705398122E+03  0.34725967110E+03  0.12509107331E+03 0.  0.
         23    2    1    2    0    0 -0.57374521317E+02 -0.33562476697E+02  0.21961261417E+03  0.24659379338E+03  0.90335613628E+02 0.  0.
          5    1    3    3  502    0  0.13672274070E+01 -0.33874779629E+02  0.18872421239E+03  0.19179069515E+03  0.41800000000E+01 0. -1.
         -5    1    3    3    0  502  0.56007293910E+02  0.67437256326E+02  0.12832976884E+03  0.15546897595E+03  0.41800000000E+01 0. -1.
        -11    1    4    4    0    0 -0.98475333520E+01 -0.11551910597E+02 -0.49793464588E+01  0.15975432474E+02  0.00000000000E+00 0.  1.
         11    1    4    4    0    0 -0.47526987965E+02 -0.22010566099E+02  0.22459196063E+03  0.23061836090E+03  0.00000000000E+00 0. -1.
</event>
<event>
 8    1  0.3541538E-009  0.1596741E+03  0.7561462E-02  0.1189065E+00
         -1   -1    0    0    0  501 -0.00000000000E+00  0.00000000000E+00  0.17136866659E+03  0.17136866659E+03  0.00000000000E+00 0.  1.
          1   -1    0    0  501    0  0.00000000000E+00 -0.00000000000E+00 -0.17496630631E+03  0.17496630631E+03  0.00000000000E+00 0. -1.
         25    2    1    2    0    0 -0.62130897051E+02  0.11544144174E+03 -0.33166467417E+02  0.18421438064E+03  0.12509176086E+03 0.  0.
         23    2    1    2    0    0  0.62130897051E+02 -0.11544144174E+03  0.29568827696E+02  0.16212059227E+03  0.90674119939E+02 0.  0.
          5    1    3    3  502    0 -0.56386339827E+02 -0.75405865971E+01 -0.19447650767E+02  0.60265772090E+02  0.41800000000E+01 0.  1.
         -5    1    3    3    0  502 -0.57445572241E+01  0.12298202833E+03 -0.13718816650E+02  0.12394860855E+03  0.41800000000E+01 0.  1.
        -11    1    4    4    0    0  0.60551245083E+02 -0.65678331772E+02  0.56317594885E+02  0.10560193199E+03  0.00000000000E+00 0.  1.
         11    1    4    4    0    0  0.15796519675E+01 -0.49763109965E+02 -0.26748767189E+02  0.56518660280E+02  0.00000000000E+00 0. -1.
</event>
<event>
 8    1  0.3541538E-009  0.9597956E+02  0.7561462E-02  0.1288985E+00
         -2   -1    0    0    0  501 -0.00000000000E+00  0.00000000000E+00  0.51661785779E+02  0.51661785779E+02  0.00000000000E+00 0.  1.
          2   -1    0    0  501    0  0.00000000000E+00 -0.00000000000E+00 -0.24541574618E+03  0.24541574618E+03  0.00000000000E+00 0. -1.
         25    2    1    2    0    0  0.11988688350E+02  0.56486789483E+01 -0.71970148248E+02  0.14492252614E+03  0.12508876897E+03 0.  0.
         23    2    1    2    0    0 -0.11988688350E+02 -0.56486789483E+01 -0.12178381215E+03  0.15215500582E+03  0.90245291679E+02 0.  0.
          5    1    3    3  502    0  0.27459777833E+00  0.53647821756E+02  0.42659476139E+01  0.53979948982E+02  0.41800000000E+01 0. -1.
         -5    1    3    3    0  502  0.11714090571E+02 -0.47999142808E+02 -0.76236095862E+02  0.90942577160E+02  0.41800000000E+01 0. -1.
        -11    1    4    4    0    0  0.38172253433E+02 -0.96426173947E+00 -0.34947409703E+02  0.51762652345E+02  0.00000000000E+00 0.  1.
         11    1    4    4    0    0 -0.50160941783E+02 -0.46844172088E+01 -0.86836402450E+02  0.10039235347E+03  0.00000000000E+00 0. -1.
</event>
<event>
 8    1  0.3541538E-009  0.2105762E+03  0.7561462E-02  0.1141111E+00
         -2   -1    0    0    0  501 -0.00000000000E+00  0.00000000000E+00  0.62125405979E+02  0.62125405979E+02  0.00000000000E+00 0.  1.
          2   -1    0    0  501    0  0.00000000000E+00 -0.00000000000E+00 -0.10506838505E+04  0.10506838505E+04  0.00000000000E+00 0. -1.
         25    2    1    2    0    0  0.93064418281E+02 -0.17326963310E+03 -0.24327326683E+03  0.33691700009E+03  0.12509129024E+03 0.  0.
         23    2    1    2    0    0 -0.93064418281E+02  0.17326963310E+03 -0.74528517769E+03  0.77589225638E+03  0.88743708065E+02 0.  0.
          5    1    3    3  502    0  0.97096515602E+02 -0.68993226127E+02 -0.81594063304E+02  0.14443982193E+03  0.41800000000E+01 0.  1.
         -5    1    3    3    0  502 -0.40320973215E+01 -0.10427640698E+03 -0.16167920352E+03  0.19247717816E+03  0.41800000000E+01 0.  1.
        -11    1    4    4    0    0 -0.20970812268E+01  0.13625998147E+02 -0.77534449417E+01  0.15817126276E+02  0.00000000000E+00 0.  1.
         11    1    4    4    0    0 -0.90967337054E+02  0.15964363496E+03 -0.73753173275E+03  0.76007513010E+03  0.00000000000E+00 0. -1.
</event>
<event>
 8    1  0.3541538E-009  0.1471868E+03  0.7561462E-02  0.1203973E+00
          3   -1    0    0  501    0  0.00000000000E+00  0.00000000000E+00  0.39074900014E+03  0.39074900014E+03  0.00000000000E+00 0. -1.
         -3   -1    0    0    0  501 -0.00000000000E+00 -0.00000000000E+00 -0.92680693482E+02  0.92680693482E+02  0.00000000000E+00 0.  1.
         25    2    1    2    0    0  0.84101063289E+02 -0.59986052453E+02  0.30459055681E+03  0.34509719758E+03  0.12508138607E+03 0.  0.
         23    2    1    2    0    0 -0.84101063289E+02  0.59986052453E+02 -0.65222501532E+01  0.13833249605E+03  0.91771588087E+02 0.  0.
          5    1    3    3  502    0  0.50909882169E+02 -0.95277179258E+02  0.24765583771E+03  0.27022295117E+03  0.41800000000E+01 0. -1.
         -5    1    3    3    0  502  0.33191181120E+02  0.35291126806E+02  0.56934719106E+02  0.74874246407E+02  0.41800000000E+01 0. -1.
        -11    1    4    4    0    0 -0.57880488410E+02  0.84049332836E+02 -0.10173040683E+02  0.10255696976E+03  0.00000000000E+00 0.  1.
         11    1    4    4    0    0 -0.26220574879E+02 -0.24063280384E+02  0.36507905302E+01  0.35775526290E+02  0.00000000000E+00 0. -1.
</event>
<event>
 8    1  0.3541538E-009  0.1197250E+03  0.7561462E-02  0.1243551E+00
         -1   -1    0    0    0  501 -0.00000000000E+00  0.00000000000E+00  0.40762188399E+02  0.40762188399E+02  0.00000000000E+00 0.  1.
          1   -1    0    0  501    0  0.00000000000E+00 -0.00000000000E+00 -0.46620335294E+03  0.46620335294E+03  0.00000000000E+00 0. -1.
         25    2    1    2    0    0 -0.81760350178E+01 -0.79710472692E+02 -0.29029366242E+03  0.32609455328E+03  0.12508653097E+03 0.  0.
         23    2    1    2    0    0  0.81760350178E+01  0.79710472692E+02 -0.13514750212E+03  0.18087098806E+03  0.89603906099E+02 0.  0.
          5    1    3    3  502    0  0.10135011027E+02 -0.95220342183E+02 -0.11770048636E+03  0.15179100403E+03  0.41800000000E+01 0. -1.
         -5    1    3    3    0  502 -0.18311046045E+02  0.15509869490E+02 -0.17259317606E+03  0.17430354925E+03  0.41800000000E+01 0. -1.
        -11    1    4    4    0    0  0.45557397148E+02  0.64313208825E+02 -0.78149899389E+02  0.11099131515E+03  0.00000000000E+00 0.  1.
         11    1    4    4    0    0 -0.37381362130E+02  0.15397263867E+02 -0.56997602732E+02  0.69879672914E+02  0.00000000000E+00 0. -1.
</event>
<event>
 8    1  0.3541538E-009  0.9425604E+02  0.7561462E-02  0.1292861E+00
         -2   -1    0    0    0  501 -0.00000000000E+00  0.00000000000E+00  0.15944564507E+03  0.15944564507E+03  0.00000000000E+00 0. -1.
          2   -1    0    0  501    0  0.00000000000E+00 -0.00000000000E+00 -0.76431466826E+02  0.76431466826E+02  0.00000000000E+00 0.  1.
         25    2    1    2    0    0  0.25827971691E+02  0.57218327043E+01  0.18299638171E+02  0.12916319015E+03  0.12509368266E+03 0.  0.
         23    2    1    2    0    0 -0.25827971691E+02 -0.57218327043E+01  0.64714540070E+02  0.10671392174E+03  0.80622986213E+02 0.  0.
          5    1    3    3  502    0 -0.43132679664E+02  0.32078257103E+02  0.75309772499E+01  0.54439238166E+02  0.41800000000E+01 0. -1.
         -5    1    3    3    0  502  0.68960651355E+02 -0.26356424398E+02  0.10768660921E+02  0.74723951986E+02  0.41800000000E+01 0. -1.
        -11    1    4    4    0    0 -0.27104521955E+01  0.23351523700E+02  0.65469539965E+02  0.69562208658E+02  0.00000000000E+00 0. -1.
         11    1    4    4    0    0 -0.23117519495E+02 -0.29073356404E+02 -0.75499989448E+00  0.37151713084E+02  0.00000000000E+00 0.  1.
</event>
<event>
 8    1  0.3541538E-009  0.1551377E+03  0.7561462E-02  0.1194298E+00
         -2   -1    0    0    0  501 -0.00000000000E+00  0.00000000000E+00  0.43440658342E+02  0.43440658342E+02  0.00000000000E+00 0.  1.
          2   -1    0    0  501    0  0.00000000000E+00 -0.00000000000E+00 -0.74857190503E+03  0.74857190503E+03  0.00000000000E+00 0. -1.
         25    2    1    2    0    0  0.30420185216E+02  0.12466781727E+03 -0.51404002801E+03  0.54438182987E+03  0.12508786494E+03 0.  0.
         23    2    1    2    0    0 -0.30420185216E+02 -0.12466781727E+03 -0.19109121868E+03  0.24763073351E+03  0.91310864584E+02 0.  0.
          5    1    3    3  502    0  0.74442939982E+02  0.50063103906E+02 -0.21456294211E+03  0.23260007354E+03  0.41800000000E+01 0. -1.
         -5    1    3    3    0  502 -0.44022754766E+02  0.74604713364E+02 -0.29947708591E+03  0.31178175633E+03  0.41800000000E+01 0. -1.
        -11    1    4    4    0    0  0.18101207067E+01 -0.71806140410E+02 -0.35394718439E+02  0.80076116482E+02  0.00000000000E+00 0.  1.
         11    1    4    4    0    0 -0.32230305923E+02 -0.52861676860E+02 -0.15569650024E+03  0.16755461703E+03  0.00000000000E+00 0. -1.
</event>
<event>
 8    1  0.3541538E-009  0.1384786E+03  0.7561462E-02  0.1215391E+00
         -2   -1    0    0    0  501 -0.00000000000E+00  0.00000000000E+00  0.19044934551E+02  0.19044934551E+02  0.00000000000E+00 0.  1.
          2   -1    0    0  501    0  0.00000000000E+00 -0.00000000000E+00 -0.11153119912E+04  0.11153119912E+04  0.00000000000E+00 0. -1.
         25    2    1    2    0    0  0.63879799634E+02 -0.58851106416E+02 -0.42438819772E+03  0.45087990898E+03  0.12507305239E+03 0.  0.
         23    2    1    2    0    0 -0.63879799634E+02  0.58851106416E+02 -0.67187885892E+03  0.68347701676E+03  0.90418747199E+02 0.  0.
          5    1    3    3  502    0 -0.32631442928E+02 -0.43085976848E+02 -0.16204509549E+03  0.17087216813E+03  0.41800000000E+01 0. -1.
         -5    1    3    3    0  502  0.96511242562E+02 -0.15765129567E+02 -0.26234310223E+03  0.28000774086E+03  0.41800000000E+01 0. -1.
        -11    1    4    4    0    0 -0.13718449199E+02  0.71770278534E+02 -0.42304854724E+03  0.42931252259E+03  0.00000000000E+00 0. -1.
         11    1    4    4    0    0 -0.50161350435E+02 -0.12919172119E+02 -0.24883031168E+03  0.25416449417E+03  0.00000000000E+00 0.  1.
</event>
<event>
 8    1  0.3541538E-009  0.1012971E+03  0.7561462E-02  0.1277592E+00
          2   -1    0    0  501    0  0.00000000000E+00  0.00000000000E+00  0.67139041756E+03  0.67139041756E+03  0.00000000000E+00 0.  1.
         -2   -1    0    0    0  501 -0.00000000000E+00 -0.00000000000E+00 -0.20976501531E+02  0.20976501531E+02  0.00000000000E+00 0. -1.
         25    2    1    2    0    0 -0.11190925954E+00 -0.28464716044E+02  0.48764695630E+03  0.50423757721E+03  0.12508288334E+03 0.  0.
         23    2    1    2    0    0  0.11190925954E+00  0.28464716044E+02  0.16276695974E+03  0.18812934188E+03  0.89940611031E+02 0.  0.
          5    1    3    3  502    0  0.19034856516E+02 -0.71945785997E+02  0.36725330207E+03  0.37474122027E+03  0.41800000000E+01 0.  1.
         -5    1    3    3    0  502 -0.19146765776E+02  0.43481069953E+02  0.12039365422E+03  0.12949635694E+03  0.41800000000E+01 0.  1.
        -11    1    4    4    0    0 -0.36140548759E+02  0.24999291615E+02  0.13602631892E+03  0.14294846374E+03  0.00000000000E+00 0.  1.
         11    1    4    4    0    0  0.36252458018E+02  0.34654244287E+01  0.26740640816E+02  0.45180878147E+02  0.00000000000E+00 0. -1.
</event>
<event>
 8    1  0.3541538E-009  0.1359297E+03  0.7561462E-02  0.1218913E+00
          1   -1    0    0  501    0  0.00000000000E+00  0.00000000000E+00  0.13323694451E+04  0.13323694451E+04  0.00000000000E+00 0. -1.
         -1   -1    0    0    0  501 -0.00000000000E+00 -0.00000000000E+00 -0.17241878081E+02  0.17241878081E+02  0.00000000000E+00 0.  1.
         25    2    1    2    0    0  0.93647590527E+02  0.48227903141E+02  0.70773400530E+03  0.72638189029E+03  0.12508967356E+03 0.  0.
         23    2    1    2    0    0 -0.93647590527E+02 -0.48227903141E+02  0.60739356173E+03  0.62322943290E+03  0.91608871571E+02 0.  0.
          5    1    3    3  502    0 -0.80959476847E+01  0.40520705389E+02  0.39990585551E+03  0.40205675918E+03  0.41800000000E+01 0. -1.
         -5    1    3    3    0  502  0.10174353821E+03  0.77071977527E+01  0.30782814979E+03  0.32432513111E+03  0.41800000000E+01 0. -1.
        -11    1    4    4    0    0 -0.81074804920E+02 -0.67296627792E+02  0.56802586152E+03  0.57771562162E+03  0.00000000000E+00 0. -1.
         11    1    4    4    0    0 -0.12572785607E+02  0.19068724650E+02  0.39367700204E+02  0.45513811278E+02  0.00000000000E+00 0.  1.
</event>
<event>
 8    1  0.3541538E-009  0.9907119E+02  0.7561462E-02  0.1282261E+00
          3   -1    0    0  501    0  0.00000000000E+00  0.00000000000E+00  0.10188144059E+03  0.10188144059E+03  0.00000000000E+00 0. -1.
         -3   -1    0    0    0  501 -0.00000000000E+00 -0.00000000000E+00 -0.23947771621E+03  0.23947771621E+03  0.00000000000E+00 0.  1.
         25    2    1    2    0    0  0.42958490490E+02 -0.64775571916E+02  0.14332719292E+02  0.14796471260E+03  0.12508726039E+03 0.  0.
         23    2    1    2    0    0 -0.42958490490E+02  0.64775571916E+02 -0.15192899492E+03  0.19339444419E+03  0.90981783488E+02 0.  0.
          5    1    3    3  502    0  0.11508325583E+02 -0.22693323159E+02 -0.55076958275E+02  0.60814243451E+02  0.41800000000E+01 0.  1.
         -5    1    3    3    0  502  0.31450164907E+02 -0.42082248758E+02  0.69409677568E+02  0.87150469151E+02  0.41800000000E+01 0.  1.
        -11    1    4    4    0    0 -0.61374611337E+02  0.76306778807E+02 -0.12515627987E+03  0.15891400756E+03  0.00000000000E+00 0.  1.
         11    1    4    4    0    0  0.18416120847E+02 -0.11531206890E+02 -0.26772715052E+02  0.34480436636E+02  0.00000000000E+00 0. -1.
</event>
<event>
 8    1  0.3541538E-009  0.1107631E+03  0.7561462E-02  0.1259163E+00
          1   -1    0    0  501    0  0.00000000000E+00  0.00000000000E+00  0.46252153399E+02  0.46252153399E+02  0.00000000000E+00 0. -1.
         -1   -1    0    0    0  501 -0.00000000000E+00 -0.00000000000E+00 -0.51929562186E+03  0.51929562186E+03  0.00000000000E+00 0.  1.
         25    2    1    2    0    0  0.76082421023E+02  0.25369168698E+01 -0.40095417621E+03  0.42685834087E+03  0.12509524776E+03 0.  0.
         23    2    1    2    0    0 -0.76082421023E+02 -0.25369168698E+01 -0.72089292249E+02  0.13868943439E+03  0.90790541461E+02 0.  0.
          5    1    3    3  502    0  0.65054555856E+02  0.57803539629E+02 -0.20096283629E+03  0.21903624905E+03  0.41800000000E+01 0. -1.
         -5    1    3    3    0  502  0.11027865166E+02 -0.55266622759E+02 -0.19999133993E+03  0.20782209182E+03  0.41800000000E+01 0. -1.
        -11    1    4    4    0    0 -0.27254478513E+02 -0.88504001913E+01 -0.83388821871E+02  0.88175006638E+02  0.00000000000E+00 0.  1.
         11    1    4    4    0    0 -0.48827942510E+02  0.63134833216E+01  0.11299529623E+02  0.50514427752E+02  0.00000000000E+00 0. -1.
</event>
<event>
 8    1  0.3541538E-009  0.6938058E+02  0.7561462E-02  0.1362212E+00
          4   -1    0    0  501    0  0.00000000000E+00  0.00000000000E+00  0.17350049774E+03  0.17350049774E+03  0.00000000000E+00 0.  1.
         -4   -1    0    0    0  501 -0.00000000000E+00 -0.00000000000E+00 -0.71021090017E+02  0.71021090017E+02  0.00000000000E+00 0. -1.
         25    2    1    2    0    0  0.34339795597E+01 -0.15835582832E+02  0.36914332705E+02  0.13141814970E+03  0.12508198996E+03 0.  0.
         23    2    1    2    0    0 -0.34339795597E+01  0.15835582832E+02  0.65565075017E+02  0.11310343806E+03  0.90725138406E+02 0.  0.
          5    1    3    3  502    0 -0.12971205763E+02 -0.29505564934E+02  0.78235606399E+02  0.84717843750E+02  0.41800000000E+01 0. -1.
         -5    1    3    3    0  502  0.16405185323E+02  0.13669982102E+02 -0.41321273694E+02  0.46700305950E+02  0.41800000000E+01 0. -1.
        -11    1    4    4    0    0  0.78939165894E+01 -0.33224837448E+02  0.49719486825E+02  0.60317751224E+02  0.00000000000E+00 0.  1.
         11    1    4    4    0    0 -0.11327896149E+02  0.49060420280E+02  0.15845588193E+02  0.52785686833E+02  0.00000000000E+00 0. -1.
</event>
<event>
 8    1  0.3541538E-009  0.2401564E+03  0.7561462E-02  0.1119689E+00
         -1   -1    0    0    0  501 -0.00000000000E+00  0.00000000000E+00  0.68823529504E+02  0.68823529504E+02  0.00000000000E+00 0.  1.
          1   -1    0    0  501    0  0.00000000000E+00 -0.00000000000E+00 -0.14419498533E+04  0.14419498533E+04  0.00000000000E+00 0. -1.
         25    2    1    2    0    0  0.21840287689E+03 -0.13988047102E+02 -0.11771438615E+04  0.12038328349E+04  0.12510132550E+03 0.  0.
         23    2    1    2    0    0 -0.21840287689E+03  0.13988047102E+02 -0.19598246230E+03  0.30694054790E+03  0.88926330854E+02 0.  0.
          5    1    3    3  502    0  0.14440976580E+03 -0.64231740192E+02 -0.63761092803E+03  0.65692089695E+03  0.41800000000E+01 0.  1.
         -5    1    3    3    0  502  0.73993111097E+02  0.50243693089E+02 -0.53953293348E+03  0.54691193797E+03  0.41800000000E+01 0.  1.
        -11    1    4    4    0    0 -0.99078811481E+02 -0.32996886820E+02 -0.11466006853E+03  0.15508815796E+03  0.00000000000E+00 0. -1.
         11    1    4    4    0    0 -0.11932406541E+03  0.46984933922E+02 -0.81322393776E+02  0.15185238994E+03  0.00000000000E+00 0.  1.
</event>
<event>
 8    1  0.3541538E-009  0.1030157E+03  0.7561462E-02  0.1274079E+00
          1   -1    0    0  501    0  0.00000000000E+00  0.00000000000E+00  0.57188566228E+03  0.57188566228E+03  0.00000000000E+00 0. -1.
         -1   -1    0    0    0  501 -0.00000000000E+00 -0.00000000000E+00 -0.28267019875E+02  0.28267019875E+02  0.00000000000E+00 0.  1.
         25    2    1    2    0    0  0.58419487322E+02  0.18803422391E+02  0.24444360650E+03  0.28136601038E+03  0.12509096628E+03 0.  0.
         23    2    1    2    0    0 -0.58419487322E+02 -0.18803422391E+02  0.29917503590E+03  0.31878667177E+03  0.91393844433E+02 0.  0.
          5    1    3    3  502    0 -0.19826564726E+02  0.15858366116E+02  0.11584753850E+01  0.25756453752E+02  0.41800000000E+01 0. -1.
         -5    1    3    3    0  502  0.78246052048E+02  0.29450562756E+01  0.24328513112E+03  0.25560955663E+03  0.41800000000E+01 0. -1.
        -11    1    4    4    0    0 -0.13003790421E+02  0.31522603250E+02  0.49753658857E+02  0.60317490421E+02  0.00000000000E+00 0.  1.
         11    1    4    4    0    0 -0.45415696901E+02 -0.50326025641E+02  0.24942137704E+03  0.25846918135E+03  0.00000000000E+00 0. -1.
</event>
<event>
 8    1  0.3541538E-009  0.1485803E+03  0.7561462E-02  0.1202228E+00
         -1   -1    0    0    0  501 -0.00000000000E+00  0.00000000000E+00  0.51250125237E+03  0.51250125237E+03  0.00000000000E+00 0.  1.
          1   -1    0    0  501    0  0.00000000000E+00 -0.00000000000E+00 -0.61281731705E+02  0.61281731705E+02  0.00000000000E+00 0. -1.
         25    2    1    2    0    0 -0.12414380420E+03  0.52203819916E+02  0.18233564436E+03  0.25890027507E+03  0.12508454059E+03 0.  0.
         23    2    1    2    0    0  0.12414380420E+03 -0.52203819916E+02  0.26888387630E+03  0.31488270900E+03  0.93357691478E+02 0.  0.
          5    1    3    3  502    0 -0.11787236333E+03  0.57046345195E+02  0.74549377173E+02  0.15074236821E+03  0.41800000000E+01 0.  1.
         -5    1    3    3    0  502 -0.62714408646E+01 -0.48425252789E+01  0.10778626719E+03  0.10815790686E+03  0.41800000000E+01 0.  1.
        -11    1    4    4    0    0  0.13593654474E+03 -0.44239420789E+02  0.26328396308E+03  0.29959024644E+03  0.00000000000E+00 0. -1.
         11    1    4    4    0    0 -0.11792740546E+02 -0.79643991266E+01  0.55999132237E+01  0.15292462560E+02  0.00000000000E+00 0.  1.
</event>
<event>
 8    1  0.3541538E-009  0.9740007E+02  0.7561462E-02  0.1285860E+00
         -2   -1    0    0    0  501 -0.00000000000E+00  0.00000000000E+00  0.26371334958E+02  0.26371334958E+02  0.00000000000E+00 0.  1.
          2   -1    0    0  501    0  0.00000000000E+00 -0.00000000000E+00 -0.51368988970E+03  0.51368988970E+03  0.00000000000E+00 0. -1.
         25    2    1    2    0    0 -0.18871358334E+02 -0.31484747498E+02 -0.32078909213E+03  0.34626702559E+03  0.12509114232E+03 0.  0.
         23    2    1    2    0    0  0.18871358334E+02  0.31484747498E+02 -0.16652946261E+03  0.19379419907E+03  0.92069062052E+02 0.  0.
          5    1    3    3  502    0 -0.60927628108E+01 -0.62695530467E+02 -0.29968888394E+03  0.30626581732E+03  0.41800000000E+01 0. -1.
         -5    1    3    3    0  502 -0.12778595523E+02  0.31210782969E+02 -0.21100208190E+02  0.40001208266E+02  0.41800000000E+01 0. -1.
        -11    1    4    4    0    0 -0.25076359529E+02 -0.18476087370E+02 -0.69278759881E+02  0.75958779495E+02  0.00000000000E+00 0. -1.
         11    1    4    4    0    0  0.43947717863E+02  0.49960834867E+02 -0.97250702727E+02  0.11783541958E+03  0.00000000000E+00 0.  1.
</event>
<event>
 8    1  0.3541538E-009  0.9887425E+02  0.7561462E-02  0.1282681E+00
          1   -1    0    0  501    0  0.00000000000E+00  0.00000000000E+00  0.80634980324E+03  0.80634980324E+03  0.00000000000E+00 0. -1.
         -1   -1    0    0    0  501 -0.00000000000E+00 -0.00000000000E+00 -0.20376588049E+02  0.20376588049E+02  0.00000000000E+00 0.  1.
         25    2    1    2    0    0  0.33172969763E+02 -0.29819807508E+02  0.60991940280E+03  0.62421056624E+03  0.12508991270E+03 0.  0.
         23    2    1    2    0    0 -0.33172969763E+02  0.29819807508E+02  0.17605381240E+03  0.20251582505E+03  0.89599373283E+02 0.  0.
          5    1    3    3  502    0 -0.85428186760E+01  0.37608009961E+02  0.35749121760E+03  0.35958974572E+03  0.41800000000E+01 0.  1.
         -5    1    3    3    0  502  0.41715788439E+02 -0.67427817469E+02  0.25242818519E+03  0.26462082052E+03  0.41800000000E+01 0.  1.
        -11    1    4    4    0    0  0.61367311641E+01  0.38761094321E+02  0.14871636205E+03  0.15380714627E+03  0.00000000000E+00 0. -1.
         11    1    4    4    0    0 -0.39309700927E+02 -0.89412868125E+01  0.27337450347E+02  0.48708678778E+02  0.00000000000E+00 0.  1.
</event>
<event>
 8    1  0.3541538E-009  0.8754874E+02  0.7561462E-02  0.1308899E+00
         -3   -1    0    0    0  501 -0.00000000000E+00  0.00000000000E+00  0.30882549974E+02  0.30882549974E+02  0.00000000000E+00 0.  1.
          3   -1    0    0  501    0  0.00000000000E+00 -0.00000000000E+00 -0.68986589526E+03  0.68986589526E+03  0.00000000000E+00 0. -1.
         25    2    1    2    0    0  0.12773739516E+02  0.73311148342E+02 -0.20283279829E+03  0.24965217331E+03  0.12508945073E+03 0.  0.
         23    2    1    2    0    0 -0.12773739516E+02 -0.73311148342E+02 -0.45615054700E+03  0.47109627192E+03  0.91217777890E+02 0.  0.
          5    1    3    3  502    0  0.76339060958E+01  0.32018971188E+02  0.84748039758E+01  0.34245959479E+02  0.41800000000E+01 0.  1.
         -5    1    3    3    0  502  0.51398334207E+01  0.41292177154E+02 -0.21130760226E+03  0.21540621383E+03  0.41800000000E+01 0.  1.
        -11    1    4    4    0    0  0.25307049860E+02 -0.12206714027E+02 -0.40721318064E+02  0.49473997058E+02  0.00000000000E+00 0.  1.
         11    1    4    4    0    0 -0.38080789376E+02 -0.61104434314E+02 -0.41542922893E+03  0.42162227487E+03  0.00000000000E+00 0. -1.
</event>
<event>
 8    1  0.3541538E-009  0.8311335E+02  0.7561462E-02  0.1320441E+00
         -1   -1    0    0    0  501 -0.00000000000E+00  0.00000000000E+00  0.79135585897E+02  0.79135585897E+02  0.00000000000E+00 0.  1.
          1   -1    0    0  501    0  0.00000000000E+00 -0.00000000000E+00 -0.15171397467E+03  0.15171397467E+03  0.00000000000E+00 0. -1.
         25    2    1    2    0    0 -0.83740514304E+01 -0.13002869688E+02 -0.17538305909E+02  0.12723962217E+03  0.12507249865E+03 0.  0.
         23    2    1    2    0    0  0.83740514304E+01  0.13002869688E+02 -0.55040082865E+02  0.10360993840E+03  0.86408386491E+02 0.  0.
          5    1    3    3  502    0 -0.50174431966E+02 -0.18236531632E+02 -0.50485751087E+02  0.73595707564E+02  0.41800000000E+01 0.  1.
         -5    1    3    3    0  502  0.41800380536E+02  0.52336619437E+01  0.32947445178E+02  0.53643914604E+02  0.41800000000E+01 0.  1.
        -11    1    4    4    0    0 -0.78992328738E+01  0.38935202353E+02  0.10125164905E+01  0.39741326751E+02  0.00000000000E+00 0.  1.
         11    1    4    4    0    0  0.16273284304E+02 -0.25932332665E+02 -0.56052599356E+02  0.63868611650E+02  0.00000000000E+00 0. -1.
</event>
<event>
 8    1  0.3541538E-009  0.8995703E+02  0.7561462E-02  0.1302956E+00
          1   -1    0    0  501    0  0.00000000000E+00  0.00000000000E+00  0.45444442994E+03  0.45444442994E+03  0.00000000000E+00 0. -1.
         -1   -1    0    0    0  501 -0.00000000000E+00 -0.00000000000E+00 -0.29235202802E+02  0.29235202802E+02  0.00000000000E+00 0.  1.
         25    2    1    2    0    0  0.24191106275E+02 -0.10937653983E+01  0.30503483313E+03  0.33057562626E+03  0.12509032462E+03 0.  0.
         23    2    1    2    0    0 -0.24191106275E+02  0.10937653983E+01  0.12017439402E+03  0.15310400648E+03  0.91719931741E+02 0.  0.
          5    1    3    3  502    0 -0.29284407999E+02  0.23378232531E+02  0.23939284740E+03  0.24234381794E+03  0.41800000000E+01 0.  1.
         -5    1    3    3    0  502  0.53475514274E+02 -0.24471997930E+02  0.65641985724E+02  0.88231808319E+02  0.41800000000E+01 0.  1.
        -11    1    4    4    0    0 -0.19758327627E+02 -0.38572968379E+02  0.25318169009E+02  0.50192380718E+02  0.00000000000E+00 0.  1.
         11    1    4    4    0    0 -0.44327786481E+01  0.39666733777E+02  0.94856225007E+02  0.10291162577E+03  0.00000000000E+00 0. -1.
</event>
<event>
 8    1  0.3541538E-009  0.1229392E+03  0.7561462E-02  0.1238326E+00
          1   -1    0    0  501    0  0.00000000000E+00  0.00000000000E+00  0.29218678163E+03  0.29218678163E+03  0.00000000000E+00 0. -1.
         -1   -1    0    0    0  501 -0.00000000000E+00 -0.00000000000E+00 -0.85380202169E+02  0.85380202169E+02  0.00000000000E+00 0.  1.
         25    2    1    2    0    0 -0.98992639626E+01 -0.78164587264E+02  0.21206458840E+03  0.25850990924E+03  0.12509310689E+03 0.  0.
         23    2    1    2    0    0  0.98992639626E+01  0.78164587264E+02 -0.52580089378E+01  0.11905707457E+03  0.89102425427E+02 0.  0.
          5    1    3    3  502    0 -0.67457564167E+02 -0.42765286526E+02  0.10892435148E+03  0.13513467150E+03  0.41800000000E+01 0.  1.
         -5    1    3    3    0  502  0.57558300205E+02 -0.35399300739E+02  0.10314023692E+03  0.12337523774E+03  0.41800000000E+01 0.  1.
        -11    1    4    4    0    0 -0.70084902749E+01  0.80783359743E+02 -0.32113630344E+02  0.87214421979E+02  0.00000000000E+00 0.  1.
         11    1    4    4    0    0  0.16907754238E+02 -0.26187724788E+01  0.26855621406E+02  0.31842652587E+02  0.00000000000E+00 0. -1.
</event>
<event>
 8    1  0.3541538E-009  0.1231523E+03  0.7561462E-02  0.1237986E+00
          4   -1    0    0  501    0  0.00000000000E+00  0.00000000000E+00  0.15669409212E+03  0.15669409212E+03  0.00000000000E+00 0. -1.
         -4   -1    0    0    0  501 -0.00000000000E+00 -0.00000000000E+00 -0.12264802979E+03  0.12264802979E+03  0.00000000000E+00 0.  1.
         25    2    1    2    0    0  0.79103882308E+02 -0.24086500397E+02 -0.11181292288E+02  0.15036517054E+03  0.12508828688E+03 0.  0.
         23    2    1    2    0    0 -0.79103882308E+02  0.24086500397E+02  0.45227354617E+02  0.12897695137E+03  0.88045196806E+02 0.  0.
          5    1    3    3  502    0  0.52200957876E+02  0.37354709399E+02 -0.41592784388E+02  0.76601216900E+02  0.41800000000E+01 0.  1.
         -5    1    3    3    0  502  0.26902924432E+02 -0.61441209796E+02  0.30411492100E+02  0.73763953635E+02  0.41800000000E+01 0.  1.
        -11    1    4    4    0    0 -0.27090039969E+02 -0.29531152089E+02 -0.27942708081E+01  0.40171720882E+02  0.00000000000E+00 0.  1.
         11    1    4    4    0    0 -0.52013842338E+02  0.53617652486E+02  0.48021625425E+02  0.88805230484E+02  0.00000000000E+00 0. -1.
</event>
<event>
 8    1  0.3541538E-009  0.1474487E+03  0.7561462E-02  0.1203644E+00
         -1   -1    0    0    0  501 -0.00000000000E+00  0.00000000000E+00  0.71736728544E+02  0.71736728544E+02  0.00000000000E+00 0.  1.
          1   -1    0    0  501    0  0.00000000000E+00 -0.00000000000E+00 -0.35514516441E+03  0.35514516441E+03  0.00000000000E+00 0. -1.
         25    2    1    2    0    0 -0.27371925751E+02 -0.11075726368E+03 -0.11035994830E+03  0.20209682389E+03  0.12508962492E+03 0.  0.
         23    2    1    2    0    0  0.27371925751E+02  0.11075726368E+03 -0.17304848757E+03  0.22478506906E+03  0.86983644719E+02 0.  0.
          5    1    3    3  502    0 -0.66687071157E+02 -0.37886657287E+02 -0.86805516671E+02  0.11591045848E+03  0.41800000000E+01 0. -1.
         -5    1    3    3    0  502  0.39315145405E+02 -0.72870606388E+02 -0.23554431626E+02  0.86186365412E+02  0.41800000000E+01 0. -1.
        -11    1    4    4    0    0  0.11139603229E+02 -0.90043632229E+01 -0.51197251955E+02  0.53163219662E+02  0.00000000000E+00 0.  1.
         11    1    4    4    0    0  0.16232322522E+02  0.11976162690E+03 -0.12185123561E+03  0.17162184940E+03  0.00000000000E+00 0. -1.
</event>
<event>
 8    1  0.3541538E-009  0.1223559E+03  0.7561462E-02  0.1239260E+00
         -2   -1    0    0    0  501 -0.00000000000E+00  0.00000000000E+00  0.22810349144E+03  0.22810349144E+03  0.00000000000E+00 0.  1.
          2   -1    0    0  501    0  0.00000000000E+00 -0.00000000000E+00 -0.86649453653E+02  0.86649453653E+02  0.00000000000E+00 0. -1.
         25    2    1    2    0    0 -0.65634434489E+02  0.59026259603E+02  0.92557553787E+02  0.17890439014E+03  0.12509157340E+03 0.  0.
         23    2    1    2    0    0  0.65634434489E+02 -0.59026259603E+02  0.48896483996E+02  0.13584855494E+03  0.90950455853E+02 0.  0.
          5    1    3    3  502    0 -0.34538215469E+01 -0.37653504987E+02  0.24628724385E+02  0.45318448627E+02  0.41800000000E+01 0.  1.
         -5    1    3    3    0  502 -0.62180612942E+02  0.96679764591E+02  0.67928829402E+02  0.13358594152E+03  0.41800000000E+01 0.  1.
        -11    1    4    4    0    0  0.14537858789E+02 -0.28840684926E+02  0.66515093477E+02  0.73941815675E+02  0.00000000000E+00 0.  1.
         11    1    4    4    0    0  0.51096575700E+02 -0.30185574678E+02 -0.17618609480E+02  0.61906739269E+02  0.00000000000E+00 0. -1.
</event>
<event>
 8    1  0.3541538E-009  0.1092157E+03  0.7561462E-02  0.1262029E+00
          2   -1    0    0  501    0  0.00000000000E+00  0.00000000000E+00  0.34673303898E+03  0.34673303898E+03  0.00000000000E+00 0. -1.
         -2   -1    0    0    0  501 -0.00000000000E+00 -0.00000000000E+00 -0.55167988230E+02  0.55167988230E+02  0.00000000000E+00 0.  1.
         25    2    1    2    0    0 -0.83020002831E+02  0.21322888277E+02  0.16060723444E+03  0.22088168475E+03  0.12508816278E+03 0.  0.
         23    2    1    2    0    0  0.83020002831E+02 -0.21322888277E+02  0.13095781631E+03  0.18101934246E+03  0.90945402627E+02 0.  0.
          5    1    3    3  502    0 -0.49855730682E+02 -0.75743329927E+01 -0.37009788245E+01  0.50735924614E+02  0.41800000000E+01 0. -1.
         -5    1    3    3    0  502 -0.33164272149E+02  0.28897221270E+02  0.16430821327E+03  0.17014576013E+03  0.41800000000E+01 0. -1.
        -11    1    4    4    0    0  0.37621962409E+02  0.34944190749E+02  0.67589410813E+02  0.84881311116E+02  0.00000000000E+00 0.  1.
         11    1    4    4    0    0  0.45398040422E+02 -0.56267079027E+02  0.63368405493E+02  0.96138031346E+02  0.00000000000E+00 0. -1.
</event>
<event>
 8    1  0.3541538E-009  0.1332641E+03  0.7561462E-02  0.1222691E+00
          2   -1    0    0  501    0  0.00000000000E+00  0.00000000000E+00  0.67542438367E+03  0.67542438367E+03  0.00000000000E+00 0. -1.
         -2   -1    0    0    0  501 -0.00000000000E+00 -0.00000000000E+00 -0.34648133378E+02  0.34648133378E+02  0.00000000000E+00 0.  1.
         25    2    1    2    0    0 -0.46352646253E+02 -0.87840392838E+02  0.45662340302E+03  0.48375379732E+03  0.12509317251E+03 0.  0.
         23    2    1    2    0    0  0.46352646253E+02  0.87840392838E+02  0.18415284727E+03  0.22631871973E+03  0.86275079323E+02 0.  0.
          5    1    3    3  502    0 -0.60363385212E+02 -0.16167336075E+02  0.88419084151E+02  0.10835371647E+03  0.41800000000E+01 0. -1.
         -5    1    3    3    0  502  0.14010738959E+02 -0.71673056763E+02  0.36820431887E+03  0.37540008085E+03  0.41800000000E+01 0. -1.
        -11    1    4    4    0    0  0.58114531621E+02  0.98830792460E+02  0.15231639338E+03  0.19064392992E+03  0.00000000000E+00 0.  1.
         11    1    4    4    0    0 -0.11761885368E+02 -0.10990399622E+02  0.31836453890E+02  0.35674789804E+02  0.00000000000E+00 0. -1.
</event>
<event>
 8    1  0.3541538E-009  0.1451748E+03  0.7561462E-02  0.1206531E+00
          1   -1    0    0  501    0  0.00000000000E+00  0.00000000000E+00  0.41264796289E+03  0.41264796289E+03  0.00000000000E+00 0. -1.
         -1   -1    0    0    0  501 -0.00000000000E+00 -0.00000000000E+00 -0.56164920963E+02  0.56164920963E+02  0.00000000000E+00 0.  1.
         25    2    1    2    0    0 -0.95402392345E+02  0.28147475648E+02  0.13375471838E+03  0.20841427375E+03  0.12510910425E+03 0.  0.
         23    2    1    2    0    0  0.95402392345E+02 -0.28147475648E+02  0.22272832355E+03  0.26039861009E+03  0.91135246635E+02 0.  0.
          5    1    3    3  502    0 -0.93252455573E+02  0.69830117483E+02  0.86074206368E+02  0.14490861665E+03  0.41800000000E+01 0.  1.
         -5    1    3    3    0  502 -0.21499367719E+01 -0.41682641836E+02  0.47680512008E+02  0.63505657101E+02  0.41800000000E+01 0.  1.
        -11    1    4    4    0    0  0.10290783166E+03 -0.45804817749E+02  0.16680813668E+03  0.20127855725E+03  0.00000000000E+00 0.  1.
         11    1    4    4    0    0 -0.75054393137E+01  0.17657342102E+02  0.55920186863E+02  0.59120052843E+02  0.00000000000E+00 0. -1.
</event>
<event>
 8    1  0.3541538E-009  0.5003810E+02  0.7561462E-02  0.1445136E+00
          2   -1    0    0  501    0  0.00000000000E+00  0.00000000000E+00  0.49982578243E+03  0.49982578243E+03  0.00000000000E+00 0. -1.
         -2   -1    0    0    0  501 -0.00000000000E+00 -0.00000000000E+00 -0.29540449074E+02  0.29540449074E+02  0.00000000000E+00 0.  1.
         25    2    1    2    0    0 -0.50037930919E+01  0.31455942939E+01  0.38399426404E+03  0.40389900412E+03  0.12509147853E+03 0.  0.
         23    2    1    2    0    0  0.50037930919E+01 -0.31455942939E+01  0.86291069320E+02  0.12546722739E+03  0.90889734273E+02 0.  0.
          5    1    3    3  502    0 -0.55224988109E+01  0.23471488235E+01  0.39344940102E+03  0.39351735752E+03  0.41800000000E+01 0.  1.
         -5    1    3    3    0  502  0.51870571907E+00  0.79844547038E+00 -0.94551369820E+01  0.10381646601E+02  0.41800000000E+01 0.  1.
        -11    1    4    4    0    0  0.15173971623E+02 -0.43912257537E+02  0.30310395933E+02  0.55473019373E+02  0.00000000000E+00 0.  1.
         11    1    4    4    0    0 -0.10170178531E+02  0.40766663243E+02  0.55980673387E+02  0.69994208019E+02  0.00000000000E+00 0. -1.
</event>
<event>
 8    1  0.3541538E-009  0.1153863E+03  0.7561462E-02  0.1250908E+00
         -2   -1    0    0    0  501 -0.00000000000E+00  0.00000000000E+00  0.58492187411E+02  0.58492187411E+02  0.00000000000E+00 0.  1.
          2   -1    0    0  501    0  0.00000000000E+00 -0.00000000000E+00 -0.29313536241E+03  0.29313536241E+03  0.00000000000E+00 0. -1.
         25    2    1    2    0    0  0.36154017541E+02  0.49316318620E+00 -0.46856390369E+02  0.13839421399E+03  0.12510028359E+03 0.  0.
         23    2    1    2    0    0 -0.36154017541E+02 -0.49316318620E+00 -0.18778678463E+03  0.21323333583E+03  0.94325091216E+02 0.  0.
          5    1    3    3  502    0 -0.46277970688E+02  0.84983809564E+01 -0.15017459717E+02  0.49566819004E+02  0.41800000000E+01 0. -1.
         -5    1    3    3    0  502  0.82431988229E+02 -0.80052177701E+01 -0.31838930652E+02  0.88827394986E+02  0.41800000000E+01 0. -1.
        -11    1    4    4    0    0 -0.86329140493E+01 -0.46340130636E+02 -0.97574859133E+02  0.10836414558E+03  0.00000000000E+00 0.  1.
         11    1    4    4    0    0 -0.27521103492E+02  0.45846967450E+02 -0.90211925494E+02  0.10486919025E+03  0.00000000000E+00 0. -1.
</event>
<event>
 8    1  0.3541538E-009  0.1051475E+03  0.7561462E-02  0.1269829E+00
         -1   -1    0    0    0  501 -0.00000000000E+00  0.00000000000E+00  0.22864827911E+03  0.22864827911E+03  0.00000000000E+00 0.  1.
          1   -1    0    0  501    0  0.00000000000E+00 -0.00000000000E+00 -0.10055116122E+03  0.10055116122E+03  0.00000000000E+00 0. -1.
         25    2    1    2    0    0  0.43798497425E+02 -0.91580807478E+02  0.54603859202E+02  0.17010025140E+03  0.12508861424E+03 0.  0.
         23    2    1    2    0    0 -0.43798497425E+02  0.91580807478E+02  0.73493258697E+02  0.15909918893E+03  0.98009898319E+02 0.  0.
          5    1    3    3  502    0  0.12114896612E+02 -0.35433389794E+02  0.89187801788E+02  0.96820618775E+02  0.41800000000E+01 0.  1.
         -5    1    3    3    0  502  0.31683600813E+02 -0.56147417684E+02 -0.34583942587E+02  0.73279632627E+02  0.41800000000E+01 0.  1.
        -11    1    4    4    0    0 -0.48869952145E+02  0.67105083783E+02  0.16486508210E+01  0.83030612076E+02  0.00000000000E+00 0. -1.
         11    1    4    4    0    0  0.50714547194E+01  0.24475723694E+02  0.71844607876E+02  0.76068576852E+02  0.00000000000E+00 0.  1.
</event>
<event>
 8    1  0.3541538E-009  0.8541388E+02  0.7561462E-02  0.1314354E+00
          1   -1    0    0  501    0  0.00000000000E+00  0.00000000000E+00  0.23742795991E+03  0.23742795991E+03  0.00000000000E+00 0. -1.
         -1   -1    0    0    0  501 -0.00000000000E+00 -0.00000000000E+00 -0.55082860415E+02  0.55082860415E+02  0.00000000000E+00 0.  1.
         25    2    1    2    0    0  0.18368202121E+01 -0.32549547732E+02  0.12643884712E+03  0.18082355147E+03  0.12509007850E+03 0.  0.
         23    2    1    2    0    0 -0.18368202121E+01  0.32549547732E+02  0.55906252379E+02  0.11168726886E+03  0.91025765602E+02 0.  0.
          5    1    3    3  502    0  0.12877494381E+02 -0.75305348303E+02  0.46871690662E+02  0.89728218137E+02  0.41800000000E+01 0.  1.
         -5    1    3    3    0  502 -0.11040674169E+02  0.42755800571E+02  0.79567156459E+02  0.91095333336E+02  0.41800000000E+01 0.  1.
        -11    1    4    4    0    0  0.17880469707E+02  0.12344004731E+02 -0.20721394082E+02  0.30024353822E+02  0.00000000000E+00 0.  1.
         11    1    4    4    0    0 -0.19717289919E+02  0.20205543000E+02  0.76627646461E+02  0.81662915034E+02  0.00000000000E+00 0. -1.
</event>
<event>
 8    1  0.3541538E-009  0.1027706E+03  0.7561462E-02  0.1274575E+00
          2   -1    0    0  501    0  0.00000000000E+00  0.00000000000E+00  0.91282108998E+03  0.91282108998E+03  0.00000000000E+00 0. -1.
         -2   -1    0    0    0  501 -0.00000000000E+00 -0.00000000000E+00 -0.18361416904E+02  0.18361416904E+02  0.00000000000E+00 0.  1.
         25    2    1    2    0    0  0.25594217914E+02 -0.65255872682E+02  0.49231647106E+03  0.51277316952E+03  0.12508965902E+03 0.  0.
         23    2    1    2    0    0 -0.25594217914E+02  0.65255872682E+02  0.40214320202E+03  0.41840933736E+03  0.91835863111E+02 0.  0.
          5    1    3    3  502    0  0.35386999863E+02 -0.70060694649E+02  0.14232867511E+03  0.16259048204E+03  0.41800000000E+01 0. -1.
         -5    1    3    3    0  502 -0.97927819491E+01  0.48048219676E+01  0.34998779595E+03  0.35018268747E+03  0.41800000000E+01 0. -1.
        -11    1    4    4    0    0  0.44731486556E+01  0.81132913001E+02  0.29621655642E+03  0.30715925337E+03  0.00000000000E+00 0.  1.
         11    1    4    4    0    0 -0.30067366570E+02 -0.15877040319E+02  0.10592664559E+03  0.11125008399E+03  0.00000000000E+00 0. -1.
</event>
<event>
 8    1  0.3541538E-009  0.2444084E+03  0.7561462E-02  0.1116890E+00
          2   -1    0    0  501    0  0.00000000000E+00  0.00000000000E+00  0.27562841331E+04  0.27562841331E+04  0.00000000000E+00 0. -1.
         -2   -1    0    0    0  501 -0.00000000000E+00 -0.00000000000E+00 -0.30272442977E+02  0.30272442977E+02  0.00000000000E+00 0.  1.
         25    2    1    2    0    0 -0.16307115830E+03 -0.17837666422E+03  0.19459500368E+04  0.19648865672E+04  0.12508892576E+03 0.  0.
         23    2    1    2    0    0  0.16307115830E+03  0.17837666422E+03  0.78006165331E+03  0.82167000883E+03  0.90746809570E+02 0.  0.
          5    1    3    3  502    0  0.41176032010E+00 -0.16510510970E+02  0.53709955895E+03  0.53736968201E+03  0.41800000000E+01 0.  1.
         -5    1    3    3    0  502 -0.16348291862E+03 -0.16186615325E+03  0.14088504778E+04  0.14275168852E+04  0.41800000000E+01 0.  1.
        -11    1    4    4    0    0  0.11329361230E+03  0.12358177152E+03  0.38787361340E+03  0.42255631200E+03  0.00000000000E+00 0.  1.
         11    1    4    4    0    0  0.49777545995E+02  0.54794892700E+02  0.39218803991E+03  0.39911369683E+03  0.00000000000E+00 0. -1.
</event>
<event>
 8    1  0.3541538E-009  0.1040193E+03  0.7561462E-02  0.1272064E+00
          2   -1    0    0  501    0  0.00000000000E+00  0.00000000000E+00  0.24007156389E+03  0.24007156389E+03  0.00000000000E+00 0. -1.
         -2   -1    0    0    0  501 -0.00000000000E+00 -0.00000000000E+00 -0.68920271824E+02  0.68920271824E+02  0.00000000000E+00 0.  1.
         25    2    1    2    0    0 -0.55539022382E+02 -0.44567247562E+02  0.72476781116E+02  0.16115547346E+03  0.12508948902E+03 0.  0.
         23    2    1    2    0    0  0.55539022382E+02  0.44567247562E+02  0.98674510946E+02  0.14783636224E+03  0.83953012627E+02 0.  0.
          5    1    3    3  502    0  0.29973877052E+02 -0.37610187822E+02 -0.75198539439E+00  0.48280404054E+02  0.41800000000E+01 0.  1.
         -5    1    3    3    0  502 -0.85512899434E+02 -0.69570597391E+01  0.73228766511E+02  0.11287506941E+03  0.41800000000E+01 0.  1.
        -11    1    4    4    0    0  0.50165111810E+02  0.30263163561E+02  0.11274899976E+03  0.12706193158E+03  0.00000000000E+00 0. -1.
         11    1    4    4    0    0  0.53739105720E+01  0.14304084001E+02 -0.14074488812E+02  0.20774430660E+02  0.00000000000E+00 0.  1.
</event>
<event>
 8    1  0.3541538E-009  0.2046531E+03  0.7561462E-02  0.1145872E+00
          4   -1    0    0  501    0  0.00000000000E+00  0.00000000000E+00  0.82793430883E+03  0.82793430883E+03  0.00000000000E+00 0. -1.
         -4   -1    0    0    0  501 -0.00000000000E+00 -0.00000000000E+00 -0.56475372264E+02  0.56475372264E+02  0.00000000000E+00 0.  1.
         25    2    1    2    0    0  0.18410174781E+03  0.23516184194E+02  0.36689487139E+03  0.42977463325E+03  0.12509166345E+03 0.  0.
         23    2    1    2    0    0 -0.18410174781E+03 -0.23516184194E+02  0.40456406518E+03  0.45463504784E+03  0.92598485034E+02 0.  0.
          5    1    3    3  502    0  0.81368331843E+01  0.45422866710E+02  0.70628208939E+02  0.84470475152E+02  0.41800000000E+01 0.  1.
         -5    1    3    3    0  502  0.17596491463E+03 -0.21906682516E+02  0.29626666245E+03  0.34530415810E+03  0.41800000000E+01 0.  1.
        -11    1    4    4    0    0 -0.15262885066E+03 -0.19750221200E+02  0.39092361991E+03  0.42012725917E+03  0.00000000000E+00 0. -1.
         11    1    4    4    0    0 -0.31472897152E+02 -0.37659629936E+01  0.13640445266E+02  0.34507788678E+02  0.00000000000E+00 0.  1.
</event>
<event>
 8    1  0.3541538E-009  0.9015812E+02  0.7561462E-02  0.1302469E+00
         -2   -1    0    0    0  501 -0.00000000000E+00  0.00000000000E+00  0.56298858666E+02  0.56298858666E+02  0.00000000000E+00 0.  1.
          2   -1    0    0  501    0  0.00000000000E+00 -0.00000000000E+00 -0.27284151292E+03  0.27284151292E+03  0.00000000000E+00 0. -1.
         25    2    1    2    0    0 -0.45477119812E+02 -0.28714383015E+02 -0.74655780466E+02  0.15528525964E+03  0.12508933642E+03 0.  0.
         23    2    1    2    0    0  0.45477119812E+02  0.28714383015E+02 -0.14188687379E+03  0.17385511195E+03  0.84858887449E+02 0.  0.
          5    1    3    3  502    0 -0.68887854445E+02 -0.12305017275E+02  0.52667237719E+01  0.70300502982E+02  0.41800000000E+01 0.  1.
         -5    1    3    3    0  502  0.23410734633E+02 -0.16409365741E+02 -0.79922504238E+02  0.84984756655E+02  0.41800000000E+01 0.  1.
        -11    1    4    4    0    0  0.55913558927E+02  0.37792768697E+02 -0.58453505597E+02  0.89282874922E+02  0.00000000000E+00 0.  1.
         11    1    4    4    0    0 -0.10436439115E+02 -0.90783856819E+01 -0.83433368194E+02  0.84572237030E+02  0.00000000000E+00 0. -1.
</event>
<event>
 8    1  0.3541538E-009  0.1343481E+03  0.7561462E-02  0.1221143E+00
          3   -1    0    0  501    0  0.00000000000E+00  0.00000000000E+00  0.20325697880E+03  0.20325697880E+03  0.00000000000E+00 0. -1.
         -3   -1    0    0    0  501 -0.00000000000E+00 -0.00000000000E+00 -0.11776644165E+03  0.11776644165E+03  0.00000000000E+00 0.  1.
         25    2    1    2    0    0 -0.28679644101E+02 -0.84975376601E+02  0.11221530145E+03  0.19048021227E+03  0.12508837186E+03 0.  0.
         23    2    1    2    0    0  0.28679644101E+02  0.84975376601E+02 -0.26724764302E+02  0.13054320818E+03  0.91016369743E+02 0.  0.
          5    1    3    3  502    0 -0.55162032459E+02  0.46037910440E+01  0.19595524345E+02  0.58868511883E+02  0.41800000000E+01 0.  1.
         -5    1    3    3    0  502  0.26482388358E+02 -0.89579167645E+02  0.92619777100E+02  0.13161170039E+03  0.41800000000E+01 0.  1.
        -11    1    4    4    0    0 -0.63934310506E+01  0.84359199691E+02 -0.39293586201E+02  0.93280954378E+02  0.00000000000E+00 0.  1.
         11    1    4    4    0    0  0.35073075152E+02  0.61617690968E+00  0.12568821899E+02  0.37262253804E+02  0.00000000000E+00 0. -1.
</event>
<event>
 8    1  0.3541538E-009  0.1035051E+03  0.7561462E-02  0.1273093E+00
         -3   -1    0    0    0  501 -0.00000000000E+00  0.00000000000E+00  0.19160584902E+03  0.19160584902E+03  0.00000000000E+00 0. -1.
          3   -1    0    0  501    0  0.00000000000E+00 -0.00000000000E+00 -0.69762968363E+02  0.69762968363E+02  0.00000000000E+00 0.  1.
         25    2    1    2    0    0  0.99106000838E+01 -0.20168450551E+02  0.10569326389E+03  0.16528723306E+03  0.12507524531E+03 0.  0.
         23    2    1    2    0    0 -0.99106000838E+01  0.20168450551E+02  0.16149616765E+02  0.96081584317E+02  0.92010186021E+02 0.  0.
          5    1    3    3  502    0  0.49097991324E+02 -0.44723707761E+02  0.97640077125E+02  0.11816039882E+03  0.41800000000E+01 0.  1.
         -5    1    3    3    0  502 -0.39187391241E+02  0.24555257210E+02  0.80531867639E+01  0.47126834245E+02  0.41800000000E+01 0.  1.
        -11    1    4    4    0    0 -0.48543782187E+02 -0.35911892994E+01  0.25982417459E+01  0.48745730990E+02  0.00000000000E+00 0. -1.
         11    1    4    4    0    0  0.38633182103E+02  0.23759639850E+02  0.13551375019E+02  0.47335853327E+02  0.00000000000E+00 0.  1.
</event>
<event>
 8    1  0.3541538E-009  0.1190554E+03  0.7561462E-02  0.1244664E+00
         -2   -1    0    0    0  501 -0.00000000000E+00  0.00000000000E+00  0.70962401632E+02  0.70962401632E+02  0.00000000000E+00 0. -1.
          2   -1    0    0  501    0  0.00000000000E+00 -0.00000000000E+00 -0.32628224843E+03  0.32628224843E+03  0.00000000000E+00 0.  1.
         25    2    1    2    0    0  0.59552779892E+02  0.29270805472E+02 -0.24714218795E+03  0.28483035992E+03  0.12508300931E+03 0.  0.
         23    2    1    2    0    0 -0.59552779892E+02 -0.29270805472E+02 -0.81776588440E+01  0.11241429014E+03  0.90370265457E+02 0.  0.
          5    1    3    3  502    0  0.98440650870E+02  0.14507888108E+02 -0.16706293138E+03  0.19449559378E+03  0.41800000000E+01 0. -1.
         -5    1    3    3    0  502 -0.38887870978E+02  0.14762917364E+02 -0.80079256578E+02  0.90334766133E+02  0.41800000000E+01 0. -1.
        -11    1    4    4    0    0 -0.55730864577E+02  0.10540986908E+02 -0.32729461232E+02  0.65484802084E+02  0.00000000000E+00 0.  1.
         11    1    4    4    0    0 -0.38219153148E+01 -0.39811792380E+02  0.24551802388E+02  0.46929488061E+02  0.00000000000E+00 0. -1.
</event>
<event>
 8    1  0.3541538E-009  0.1028915E+03  0.7561462E-02  0.1274330E+00
          2   -1    0    0  501    0  0.00000000000E+00  0.00000000000E+00  0.16384905529E+03  0.16384905529E+03  0.00000000000E+00 0. -1.
         -2   -1    0    0    0  501 -0.00000000000E+00 -0.00000000000E+00 -0.23206411279E+03  0.23206411279E+03  0.00000000000E+00 0.  1.
         25    2    1    2    0    0 -0.59281744168E+02 -0.48712608081E+01  0.11687587602E+03  0.18123568664E+03  0.12509336251E+03 0.  0.
         23    2    1    2    0    0  0.59281744168E+02  0.48712608081E+01 -0.18509093352E+03  0.21467748144E+03  0.91047861001E+02 0.  0.
          5    1    3    3  502    0 -0.77918444596E+02  0.27306718707E+02  0.32308707621E+02  0.88759596005E+02  0.41800000000E+01 0.  1.
         -5    1    3    3    0  502  0.18636700429E+02 -0.32177979515E+02  0.84567168395E+02  0.92476090634E+02  0.41800000000E+01 0.  1.
        -11    1    4    4    0    0  0.11451668561E+02 -0.26243353294E+02 -0.13728139328E+03  0.14023564185E+03  0.00000000000E+00 0.  1.
         11    1    4    4    0    0  0.47830075606E+02  0.31114614102E+02 -0.47809540239E+02  0.74441839587E+02  0.00000000000E+00 0. -1.
</event>
<event>
 8    1  0.3541538E-009  0.1014583E+03  0.7561462E-02  0.1277259E+00
          1   -1    0    0  501    0  0.00000000000E+00  0.00000000000E+00  0.43670066654E+03  0.43670066654E+03  0.00000000000E+00 0. -1.
         -1   -1    0    0    0  501 -0.00000000000E+00 -0.00000000000E+00 -0.28060375879E+02  0.28060375879E+02  0.00000000000E+00 0.  1.
         25    2    1    2    0    0  0.89269591670E+01 -0.58922148149E+01  0.20581753108E+03  0.24109183745E+03  0.12509999677E+03 0.  0.
         23    2    1    2    0    0 -0.89269591670E+01  0.58922148149E+01  0.20282275959E+03  0.22366920497E+03  0.93682616586E+02 0.  0.
          5    1    3    3  502    0  0.16283633341E+02  0.52586491732E+02  0.14988612426E+03  0.15973045569E+03  0.41800000000E+01 0. -1.
         -5    1    3    3    0  502 -0.73566741739E+01 -0.58478706547E+02  0.55931406811E+02  0.81361381761E+02  0.41800000000E+01 0. -1.
        -11    1    4    4    0    0 -0.18797911555E+02  0.44745080652E+02  0.71904051574E+02  0.86750656218E+02  0.00000000000E+00 0.  1.
         11    1    4    4    0    0  0.98709523885E+01 -0.38852865837E+02  0.13091870802E+03  0.13691854876E+03  0.00000000000E+00 0. -1.
</event>
<event>
 8    1  0.3541538E-009  0.1617243E+03  0.7561462E-02  0.1186764E+00
          2   -1    0    0  501    0  0.00000000000E+00  0.00000000000E+00  0.16262107491E+03  0.16262107491E+03  0.00000000000E+00 0. -1.
         -2   -1    0    0    0  501 -0.00000000000E+00 -0.00000000000E+00 -0.18593800871E+03  0.18593800871E+03  0.00000000000E+00 0.  1.
         25    2    1    2    0    0 -0.37782328532E+02 -0.12837110518E+03 -0.24304784575E+01  0.18318907114E+03  0.12508270690E+03 0.  0.
         23    2    1    2    0    0  0.37782328532E+02  0.12837110518E+03 -0.20886455352E+02  0.16537001248E+03  0.94891264160E+02 0.  0.
          5    1    3    3  502    0  0.44008253533E+02 -0.23596030839E+02  0.17245340470E+01  0.50139260745E+02  0.41800000000E+01 0. -1.
         -5    1    3    3    0  502 -0.81790582064E+02 -0.10477507434E+03 -0.41550125046E+01  0.13304981040E+03  0.41800000000E+01 0. -1.
        -11    1    4    4    0    0 -0.33877273341E+01  0.63051807521E+02 -0.52323019619E+02  0.82004301779E+02  0.00000000000E+00 0.  1.
         11    1    4    4    0    0  0.41170055866E+02  0.65319297662E+02  0.31436564268E+02  0.83365710697E+02  0.00000000000E+00 0. -1.
</event>
<event>
 8    1  0.3541538E-009  0.1206926E+03  0.7561462E-02  0.1241959E+00
          1   -1    0    0  501    0  0.00000000000E+00  0.00000000000E+00  0.16536311407E+03  0.16536311407E+03  0.00000000000E+00 0. -1.
         -1   -1    0    0    0  501 -0.00000000000E+00 -0.00000000000E+00 -0.18328950433E+03  0.18328950433E+03  0.00000000000E+00 0.  1.
         25    2    1    2    0    0 -0.97826317509E+02 -0.67101603803E+02 -0.76539136916E+02  0.18862178304E+03  0.12508926384E+03 0.  0.
         23    2    1    2    0    0  0.97826317509E+02  0.67101603803E+02  0.58612746652E+02  0.16003083536E+03  0.90010002592E+02 0.  0.
          5    1    3    3  502    0 -0.90082056640E+02 -0.50577011001E+02 -0.10957163150E+03  0.15065266609E+03  0.41800000000E+01 0. -1.
         -5    1    3    3    0  502 -0.77442608690E+01 -0.16524592803E+02  0.33032494585E+02  0.37969116953E+02  0.41800000000E+01 0. -1.
        -11    1    4    4    0    0  0.23696701773E+02  0.22945175419E+02  0.65639047722E+02  0.73460869419E+02  0.00000000000E+00 0. -1.
         11    1    4    4    0    0  0.74129615736E+02  0.44156428385E+02 -0.70263010700E+01  0.86569965944E+02  0.00000000000E+00 0.  1.
</event>
<event>
 8    1  0.3541538E-009  0.1033486E+03  0.7561462E-02  0.1273408E+00
          2   -1    0    0  501    0  0.00000000000E+00  0.00000000000E+00  0.48779188612E+03  0.48779188612E+03  0.00000000000E+00 0. -1.
         -2   -1    0    0    0  501 -0.00000000000E+00 -0.00000000000E+00 -0.28387572168E+02  0.28387572168E+02  0.00000000000E+00 0.  1.
         25    2    1    2    0    0 -0.15632024394E+02  0.88113088826E+01  0.17786430782E+03  0.21818198954E+03  0.12508264953E+03 0.  0.
         23    2    1    2    0    0  0.15632024394E+02 -0.88113088826E+01  0.28154000614E+03  0.29799746875E+03  0.95998525907E+02 0.  0.
          5    1    3    3  502    0  0.12661431223E+02  0.55924022783E+02  0.13991421139E+03  0.15126555164E+03  0.41800000000E+01 0.  1.
         -5    1    3    3    0  502 -0.28293455617E+02 -0.47112713900E+02  0.37950096428E+02  0.66916437896E+02  0.41800000000E+01 0.  1.
        -11    1    4    4    0    0 -0.38070444996E+02  0.56212886335E+01  0.77689364038E+02  0.86698298442E+02  0.00000000000E+00 0.  1.
         11    1    4    4    0    0  0.53702469391E+02 -0.14432597516E+02  0.20385064210E+03  0.21129917031E+03  0.00000000000E+00 0. -1.
</event>
<event>
 8    1  0.3541538E-009  0.9948553E+02  0.7561462E-02  0.1281382E+00
          2   -1    0    0  501    0  0.00000000000E+00  0.00000000000E+00  0.96256883938E+03  0.96256883938E+03  0.00000000000E+00 0.  1.
         -2   -1    0    0    0  501 -0.00000000000E+00 -0.00000000000E+00 -0.13362659369E+02  0.13362659369E+02  0.00000000000E+00 0. -1.
         25    2    1    2    0    0  0.14452146452E+02  0.27280336748E+02  0.57569843262E+03  0.58993997092E+03  0.12508957856E+03 0.  0.
         23    2    1    2    0    0 -0.14452146452E+02 -0.27280336748E+02  0.37350774740E+03  0.38599152783E+03  0.92349016677E+02 0.  0.
          5    1    3    3  502    0 -0.43364437715E+00 -0.37575070558E+02  0.40377058527E+03  0.40553696737E+03  0.41800000000E+01 0.  1.
         -5    1    3    3    0  502  0.14885790829E+02  0.64855407306E+02  0.17192784735E+03  0.18440300355E+03  0.41800000000E+01 0.  1.
        -11    1    4    4    0    0 -0.51842911172E+02 -0.23458044638E+02  0.17701105537E+03  0.18593246360E+03  0.00000000000E+00 0. -1.
         11    1    4    4    0    0  0.37390764720E+02 -0.38222921095E+01  0.19649669202E+03  0.20005906423E+03  0.00000000000E+00 0.  1.
</event>
<event>
 8    1  0.3541538E-009  0.1200543E+03  0.7561462E-02  0.1243008E+00
          1   -1    0    0  501    0  0.00000000000E+00  0.00000000000E+00  0.63208949863E+02  0.63208949863E+02  0.00000000000E+00 0. -1.
         -1   -1    0    0    0  501 -0.00000000000E+00 -0.00000000000E+00 -0.23146126093E+03  0.23146126093E+03  0.00000000000E+00 0.  1.
         25    2    1    2    0    0  0.53049461281E+02 -0.12657941630E+02 -0.91480486532E+02  0.16428630651E+03  0.12508733854E+03 0.  0.
         23    2    1    2    0    0 -0.53049461281E+02  0.12657941630E+02 -0.76771824536E+02  0.13038390428E+03  0.90175277236E+02 0.  0.
          5    1    3    3  502    0  0.62557207000E+02 -0.59698090436E+02 -0.70906033724E+02  0.11190354850E+03  0.41800000000E+01 0. -1.
         -5    1    3    3    0  502 -0.95077457190E+01  0.47040148806E+02 -0.20574452809E+02  0.52382758010E+02  0.41800000000E+01 0. -1.
        -11    1    4    4    0    0 -0.70078222624E+02  0.34138964916E+02 -0.55624783908E+02  0.95762951064E+02  0.00000000000E+00 0.  1.
         11    1    4    4    0    0  0.17028761344E+02 -0.21481023286E+02 -0.21147040628E+02  0.34620953217E+02  0.00000000000E+00 0. -1.
</event>
<event>
 8    1  0.3541538E-009  0.9442596E+02  0.7561462E-02  0.1292474E+00
         -1   -1    0    0    0  501 -0.00000000000E+00  0.00000000000E+00  0.74878907179E+02  0.74878907179E+02  0.00000000000E+00 0.  1.
          1   -1    0    0  501    0  0.00000000000E+00 -0.00000000000E+00 -0.20375548809E+03  0.20375548809E+03  0.00000000000E+00 0. -1.
         25    2    1    2    0    0  0.60299962842E+02 -0.38195066564E+01 -0.61502538787E+02  0.15192049203E+03  0.12508636805E+03 0.  0.
         23    2    1    2    0    0 -0.60299962842E+02  0.38195066564E+01 -0.67374042121E+02  0.12671390323E+03  0.88693165299E+02 0.  0.
          5    1    3    3  502    0  0.49405534657E+02  0.47108821691E+02 -0.71258544996E+02  0.98769431358E+02  0.41800000000E+01 0. -1.
         -5    1    3    3    0  502  0.10894428185E+02 -0.50928328347E+02  0.97560062090E+01  0.53151060675E+02  0.41800000000E+01 0. -1.
        -11    1    4    4    0    0 -0.14373445379E+02 -0.12921965469E+02  0.19231129673E+02  0.27265536345E+02  0.00000000000E+00 0.  1.
         11    1    4    4    0    0 -0.45926517463E+02  0.16741472126E+02 -0.86605171794E+02  0.99448366888E+02  0.00000000000E+00 0. -1.
</event>
<event>
 8    1  0.3541538E-009  0.7642022E+02  0.7561462E-02  0.1339529E+00
         -1   -1    0    0    0  501 -0.00000000000E+00  0.00000000000E+00  0.19580006027E+02  0.19580006027E+02  0.00000000000E+00 0.  1.
          1   -1    0    0  501    0  0.00000000000E+00 -0.00000000000E+00 -0.71018363846E+03  0.71018363846E+03  0.00000000000E+00 0. -1.
         25    2    1    2    0    0  0.35304709755E+02  0.10490260849E+02 -0.49272882066E+03  0.50969207115E+03  0.12509136095E+03 0.  0.
         23    2    1    2    0    0 -0.35304709755E+02 -0.10490260849E+02 -0.19787481177E+03  0.22007157333E+03  0.88997686217E+02 0.  0.
          5    1    3    3  502    0  0.36765007735E+02 -0.15627049376E+02 -0.47739983154E+03  0.47908657049E+03  0.41800000000E+01 0.  1.
         -5    1    3    3    0  502 -0.14602979799E+01  0.26117310226E+02 -0.15328989120E+02  0.30605500667E+02  0.41800000000E+01 0.  1.
        -11    1    4    4    0    0  0.13363481063E+01  0.30886598160E+02 -0.29020801517E+02  0.42402531680E+02  0.00000000000E+00 0.  1.
         11    1    4    4    0    0 -0.36641057861E+02 -0.41376859010E+02 -0.16885401026E+03  0.17766904165E+03  0.00000000000E+00 0. -1.
</event>
<event>
 8    1  0.3541538E-009  0.9768727E+02  0.7561462E-02  0.1285236E+00
          2   -1    0    0  501    0  0.00000000000E+00  0.00000000000E+00  0.27240265222E+03  0.27240265222E+03  0.00000000000E+00 0. -1.
         -2   -1    0    0    0  501 -0.00000000000E+00 -0.00000000000E+00 -0.73206235787E+02  0.73206235787E+02  0.00000000000E+00 0.  1.
         25    2    1    2    0    0  0.31705925397E+02 -0.20242015406E+02  0.54841081443E+01  0.13073807926E+03  0.12508942814E+03 0.  0.
         23    2    1    2    0    0 -0.31705925397E+02  0.20242015406E+02  0.19371230829E+03  0.21487080875E+03  0.85029413605E+02 0.  0.
          5    1    3    3  502    0 -0.36340623007E+02  0.18083390727E+01 -0.33092874913E+02  0.49361135935E+02  0.41800000000E+01 0. -1.
         -5    1    3    3    0  502  0.68046548404E+02 -0.22050354478E+02  0.38576983058E+02  0.81376943320E+02  0.41800000000E+01 0. -1.
        -11    1    4    4    0    0 -0.72640055227E+01 -0.30191680559E+02  0.10868828145E+03  0.11303736495E+03  0.00000000000E+00 0.  1.
         11    1    4    4    0    0 -0.24441919874E+02  0.50433695965E+02  0.85024026842E+02  0.10183344380E+03  0.00000000000E+00 0. -1.
</event>
<event>
 8    1  0.3541538E-009  0.1255044E+03  0.7561462E-02  0.1234283E+00
          1   -1    0    0  501    0  0.00000000000E+00  0.00000000000E+00  0.44907465838E+02  0.44907465838E+02  0.00000000000E+00 0. -1.
         -1   -1    0    0    0  501 -0.00000000000E+00 -0.00000000000E+00 -0.54356750445E+03  0.54356750445E+03  0.00000000000E+00 0.  1.
         25    2    1    2    0    0 -0.80911321509E+02 -0.32383369993E+02 -0.40430672458E+03  0.43209313918E+03  0.12508088897E+03 0.  0.
         23    2    1    2    0    0  0.80911321509E+02  0.32383369993E+02 -0.94353314032E+02  0.15638183111E+03  0.89204285948E+02 0.  0.
          5    1    3    3  502    0 -0.74650788494E+02 -0.76830297693E+02 -0.29356070470E+03  0.31252359048E+03  0.41800000000E+01 0.  1.
         -5    1    3    3    0  502 -0.62605330148E+01  0.44446927701E+02 -0.11074601988E+03  0.11956954869E+03  0.41800000000E+01 0.  1.
        -11    1    4    4    0    0  0.39569065775E+02 -0.86180511755E+01 -0.89158162092E+02  0.97924254605E+02  0.00000000000E+00 0.  1.
         11    1    4    4    0    0  0.41342255734E+02  0.41001421168E+02 -0.51951519405E+01  0.58457576503E+02  0.00000000000E+00 0. -1.
</event>
<event>
 8    1  0.3541538E-009  0.1460783E+03  0.7561462E-02  0.1205376E+00
          1   -1    0    0  501    0  0.00000000000E+00  0.00000000000E+00  0.50648215153E+03  0.50648215153E+03  0.00000000000E+00 0. -1.
         -1   -1    0    0    0  501 -0.00000000000E+00 -0.00000000000E+00 -0.58458813131E+02  0.58458813131E+02  0.00000000000E+00 0.  1.
         25    2    1    2    0    0 -0.11968092783E+03  0.54933543903E+02  0.21037540929E+03  0.27793255613E+03  0.12508986445E+03 0.  0.
         23    2    1    2    0    0  0.11968092783E+03 -0.54933543903E+02  0.23764792911E+03  0.28700840853E+03  0.92499025009E+02 0.  0.
          5    1    3    3  502    0 -0.38228390605E+02  0.19968702823E+02  0.17843455581E+03  0.18362059266E+03  0.41800000000E+01 0. -1.
         -5    1    3    3    0  502 -0.81452537225E+02  0.34964841080E+02  0.31940853480E+02  0.94311963468E+02  0.41800000000E+01 0. -1.
        -11    1    4    4    0    0  0.10859255410E+03 -0.47542743305E+01  0.17460010033E+03  0.20566998072E+03  0.00000000000E+00 0.  1.
         11    1    4    4    0    0  0.11088373726E+02 -0.50179269572E+02  0.63047828777E+02  0.81338427820E+02  0.00000000000E+00 0. -1.
</event>
<event>
 8    1  0.3541538E-009  0.7525844E+02  0.7561462E-02  0.1343073E+00
         -4   -1    0    0    0  501 -0.00000000000E+00  0.00000000000E+00  0.10382297492E+03  0.10382297492E+03  0.00000000000E+00 0.  1.
          4   -1    0    0  501    0  0.00000000000E+00 -0.00000000000E+00 -0.12250890836E+03  0.12250890836E+03  0.00000000000E+00 0. -1.
         25    2    1    2    0    0  0.28141094570E+02  0.39373599618E+01  0.30843335392E+01  0.12831253892E+03  0.12508865066E+03 0.  0.
         23    2    1    2    0    0 -0.28141094570E+02 -0.39373599618E+01 -0.21770266983E+02  0.98019344356E+02  0.91249237456E+02 0.  0.
          5    1    3    3  502    0  0.72806537945E+02  0.82157308830E+01 -0.22158516382E+02  0.76660044676E+02  0.41800000000E+01 0. -1.
         -5    1    3    3    0  502 -0.44665443375E+02 -0.42783709211E+01  0.25242849921E+02  0.51652494245E+02  0.41800000000E+01 0. -1.
        -11    1    4    4    0    0 -0.12821178073E+02 -0.92941334665E+01  0.35298456977E+02  0.38687783460E+02  0.00000000000E+00 0.  1.
         11    1    4    4    0    0 -0.15319916497E+02  0.53567735047E+01 -0.57068723961E+02  0.59331560896E+02  0.00000000000E+00 0. -1.
</event>
<event>
 8    1  0.3541538E-009  0.1121032E+03  0.7561462E-02  0.1256724E+00
          2   -1    0    0  501    0  0.00000000000E+00  0.00000000000E+00  0.13627914360E+02  0.13627914360E+02  0.00000000000E+00 0. -1.
         -2   -1    0    0    0  501 -0.00000000000E+00 -0.00000000000E+00 -0.14973824869E+04  0.14973824869E+04  0.00000000000E+00 0.  1.
         25    2    1    2    0    0 -0.33579135912E+01  0.37906622090E+02 -0.12237898959E+04  0.12307553619E+04  0.12509541928E+03 0.  0.
         23    2    1    2    0    0  0.33579135912E+01 -0.37906622090E+02 -0.25996467669E+03  0.28025503942E+03  0.97534949703E+02 0.  0.
          5    1    3    3  502    0  0.19686954265E+01  0.83938033846E+02 -0.75784005448E+03  0.76248835391E+03  0.41800000000E+01 0.  1.
         -5    1    3    3    0  502 -0.53266090177E+01 -0.46031411755E+02 -0.46594984139E+03  0.46826700794E+03  0.41800000000E+01 0.  1.
        -11    1    4    4    0    0  0.32381231964E+02 -0.52071832061E+02 -0.22248535006E+03  0.23078074198E+03  0.00000000000E+00 0.  1.
         11    1    4    4    0    0 -0.29023318373E+02  0.14165209971E+02 -0.37479326633E+02  0.49474297446E+02  0.00000000000E+00 0. -1.
</event>
<event>
 8    1  0.3541538E-009  0.1689747E+03  0.7561462E-02  0.1178921E+00
          1   -1    0    0  501    0  0.00000000000E+00  0.00000000000E+00  0.72942677453E+03  0.72942677453E+03  0.00000000000E+00 0. -1.
         -1   -1    0    0    0  501 -0.00000000000E+00 -0.00000000000E+00 -0.48454968349E+02  0.48454968349E+02  0.00000000000E+00 0.  1.
         25    2    1    2    0    0  0.61446414434E+01 -0.14081838346E+03  0.23480184754E+03  0.30107616671E+03  0.12508947522E+03 0.  0.
         23    2    1    2    0    0 -0.61446414434E+01  0.14081838346E+03  0.44616995864E+03  0.47680557617E+03  0.91697065043E+02 0.  0.
          5    1    3    3  502    0 -0.49778146292E+02 -0.45031156088E+02  0.44097500653E+02  0.80422203593E+02  0.41800000000E+01 0. -1.
         -5    1    3    3    0  502  0.55922787736E+02 -0.95787227371E+02  0.19070434689E+03  0.22065396311E+03  0.41800000000E+01 0. -1.
        -11    1    4    4    0    0 -0.39014758324E+02  0.99672046883E+02  0.22095699564E+03  0.24551713224E+03  0.00000000000E+00 0.  1.
         11    1    4    4    0    0  0.32870116881E+02  0.41146336576E+02  0.22521296299E+03  0.23128844393E+03  0.00000000000E+00 0. -1.
</event>
<event>
 8    1  0.3541538E-009  0.1040646E+03  0.7561462E-02  0.1271974E+00
         -1   -1    0    0    0  501 -0.00000000000E+00  0.00000000000E+00  0.95993213972E+02  0.95993213972E+02  0.00000000000E+00 0.  1.
          1   -1    0    0  501    0  0.00000000000E+00 -0.00000000000E+00 -0.14828619207E+03  0.14828619207E+03  0.00000000000E+00 0. -1.
         25    2    1    2    0    0 -0.29872180957E+02  0.12214902650E+02 -0.70639673182E+02  0.14723723543E+03  0.12508912434E+03 0.  0.
         23    2    1    2    0    0  0.29872180957E+02 -0.12214902650E+02  0.18346695086E+02  0.97042170607E+02  0.89660641386E+02 0.  0.
          5    1    3    3  502    0  0.40399943981E+02  0.21861131624E+02  0.12727306551E+01  0.46142787008E+02  0.41800000000E+01 0. -1.
         -5    1    3    3    0  502 -0.70272124938E+02 -0.96462289743E+01 -0.71912403838E+02  0.10109444843E+03  0.41800000000E+01 0. -1.
        -11    1    4    4    0    0  0.42705054551E+02 -0.41145013191E+02  0.25571036320E+02  0.64579499016E+02  0.00000000000E+00 0.  1.
         11    1    4    4    0    0 -0.12832873595E+02  0.28930110541E+02 -0.72243412336E+01  0.32462671591E+02  0.00000000000E+00 0. -1.
</event>
<event>
 8    1  0.3541538E-009  0.1118544E+03  0.7561462E-02  0.1257174E+00
         -1   -1    0    0    0  501 -0.00000000000E+00  0.00000000000E+00  0.18496582002E+02  0.18496582002E+02  0.00000000000E+00 0.  1.
          1   -1    0    0  501    0  0.00000000000E+00 -0.00000000000E+00 -0.72263965016E+03  0.72263965016E+03  0.00000000000E+00 0. -1.
         25    2    1    2    0    0  0.31999751076E+02  0.26000981997E+02 -0.39498409349E+03  0.41636514721E+03  0.12508983396E+03 0.  0.
         23    2    1    2    0    0 -0.31999751076E+02 -0.26000981997E+02 -0.30915897467E+03  0.32477108496E+03  0.90537013842E+02 0.  0.
          5    1    3    3  502    0 -0.72799799749E+01  0.69816577933E+02 -0.25356005915E+03  0.26313025037E+03  0.41800000000E+01 0.  1.
         -5    1    3    3    0  502  0.39279731050E+02 -0.43815595935E+02 -0.14142403434E+03  0.15323489684E+03  0.41800000000E+01 0.  1.
        -11    1    4    4    0    0 -0.41961494277E+02 -0.51845273263E+02 -0.16492113121E+03  0.17789794513E+03  0.00000000000E+00 0.  1.
         11    1    4    4    0    0  0.99617432017E+01  0.25844291265E+02 -0.14423784346E+03  0.14687313983E+03  0.00000000000E+00 0. -1.
</event>
<event>
 8    1  0.3541538E-009  0.1682075E+03  0.7561462E-02  0.1179730E+00
         -2   -1    0    0    0  501 -0.00000000000E+00  0.00000000000E+00  0.30021904131E+02  0.30021904131E+02  0.00000000000E+00 0.  1.
          2   -1    0    0  501    0  0.00000000000E+00 -0.00000000000E+00 -0.12191116288E+04  0.12191116288E+04  0.00000000000E+00 0. -1.
         25    2    1    2    0    0 -0.15522646877E+03  0.52095797237E+01 -0.55765044834E+03  0.59223571318E+03  0.12508685425E+03 0.  0.
         23    2    1    2    0    0  0.15522646877E+03 -0.52095797237E+01 -0.63143927636E+03  0.65689781978E+03  0.93149286490E+02 0.  0.
          5    1    3    3  502    0 -0.60286095375E+02  0.31563316694E+02 -0.82819072453E+02  0.10727127956E+03  0.41800000000E+01 0. -1.
         -5    1    3    3    0  502 -0.94940373394E+02 -0.26353736970E+02 -0.47483137589E+03  0.48496443362E+03  0.41800000000E+01 0. -1.
        -11    1    4    4    0    0  0.11038490496E+03 -0.34980080820E+02 -0.30873948196E+03  0.32974005068E+03  0.00000000000E+00 0.  1.
         11    1    4    4    0    0  0.44841563807E+02  0.29770501097E+02 -0.32269979440E+03  0.32715776910E+03  0.00000000000E+00 0. -1.
</event>
<event>
 8    1  0.3541538E-009  0.9524571E+02  0.7561462E-02  0.1290624E+00
          1   -1    0    0  501    0  0.00000000000E+00  0.00000000000E+00  0.12747619630E+03  0.12747619630E+03  0.00000000000E+00 0. -1.
         -1   -1    0    0    0  501 -0.00000000000E+00 -0.00000000000E+00 -0.10553268096E+03  0.10553268096E+03  0.00000000000E+00 0.  1.
         25    2    1    2    0    0 -0.15142389733E+02 -0.26438794026E+02 -0.15923345285E+02  0.12972547393E+03  0.12508734494E+03 0.  0.
         23    2    1    2    0    0  0.15142389733E+02  0.26438794026E+02  0.37866860625E+02  0.10328340332E+03  0.91133201811E+02 0.  0.
          5    1    3    3  502    0  0.47100361874E+02 -0.29067792375E+02  0.18399007158E+02  0.58475435070E+02  0.41800000000E+01 0. -1.
         -5    1    3    3    0  502 -0.62242751607E+02  0.26289983493E+01 -0.34322352443E+02  0.71250038857E+02  0.41800000000E+01 0. -1.
        -11    1    4    4    0    0  0.22961799262E+02  0.46037837385E+02  0.55578247349E+02  0.75734194884E+02  0.00000000000E+00 0. -1.
         11    1    4    4    0    0 -0.78194095292E+01 -0.19599043359E+02 -0.17711386724E+02  0.27549208440E+02  0.00000000000E+00 0.  1.
</event>
<event>
 8    1  0.3541538E-009  0.1032841E+03  0.7561462E-02  0.1273538E+00
          2   -1    0    0  501    0  0.00000000000E+00  0.00000000000E+00  0.53366620064E+02  0.53366620064E+02  0.00000000000E+00 0. -1.
         -2   -1    0    0    0  501 -0.00000000000E+00 -0.00000000000E+00 -0.30913001169E+03  0.30913001169E+03  0.00000000000E+00 0.  1.
         25    2    1    2    0    0  0.23211888952E+01  0.67110973432E+02 -0.11068149871E+03  0.18001932476E+03  0.12508913805E+03 0.  0.
         23    2    1    2    0    0 -0.23211888952E+01 -0.67110973432E+02 -0.14508189292E+03  0.18247730699E+03  0.87976935847E+02 0.  0.
          5    1    3    3  502    0 -0.17757102215E+01 -0.31616857308E+02 -0.62093943291E+02  0.69827709445E+02  0.41800000000E+01 0.  1.
         -5    1    3    3    0  502  0.40968991167E+01  0.98727830740E+02 -0.48587555416E+02  0.11019161532E+03  0.41800000000E+01 0.  1.
        -11    1    4    4    0    0  0.82517536655E+01 -0.64242825570E+02 -0.15481812702E+03  0.16782098954E+03  0.00000000000E+00 0.  1.
         11    1    4    4    0    0 -0.10572942561E+02 -0.28681478622E+01  0.97362341068E+01  0.14656317448E+02  0.00000000000E+00 0. -1.
</event>
<event>
 8    1  0.3541538E-009  0.8336684E+02  0.7561462E-02  0.1319760E+00
          1   -1    0    0  501    0  0.00000000000E+00  0.00000000000E+00  0.18018365533E+03  0.18018365533E+03  0.00000000000E+00 0. -1.
         -1   -1    0    0    0  501 -0.00000000000E+00 -0.00000000000E+00 -0.81861813412E+02  0.81861813412E+02  0.00000000000E+00 0.  1.
         25    2    1    2    0    0  0.41138998188E+02 -0.31021708101E+02  0.38507898854E+02  0.14065550709E+03  0.12508537026E+03 0.  0.
         23    2    1    2    0    0 -0.41138998188E+02  0.31021708101E+02  0.59813943066E+02  0.12138996166E+03  0.92211991958E+02 0.  0.
          5    1    3    3  502    0  0.38003221099E+02 -0.51877773466E+02  0.74639425974E+02  0.98610671346E+02  0.41800000000E+01 0.  1.
         -5    1    3    3    0  502  0.31357770895E+01  0.20856065364E+02 -0.36131527119E+02  0.42044835740E+02  0.41800000000E+01 0.  1.
        -11    1    4    4    0    0  0.11585353642E+02  0.25210880683E+02  0.62392763789E+02  0.68283716192E+02  0.00000000000E+00 0. -1.
         11    1    4    4    0    0 -0.52724351830E+02  0.58108274184E+01 -0.25788207226E+01  0.53106245466E+02  0.00000000000E+00 0.  1.
</event>
<event>
 8    1  0.3541538E-009  0.1000042E+03  0.7561462E-02  0.1280287E+00
          2   -1    0    0  501    0  0.00000000000E+00  0.00000000000E+00  0.46779102276E+03  0.46779102276E+03  0.00000000000E+00 0. -1.
         -2   -1    0    0    0  501 -0.00000000000E+00 -0.00000000000E+00 -0.43739457533E+02  0.43739457533E+02  0.00000000000E+00 0.  1.
         25    2    1    2    0    0 -0.63328792359E+02 -0.40560230027E+02  0.13273288163E+03  0.19728293978E+03  0.12508745845E+03 0.  0.
         23    2    1    2    0    0  0.63328792359E+02  0.40560230027E+02  0.29131868360E+03  0.31424754051E+03  0.90715341052E+02 0.  0.
          5    1    3    3  502    0 -0.68653673926E+01 -0.30925450524E+02  0.13605335704E+03  0.13975516134E+03  0.41800000000E+01 0.  1.
         -5    1    3    3    0  502 -0.56463424966E+02 -0.96347795031E+01 -0.33204754153E+01  0.57527778438E+02  0.41800000000E+01 0.  1.
        -11    1    4    4    0    0  0.29354551862E+02  0.63277026290E+02  0.12671100636E+03  0.14464214774E+03  0.00000000000E+00 0.  1.
         11    1    4    4    0    0  0.33974240496E+02 -0.22716796263E+02  0.16460767724E+03  0.16960539277E+03  0.00000000000E+00 0. -1.
</event>
<event>
 8    1  0.3541538E-009  0.1275694E+03  0.7561462E-02  0.1231108E+00
          2   -1    0    0  501    0  0.00000000000E+00  0.00000000000E+00  0.21047167870E+03  0.21047167870E+03  0.00000000000E+00 0. -1.
         -2   -1    0    0    0  501 -0.00000000000E+00 -0.00000000000E+00 -0.11126531470E+03  0.11126531470E+03  0.00000000000E+00 0.  1.
         25    2    1    2    0    0 -0.84574460297E+02  0.44920880557E+00  0.11919060736E+03  0.19237206465E+03  0.12509024443E+03 0.  0.
         23    2    1    2    0    0  0.84574460297E+02 -0.44920880557E+00 -0.19984243359E+02  0.12936492876E+03  0.95827311799E+02 0.  0.
          5    1    3    3  502    0 -0.32198145493E+02 -0.46609522904E+02  0.35464190743E+01  0.56914125547E+02  0.41800000000E+01 0. -1.
         -5    1    3    3    0  502 -0.52376314803E+02  0.47058731709E+02  0.11564418828E+03  0.13545793910E+03  0.41800000000E+01 0. -1.
        -11    1    4    4    0    0  0.78351420418E+02  0.39238034810E+02 -0.14538793332E+02  0.88825362194E+02  0.00000000000E+00 0.  1.
         11    1    4    4    0    0  0.62230398790E+01 -0.39687243616E+02 -0.54454500276E+01  0.40539566564E+02  0.00000000000E+00 0. -1.
</event>
<event>
 8    1  0.3541538E-009  0.9142725E+02  0.7561462E-02  0.1299432E+00
         -2   -1    0    0    0  501 -0.00000000000E+00  0.00000000000E+00  0.79000581242E+03  0.79000581242E+03  0.00000000000E+00 0.  1.
          2   -1    0    0  501    0  0.00000000000E+00 -0.00000000000E+00 -0.22164266004E+02  0.22164266004E+02  0.00000000000E+00 0. -1.
         25    2    1    2    0    0 -0.17824140873E+02  0.61380977395E+02  0.56809916996E+03  0.58520934624E+03  0.12509191670E+03 0.  0.
         23    2    1    2    0    0  0.17824140873E+02 -0.61380977395E+02  0.19974237645E+03  0.22696073219E+03  0.86768845913E+02 0.  0.
          5    1    3    3  502    0  0.35272621748E+02  0.49542416804E+02  0.12837790185E+03  0.14211603355E+03  0.41800000000E+01 0.  1.
         -5    1    3    3    0  502 -0.53096762621E+02  0.11838560592E+02  0.43972126811E+03  0.44309331269E+03  0.41800000000E+01 0.  1.
        -11    1    4    4    0    0 -0.10309281741E+01 -0.34411876753E+02  0.18934671996E+03  0.19245108583E+03  0.00000000000E+00 0.  1.
         11    1    4    4    0    0  0.18855069047E+02 -0.26969100642E+02  0.10395656487E+02  0.34509646362E+02  0.00000000000E+00 0. -1.
</event>
<event>
 8    1  0.3541538E-009  0.1362537E+03  0.7561462E-02  0.1218461E+00
          1   -1    0    0  501    0  0.00000000000E+00  0.00000000000E+00  0.25021156130E+02  0.25021156130E+02  0.00000000000E+00 0. -1.
         -1   -1    0    0    0  501 -0.00000000000E+00 -0.00000000000E+00 -0.76221144041E+03  0.76221144041E+03  0.00000000000E+00 0.  1.
         25    2    1    2    0    0  0.68420428087E+02 -0.47119305344E+02 -0.46045628852E+03  0.48432278908E+03  0.12508791497E+03 0.  0.
         23    2    1    2    0    0 -0.68420428087E+02  0.47119305344E+02 -0.27673399576E+03  0.30290980746E+03  0.90945385422E+02 0.  0.
          5    1    3    3  502    0 -0.31341784997E+02  0.12225606394E+02 -0.11185831036E+03  0.11688253477E+03  0.41800000000E+01 0.  1.
         -5    1    3    3    0  502  0.99762213084E+02 -0.59344911738E+02 -0.34859797816E+03  0.36744025431E+03  0.41800000000E+01 0.  1.
        -11    1    4    4    0    0  0.16109947364E+02  0.33039317140E+02 -0.68664391316E+02  0.77884051743E+02  0.00000000000E+00 0.  1.
         11    1    4    4    0    0 -0.84530375451E+02  0.14079988204E+02 -0.20806960444E+03  0.22502575571E+03  0.00000000000E+00 0. -1.
</event>
<event>
 8    1  0.3541538E-009  0.1436081E+03  0.7561462E-02  0.1208555E+00
          1   -1    0    0  501    0  0.00000000000E+00  0.00000000000E+00  0.24609796347E+03  0.24609796347E+03  0.00000000000E+00 0. -1.
         -1   -1    0    0    0  501 -0.00000000000E+00 -0.00000000000E+00 -0.10267079235E+03  0.10267079235E+03  0.00000000000E+00 0.  1.
         25    2    1    2    0    0 -0.61838903203E+02  0.97953682159E+02  0.82250283302E+02  0.18929557244E+03  0.12509488737E+03 0.  0.
         23    2    1    2    0    0  0.61838903203E+02 -0.97953682159E+02  0.61176887816E+02  0.15947318339E+03  0.90940149650E+02 0.  0.
          5    1    3    3  502    0 -0.41006360766E+02 -0.42462435733E+01 -0.17436884656E+02  0.44956307169E+02  0.41800000000E+01 0.  1.
         -5    1    3    3    0  502 -0.20832542437E+02  0.10219992573E+03  0.99687167958E+02  0.14433926527E+03  0.41800000000E+01 0.  1.
        -11    1    4    4    0    0  0.22720675652E+02 -0.99680876386E+02  0.23014073333E+02  0.10479577182E+03  0.00000000000E+00 0.  1.
         11    1    4    4    0    0  0.39118227551E+02  0.17271942267E+01  0.38162814483E+02  0.54677411569E+02  0.00000000000E+00 0. -1.
</event>
<event>
 8    1  0.3541538E-009  0.1038239E+03  0.7561462E-02  0.1272454E+00
         -1   -1    0    0    0  501 -0.00000000000E+00  0.00000000000E+00  0.13747590085E+02  0.13747590085E+02  0.00000000000E+00 0.  1.
          1   -1    0    0  501    0  0.00000000000E+00 -0.00000000000E+00 -0.10562579903E+04  0.10562579903E+04  0.00000000000E+00 0. -1.
         25    2    1    2    0    0  0.28129575085E+02 -0.84051085758E+01 -0.77970006464E+03  0.79021538999E+03  0.12508498283E+03 0.  0.
         23    2    1    2    0    0 -0.28129575085E+02  0.84051085758E+01 -0.26281033557E+03  0.27979019040E+03  0.91385771941E+02 0.  0.
          5    1    3    3  502    0 -0.21509530419E+02  0.42341283053E+02 -0.17604296715E+03  0.18238432726E+03  0.41800000000E+01 0. -1.
         -5    1    3    3    0  502  0.49639105503E+02 -0.50746391629E+02 -0.60365709750E+03  0.60783106273E+03  0.41800000000E+01 0. -1.
        -11    1    4    4    0    0  0.13120111911E+02  0.36611126683E+02 -0.64828118125E+02  0.75598920846E+02  0.00000000000E+00 0.  1.
         11    1    4    4    0    0 -0.41249686995E+02 -0.28206018107E+02 -0.19798221745E+03  0.20419126955E+03  0.00000000000E+00 0. -1.
</event>
<event>
 8    1  0.3541538E-009  0.1864670E+03  0.7561462E-02  0.1161687E+00
          1   -1    0    0  501    0  0.00000000000E+00  0.00000000000E+00  0.99122947713E+03  0.99122947713E+03  0.00000000000E+00 0. -1.
         -1   -1    0    0    0  501 -0.00000000000E+00 -0.00000000000E+00 -0.47605185674E+02  0.47605185674E+02  0.00000000000E+00 0.  1.
         25    2    1    2    0    0 -0.17044374633E+03 -0.71842146239E+02  0.40427979531E+03  0.46184625054E+03  0.12508973418E+03 0.  0.
         23    2    1    2    0    0  0.17044374633E+03  0.71842146239E+02  0.53934449615E+03  0.57698841227E+03  0.88378604475E+02 0.  0.
          5    1    3    3  502    0 -0.10383154592E+03 -0.38295168036E+02  0.35617955010E+03  0.37299980447E+03  0.41800000000E+01 0. -1.
         -5    1    3    3    0  502 -0.66612200409E+02 -0.33546978204E+02  0.48100245215E+02  0.88846446072E+02  0.41800000000E+01 0. -1.
        -11    1    4    4    0    0  0.13801828312E+03  0.44331230907E+02  0.29187039703E+03  0.32588745476E+03  0.00000000000E+00 0.  1.
         11    1    4    4    0    0  0.32425463213E+02  0.27510915333E+02  0.24747409912E+03  0.25110095751E+03  0.00000000000E+00 0. -1.
</event>
<event>
 8    1  0.3541538E-009  0.1062397E+03  0.7561462E-02  0.1267696E+00
         -3   -1    0    0    0  501 -0.00000000000E+00  0.00000000000E+00  0.26084309817E+03  0.26084309817E+03  0.00000000000E+00 0.  1.
          3   -1    0    0  501    0  0.00000000000E+00 -0.00000000000E+00 -0.58436553259E+02  0.58436553259E+02  0.00000000000E+00 0. -1.
         25    2    1    2    0    0 -0.36381154324E+02 -0.11253910903E+02  0.17453735315E+03  0.21808908985E+03  0.12509726042E+03 0.  0.
         23    2    1    2    0    0  0.36381154324E+02  0.11253910903E+02  0.27869191756E+02  0.10119056158E+03  0.89513121961E+02 0.  0.
          5    1    3    3  502    0 -0.74082768748E+02 -0.19535204271E+02  0.15847256437E+03  0.17607074399E+03  0.41800000000E+01 0. -1.
         -5    1    3    3    0  502  0.37701614424E+02  0.82812933680E+01  0.16064788785E+02  0.42018345859E+02  0.41800000000E+01 0. -1.
        -11    1    4    4    0    0  0.65996888442E+02  0.25099003260E+01  0.22968321622E+02  0.69924478416E+02  0.00000000000E+00 0. -1.
         11    1    4    4    0    0 -0.29615734118E+02  0.87440105775E+01  0.49008701346E+01  0.31266083164E+02  0.00000000000E+00 0.  1.
</event>
<event>
 8    1  0.3541538E-009  0.1075188E+03  0.7561462E-02  0.1265235E+00
         -2   -1    0    0    0  501 -0.00000000000E+00  0.00000000000E+00  0.13161948729E+02  0.13161948729E+02  0.00000000000E+00 0. -1.
          2   -1    0    0  501    0  0.00000000000E+00 -0.00000000000E+00 -0.89979460455E+03  0.89979460455E+03  0.00000000000E+00 0.  1.
         25    2    1    2    0    0 -0.34585936038E+00 -0.73207718886E+01 -0.53702561964E+03  0.55145144874E+03  0.12509384813E+03 0.  0.
         23    2    1    2    0    0  0.34585936038E+00  0.73207718886E+01 -0.34960703617E+03  0.36150510454E+03  0.91690498672E+02 0.  0.
          5    1    3    3  502    0  0.54504787161E+02  0.24245923741E+02 -0.21081793488E+03  0.21913537074E+03  0.41800000000E+01 0.  1.
         -5    1    3    3    0  502 -0.54850646521E+02 -0.31566695630E+02 -0.32620768476E+03  0.33231607800E+03  0.41800000000E+01 0.  1.
        -11    1    4    4    0    0  0.43562757543E+02  0.18258093099E+02 -0.16888271515E+03  0.17536374564E+03  0.00000000000E+00 0.  1.
         11    1    4    4    0    0 -0.43216898183E+02 -0.10937321211E+02 -0.18072432103E+03  0.18614135890E+03  0.00000000000E+00 0. -1.
</event>
<event>
 8    1  0.3541538E-009  0.1426533E+03  0.7561462E-02  0.1209803E+00
          4   -1    0    0  501    0  0.00000000000E+00  0.00000000000E+00  0.98803413084E+02  0.98803413084E+02  0.00000000000E+00 0. -1.
         -4   -1    0    0    0  501 -0.00000000000E+00 -0.00000000000E+00 -0.28440765391E+03  0.28440765391E+03  0.00000000000E+00 0.  1.
         25    2    1    2    0    0 -0.19055970241E+01  0.11257099057E+03 -0.30718612808E+02  0.17107626677E+03  0.12509035400E+03 0.  0.
         23    2    1    2    0    0  0.19055970241E+01 -0.11257099057E+03 -0.15488562802E+03  0.21213480022E+03  0.91300364084E+02 0.  0.
          5    1    3    3  502    0  0.55968567422E+02  0.88378341229E+02 -0.26900819292E+02  0.10809411740E+03  0.41800000000E+01 0.  1.
         -5    1    3    3    0  502 -0.57874164446E+02  0.24192649336E+02 -0.38177935161E+01  0.62982149373E+02  0.41800000000E+01 0.  1.
        -11    1    4    4    0    0 -0.14805425192E+02 -0.29442114707E+02 -0.11271745427E+03  0.11743620920E+03  0.00000000000E+00 0.  1.
         11    1    4    4    0    0  0.16711022217E+02 -0.83128875859E+02 -0.42168173752E+02  0.94698591028E+02  0.00000000000E+00 0. -1.
</event>
<event>
 8    1  0.3541538E-009  0.1525687E+03  0.7561462E-02  0.1197352E+00
          1   -1    0    0  501    0  0.00000000000E+00  0.00000000000E+00  0.21005356915E+04  0.21005356915E+04  0.00000000000E+00 0. -1.
         -1   -1    0    0    0  501 -0.00000000000E+00 -0.00000000000E+00 -0.28645288943E+02  0.28645288943E+02  0.00000000000E+00 0.  1.
         25    2    1    2    0    0  0.31198607752E+01  0.13633859937E+03  0.18255844423E+04  0.18349399983E+04  0.12509314192E+03 0.  0.
         23    2    1    2    0    0 -0.31198607752E+01 -0.13633859937E+03  0.24630596027E+03  0.29424098217E+03  0.85517146294E+02 0.  0.
          5    1    3    3  502    0 -0.25448987430E+02  0.32944870889E+02  0.11599892524E+04  0.11607435348E+04  0.41800000000E+01 0. -1.
         -5    1    3    3    0  502  0.28568848205E+02  0.10339372848E+03  0.66559518990E+03  0.67419646350E+03  0.41800000000E+01 0. -1.
        -11    1    4    4    0    0 -0.38441927325E+02 -0.88453376722E+02  0.11505219699E+03  0.15012924320E+03  0.00000000000E+00 0.  1.
         11    1    4    4    0    0  0.35322066550E+02 -0.47885222651E+02  0.13125376328E+03  0.14411173897E+03  0.00000000000E+00 0. -1.
</event>
<event>
 8    1  0.3541538E-009  0.1855302E+03  0.7561462E-02  0.1162556E+00
          1   -1    0    0  501    0  0.00000000000E+00  0.00000000000E+00  0.51850314475E+03  0.51850314475E+03  0.00000000000E+00 0. -1.
         -1   -1    0    0    0  501 -0.00000000000E+00 -0.00000000000E+00 -0.77614238978E+02  0.77614238978E+02  0.00000000000E+00 0.  1.
         25    2    1    2    0    0  0.12261922643E+03  0.11396718319E+03  0.22960025173E+03  0.31046534843E+03  0.12509381858E+03 0.  0.
         23    2    1    2    0    0 -0.12261922643E+03 -0.11396718319E+03  0.21128865405E+03  0.28565203530E+03  0.94499716444E+02 0.  0.
          5    1    3    3  502    0 -0.42918204163E+01  0.67350151521E+02  0.11394016536E+03  0.13249262740E+03  0.41800000000E+01 0. -1.
         -5    1    3    3    0  502  0.12691104685E+03  0.46617031669E+02  0.11566008637E+03  0.17797272103E+03  0.41800000000E+01 0. -1.
        -11    1    4    4    0    0 -0.83071018894E+02 -0.66608683178E+02  0.19445226204E+03  0.22169617288E+03  0.00000000000E+00 0. -1.
         11    1    4    4    0    0 -0.39548207535E+02 -0.47358500012E+02  0.16836392004E+02  0.63955862423E+02  0.00000000000E+00 0.  1.
</event>
<event>
 8    1  0.3541538E-009  0.1807776E+03  0.7561462E-02  0.1167053E+00
         -1   -1    0    0    0  501 -0.00000000000E+00  0.00000000000E+00  0.17947766562E+03  0.17947766562E+03  0.00000000000E+00 0.  1.
          1   -1    0    0  501    0  0.00000000000E+00 -0.00000000000E+00 -0.55258010733E+03  0.55258010733E+03  0.00000000000E+00 0. -1.
         25    2    1    2    0    0 -0.11123949479E+03 -0.97437520411E+02  0.10727098595E+03  0.22141321839E+03  0.12509377789E+03 0.  0.
         23    2    1    2    0    0  0.11123949479E+03  0.97437520411E+02 -0.48037342766E+03  0.51064455455E+03  0.90171700149E+02 0.  0.
          5    1    3    3  502    0 -0.51909359611E+02  0.23455659199E+02  0.18382576716E+02  0.60001175742E+02  0.41800000000E+01 0.  1.
         -5    1    3    3    0  502 -0.59330135176E+02 -0.12089317961E+03  0.88888409232E+02  0.16141204265E+03  0.41800000000E+01 0.  1.
        -11    1    4    4    0    0  0.38125501902E+02  0.88104962407E+02 -0.21986594376E+03  0.23991054900E+03  0.00000000000E+00 0.  1.
         11    1    4    4    0    0  0.73113992885E+02  0.93325580040E+01 -0.26050748390E+03  0.27073400555E+03  0.00000000000E+00 0. -1.
</event>
<event>
 8    1  0.3541538E-009  0.1763853E+03  0.7561462E-02  0.1171348E+00
          2   -1    0    0  501    0  0.00000000000E+00  0.00000000000E+00  0.14380265742E+03  0.14380265742E+03  0.00000000000E+00 0. -1.
         -2   -1    0    0    0  501 -0.00000000000E+00 -0.00000000000E+00 -0.31170754719E+03  0.31170754719E+03  0.00000000000E+00 0.  1.
         25    2    1    2    0    0  0.17180657465E+03 -0.32426090039E+02 -0.33614656756E+02  0.21759226688E+03  0.12508996383E+03 0.  0.
         23    2    1    2    0    0 -0.17180657465E+03  0.32426090039E+02 -0.13429023301E+03  0.23791793773E+03  0.89454614214E+02 0.  0.
          5    1    3    3  502    0  0.67631443887E+02 -0.12173003509E+02  0.47763874646E+02  0.83791731919E+02  0.41800000000E+01 0. -1.
         -5    1    3    3    0  502  0.10417513076E+03 -0.20253086529E+02 -0.81378531402E+02  0.13380053496E+03  0.41800000000E+01 0. -1.
        -11    1    4    4    0    0 -0.60635400690E+02  0.27108228871E+02 -0.39678985235E+01  0.66537599206E+02  0.00000000000E+00 0. -1.
         11    1    4    4    0    0 -0.11117117396E+03  0.53178611681E+01 -0.13032233449E+03  0.17138033852E+03  0.00000000000E+00 0.  1.
</event>
<event>
 8    1  0.3541538E-009  0.1400625E+03  0.7561462E-02  0.1213245E+00
          1   -1    0    0  501    0  0.00000000000E+00  0.00000000000E+00  0.46357821682E+03  0.46357821682E+03  0.00000000000E+00 0. -1.
         -1   -1    0    0    0  501 -0.00000000000E+00 -0.00000000000E+00 -0.71851923934E+02  0.71851923934E+02  0.00000000000E+00 0.  1.
         25    2    1    2    0    0 -0.11658523566E+03 -0.77003619824E+02  0.13779663870E+03  0.23271925431E+03  0.12509461639E+03 0.  0.
         23    2    1    2    0    0  0.11658523566E+03  0.77003619824E+02  0.25392965419E+03  0.30271088644E+03  0.87360957258E+02 0.  0.
          5    1    3    3  502    0 -0.37532298136E+02 -0.23588159500E+02 -0.19574459551E+02  0.48638529364E+02  0.41800000000E+01 0. -1.
         -5    1    3    3    0  502 -0.79052937528E+02 -0.53415460324E+02  0.15737109825E+03  0.18408072495E+03  0.41800000000E+01 0. -1.
        -11    1    4    4    0    0  0.74388435894E+02  0.43114801417E+02  0.22601249638E+03  0.24181433790E+03  0.00000000000E+00 0. -1.
         11    1    4    4    0    0  0.42196799770E+02  0.33888818407E+02  0.27917157811E+02  0.60896548540E+02  0.00000000000E+00 0.  1.
</event>
<event>
 8    1  0.3541538E-009  0.1394618E+03  0.7561462E-02  0.1214055E+00
         -1   -1    0    0    0  501 -0.00000000000E+00  0.00000000000E+00  0.26299851901E+02  0.26299851901E+02  0.00000000000E+00 0.  1.
          1   -1    0    0  501    0  0.00000000000E+00 -0.00000000000E+00 -0.91156899113E+03  0.91156899113E+03  0.00000000000E+00 0. -1.
         25    2    1    2    0    0 -0.65875536372E+02 -0.85071205376E+02 -0.39900072048E+03  0.43176968431E+03  0.12508712592E+03 0.  0.
         23    2    1    2    0    0  0.65875536372E+02  0.85071205376E+02 -0.48626841875E+03  0.50609915872E+03  0.90014927140E+02 0.  0.
          5    1    3    3  502    0 -0.80421124053E+02 -0.10744422327E+03 -0.29168041147E+03  0.32110240290E+03  0.41800000000E+01 0.  1.
         -5    1    3    3    0  502  0.14545587682E+02  0.22373017894E+02 -0.10732030901E+03  0.11066728142E+03  0.41800000000E+01 0.  1.
        -11    1    4    4    0    0  0.91294328426E+01  0.50225570353E+02 -0.83539536583E+02  0.97902035902E+02  0.00000000000E+00 0. -1.
         11    1    4    4    0    0  0.56746103529E+02  0.34845635023E+02 -0.40272888216E+03  0.40819712282E+03  0.00000000000E+00 0.  1.
</event>
<event>
 8    1  0.3541538E-009  0.1064060E+03  0.7561462E-02  0.1267374E+00
         -2   -1    0    0    0  501 -0.00000000000E+00  0.00000000000E+00  0.31612436096E+02  0.31612436096E+02  0.00000000000E+00 0.  1.
          2   -1    0    0  501    0  0.00000000000E+00 -0.00000000000E+00 -0.70960623410E+03  0.70960623410E+03  0.00000000000E+00 0. -1.
         25    2    1    2    0    0  0.42711023912E+02  0.68200427686E+02 -0.52578158877E+03  0.54641613603E+03  0.12509510270E+03 0.  0.
         23    2    1    2    0    0 -0.42711023912E+02 -0.68200427686E+02 -0.15221220922E+03  0.19480253416E+03  0.91125961059E+02 0.  0.
          5    1    3    3  502    0  0.46646468077E+02  0.37379433401E+02 -0.82169836102E+02  0.10169793209E+03  0.41800000000E+01 0.  1.
         -5    1    3    3    0  502 -0.39354441644E+01  0.30820994285E+02 -0.44361175267E+03  0.44471820394E+03  0.41800000000E+01 0.  1.
        -11    1    4    4    0    0 -0.63230868919E+01 -0.82279837973E+02 -0.10540786647E+03  0.13386848575E+03  0.00000000000E+00 0.  1.
         11    1    4    4    0    0 -0.36387937020E+02  0.14079410286E+02 -0.46804342756E+02  0.60934048408E+02  0.00000000000E+00 0. -1.
</event>
<event>
 8    1  0.3541538E-009  0.9209824E+02  0.7561462E-02  0.1297849E+00
          2   -1    0    0  501    0  0.00000000000E+00  0.00000000000E+00  0.48198023806E+02  0.48198023806E+02  0.00000000000E+00 0.  1.
         -2   -1    0    0    0  501 -0.00000000000E+00 -0.00000000000E+00 -0.26787197529E+03  0.26787197529E+03  0.00000000000E+00 0. -1.
         25    2    1    2    0    0 -0.63306271842E+01  0.18533105447E+02 -0.17031979506E+03  0.21222528082E+03  0.12508870608E+03 0.  0.
         23    2    1    2    0    0  0.63306271842E+01 -0.18533105447E+02 -0.49354156424E+02  0.10384471828E+03  0.89243150555E+02 0.  0.
          5    1    3    3  502    0  0.21753011753E+02 -0.44024557094E+02 -0.11104005324E+03  0.12148547638E+03  0.41800000000E+01 0.  1.
         -5    1    3    3    0  502 -0.28083638938E+02  0.62557662542E+02 -0.59279741825E+02  0.90739804438E+02  0.41800000000E+01 0.  1.
        -11    1    4    4    0    0  0.25206215988E+02  0.13828026438E+02 -0.58586129340E+02  0.65260265021E+02  0.00000000000E+00 0. -1.
         11    1    4    4    0    0 -0.18875588804E+02 -0.32361131885E+02  0.92319729159E+01  0.38584453262E+02  0.00000000000E+00 0.  1.
</event>
<event>
 8    1  0.3541538E-009  0.2852471E+03  0.7561462E-02  0.1092857E+00
          2   -1    0    0  501    0  0.00000000000E+00  0.00000000000E+00  0.51446947267E+03  0.51446947267E+03  0.00000000000E+00 0. -1.
         -2   -1    0    0    0  501 -0.00000000000E+00 -0.00000000000E+00 -0.29745553345E+03  0.29745553345E+03  0.00000000000E+00 0.  1.
         25    2    1    2    0    0 -0.25701933038E+03  0.11527613208E+03 -0.14698576451E+03  0.34146864257E+03  0.12509394898E+03 0.  0.
         23    2    1    2    0    0  0.25701933038E+03 -0.11527613208E+03  0.36399970373E+03  0.47045636356E+03  0.97395497216E+02 0.  0.
          5    1    3    3  502    0 -0.21484342978E+03  0.73942355855E+02 -0.57907452050E+02  0.23451208223E+03  0.41800000000E+01 0. -1.
         -5    1    3    3    0  502 -0.42175900607E+02  0.41333776224E+02 -0.89078312463E+02  0.10695656034E+03  0.41800000000E+01 0. -1.
        -11    1    4    4    0    0  0.12824220681E+03 -0.37546975639E+02  0.24337704212E+03  0.27764766093E+03  0.00000000000E+00 0. -1.
         11    1    4    4    0    0  0.12877712357E+03 -0.77729156439E+02  0.12062266161E+03  0.19280870263E+03  0.00000000000E+00 0.  1.
</event>
<event>
 8    1  0.3541538E-009  0.1127168E+03  0.7561462E-02  0.1255620E+00
          2   -1    0    0  501    0  0.00000000000E+00  0.00000000000E+00  0.19914089766E+03  0.19914089766E+03  0.00000000000E+00 0. -1.
         -2   -1    0    0    0  501 -0.00000000000E+00 -0.00000000000E+00 -0.86032602664E+02  0.86032602664E+02  0.00000000000E+00 0.  1.
         25    2    1    2    0    0 -0.47987541346E+02  0.57140233935E+02  0.75266674676E+02  0.16395750365E+03  0.12509668352E+03 0.  0.
         23    2    1    2    0    0  0.47987541346E+02 -0.57140233935E+02  0.37841620319E+02  0.12121599668E+03  0.87712708104E+02 0.  0.
          5    1    3    3  502    0  0.20071402288E+02 -0.51828668276E+01  0.68093487632E+02  0.71301604163E+02  0.41800000000E+01 0. -1.
         -5    1    3    3    0  502 -0.68058943634E+02  0.62323100763E+02  0.71731870447E+01  0.92655899486E+02  0.41800000000E+01 0. -1.
        -11    1    4    4    0    0 -0.23792795900E+02 -0.20038691794E+02  0.23881650132E+02  0.39217081975E+02  0.00000000000E+00 0. -1.
         11    1    4    4    0    0  0.71780337246E+02 -0.37101542141E+02  0.13959970187E+02  0.81998914700E+02  0.00000000000E+00 0.  1.
</event>
<event>
 8    1  0.3541538E-009  0.1204103E+03  0.7561462E-02  0.1242422E+00
          1   -1    0    0  501    0  0.00000000000E+00  0.00000000000E+00  0.26817483904E+03  0.26817483904E+03  0.00000000000E+00 0. -1.
         -1   -1    0    0    0  501 -0.00000000000E+00 -0.00000000000E+00 -0.91345840232E+02  0.91345840232E+02  0.00000000000E+00 0.  1.
         25    2    1    2    0    0  0.10104526581E+03  0.42059509395E+02  0.60433217805E+02  0.17685869162E+03  0.12509066677E+03 0.  0.
         23    2    1    2    0    0 -0.10104526581E+03 -0.42059509395E+02  0.11639578100E+03  0.18266198765E+03  0.88534037663E+02 0.  0.
          5    1    3    3  502    0  0.98853549958E+02  0.30632195078E+02 -0.11188401562E+02  0.10417777327E+03  0.41800000000E+01 0. -1.
         -5    1    3    3    0  502  0.21917158499E+01  0.11427314317E+02  0.71621619367E+02  0.72680918346E+02  0.41800000000E+01 0. -1.
        -11    1    4    4    0    0 -0.85691526631E+02 -0.62496339231E+01  0.11515982428E+03  0.14367978559E+03  0.00000000000E+00 0. -1.
         11    1    4    4    0    0 -0.15353739177E+02 -0.35809875472E+02  0.12359567202E+01  0.38982202055E+02  0.00000000000E+00 0.  1.
</event>
<event>
 8    1  0.3541538E-009  0.1188706E+03  0.7561462E-02  0.1244972E+00
         -2   -1    0    0    0  501 -0.00000000000E+00  0.00000000000E+00  0.33251007133E+02  0.33251007133E+02  0.00000000000E+00 0.  1.
          2   -1    0    0  501    0  0.00000000000E+00 -0.00000000000E+00 -0.43241247795E+03  0.43241247795E+03  0.00000000000E+00 0. -1.
         25    2    1    2    0    0 -0.40792349630E+02  0.23847622990E+02 -0.24390403301E+03  0.27815372642E+03  0.12509034053E+03 0.  0.
         23    2    1    2    0    0  0.40792349630E+02 -0.23847622990E+02 -0.15525743781E+03  0.18750975866E+03  0.93927166933E+02 0.  0.
          5    1    3    3  502    0 -0.85506213936E+02  0.18957030404E+02 -0.17540866973E+03  0.19610292052E+03  0.41800000000E+01 0. -1.
         -5    1    3    3    0  502  0.44713864306E+02  0.48905925857E+01 -0.68495363287E+02  0.82050805900E+02  0.41800000000E+01 0. -1.
        -11    1    4    4    0    0  0.26178293952E+02 -0.60232084711E+02 -0.10347600452E+03  0.12255811118E+03  0.00000000000E+00 0. -1.
         11    1    4    4    0    0  0.14614055678E+02  0.36384461721E+02 -0.51781433283E+02  0.64951647485E+02  0.00000000000E+00 0.  1.
</event>
<event>
 8    1  0.3541538E-009  0.1058528E+03  0.7561462E-02  0.1268448E+00
          2   -1    0    0  501    0  0.00000000000E+00  0.00000000000E+00  0.89575374049E+02  0.89575374049E+02  0.00000000000E+00 0. -1.
         -2   -1    0    0    0  501 -0.00000000000E+00 -0.00000000000E+00 -0.17595820673E+03  0.17595820673E+03  0.00000000000E+00 0.  1.
         25    2    1    2    0    0 -0.44650760236E+02 -0.36733197260E+02 -0.60424934183E+02  0.15047063305E+03  0.12508885070E+03 0.  0.
         23    2    1    2    0    0  0.44650760236E+02  0.36733197260E+02 -0.25957898501E+02  0.11506294773E+03  0.96034635809E+02 0.  0.
          5    1    3    3  502    0  0.24316550485E+01 -0.56266991909E+02  0.15831092903E+02  0.58651370208E+02  0.41800000000E+01 0. -1.
         -5    1    3    3    0  502 -0.47082415284E+02  0.19533794649E+02 -0.76256027085E+02  0.91819262844E+02  0.41800000000E+01 0. -1.
        -11    1    4    4    0    0 -0.22916067536E+02 -0.65635450738E+01 -0.25370111640E+02  0.34811906582E+02  0.00000000000E+00 0.  1.
         11    1    4    4    0    0  0.67566827772E+02  0.43296742334E+02 -0.58778686124E+00  0.80251041148E+02  0.00000000000E+00 0. -1.
</event>
<event>
 8    1  0.3541538E-009  0.1378717E+03  0.7561462E-02  0.1216222E+00
          1   -1    0    0  501    0  0.00000000000E+00  0.00000000000E+00  0.39805374409E+03  0.39805374409E+03  0.00000000000E+00 0. -1.
         -1   -1    0    0    0  501 -0.00000000000E+00 -0.00000000000E+00 -0.68128470624E+02  0.68128470624E+02  0.00000000000E+00 0.  1.
         25    2    1    2    0    0  0.11541723009E+03 -0.37183646704E+02  0.13036190090E+03  0.21758757401E+03  0.12508543710E+03 0.  0.
         23    2    1    2    0    0 -0.11541723009E+03  0.37183646704E+02  0.19956337256E+03  0.24859464070E+03  0.85264266440E+02 0.  0.
          5    1    3    3  502    0  0.52477049635E+02  0.29357803262E+02  0.26020674085E+01  0.60332118357E+02  0.41800000000E+01 0. -1.
         -5    1    3    3    0  502  0.62940180456E+02 -0.66541449966E+02  0.12775983349E+03  0.15725545565E+03  0.41800000000E+01 0. -1.
        -11    1    4    4    0    0 -0.91721866546E+02  0.39711532683E+02  0.83881209604E+02  0.13048357734E+03  0.00000000000E+00 0.  1.
         11    1    4    4    0    0 -0.23695363545E+02 -0.25278859788E+01  0.11568216296E+03  0.11811106336E+03  0.00000000000E+00 0. -1.
</event>
<event>
 8    1  0.3541538E-009  0.8890402E+02  0.7561462E-02  0.1305528E+00
          1   -1    0    0  501    0  0.00000000000E+00  0.00000000000E+00  0.97065244468E+02  0.97065244468E+02  0.00000000000E+00 0. -1.
         -1   -1    0    0    0  501 -0.00000000000E+00 -0.00000000000E+00 -0.19169396989E+03  0.19169396989E+03  0.00000000000E+00 0.  1.
         25    2    1    2    0    0 -0.13180555484E+02  0.28023189267E+02 -0.13268711902E+03  0.18496579012E+03  0.12508975091E+03 0.  0.
         23    2    1    2    0    0  0.13180555484E+02 -0.28023189267E+02  0.38058393598E+02  0.10379342423E+03  0.91463694498E+02 0.  0.
          5    1    3    3  502    0  0.30728844828E+02  0.36360815944E+02 -0.31749619373E+01  0.47894922736E+02  0.41800000000E+01 0.  1.
         -5    1    3    3    0  502 -0.43909400312E+02 -0.83376266775E+01 -0.12951215708E+03  0.13707086739E+03  0.41800000000E+01 0.  1.
        -11    1    4    4    0    0 -0.17071825705E+02  0.21281919669E+02 -0.95177248440E+01  0.28895577930E+02  0.00000000000E+00 0.  1.
         11    1    4    4    0    0  0.30252381189E+02 -0.49305108936E+02  0.47576118442E+02  0.74897846303E+02  0.00000000000E+00 0. -1.
</event>
<event>
 8    1  0.3541538E-009  0.1457822E+03  0.7561462E-02  0.1205754E+00
          2   -1    0    0  501    0  0.00000000000E+00  0.00000000000E+00  0.34245676409E+03  0.34245676409E+03  0.00000000000E+00 0. -1.
         -2   -1    0    0    0  501 -0.00000000000E+00 -0.00000000000E+00 -0.74674832389E+02  0.74674832389E+02  0.00000000000E+00 0.  1.
         25    2    1    2    0    0 -0.24613478494E+02 -0.10776202303E+03  0.19796666981E+03  0.25896082681E+03  0.12510567747E+03 0.  0.
         23    2    1    2    0    0  0.24613478494E+02  0.10776202303E+03  0.69815261892E+02  0.15817076967E+03  0.89024404821E+02 0.  0.
          5    1    3    3  502    0 -0.65487813769E+02 -0.54091722579E+02  0.16060387628E+03  0.18172959495E+03  0.41800000000E+01 0.  1.
         -5    1    3    3    0  502  0.40874335275E+02 -0.53670300451E+02  0.37362793530E+02  0.77231231863E+02  0.41800000000E+01 0.  1.
        -11    1    4    4    0    0  0.48187592130E+02  0.27942704906E+02  0.44143104580E+02  0.71073570859E+02  0.00000000000E+00 0.  1.
         11    1    4    4    0    0 -0.23574113636E+02  0.79819318124E+02  0.25672157312E+02  0.87097198810E+02  0.00000000000E+00 0. -1.
</event>
<event>
 8    1  0.3541538E-009  0.1413255E+03  0.7561462E-02  0.1211556E+00
         -1   -1    0    0    0  501 -0.00000000000E+00  0.00000000000E+00  0.23192495706E+03  0.23192495706E+03  0.00000000000E+00 0.  1.
          1   -1    0    0  501    0  0.00000000000E+00 -0.00000000000E+00 -0.14652600006E+03  0.14652600006E+03  0.00000000000E+00 0. -1.
         25    2    1    2    0    0  0.43227008649E+02 -0.94468319191E+02  0.15444024315E+03  0.22425913575E+03  0.12509010216E+03 0.  0.
         23    2    1    2    0    0 -0.43227008649E+02  0.94468319191E+02 -0.69041286150E+02  0.15419182137E+03  0.90639842100E+02 0.  0.
          5    1    3    3  502    0  0.78993939315E+02 -0.71767999552E+02  0.64550590368E+02  0.12479959665E+03  0.41800000000E+01 0. -1.
         -5    1    3    3    0  502 -0.35766930666E+02 -0.22700319639E+02  0.89889652780E+02  0.99459539099E+02  0.41800000000E+01 0. -1.
        -11    1    4    4    0    0 -0.67239167697E+02  0.82543162191E+02 -0.37685085023E+02  0.11293646413E+03  0.00000000000E+00 0.  1.
         11    1    4    4    0    0  0.24012159048E+02  0.11925156999E+02 -0.31356201128E+02  0.41255357237E+02  0.00000000000E+00 0. -1.
</event>
<event>
 8    1  0.3541538E-009  0.1568958E+03  0.7561462E-02  0.1192247E+00
          2   -1    0    0  501    0  0.00000000000E+00  0.00000000000E+00  0.12418163319E+03  0.12418163319E+03  0.00000000000E+00 0. -1.
         -2   -1    0    0    0  501 -0.00000000000E+00 -0.00000000000E+00 -0.22876846778E+03  0.22876846778E+03  0.00000000000E+00 0.  1.
         25    2    1    2    0    0 -0.29163416627E+02 -0.12384801429E+03 -0.72402820754E+02  0.19255768401E+03  0.12508979856E+03 0.  0.
         23    2    1    2    0    0  0.29163416627E+02  0.12384801429E+03 -0.32184013842E+02  0.16039241697E+03  0.92201307807E+02 0.  0.
          5    1    3    3  502    0 -0.62713367672E+01  0.16651497075E+02 -0.43578555021E+02  0.47256373934E+02  0.41800000000E+01 0. -1.
         -5    1    3    3    0  502 -0.22892079860E+02 -0.14049951136E+03 -0.28824265733E+02  0.14530131007E+03  0.41800000000E+01 0. -1.
        -11    1    4    4    0    0 -0.26696614654E+02  0.72372295641E+02 -0.34255189596E+02  0.84403059332E+02  0.00000000000E+00 0. -1.
         11    1    4    4    0    0  0.55860031280E+02  0.51475718646E+02  0.20711757539E+01  0.75989357635E+02  0.00000000000E+00 0.  1.
</event>
<event>
 8    1  0.3541538E-009  0.1313225E+03  0.7561462E-02  0.1225506E+00
         -1   -1    0    0    0  501 -0.00000000000E+00  0.00000000000E+00  0.20391301859E+02  0.20391301859E+02  0.00000000000E+00 0.  1.
          1   -1    0    0  501    0  0.00000000000E+00 -0.00000000000E+00 -0.13625479623E+04  0.13625479623E+04  0.00000000000E+00 0. -1.
         25    2    1    2    0    0  0.38183866224E+02 -0.10082277534E+03 -0.98824070071E+03  0.10019418218E+04  0.12507794415E+03 0.  0.
         23    2    1    2    0    0 -0.38183866224E+02  0.10082277534E+03 -0.35391595976E+03  0.38099744236E+03  0.90990685506E+02 0.  0.
          5    1    3    3  502    0  0.69775285403E+02 -0.83173589008E+02 -0.89916926903E+03  0.90570927076E+03  0.41800000000E+01 0. -1.
         -5    1    3    3    0  502 -0.31591419179E+02 -0.17649186330E+02 -0.89071431680E+02  0.96232551070E+02  0.41800000000E+01 0. -1.
        -11    1    4    4    0    0  0.75091938155E+01  0.44095283566E+02 -0.44396935663E+02  0.63022773033E+02  0.00000000000E+00 0.  1.
         11    1    4    4    0    0 -0.45693060040E+02  0.56727491772E+02 -0.30951902410E+03  0.31797466933E+03  0.00000000000E+00 0. -1.
</event>
<event>
 8    1  0.3541538E-009  0.1149574E+03  0.7561462E-02  0.1251655E+00
         -2   -1    0    0    0  501 -0.00000000000E+00  0.00000000000E+00  0.55173669827E+02  0.55173669827E+02  0.00000000000E+00 0.  1.
          2   -1    0    0  501    0  0.00000000000E+00 -0.00000000000E+00 -0.33312544588E+03  0.33312544588E+03  0.00000000000E+00 0. -1.
         25    2    1    2    0    0  0.75182739122E+02 -0.24285645454E+02 -0.18648673285E+03  0.23805165899E+03  0.12509617894E+03 0.  0.
         23    2    1    2    0    0 -0.75182739122E+02  0.24285645454E+02 -0.91465043204E+02  0.15024745671E+03  0.89253612150E+02 0.  0.
          5    1    3    3  502    0  0.26546194866E+02  0.51143705835E+02 -0.80895957006E+02  0.99408286216E+02  0.41800000000E+01 0. -1.
         -5    1    3    3    0  502  0.48636544256E+02 -0.75429351290E+02 -0.10559077584E+03  0.13864337278E+03  0.41800000000E+01 0.  1.
        -11    1    4    4    0    0 -0.65575701833E+02  0.11946266061E+02 -0.10127199831E+02  0.67419923762E+02  0.00000000000E+00 0.  1.
         11    1    4    4    0    0 -0.96070372896E+01  0.12339379394E+02 -0.81337843373E+02  0.82827532946E+02  0.00000000000E+00 0. -1.
</event>
<event>
 8    1  0.3541538E-009  0.1258347E+03  0.7561462E-02  0.1233770E+00
          2   -1    0    0  501    0  0.00000000000E+00  0.00000000000E+00  0.37875641439E+03  0.37875641439E+03  0.00000000000E+00 0. -1.
         -2   -1    0    0    0  501 -0.00000000000E+00 -0.00000000000E+00 -0.58191075324E+02  0.58191075324E+02  0.00000000000E+00 0.  1.
         25    2    1    2    0    0 -0.16563741770E+02  0.96716599336E+02  0.13605339923E+03  0.20925126722E+03  0.12508839780E+03 0.  0.
         23    2    1    2    0    0  0.16563741770E+02 -0.96716599336E+02  0.18451193984E+03  0.22769622249E+03  0.90401635309E+02 0.  0.
          5    1    3    3  502    0 -0.65759904006E+02  0.38937843778E+02  0.97733802482E+02  0.12413657479E+03  0.41800000000E+01 0.  1.
         -5    1    3    3    0  502  0.49196162237E+02  0.57778755559E+02  0.38319596749E+02  0.85114692432E+02  0.41800000000E+01 0.  1.
        -11    1    4    4    0    0  0.18264312527E+02 -0.69446412240E+02  0.18694799687E+03  0.20026468190E+03  0.00000000000E+00 0. -1.
         11    1    4    4    0    0 -0.17005707571E+01 -0.27270187096E+02 -0.24360570323E+01  0.27431540588E+02  0.00000000000E+00 0.  1.
</event>
<event>
 8    1  0.3541538E-009  0.1090928E+03  0.7561462E-02  0.1262259E+00
          3   -1    0    0  501    0  0.00000000000E+00  0.00000000000E+00  0.62814067550E+03  0.62814067550E+03  0.00000000000E+00 0. -1.
         -3   -1    0    0    0  501 -0.00000000000E+00 -0.00000000000E+00 -0.23589141337E+02  0.23589141337E+02  0.00000000000E+00 0.  1.
         25    2    1    2    0    0  0.56393715846E+02  0.32057742948E+01  0.38107559418E+03  0.40503833736E+03  0.12508764159E+03 0.  0.
         23    2    1    2    0    0 -0.56393715846E+02 -0.32057742948E+01  0.22347593998E+03  0.24669147947E+03  0.87890056985E+02 0.  0.
          5    1    3    3  502    0 -0.31461518850E+02  0.25630980826E+02  0.70308270550E+02  0.81286528122E+02  0.41800000000E+01 0. -1.
         -5    1    3    3    0  502  0.87855234696E+02 -0.22425206531E+02  0.31076732363E+03  0.32375180924E+03  0.41800000000E+01 0. -1.
        -11    1    4    4    0    0 -0.33949487012E+02 -0.34308720928E+02  0.51876736221E+02  0.70857968931E+02  0.00000000000E+00 0.  1.
         11    1    4    4    0    0 -0.22444228834E+02  0.31102946633E+02  0.17159920376E+03  0.17583351054E+03  0.00000000000E+00 0. -1.
</event>
<event>
 8    1  0.3541538E-009  0.8934849E+02  0.7561462E-02  0.1304437E+00
          2   -1    0    0  501    0  0.00000000000E+00  0.00000000000E+00  0.90674320508E+02  0.90674320508E+02  0.00000000000E+00 0. -1.
         -2   -1    0    0    0  501 -0.00000000000E+00 -0.00000000000E+00 -0.13730940929E+03  0.13730940929E+03  0.00000000000E+00 0.  1.
         25    2    1    2    0    0 -0.18250138242E+02 -0.12393980502E+02 -0.39407699702E+02  0.13299302882E+03  0.12508997010E+03 0.  0.
         23    2    1    2    0    0  0.18250138242E+02  0.12393980502E+02 -0.72273890760E+01  0.94990700978E+02  0.92110367608E+02 0.  0.
          5    1    3    3  502    0  0.48501305644E+02  0.19604558106E+02 -0.21532794043E+02  0.56726087182E+02  0.41800000000E+01 0. -1.
         -5    1    3    3    0  502 -0.66751443885E+02 -0.31998538608E+02 -0.17874905660E+02  0.76266941634E+02  0.41800000000E+01 0. -1.
        -11    1    4    4    0    0  0.22478362290E+02  0.27999307504E+02  0.34774138997E+02  0.49984785035E+02  0.00000000000E+00 0. -1.
         11    1    4    4    0    0 -0.42282240484E+01 -0.15605327002E+02 -0.42001528073E+02  0.45005915943E+02  0.00000000000E+00 0.  1.
</event>
<event>
 8    1  0.3541538E-009  0.1426119E+03  0.7561462E-02  0.1209857E+00
          1   -1    0    0  501    0  0.00000000000E+00  0.00000000000E+00  0.26696548196E+03  0.26696548196E+03  0.00000000000E+00 0. -1.
         -1   -1    0    0    0  501 -0.00000000000E+00 -0.00000000000E+00 -0.11850959359E+03  0.11850959359E+03  0.00000000000E+00 0.  1.
         25    2    1    2    0    0  0.11491871293E+03 -0.49771821948E+02  0.10621322735E+02  0.17731849117E+03  0.12508193304E+03 0.  0.
         23    2    1    2    0    0 -0.11491871293E+03  0.49771821948E+02  0.13783456564E+03  0.20815658438E+03  0.92990597871E+02 0.  0.
          5    1    3    3  502    0  0.22680628117E+02  0.29923880056E+02 -0.30550690483E+02  0.48586691371E+02  0.41800000000E+01 0. -1.
         -5    1    3    3    0  502  0.92238084813E+02 -0.79695702005E+02  0.41172013218E+02  0.12873179980E+03  0.41800000000E+01 0. -1.
        -11    1    4    4    0    0 -0.61655076440E+02  0.22484251788E+02  0.91829463178E+01  0.66266254854E+02  0.00000000000E+00 0.  1.
         11    1    4    4    0    0 -0.53263636490E+02  0.27287570160E+02  0.12865161933E+03  0.14189032952E+03  0.00000000000E+00 0. -1.
</event>
<event>
 8    1  0.3541538E-009  0.2012924E+03  0.7561462E-02  0.1148653E+00
         -1   -1    0    0    0  501 -0.00000000000E+00  0.00000000000E+00  0.18107707447E+03  0.18107707447E+03  0.00000000000E+00 0.  1.
          1   -1    0    0  501    0  0.00000000000E+00 -0.00000000000E+00 -0.25812562558E+03  0.25812562558E+03  0.00000000000E+00 0. -1.
         25    2    1    2    0    0  0.48652253278E+02 -0.17476695269E+03 -0.86736057837E+02  0.23681497045E+03  0.12509059517E+03 0.  0.
         23    2    1    2    0    0 -0.48652253278E+02  0.17476695269E+03  0.96875067284E+01  0.20238772960E+03  0.89198743303E+02 0.  0.
          5    1    3    3  502    0 -0.84402318332E+01 -0.13185860806E+03 -0.97778692814E+02  0.16442650395E+03  0.41800000000E+01 0.  1.
         -5    1    3    3    0  502  0.57092485111E+02 -0.42908344624E+02  0.11042634977E+02  0.72388466496E+02  0.41800000000E+01 0.  1.
        -11    1    4    4    0    0 -0.69539118650E+02  0.10433568314E+03 -0.11549206148E+02  0.12591667070E+03  0.00000000000E+00 0. -1.
         11    1    4    4    0    0  0.20886865372E+02  0.70431269550E+02  0.21236712877E+02  0.76471058900E+02  0.00000000000E+00 0.  1.
</event>
<event>
 8    1  0.3541538E-009  0.2786879E+03  0.7561462E-02  0.1096408E+00
          1   -1    0    0  501    0  0.00000000000E+00  0.00000000000E+00  0.33924402677E+03  0.33924402677E+03  0.00000000000E+00 0. -1.
         -1   -1    0    0    0  501 -0.00000000000E+00 -0.00000000000E+00 -0.30894395422E+03  0.30894395422E+03  0.00000000000E+00 0.  1.
         25    2    1    2    0    0  0.16129299465E+03 -0.21769026032E+03 -0.12413298984E+03  0.32320670470E+03  0.12509634381E+03 0.  0.
         23    2    1    2    0    0 -0.16129299465E+03  0.21769026032E+03  0.15443306239E+03  0.32498127629E+03  0.91426361711E+02 0.  0.
          5    1    3    3  502    0  0.80146942927E+01 -0.64892719440E+02 -0.78018073951E+02  0.10188028575E+03  0.41800000000E+01 0. -1.
         -5    1    3    3    0  502  0.15327830036E+03 -0.15279754088E+03 -0.46114915888E+02  0.22132641895E+03  0.41800000000E+01 0. -1.
        -11    1    4    4    0    0 -0.14844707922E+03  0.16857298075E+03  0.87701889173E+02  0.24113275707E+03  0.00000000000E+00 0.  1.
         11    1    4    4    0    0 -0.12845915429E+02  0.49117279569E+02  0.66731173216E+02  0.83848519214E+02  0.00000000000E+00 0. -1.
</event>
<event>
 8    1  0.3541538E-009  0.8909603E+02  0.7561462E-02  0.1305056E+00
         -1   -1    0    0    0  501 -0.00000000000E+00  0.00000000000E+00  0.42766853252E+03  0.42766853252E+03  0.00000000000E+00 0.  1.
          1   -1    0    0  501    0  0.00000000000E+00 -0.00000000000E+00 -0.27840462521E+02  0.27840462521E+02  0.00000000000E+00 0. -1.
         25    2    1    2    0    0  0.11340133691E+01  0.15495621690E+02  0.22073851488E+03  0.25419353111E+03  0.12508980386E+03 0.  0.
         23    2    1    2    0    0 -0.11340133691E+01 -0.15495621690E+02  0.17908955511E+03  0.20131546392E+03  0.90628069527E+02 0.  0.
          5    1    3    3  502    0  0.38446872521E+02 -0.26575631386E+02  0.30967018818E+02  0.56221480278E+02  0.41800000000E+01 0. -1.
         -5    1    3    3    0  502 -0.37312859152E+02  0.42071253076E+02  0.18977149606E+03  0.19797205084E+03  0.41800000000E+01 0. -1.
        -11    1    4    4    0    0 -0.20216653761E+02 -0.39404607041E+02  0.15817611980E+03  0.16425931030E+03  0.00000000000E+00 0.  1.
         11    1    4    4    0    0  0.19082640392E+02  0.23908985351E+02  0.20913435317E+02  0.37056153626E+02  0.00000000000E+00 0. -1.
</event>
<event>
 8    1  0.3541538E-009  0.1008035E+03  0.7561462E-02  0.1278615E+00
          1   -1    0    0  501    0  0.00000000000E+00  0.00000000000E+00  0.12407035367E+04  0.12407035367E+04  0.00000000000E+00 0. -1.
         -1   -1    0    0    0  501 -0.00000000000E+00 -0.00000000000E+00 -0.12096115136E+02  0.12096115136E+02  0.00000000000E+00 0.  1.
         25    2    1    2    0    0  0.13625141843E+02  0.31517215978E+01  0.95986249531E+03  0.96808011625E+03  0.12509006253E+03 0.  0.
         23    2    1    2    0    0 -0.13625141843E+02 -0.31517215978E+01  0.26874492626E+03  0.28471953559E+03  0.92982797954E+02 0.  0.
          5    1    3    3  502    0 -0.35968830547E+02 -0.40944062844E+02  0.56716863553E+03  0.56979637291E+03  0.41800000000E+01 0.  1.
         -5    1    3    3    0  502  0.49593972390E+02  0.44095784442E+02  0.39269385978E+03  0.39828374334E+03  0.41800000000E+01 0.  1.
        -11    1    4    4    0    0 -0.10658156905E+02  0.37861507360E+02  0.58516058616E+02  0.70506873170E+02  0.00000000000E+00 0. -1.
         11    1    4    4    0    0 -0.29669849381E+01 -0.41013228958E+02  0.21022886765E+03  0.21421266242E+03  0.00000000000E+00 0.  1.
</event>
<event>
 8    1  0.3541538E-009  0.1244976E+03  0.7561462E-02  0.1235857E+00
         -1   -1    0    0    0  501 -0.00000000000E+00  0.00000000000E+00  0.76297961656E+03  0.76297961656E+03  0.00000000000E+00 0.  1.
          1   -1    0    0  501    0  0.00000000000E+00 -0.00000000000E+00 -0.26724641875E+02  0.26724641875E+02  0.00000000000E+00 0. -1.
         25    2    1    2    0    0  0.27667795554E+02 -0.79474442517E+02  0.30326984523E+03  0.33867691619E+03  0.12509100930E+03 0.  0.
         23    2    1    2    0    0 -0.27667795554E+02  0.79474442517E+02  0.43298512946E+03  0.45102734225E+03  0.94169247646E+02 0.  0.
          5    1    3    3  502    0 -0.18556972840E+02 -0.75104902766E+02  0.27130889016E+03  0.28215437962E+03  0.41800000000E+01 0. -1.
         -5    1    3    3    0  502  0.46224768394E+02 -0.43695397506E+01  0.31960955072E+02  0.56522536566E+02  0.41800000000E+01 0. -1.
        -11    1    4    4    0    0 -0.27605787568E+02 -0.14324756964E+02  0.13917389065E+03  0.14260662680E+03  0.00000000000E+00 0.  1.
         11    1    4    4    0    0 -0.62007986426E-01  0.93799199480E+02  0.29381123881E+03  0.30842071545E+03  0.00000000000E+00 0. -1.
</event>
<event>
 8    1  0.3541538E-009  0.1032899E+03  0.7561462E-02  0.1273526E+00
         -2   -1    0    0    0  501 -0.00000000000E+00  0.00000000000E+00  0.15004914808E+02  0.15004914808E+02  0.00000000000E+00 0.  1.
          2   -1    0    0  501    0  0.00000000000E+00 -0.00000000000E+00 -0.13919719405E+04  0.13919719405E+04  0.00000000000E+00 0. -1.
         25    2    1    2    0    0 -0.86914027447E+02  0.38383072153E+01 -0.93605328206E+03  0.94837316251E+03  0.12508847961E+03 0.  0.
         23    2    1    2    0    0  0.86914027447E+02 -0.38383072153E+01 -0.44091374365E+03  0.45860369283E+03  0.91343510787E+02 0.  0.
          5    1    3    3  502    0 -0.62429995824E+02  0.79169041358E+01 -0.90986995066E+03  0.91205316800E+03  0.41800000000E+01 0.  1.
         -5    1    3    3    0  502 -0.24484031623E+02 -0.40785969205E+01 -0.26183331403E+02  0.36319994503E+02  0.41800000000E+01 0.  1.
        -11    1    4    4    0    0  0.19405967161E+02  0.35317991948E+02 -0.82811066114E+02  0.92095737076E+02  0.00000000000E+00 0.  1.
         11    1    4    4    0    0  0.67508060286E+02 -0.39156299163E+02 -0.35810267754E+03  0.36650795575E+03  0.00000000000E+00 0. -1.
</event>
<event>
 8    1  0.3541538E-009  0.1042069E+03  0.7561462E-02  0.1271690E+00
          2   -1    0    0  501    0  0.00000000000E+00  0.00000000000E+00  0.62684487924E+03  0.62684487924E+03  0.00000000000E+00 0. -1.
         -2   -1    0    0    0  501 -0.00000000000E+00 -0.00000000000E+00 -0.20510629870E+02  0.20510629870E+02  0.00000000000E+00 0.  1.
         25    2    1    2    0    0  0.21663332746E+02  0.16011476670E+02  0.30013893067E+03  0.32627922130E+03  0.12509630362E+03 0.  0.
         23    2    1    2    0    0 -0.21663332746E+02 -0.16011476670E+02  0.30619531871E+03  0.32107628781E+03  0.92783306830E+02 0.  0.
          5    1    3    3  502    0 -0.79145576231E+00  0.63541934065E+02  0.22922556892E+03  0.23790762416E+03  0.41800000000E+01 0.  1.
         -5    1    3    3    0  502  0.22454788509E+02 -0.47530457395E+02  0.70913361751E+02  0.88371597145E+02  0.41800000000E+01 0.  1.
        -11    1    4    4    0    0 -0.56077118352E+02 -0.78099585960E+01  0.23299083734E+03  0.23977149318E+03  0.00000000000E+00 0. -1.
         11    1    4    4    0    0  0.34413785606E+02 -0.82015180738E+01  0.73204481368E+02  0.81304794636E+02  0.00000000000E+00 0.  1.
</event>
<event>
 8    1  0.3541538E-009  0.1052939E+03  0.7561462E-02  0.1269542E+00
         -2   -1    0    0    0  501 -0.00000000000E+00  0.00000000000E+00  0.26962983696E+02  0.26962983696E+02  0.00000000000E+00 0.  1.
          2   -1    0    0  501    0  0.00000000000E+00 -0.00000000000E+00 -0.52428021079E+03  0.52428021079E+03  0.00000000000E+00 0. -1.
         25    2    1    2    0    0  0.17428766614E+02  0.40104406363E+02 -0.32761417098E+03  0.35339922451E+03  0.12509133280E+03 0.  0.
         23    2    1    2    0    0 -0.17428766614E+02 -0.40104406363E+02 -0.16970305612E+03  0.19784396998E+03  0.91820389273E+02 0.  0.
          5    1    3    3  502    0  0.62430474035E+02  0.37892539972E+02 -0.11704637612E+03  0.13802440087E+03  0.41800000000E+01 0.  1.
         -5    1    3    3    0  502 -0.45001707421E+02  0.22118663909E+01 -0.21056779486E+03  0.21537482364E+03  0.41800000000E+01 0.  1.
        -11    1    4    4    0    0 -0.40696114778E+02  0.54271213862E+01 -0.11879879415E+03  0.12569320147E+03  0.00000000000E+00 0. -1.
         11    1    4    4    0    0  0.23267348164E+02 -0.45531527749E+02 -0.50904261965E+02  0.72150768506E+02  0.00000000000E+00 0.  1.
</event>
<event>
 8    1  0.3541538E-009  0.1600245E+03  0.7561462E-02  0.1188669E+00
          1   -1    0    0  501    0  0.00000000000E+00  0.00000000000E+00  0.60528068612E+02  0.60528068612E+02  0.00000000000E+00 0. -1.
         -1   -1    0    0    0  501 -0.00000000000E+00 -0.00000000000E+00 -0.47339270019E+03  0.47339270019E+03  0.00000000000E+00 0.  1.
         25    2    1    2    0    0 -0.78780519860E+02  0.99068034833E+02 -0.26460117199E+03  0.31887342327E+03  0.12508250883E+03 0.  0.
         23    2    1    2    0    0  0.78780519860E+02 -0.99068034833E+02 -0.14826345959E+03  0.21504734553E+03  0.90788003257E+02 0.  0.
          5    1    3    3  502    0 -0.97539240756E+02  0.11015546111E+03 -0.25555298210E+03  0.29491172944E+03  0.41800000000E+01 0.  1.
         -5    1    3    3    0  502  0.18758720896E+02 -0.11087426274E+02 -0.90481898849E+01  0.23961693831E+02  0.41800000000E+01 0.  1.
        -11    1    4    4    0    0 -0.14222131514E+02 -0.34874897036E+02 -0.15569312475E+02  0.40754520719E+02  0.00000000000E+00 0.  1.
         11    1    4    4    0    0  0.93002651373E+02 -0.64193137797E+02 -0.13269414711E+03  0.17429282481E+03  0.00000000000E+00 0. -1.
</event>
<event>
 8    1  0.3541538E-009  0.2976791E+03  0.7561462E-02  0.1086407E+00
          1   -1    0    0  501    0  0.00000000000E+00  0.00000000000E+00  0.91291223783E+03  0.91291223783E+03  0.00000000000E+00 0. -1.
         -1   -1    0    0    0  501 -0.00000000000E+00 -0.00000000000E+00 -0.13339087020E+03  0.13339087020E+03  0.00000000000E+00 0.  1.
         25    2    1    2    0    0 -0.20128732449E+03  0.21030479657E+03  0.63283641955E+03  0.70772399311E+03  0.12508645832E+03 0.  0.
         23    2    1    2    0    0  0.20128732449E+03 -0.21030479657E+03  0.14668494808E+03  0.33857911492E+03  0.91513106199E+02 0.  0.
          5    1    3    3  502    0 -0.16459383912E+03  0.15992542365E+03  0.58689579419E+03  0.63018363882E+03  0.41800000000E+01 0.  1.
         -5    1    3    3    0  502 -0.36693485368E+02  0.50379372919E+02  0.45940625363E+02  0.77540354287E+02  0.41800000000E+01 0.  1.
        -11    1    4    4    0    0  0.10914480439E+03 -0.53652691479E+02  0.76945777155E+02  0.14391612922E+03  0.00000000000E+00 0.  1.
         11    1    4    4    0    0  0.92142520100E+02 -0.15665210509E+03  0.69739170926E+02  0.19466298570E+03  0.00000000000E+00 0. -1.
</event>
<event>
 8    1  0.3541538E-009  0.9103596E+02  0.7561462E-02  0.1300362E+00
         -2   -1    0    0    0  501 -0.00000000000E+00  0.00000000000E+00  0.73928724709E+02  0.73928724709E+02  0.00000000000E+00 0.  1.
          2   -1    0    0  501    0  0.00000000000E+00 -0.00000000000E+00 -0.15818529202E+03  0.15818529202E+03  0.00000000000E+00 0. -1.
         25    2    1    2    0    0  0.11234227952E+02 -0.15819981114E+02 -0.54687037701E+02  0.13789406019E+03  0.12509044753E+03 0.  0.
         23    2    1    2    0    0 -0.11234227952E+02  0.15819981114E+02 -0.29569529605E+02  0.94219956536E+02  0.87330197804E+02 0.  0.
          5    1    3    3  502    0 -0.45107460327E+02 -0.35291780367E+02 -0.80471464927E+00  0.57430938563E+02  0.41800000000E+01 0. -1.
         -5    1    3    3    0  502  0.56341688279E+02  0.19471799253E+02 -0.53882323052E+02  0.80463121626E+02  0.41800000000E+01 0. -1.
        -11    1    4    4    0    0 -0.36508005769E+02  0.15368400047E+02 -0.48514084964E+02  0.62630971932E+02  0.00000000000E+00 0. -1.
         11    1    4    4    0    0  0.25273777817E+02  0.45158106690E+00  0.18944555359E+02  0.31588984604E+02  0.00000000000E+00 0.  1.
</event>
<event>
 8    1  0.3541538E-009  0.8094660E+02  0.7561462E-02  0.1326386E+00
         -1   -1    0    0    0  501 -0.00000000000E+00  0.00000000000E+00  0.26588574594E+03  0.26588574594E+03  0.00000000000E+00 0.  1.
          1   -1    0    0  501    0  0.00000000000E+00 -0.00000000000E+00 -0.54313157949E+02  0.54313157949E+02  0.00000000000E+00 0. -1.
         25    2    1    2    0    0 -0.45475165430E+02 -0.14056576230E+02  0.14576858400E+03  0.19789276515E+03  0.12508992129E+03 0.  0.
         23    2    1    2    0    0  0.45475165430E+02  0.14056576230E+02  0.65804003985E+02  0.12230613874E+03  0.91449694514E+02 0.  0.
          5    1    3    3  502    0 -0.29451044139E+02 -0.31113303552E+02  0.16296354163E+03  0.16855263260E+03  0.41800000000E+01 0.  1.
         -5    1    3    3    0  502 -0.16024121291E+02  0.17056727322E+02 -0.17194957621E+02  0.29340132543E+02  0.41800000000E+01 0.  1.
        -11    1    4    4    0    0  0.46354914431E+02  0.44713284463E+02  0.65177262699E+02  0.91630406921E+02  0.00000000000E+00 0.  1.
         11    1    4    4    0    0 -0.87974900163E+00 -0.30656708233E+02  0.62674128540E+00  0.30675731819E+02  0.00000000000E+00 0. -1.
</event>
<event>
 8    1  0.3541538E-009  0.8133162E+02  0.7561462E-02  0.1325314E+00
          2   -1    0    0  501    0  0.00000000000E+00  0.00000000000E+00  0.33314049848E+03  0.33314049848E+03  0.00000000000E+00 0. -1.
         -2   -1    0    0    0  501 -0.00000000000E+00 -0.00000000000E+00 -0.45036876231E+02  0.45036876231E+02  0.00000000000E+00 0.  1.
         25    2    1    2    0    0  0.55352733938E+01  0.55770114954E+02  0.12233571061E+03  0.18373642384E+03  0.12510836256E+03 0.  0.
         23    2    1    2    0    0 -0.55352733938E+01 -0.55770114954E+02  0.16576791164E+03  0.19444095087E+03  0.84778168601E+02 0.  0.
          5    1    3    3  502    0  0.22568281203E+01  0.55639598614E+02  0.14765696986E+03  0.15786358464E+03  0.41800000000E+01 0. -1.
         -5    1    3    3    0  502  0.32784452734E+01  0.13051634009E+00 -0.25321259256E+02  0.25872839199E+02  0.41800000000E+01 0. -1.
        -11    1    4    4    0    0  0.30832295386E+02 -0.57342240778E+02  0.11081286396E+03  0.12852335911E+03  0.00000000000E+00 0.  1.
         11    1    4    4    0    0 -0.36367568779E+02  0.15721258237E+01  0.54955047678E+02  0.65917591763E+02  0.00000000000E+00 0. -1.
</event>
<event>
 8    1  0.3541538E-009  0.1626044E+03  0.7561462E-02  0.1185787E+00
         -2   -1    0    0    0  501 -0.00000000000E+00  0.00000000000E+00  0.84033272124E+02  0.84033272124E+02  0.00000000000E+00 0.  1.
          2   -1    0    0  501    0  0.00000000000E+00 -0.00000000000E+00 -0.32190468057E+03  0.32190468057E+03  0.00000000000E+00 0. -1.
         25    2    1    2    0    0  0.44593049364E+02 -0.11456883109E+03 -0.13528028647E+03  0.22150241596E+03  0.12509199519E+03 0.  0.
         23    2    1    2    0    0 -0.44593049364E+02  0.11456883109E+03 -0.10259112198E+03  0.18443553674E+03  0.91525798528E+02 0.  0.
          5    1    3    3  502    0  0.55241818349E+02  0.29105464018E+01 -0.58887267344E+02  0.80903105194E+02  0.41800000000E+01 0. -1.
         -5    1    3    3    0  502 -0.10648768984E+02 -0.11747937749E+03 -0.76393019124E+02  0.14059931076E+03  0.41800000000E+01 0. -1.
        -11    1    4    4    0    0 -0.65755536829E+02  0.46821649676E+02 -0.67670337248E+02  0.10533438207E+03  0.00000000000E+00 0. -1.
         11    1    4    4    0    0  0.21162487465E+02  0.67747181410E+02 -0.34920784734E+02  0.79101154676E+02  0.00000000000E+00 0.  1.
</event>
<event>
 8    1  0.3541538E-009  0.6608296E+02  0.7561462E-02  0.1373944E+00
         -1   -1    0    0    0  501 -0.00000000000E+00  0.00000000000E+00  0.83231280585E+02  0.83231280585E+02  0.00000000000E+00 0.  1.
          1   -1    0    0  501    0  0.00000000000E+00 -0.00000000000E+00 -0.16941600090E+03  0.16941600090E+03  0.00000000000E+00 0. -1.
         25    2    1    2    0    0  0.27508117563E+01  0.17220646544E+02 -0.94178457472E+02  0.15755079194E+03  0.12509417475E+03 0.  0.
         23    2    1    2    0    0 -0.27508117563E+01 -0.17220646544E+02  0.79937371606E+01  0.95096489543E+02  0.93141423958E+02 0.  0.
          5    1    3    3  502    0 -0.98529346532E+01 -0.23719795294E+02 -0.10897450191E+03  0.11203849105E+03  0.41800000000E+01 0. -1.
         -5    1    3    3    0  502  0.12603746409E+02  0.40940441837E+02  0.14796044436E+02  0.45512300891E+02  0.41800000000E+01 0. -1.
        -11    1    4    4    0    0  0.28725851555E+01 -0.39764700636E+02 -0.30456991505E+02  0.50170823131E+02  0.00000000000E+00 0. -1.
         11    1    4    4    0    0 -0.56233969118E+01  0.22544054092E+02  0.38450728665E+02  0.44925666413E+02  0.00000000000E+00 0.  1.
</event>
<event>
 8    1  0.3541538E-009  0.1674616E+03  0.7561462E-02  0.1180521E+00
         -2   -1    0    0    0  501 -0.00000000000E+00  0.00000000000E+00  0.11989459961E+03  0.11989459961E+03  0.00000000000E+00 0. -1.
          2   -1    0    0  501    0  0.00000000000E+00 -0.00000000000E+00 -0.34351362572E+03  0.34351362572E+03  0.00000000000E+00 0.  1.
         25    2    1    2    0    0  0.13765543064E+03  0.36682368621E+02 -0.79561812381E+01  0.18975003235E+03  0.12508860940E+03 0.  0.
         23    2    1    2    0    0 -0.13765543064E+03 -0.36682368621E+02 -0.21566284487E+03  0.27365819298E+03  0.89909566671E+02 0.  0.
          5    1    3    3  502    0  0.14726337797E+03  0.61544837227E+02  0.51727255348E+01  0.15974510625E+03  0.41800000000E+01 0. -1.
         -5    1    3    3    0  502 -0.96079473300E+01 -0.24862468606E+02 -0.13128906773E+02  0.30004926098E+02  0.41800000000E+01 0. -1.
        -11    1    4    4    0    0 -0.10156216149E+03 -0.74492011700E+01 -0.77716490815E+02  0.12810236605E+03  0.00000000000E+00 0. -1.
         11    1    4    4    0    0 -0.36093269154E+02 -0.29233167451E+02 -0.13794635405E+03  0.14555582693E+03  0.00000000000E+00 0.  1.
</event>
<event>
 8    1  0.3541538E-009  0.9012498E+02  0.7561462E-02  0.1302549E+00
          1   -1    0    0  501    0  0.00000000000E+00  0.00000000000E+00  0.25877288789E+02  0.25877288789E+02  0.00000000000E+00 0. -1.
         -1   -1    0    0    0  501 -0.00000000000E+00 -0.00000000000E+00 -0.46052452293E+03  0.46052452293E+03  0.00000000000E+00 0.  1.
         25    2    1    2    0    0  0.93145506366E+00 -0.26191882695E+01 -0.22703699998E+03  0.25923102002E+03  0.12508874700E+03 0.  0.
         23    2    1    2    0    0 -0.93145506366E+00  0.26191882695E+01 -0.20761023416E+03  0.22717079170E+03  0.92178259455E+02 0.  0.
          5    1    3    3  502    0 -0.52780386814E+01  0.42369300808E+02 -0.20187379564E+02  0.47413268575E+02  0.41800000000E+01 0.  1.
         -5    1    3    3    0  502  0.62094937451E+01 -0.44988489077E+02 -0.20684962042E+03  0.21181775145E+03  0.41800000000E+01 0.  1.
        -11    1    4    4    0    0 -0.46307385721E+02  0.23134302841E+01 -0.11646165356E+03  0.12535167603E+03  0.00000000000E+00 0.  1.
         11    1    4    4    0    0  0.45375930657E+02  0.30575798538E+00 -0.91148580602E+02  0.10181911567E+03  0.00000000000E+00 0. -1.
</event>
<event>
 8    1  0.3541538E-009  0.8809146E+02  0.7561462E-02  0.1307540E+00
          2   -1    0    0  501    0  0.00000000000E+00  0.00000000000E+00  0.22283469045E+03  0.22283469045E+03  0.00000000000E+00 0. -1.
         -2   -1    0    0    0  501 -0.00000000000E+00 -0.00000000000E+00 -0.73287749171E+02  0.73287749171E+02  0.00000000000E+00 0.  1.
         25    2    1    2    0    0  0.17184600005E+02  0.49675791148E+02  0.49983237754E+02  0.14459944488E+03  0.12509068990E+03 0.  0.
         23    2    1    2    0    0 -0.17184600005E+02 -0.49675791148E+02  0.99563703521E+02  0.15152299473E+03  0.10140656868E+03 0.  0.
          5    1    3    3  502    0  0.57211376471E+01 -0.30769831270E+02  0.54632837476E+02  0.63100976720E+02  0.41800000000E+01 0.  1.
         -5    1    3    3    0  502  0.11463462357E+02  0.80445622418E+02 -0.46495997224E+01  0.81498468164E+02  0.41800000000E+01 0.  1.
        -11    1    4    4    0    0  0.10254449896E+02 -0.21985642765E+02 -0.16333370535E+02  0.29245533394E+02  0.00000000000E+00 0.  1.
         11    1    4    4    0    0 -0.27439049900E+02 -0.27690148383E+02  0.11589707406E+03  0.12227746134E+03  0.00000000000E+00 0. -1.
</event>
<event>
 8    1  0.3541538E-009  0.9618490E+02  0.7561462E-02  0.1288529E+00
          1   -1    0    0  501    0  0.00000000000E+00  0.00000000000E+00  0.50678356631E+02  0.50678356631E+02  0.00000000000E+00 0.  1.
         -1   -1    0    0    0  501 -0.00000000000E+00 -0.00000000000E+00 -0.36757586413E+03  0.36757586413E+03  0.00000000000E+00 0. -1.
         25    2    1    2    0    0 -0.46407638656E+02  0.10031655055E+02 -0.27911907063E+03  0.30952968965E+03  0.12508745004E+03 0.  0.
         23    2    1    2    0    0  0.46407638656E+02 -0.10031655055E+02 -0.37778436869E+02  0.10872453111E+03  0.90219234887E+02 0.  0.
          5    1    3    3  502    0 -0.59536969429E+02 -0.24047070367E+02 -0.26049035879E+03  0.26831998014E+03  0.41800000000E+01 0. -1.
         -5    1    3    3    0  502  0.13129330773E+02  0.34078725422E+02 -0.18628711839E+02  0.41209709507E+02  0.41800000000E+01 0. -1.
        -11    1    4    4    0    0  0.61261225021E+02  0.14160911700E+02 -0.18099179329E+01  0.62902662218E+02  0.00000000000E+00 0.  1.
         11    1    4    4    0    0 -0.14853586365E+02 -0.24192566755E+02 -0.35968518936E+02  0.45821868889E+02  0.00000000000E+00 0. -1.
</event>
<event>
 8    1  0.3541538E-009  0.9833625E+02  0.7561462E-02  0.1283834E+00
         -1   -1    0    0    0  501 -0.00000000000E+00  0.00000000000E+00  0.23617307051E+02  0.23617307051E+02  0.00000000000E+00 0. -1.
          1   -1    0    0  501    0  0.00000000000E+00 -0.00000000000E+00 -0.93613673183E+03  0.93613673183E+03  0.00000000000E+00 0.  1.
         25    2    1    2    0    0  0.47033898441E+02  0.73995859346E+02 -0.65962543752E+03  0.67708308830E+03  0.12509282889E+03 0.  0.
         23    2    1    2    0    0 -0.47033898441E+02 -0.73995859346E+02 -0.25289398726E+03  0.28267095058E+03  0.90884116907E+02 0.  0.
          5    1    3    3  502    0  0.33737689379E+02  0.30793306017E+00 -0.38153907296E+02  0.51103028769E+02  0.41800000000E+01 0.  1.
         -5    1    3    3    0  502  0.13296209062E+02  0.73687926286E+02 -0.62147153022E+03  0.62598005953E+03  0.41800000000E+01 0.  1.
        -11    1    4    4    0    0 -0.24072936916E+02 -0.38445277141E+02 -0.26874968968E+02  0.52723899545E+02  0.00000000000E+00 0. -1.
         11    1    4    4    0    0 -0.22960961525E+02 -0.35550582205E+02 -0.22601901830E+03  0.22994705104E+03  0.00000000000E+00 0.  1.
</event>
<event>
 8    1  0.3541538E-009  0.8860965E+02  0.7561462E-02  0.1306254E+00
          1   -1    0    0  501    0  0.00000000000E+00  0.00000000000E+00  0.38806032358E+02  0.38806032358E+02  0.00000000000E+00 0. -1.
         -1   -1    0    0    0  501 -0.00000000000E+00 -0.00000000000E+00 -0.33998960768E+03  0.33998960768E+03  0.00000000000E+00 0.  1.
         25    2    1    2    0    0 -0.91669106068E+01 -0.30359769225E+02 -0.19259414839E+03  0.23183302986E+03  0.12509316490E+03 0.  0.
         23    2    1    2    0    0  0.91669106068E+01  0.30359769225E+02 -0.10858942693E+03  0.14696261018E+03  0.93811498821E+02 0.  0.
          5    1    3    3  502    0 -0.45947289046E+02  0.16584248399E+02 -0.27422629313E+02  0.56175294072E+02  0.41800000000E+01 0.  1.
         -5    1    3    3    0  502  0.36780378439E+02 -0.46944017624E+02 -0.16517151908E+03  0.17565773579E+03  0.41800000000E+01 0.  1.
        -11    1    4    4    0    0  0.35156969950E+02  0.15030878843E+02 -0.11030120982E+03  0.11674029614E+03  0.00000000000E+00 0.  1.
         11    1    4    4    0    0 -0.25990059343E+02  0.15328890382E+02  0.17117828897E+01  0.30222314036E+02  0.00000000000E+00 0. -1.
</event>
<event>
 8    1  0.3541538E-009  0.1828955E+03  0.7561462E-02  0.1165030E+00
          2   -1    0    0  501    0  0.00000000000E+00  0.00000000000E+00  0.56457370612E+03  0.56457370612E+03  0.00000000000E+00 0. -1.
         -2   -1    0    0    0  501 -0.00000000000E+00 -0.00000000000E+00 -0.62460824831E+02  0.62460824831E+02  0.00000000000E+00 0.  1.
         25    2    1    2    0    0  0.11251945746E+03 -0.10188506465E+03  0.25448582031E+03  0.32163919398E+03  0.12509014213E+03 0.  0.
         23    2    1    2    0    0 -0.11251945746E+03  0.10188506465E+03  0.24762706098E+03  0.30539533697E+03  0.94371371758E+02 0.  0.
          5    1    3    3  502    0  0.58947240461E+02  0.18260732867E+02  0.55726499995E+02  0.83253508782E+02  0.41800000000E+01 0.  1.
         -5    1    3    3    0  502  0.53572217004E+02 -0.12014579752E+03  0.19875932031E+03  0.23838568520E+03  0.41800000000E+01 0.  1.
        -11    1    4    4    0    0 -0.93016594994E+02  0.29840221940E+02  0.99006069186E+02  0.13908532462E+03  0.00000000000E+00 0.  1.
         11    1    4    4    0    0 -0.19502862471E+02  0.72044842711E+02  0.14862099179E+03  0.16631001235E+03  0.00000000000E+00 0. -1.
</event>
<event>
 8    1  0.3541538E-009  0.1344419E+03  0.7561462E-02  0.1221010E+00
          2   -1    0    0  501    0  0.00000000000E+00  0.00000000000E+00  0.92977225088E+03  0.92977225088E+03  0.00000000000E+00 0. -1.
         -2   -1    0    0    0  501 -0.00000000000E+00 -0.00000000000E+00 -0.25735363926E+02  0.25735363926E+02  0.00000000000E+00 0.  1.
         25    2    1    2    0    0  0.10187067024E+03  0.37535152875E+01  0.61432819157E+03  0.63516793426E+03  0.12508978945E+03 0.  0.
         23    2    1    2    0    0 -0.10187067024E+03 -0.37535152875E+01  0.28970869538E+03  0.32033968054E+03  0.91075026316E+02 0.  0.
          5    1    3    3  502    0  0.10410795773E+03  0.27956003049E+02  0.59247642629E+03  0.60221739686E+03  0.41800000000E+01 0.  1.
         -5    1    3    3    0  502 -0.22372874943E+01 -0.24202487762E+02  0.21851765277E+02  0.32950537400E+02  0.41800000000E+01 0.  1.
        -11    1    4    4    0    0 -0.56457451359E+02 -0.47130132275E+02  0.14472673239E+03  0.16234075351E+03  0.00000000000E+00 0. -1.
         11    1    4    4    0    0 -0.45413218879E+02  0.43376616987E+02  0.14498196299E+03  0.15799892703E+03  0.00000000000E+00 0.  1.
</event>
<event>
 8    1  0.3541538E-009  0.1504662E+03  0.7561462E-02  0.1199901E+00
          1   -1    0    0  501    0  0.00000000000E+00  0.00000000000E+00  0.50352065678E+02  0.50352065678E+02  0.00000000000E+00 0. -1.
         -1   -1    0    0    0  501 -0.00000000000E+00 -0.00000000000E+00 -0.53607195784E+03  0.53607195784E+03  0.00000000000E+00 0.  1.
         25    2    1    2    0    0  0.60392027671E+02  0.10411608221E+03 -0.29629287352E+03  0.34340175313E+03  0.12509173263E+03 0.  0.
         23    2    1    2    0    0 -0.60392027671E+02 -0.10411608221E+03 -0.18942701864E+03  0.24302227039E+03  0.93219487952E+02 0.  0.
          5    1    3    3  502    0  0.86152005837E+02  0.81563198347E+02 -0.28218159560E+03  0.30613501716E+03  0.41800000000E+01 0.  1.
         -5    1    3    3    0  502 -0.25759978166E+02  0.22552883860E+02 -0.14111277926E+02  0.37266735975E+02  0.41800000000E+01 0.  1.
        -11    1    4    4    0    0  0.22119440409E+02 -0.18635085487E+02 -0.64146411294E+02  0.70365461251E+02  0.00000000000E+00 0.  1.
         11    1    4    4    0    0 -0.82511468080E+02 -0.85480996721E+02 -0.12528060734E+03  0.17265680914E+03  0.00000000000E+00 0. -1.
</event>
<event>
 8    1  0.3541538E-009  0.2918774E+03  0.7561462E-02  0.1089373E+00
          1   -1    0    0  501    0  0.00000000000E+00  0.00000000000E+00  0.46278265432E+03  0.46278265432E+03  0.00000000000E+00 0. -1.
         -1   -1    0    0    0  501 -0.00000000000E+00 -0.00000000000E+00 -0.27178094811E+03  0.27178094811E+03  0.00000000000E+00 0.  1.
         25    2    1    2    0    0  0.22444776973E+03 -0.15510534198E+03  0.30309542501E+03  0.42655481484E+03  0.12509078683E+03 0.  0.
         23    2    1    2    0    0 -0.22444776973E+03  0.15510534198E+03 -0.11209371880E+03  0.30800878759E+03  0.88712699129E+02 0.  0.
          5    1    3    3  502    0  0.21038862750E+03 -0.17511477233E+03  0.26444749122E+03  0.38062909253E+03  0.41800000000E+01 0.  1.
         -5    1    3    3    0  502  0.14059142237E+02  0.20009430348E+02  0.38647933795E+02  0.45925722312E+02  0.41800000000E+01 0.  1.
        -11    1    4    4    0    0 -0.14794037191E+03  0.52044223531E+02 -0.78257678619E+02  0.17526899072E+03  0.00000000000E+00 0.  1.
         11    1    4    4    0    0 -0.76507397819E+02  0.10306111845E+03 -0.33836040183E+02  0.13273979687E+03  0.00000000000E+00 0. -1.
</event>
<event>
 8    1  0.3541538E-009  0.2537361E+03  0.7561462E-02  0.1110966E+00
         -2   -1    0    0    0  501 -0.00000000000E+00  0.00000000000E+00  0.67687277675E+02  0.67687277675E+02  0.00000000000E+00 0.  1.
          2   -1    0    0  501    0  0.00000000000E+00 -0.00000000000E+00 -0.99345395257E+03  0.99345395257E+03  0.00000000000E+00 0. -1.
         25    2    1    2    0    0  0.98522511220E+02  0.21204586566E+03 -0.47421808357E+03  0.54332110269E+03  0.12507955662E+03 0.  0.
         23    2    1    2    0    0 -0.98522511220E+02 -0.21204586566E+03 -0.45154859133E+03  0.51782012755E+03  0.97833633337E+02 0.  0.
          5    1    3    3  502    0  0.33150625711E+01 -0.16536018164E+02 -0.35723253558E+02  0.39724712476E+02  0.41800000000E+01 0.  1.
         -5    1    3    3    0  502  0.95207448649E+02  0.22858188382E+03 -0.43849483001E+03  0.50359639021E+03  0.41800000000E+01 0.  1.
        -11    1    4    4    0    0 -0.29748123252E+02 -0.13887779203E+03 -0.33570119760E+03  0.36450965149E+03  0.00000000000E+00 0. -1.
         11    1    4    4    0    0 -0.68774387969E+02 -0.73168073633E+02 -0.11584739372E+03  0.15331047607E+03  0.00000000000E+00 0.  1.
</event>
<event>
 8    1  0.3541538E-009  0.1520096E+03  0.7561462E-02  0.1198025E+00
         -2   -1    0    0    0  501 -0.00000000000E+00  0.00000000000E+00  0.38064378129E+02  0.38064378129E+02  0.00000000000E+00 0.  1.
          2   -1    0    0  501    0  0.00000000000E+00 -0.00000000000E+00 -0.78137048148E+03  0.78137048148E+03  0.00000000000E+00 0. -1.
         25    2    1    2    0    0  0.11867537665E+03 -0.10411361719E+02 -0.23899912069E+03  0.29488959220E+03  0.12508817058E+03 0.  0.
         23    2    1    2    0    0 -0.11867537665E+03  0.10411361719E+02 -0.50430698266E+03  0.52454526741E+03  0.81424586732E+02 0.  0.
          5    1    3    3  502    0 -0.18526421330E+02 -0.13956631311E+02 -0.86626547792E+02  0.89775536909E+02  0.41800000000E+01 0.  1.
         -5    1    3    3    0  502  0.13720179798E+03  0.35452695922E+01 -0.15237257290E+03  0.20511405529E+03  0.41800000000E+01 0.  1.
        -11    1    4    4    0    0 -0.10189274314E+03  0.39723805617E+02 -0.35490308899E+03  0.37137085832E+03  0.00000000000E+00 0.  1.
         11    1    4    4    0    0 -0.16782633515E+02 -0.29312443898E+02 -0.14940389367E+03  0.15317440909E+03  0.00000000000E+00 0. -1.
</event>
<event>
 8    1  0.3541538E-009  0.9869109E+02  0.7561462E-02  0.1283073E+00
          1   -1    0    0  501    0  0.00000000000E+00  0.00000000000E+00  0.60239758253E+02  0.60239758253E+02  0.00000000000E+00 0. -1.
         -1   -1    0    0    0  501 -0.00000000000E+00 -0.00000000000E+00 -0.59204278257E+03  0.59204278257E+03  0.00000000000E+00 0.  1.
         25    2    1    2    0    0  0.52887648420E+02  0.42079320494E+02 -0.51857849998E+03  0.53771493896E+03  0.12508366147E+03 0.  0.
         23    2    1    2    0    0 -0.52887648420E+02 -0.42079320494E+02 -0.13224524335E+02  0.11456760187E+03  0.91559132721E+02 0.  0.
          5    1    3    3  502    0  0.38247673693E+02 -0.18927821512E+02 -0.41006074217E+03  0.41229653362E+03  0.41800000000E+01 0. -1.
         -5    1    3    3    0  502  0.14639974727E+02  0.61007142006E+02 -0.10851775782E+03  0.12541840534E+03  0.41800000000E+01 0. -1.
        -11    1    4    4    0    0 -0.52628979184E+02 -0.31803379049E+01  0.26464555648E+02  0.58994039570E+02  0.00000000000E+00 0. -1.
         11    1    4    4    0    0 -0.25866923613E+00 -0.38898982589E+02 -0.39689079984E+02  0.55573562296E+02  0.00000000000E+00 0.  1.
</event>
<event>
 8    1  0.3541538E-009  0.5567888E+02  0.7561462E-02  0.1416915E+00
          1   -1    0    0  501    0  0.00000000000E+00  0.00000000000E+00  0.85518526811E+02  0.85518526811E+02  0.00000000000E+00 0. -1.
         -1   -1    0    0    0  501 -0.00000000000E+00 -0.00000000000E+00 -0.15235841385E+03  0.15235841385E+03  0.00000000000E+00 0.  1.
         25    2    1    2    0    0  0.10322933923E+01  0.10492478763E+02 -0.68948360329E+00  0.12553420165E+03  0.12508877910E+03 0.  0.
         23    2    1    2    0    0 -0.10322933923E+01 -0.10492478763E+02 -0.66150403431E+02  0.11234273901E+03  0.90187900483E+02 0.  0.
          5    1    3    3  502    0 -0.32063935677E+02 -0.15849790891E+02 -0.49241886951E+02  0.61004488957E+02  0.41800000000E+01 0. -1.
         -5    1    3    3    0  502  0.33096229069E+02  0.26342269654E+02  0.48552403348E+02  0.64529712691E+02  0.41800000000E+01 0. -1.
        -11    1    4    4    0    0 -0.15200106201E+02  0.18190674040E-01 -0.85103488338E+02  0.86450259032E+02  0.00000000000E+00 0.  1.
         11    1    4    4    0    0  0.14167812809E+02 -0.10510669437E+02  0.18953084907E+02  0.25892479976E+02  0.00000000000E+00 0. -1.
</event>
<event>
 8    1  0.3541538E-009  0.9486873E+02  0.7561462E-02  0.1291472E+00
         -2   -1    0    0    0  501 -0.00000000000E+00  0.00000000000E+00  0.64970169704E+02  0.64970169704E+02  0.00000000000E+00 0.  1.
          2   -1    0    0  501    0  0.00000000000E+00 -0.00000000000E+00 -0.21669077744E+03  0.21669077744E+03  0.00000000000E+00 0. -1.
         25    2    1    2    0    0 -0.32058186125E+02 -0.22495314591E+02 -0.53091212461E+02  0.14141604854E+03  0.12508419352E+03 0.  0.
         23    2    1    2    0    0  0.32058186125E+02  0.22495314591E+02 -0.98629395274E+02  0.14024489860E+03  0.91690280271E+02 0.  0.
          5    1    3    3  502    0 -0.39328041157E+02  0.34238382494E+02  0.13009236572E+02  0.53904306816E+02  0.41800000000E+01 0. -1.
         -5    1    3    3    0  502  0.72698550327E+01 -0.56733697085E+02 -0.66100449033E+02  0.87511741724E+02  0.41800000000E+01 0. -1.
        -11    1    4    4    0    0  0.54399872856E+02  0.13984930193E+02 -0.10166080816E+03  0.11614578923E+03  0.00000000000E+00 0. -1.
         11    1    4    4    0    0 -0.22341686731E+02  0.85103843983E+01  0.30314128878E+01  0.24099109376E+02  0.00000000000E+00 0.  1.
</event>
<event>
 8    1  0.3541538E-009  0.1591323E+03  0.7561462E-02  0.1189680E+00
         -1   -1    0    0    0  501 -0.00000000000E+00  0.00000000000E+00  0.20202490108E+03  0.20202490108E+03  0.00000000000E+00 0.  1.
          1   -1    0    0  501    0  0.00000000000E+00 -0.00000000000E+00 -0.23702589054E+03  0.23702589054E+03  0.00000000000E+00 0. -1.
         25    2    1    2    0    0  0.76307813563E+02  0.11956169412E+03 -0.14413393466E+03  0.23778148860E+03  0.12509022378E+03 0.  0.
         23    2    1    2    0    0 -0.76307813563E+02 -0.11956169412E+03  0.10913294520E+03  0.20126930302E+03  0.92094796262E+02 0.  0.
          5    1    3    3  502    0  0.64452131108E+02  0.12123254316E+03 -0.16417727538E+03  0.21406320767E+03  0.41800000000E+01 0. -1.
         -5    1    3    3    0  502  0.11855682455E+02 -0.16708490362E+01  0.20043340720E+02  0.23718280928E+02  0.41800000000E+01 0. -1.
        -11    1    4    4    0    0 -0.17048093418E+02  0.14026696835E+02  0.77234013741E+01  0.23388814464E+02  0.00000000000E+00 0. -1.
         11    1    4    4    0    0 -0.59259720145E+02 -0.13358839096E+03  0.10140954383E+03  0.17788048856E+03  0.00000000000E+00 0.  1.
</event>
<event>
 8    1  0.3541538E-009  0.1028280E+03  0.7561462E-02  0.1274459E+00
          1   -1    0    0  501    0  0.00000000000E+00  0.00000000000E+00  0.78079942719E+02  0.78079942719E+02  0.00000000000E+00 0. -1.
         -1   -1    0    0    0  501 -0.00000000000E+00 -0.00000000000E+00 -0.26351069554E+03  0.26351069554E+03  0.00000000000E+00 0.  1.
         25    2    1    2    0    0 -0.56691469919E+02 -0.19359230119E+02 -0.15784145268E+02  0.13957529420E+03  0.12507366213E+03 0.  0.
         23    2    1    2    0    0  0.56691469919E+02  0.19359230119E+02 -0.16964660755E+03  0.20201534406E+03  0.91877773303E+02 0.  0.
          5    1    3    3  502    0  0.11380281456E+02  0.19702376176E+02  0.37895699492E+02  0.44398771075E+02  0.41800000000E+01 0.  1.
         -5    1    3    3    0  502 -0.68071751375E+02 -0.39061606294E+02 -0.53679844760E+02  0.95176523129E+02  0.41800000000E+01 0.  1.
        -11    1    4    4    0    0 -0.67234695931E+01  0.37397966317E+02 -0.33132457873E+02  0.50414012861E+02  0.00000000000E+00 0.  1.
         11    1    4    4    0    0  0.63414939512E+02 -0.18038736198E+02 -0.13651414968E+03  0.15160133120E+03  0.00000000000E+00 0. -1.
</event>
<event>
 8    1  0.3541538E-009  0.9454622E+02  0.7561462E-02  0.1292201E+00
          2   -1    0    0  501    0  0.00000000000E+00  0.00000000000E+00  0.39666303074E+03  0.39666303074E+03  0.00000000000E+00 0. -1.
         -2   -1    0    0    0  501 -0.00000000000E+00 -0.00000000000E+00 -0.31175501416E+02  0.31175501416E+02  0.00000000000E+00 0.  1.
         25    2    1    2    0    0  0.20553251409E+02  0.22996483763E+02  0.19412867954E+03  0.23298869417E+03  0.12508602234E+03 0.  0.
         23    2    1    2    0    0 -0.20553251409E+02 -0.22996483763E+02  0.17135884979E+03  0.19484983799E+03  0.87471878640E+02 0.  0.
          5    1    3    3  502    0 -0.40317848877E+02  0.45640677347E+02  0.70328820790E+02  0.93124732485E+02  0.41800000000E+01 0.  1.
         -5    1    3    3    0  502  0.60871100286E+02 -0.22644193583E+02  0.12379985875E+03  0.13986396169E+03  0.41800000000E+01 0.  1.
        -11    1    4    4    0    0  0.12310859313E+02  0.10399563316E+02 -0.10869220973E+01  0.16152076456E+02  0.00000000000E+00 0.  1.
         11    1    4    4    0    0 -0.32864110721E+02 -0.33396047080E+02  0.17244577189E+03  0.17869776153E+03  0.00000000000E+00 0. -1.
</event>
<event>
 8    1  0.3541538E-009  0.9518672E+02  0.7561462E-02  0.1290756E+00
         -1   -1    0    0    0  501 -0.00000000000E+00  0.00000000000E+00  0.14539319968E+03  0.14539319968E+03  0.00000000000E+00 0.  1.
          1   -1    0    0  501    0  0.00000000000E+00 -0.00000000000E+00 -0.16012594245E+03  0.16012594245E+03  0.00000000000E+00 0. -1.
         25    2    1    2    0    0 -0.35222078404E+02  0.16837242655E+02  0.92253454082E+02  0.16025525914E+03  0.12508781214E+03 0.  0.
         23    2    1    2    0    0  0.35222078404E+02 -0.16837242655E+02 -0.10698619686E+03  0.14526388299E+03  0.90174618575E+02 0.  0.
          5    1    3    3  502    0 -0.34705358776E+02 -0.32605240177E+02  0.99231921107E+02  0.11014540472E+03  0.41800000000E+01 0.  1.
         -5    1    3    3    0  502 -0.51671962715E+00  0.49442482832E+02 -0.69784670252E+01  0.50109854418E+02  0.41800000000E+01 0.  1.
        -11    1    4    4    0    0 -0.98194546997E+01 -0.40776201226E+02 -0.25365802928E+02  0.49015754969E+02  0.00000000000E+00 0.  1.
         11    1    4    4    0    0  0.45041533103E+02  0.23938958571E+02 -0.81620393930E+02  0.96248128018E+02  0.00000000000E+00 0. -1.
</event>
<event>
 8    1  0.3541538E-009  0.1172147E+03  0.7561462E-02  0.1247764E+00
          1   -1    0    0  501    0  0.00000000000E+00  0.00000000000E+00  0.10000139564E+03  0.10000139564E+03  0.00000000000E+00 0. -1.
         -1   -1    0    0    0  501 -0.00000000000E+00 -0.00000000000E+00 -0.16015356084E+03  0.16015356084E+03  0.00000000000E+00 0.  1.
         25    2    1    2    0    0 -0.77278453049E+00  0.58390781924E+02 -0.62400125626E+02  0.15149665989E+03  0.12508949464E+03 0.  0.
         23    2    1    2    0    0  0.77278453049E+00 -0.58390781924E+02  0.22479604273E+01  0.10865829659E+03  0.91605084364E+02 0.  0.
          5    1    3    3  502    0  0.58149485632E+02  0.52349791882E+02 -0.30401864492E+02  0.84045280379E+02  0.41800000000E+01 0.  1.
         -5    1    3    3    0  502 -0.58922270163E+02  0.60409900422E+01 -0.31998261134E+02  0.67451379507E+02  0.41800000000E+01 0.  1.
        -11    1    4    4    0    0  0.38048476719E+02 -0.39732609921E+02 -0.23326633290E+02  0.59753650034E+02  0.00000000000E+00 0.  1.
         11    1    4    4    0    0 -0.37275692189E+02 -0.18658172003E+02  0.25574593717E+02  0.48904646553E+02  0.00000000000E+00 0. -1.
</event>
<event>
 8    1  0.3541538E-009  0.1152938E+03  0.7561462E-02  0.1251069E+00
         -1   -1    0    0    0  501 -0.00000000000E+00  0.00000000000E+00  0.10646353264E+02  0.10646353264E+02  0.00000000000E+00 0.  1.
          1   -1    0    0  501    0  0.00000000000E+00 -0.00000000000E+00 -0.13764002427E+04  0.13764002427E+04  0.00000000000E+00 0. -1.
         25    2    1    2    0    0 -0.42321558072E+02 -0.11778252888E+01 -0.95281304253E+03  0.96192121471E+03  0.12508887941E+03 0.  0.
         23    2    1    2    0    0  0.42321558072E+02  0.11778252888E+01 -0.41294084688E+03  0.42512538122E+03  0.91754810166E+02 0.  0.
          5    1    3    3  502    0 -0.78381001106E+02  0.27660789786E+02 -0.69587375377E+03  0.70083268631E+03  0.41800000000E+01 0. -1.
         -5    1    3    3    0  502  0.36059443033E+02 -0.28838615075E+02 -0.25693928876E+03  0.26108852840E+03  0.41800000000E+01 0. -1.
        -11    1    4    4    0    0  0.40620656461E+02 -0.41627741190E+02 -0.23118211639E+03  0.23838640378E+03  0.00000000000E+00 0. -1.
         11    1    4    4    0    0  0.17009016113E+01  0.42805566479E+02 -0.18175873049E+03  0.18673897744E+03  0.00000000000E+00 0.  1.
</event>
<event>
 8    1  0.3541538E-009  0.1078568E+03  0.7561462E-02  0.1264591E+00
          1   -1    0    0  501    0  0.00000000000E+00  0.00000000000E+00  0.11698162189E+03  0.11698162189E+03  0.00000000000E+00 0. -1.
         -1   -1    0    0    0  501 -0.00000000000E+00 -0.00000000000E+00 -0.14792729552E+03  0.14792729552E+03  0.00000000000E+00 0.  1.
         25    2    1    2    0    0  0.14633787627E+02 -0.11943134719E+02 -0.87713699386E+02  0.15394303310E+03  0.12509187892E+03 0.  0.
         23    2    1    2    0    0 -0.14633787627E+02  0.11943134719E+02  0.56768025749E+02  0.11096588431E+03  0.93456045960E+02 0.  0.
          5    1    3    3  502    0 -0.50146329376E+02 -0.24684070788E+02 -0.60325240720E+02  0.82344184789E+02  0.41800000000E+01 0.  1.
         -5    1    3    3    0  502  0.64780117003E+02  0.12740936069E+02 -0.27388458666E+02  0.71598848307E+02  0.41800000000E+01 0.  1.
        -11    1    4    4    0    0  0.10181861739E+02 -0.37140895354E+02  0.12902915526E+02  0.40615288319E+02  0.00000000000E+00 0.  1.
         11    1    4    4    0    0 -0.24815649366E+02  0.49084030073E+02  0.43865110224E+02  0.70350595993E+02  0.00000000000E+00 0. -1.
</event>
<event>
 8    1  0.3541538E-009  0.1172759E+03  0.7561462E-02  0.1247660E+00
          4   -1    0    0  501    0  0.00000000000E+00  0.00000000000E+00  0.15926358066E+02  0.15926358066E+02  0.00000000000E+00 0. -1.
         -4   -1    0    0    0  501 -0.00000000000E+00 -0.00000000000E+00 -0.93787665122E+03  0.93787665122E+03  0.00000000000E+00 0.  1.
         25    2    1    2    0    0  0.40737922218E+02  0.40220899355E+02 -0.57035966355E+03  0.58671553076E+03  0.12509064383E+03 0.  0.
         23    2    1    2    0    0 -0.40737922218E+02 -0.40220899355E+02 -0.35159062960E+03  0.36708747853E+03  0.88656342223E+02 0.  0.
          5    1    3    3  502    0 -0.26292161315E+02  0.54243943932E+02 -0.16772814684E+03  0.17828036023E+03  0.41800000000E+01 0. -1.
         -5    1    3    3    0  502  0.67030083534E+02 -0.14023044577E+02 -0.40263151671E+03  0.40843517053E+03  0.41800000000E+01 0. -1.
        -11    1    4    4    0    0 -0.30303012703E+02 -0.68754690002E+02 -0.25311647489E+03  0.26403300899E+03  0.00000000000E+00 0. -1.
         11    1    4    4    0    0 -0.10434909515E+02  0.28533790647E+02 -0.98474154709E+02  0.10305446953E+03  0.00000000000E+00 0.  1.
</event>
<event>
 8    1  0.3541538E-009  0.1225242E+03  0.7561462E-02  0.1238990E+00
         -2   -1    0    0    0  501 -0.00000000000E+00  0.00000000000E+00  0.18172334055E+03  0.18172334055E+03  0.00000000000E+00 0.  1.
          2   -1    0    0  501    0  0.00000000000E+00 -0.00000000000E+00 -0.10953782008E+03  0.10953782008E+03  0.00000000000E+00 0. -1.
         25    2    1    2    0    0 -0.38819144474E+02 -0.87111261021E+02  0.46439322447E+02  0.16400271140E+03  0.12507989808E+03 0.  0.
         23    2    1    2    0    0  0.38819144474E+02  0.87111261021E+02  0.25746198026E+02  0.12725844922E+03  0.80228102379E+02 0.  0.
          5    1    3    3  502    0 -0.45594612485E+02 -0.15419847327E+02 -0.31603166580E+02  0.57731039460E+02  0.41800000000E+01 0.  1.
         -5    1    3    3    0  502  0.67754680109E+01 -0.71691413694E+02  0.78042489027E+02  0.10627167194E+03  0.41800000000E+01 0.  1.
        -11    1    4    4    0    0  0.37129568992E+02  0.10255414320E+03  0.21721263648E+02  0.11121047826E+03  0.00000000000E+00 0. -1.
         11    1    4    4    0    0  0.16895754812E+01 -0.15442882176E+02  0.40249343780E+01  0.16047970961E+02  0.00000000000E+00 0.  1.
</event>
<event>
 8    1  0.3541538E-009  0.1213103E+03  0.7561462E-02  0.1240951E+00
          1   -1    0    0  501    0  0.00000000000E+00  0.00000000000E+00  0.10695087330E+04  0.10695087330E+04  0.00000000000E+00 0. -1.
         -1   -1    0    0    0  501 -0.00000000000E+00 -0.00000000000E+00 -0.19523377403E+02  0.19523377403E+02  0.00000000000E+00 0.  1.
         25    2    1    2    0    0 -0.77081928061E+02 -0.43988416291E+02  0.70434320309E+03  0.72084974395E+03  0.12509356982E+03 0.  0.
         23    2    1    2    0    0  0.77081928061E+02  0.43988416291E+02  0.34564215248E+03  0.36818236643E+03  0.90626447437E+02 0.  0.
          5    1    3    3  502    0 -0.89671841739E+02 -0.76637123229E+02  0.55336041548E+03  0.56580872181E+03  0.41800000000E+01 0. -1.
         -5    1    3    3    0  502  0.12589913678E+02  0.32648706938E+02  0.15098278761E+03  0.15504102214E+03  0.41800000000E+01 0. -1.
        -11    1    4    4    0    0  0.67385456974E+02  0.34194470973E+02  0.34623757937E+03  0.35438753226E+03  0.00000000000E+00 0. -1.
         11    1    4    4    0    0  0.96964710868E+01  0.97939453182E+01 -0.59542688788E+00  0.13794834164E+02  0.00000000000E+00 0.  1.
</event>
<event>
 8    1  0.3541538E-009  0.6512426E+02  0.7561462E-02  0.1377505E+00
         -1   -1    0    0    0  501 -0.00000000000E+00  0.00000000000E+00  0.14159733656E+03  0.14159733656E+03  0.00000000000E+00 0.  1.
          1   -1    0    0  501    0  0.00000000000E+00 -0.00000000000E+00 -0.96250476551E+02  0.96250476551E+02  0.00000000000E+00 0. -1.
         25    2    1    2    0    0 -0.34197759753E+02  0.76485225453E+00  0.37911033022E-01  0.12968350731E+03  0.12509092238E+03 0.  0.
         23    2    1    2    0    0  0.34197759753E+02 -0.76485225453E+00  0.45308948973E+02  0.10816430579E+03  0.92068150951E+02 0.  0.
          5    1    3    3  502    0 -0.38970410297E+02  0.48865788109E+01 -0.58540286892E+02  0.70618758985E+02  0.41800000000E+01 0. -1.
         -5    1    3    3    0  502  0.47726505445E+01 -0.41217265564E+01  0.58578197925E+02  0.59064748329E+02  0.41800000000E+01 0. -1.
        -11    1    4    4    0    0  0.46198146158E+02 -0.27582144789E+02 -0.42407978355E+00  0.53807278906E+02  0.00000000000E+00 0. -1.
         11    1    4    4    0    0 -0.12000386405E+02  0.26817292534E+02  0.45733028756E+02  0.54357026887E+02  0.00000000000E+00 0.  1.
</event>
<event>
 8    1  0.3541538E-009  0.9633193E+02  0.7561462E-02  0.1288204E+00
         -2   -1    0    0    0  501 -0.00000000000E+00  0.00000000000E+00  0.13001157473E+03  0.13001157473E+03  0.00000000000E+00 0.  1.
          2   -1    0    0  501    0  0.00000000000E+00 -0.00000000000E+00 -0.11719717479E+03  0.11719717479E+03  0.00000000000E+00 0. -1.
         25    2    1    2    0    0  0.59715090301E+00 -0.50103308274E+02  0.37296207291E+02  0.13981790653E+03  0.12508933535E+03 0.  0.
         23    2    1    2    0    0 -0.59715090301E+00  0.50103308274E+02 -0.24481807348E+02  0.10739084299E+03  0.91775466098E+02 0.  0.
          5    1    3    3  502    0 -0.37219293554E+02 -0.62872112490E+01  0.65180094230E+02  0.75436873755E+02  0.41800000000E+01 0. -1.
         -5    1    3    3    0  502  0.37816444457E+02 -0.43816097025E+02 -0.27883886939E+02  0.64381032772E+02  0.41800000000E+01 0. -1.
        -11    1    4    4    0    0  0.78805379605E+01 -0.22355644816E+02  0.11156404938E+02  0.26198150790E+02  0.00000000000E+00 0.  1.
         11    1    4    4    0    0 -0.84776888635E+01  0.72458953090E+02 -0.35638212286E+02  0.81192692198E+02  0.00000000000E+00 0. -1.
</event>
<event>
 8    1  0.3541538E-009  0.1303117E+03  0.7561462E-02  0.1226994E+00
          2   -1    0    0  501    0  0.00000000000E+00  0.00000000000E+00  0.30014504429E+03  0.30014504429E+03  0.00000000000E+00 0.  1.
         -2   -1    0    0    0  501 -0.00000000000E+00 -0.00000000000E+00 -0.80437599484E+02  0.80437599484E+02  0.00000000000E+00 0. -1.
         25    2    1    2    0    0 -0.66806359117E+02 -0.72719620173E+02  0.57078965291E+02  0.16928490905E+03  0.12509252326E+03 0.  0.
         23    2    1    2    0    0  0.66806359117E+02  0.72719620173E+02  0.16262847951E+03  0.21129773472E+03  0.91910160341E+02 0.  0.
          5    1    3    3  502    0 -0.10344844830E+03 -0.51272445241E+02  0.50620451643E+02  0.12613622644E+03  0.41800000000E+01 0. -1.
         -5    1    3    3    0  502  0.36642089182E+02 -0.21447174931E+02  0.64585136477E+01  0.43148682607E+02  0.41800000000E+01 0. -1.
        -11    1    4    4    0    0  0.65167179286E+02  0.56866980768E+02  0.17220482506E+03  0.19270473925E+03  0.00000000000E+00 0.  1.
         11    1    4    4    0    0  0.16391798309E+01  0.15852639404E+02 -0.95763455433E+01  0.18592995470E+02  0.00000000000E+00 0. -1.
</event>
<event>
 8    1  0.3541538E-009  0.9149982E+02  0.7561462E-02  0.1299260E+00
         -2   -1    0    0    0  501 -0.00000000000E+00  0.00000000000E+00  0.15886458162E+03  0.15886458162E+03  0.00000000000E+00 0. -1.
          2   -1    0    0  501    0  0.00000000000E+00 -0.00000000000E+00 -0.87652567151E+02  0.87652567151E+02  0.00000000000E+00 0.  1.
         25    2    1    2    0    0 -0.28843558441E+02 -0.13579488927E+01 -0.74629558611E+01  0.12859450775E+03  0.12508819619E+03 0.  0.
         23    2    1    2    0    0  0.28843558441E+02  0.13579488927E+01  0.78674970335E+02  0.11792264102E+03  0.82959046643E+02 0.  0.
          5    1    3    3  502    0  0.33025104084E+02  0.39488644405E+02  0.92839745371E+01  0.52475471602E+02  0.41800000000E+01 0.  1.
         -5    1    3    3    0  502 -0.61868662526E+02 -0.40846593297E+02 -0.16746930398E+02  0.76119036150E+02  0.41800000000E+01 0.  1.
        -11    1    4    4    0    0 -0.49164127290E+01 -0.17672580803E+02  0.76975565254E+02  0.79131086639E+02  0.00000000000E+00 0. -1.
         11    1    4    4    0    0  0.33759971170E+02  0.19030529696E+02  0.16994050804E+01  0.38791554384E+02  0.00000000000E+00 0.  1.
</event>
<event>
 8    1  0.3541538E-009  0.1360857E+03  0.7561462E-02  0.1218695E+00
          2   -1    0    0  501    0  0.00000000000E+00  0.00000000000E+00  0.10948393200E+04  0.10948393200E+04  0.00000000000E+00 0.  1.
         -2   -1    0    0    0  501 -0.00000000000E+00 -0.00000000000E+00 -0.26937472337E+02  0.26937472337E+02  0.00000000000E+00 0. -1.
         25    2    1    2    0    0  0.12544162633E+03 -0.33085006421E+02  0.65351600728E+03  0.67790922952E+03  0.12509009722E+03 0.  0.
         23    2    1    2    0    0 -0.12544162633E+03  0.33085006421E+02  0.41438584034E+03  0.44386756278E+03  0.92046560754E+02 0.  0.
          5    1    3    3  502    0  0.46699312117E+02  0.12741222725E+01  0.51015996643E+02  0.69300457814E+02  0.41800000000E+01 0.  1.
         -5    1    3    3    0  502  0.78742314217E+02 -0.34359128694E+02  0.60250001064E+03  0.60860877170E+03  0.41800000000E+01 0.  1.
        -11    1    4    4    0    0 -0.88477400438E+02  0.46473496588E+02  0.37549562266E+03  0.38856788198E+03  0.00000000000E+00 0.  1.
         11    1    4    4    0    0 -0.36964225897E+02 -0.13388490166E+02  0.38890217688E+02  0.55299680803E+02  0.00000000000E+00 0. -1.
</event>
<event>
 8    1  0.3541538E-009  0.7024629E+02  0.7561462E-02  0.1359258E+00
         -1   -1    0    0    0  501 -0.00000000000E+00  0.00000000000E+00  0.17410896376E+03  0.17410896376E+03  0.00000000000E+00 0.  1.
          1   -1    0    0  501    0  0.00000000000E+00 -0.00000000000E+00 -0.70171840097E+02  0.70171840097E+02  0.00000000000E+00 0. -1.
         25    2    1    2    0    0  0.43714354226E+00 -0.82877208414E+01  0.34000692508E+02  0.12990243172E+03  0.12509882999E+03 0.  0.
         23    2    1    2    0    0 -0.43714354226E+00  0.82877208414E+01  0.69936431156E+02  0.11437837214E+03  0.90124526068E+02 0.  0.
          5    1    3    3  502    0  0.21045744060E+02 -0.16953383357E+02  0.76751774196E+02  0.81477897571E+02  0.41800000000E+01 0. -1.
         -5    1    3    3    0  502 -0.20608600518E+02  0.86656625159E+01 -0.42751081688E+02  0.48424534150E+02  0.41800000000E+01 0. -1.
        -11    1    4    4    0    0 -0.29180264327E+02  0.38757973665E+02  0.34802141919E+02  0.59706427049E+02  0.00000000000E+00 0.  1.
         11    1    4    4    0    0  0.28743120785E+02 -0.30470252824E+02  0.35134289236E+02  0.54671945088E+02  0.00000000000E+00 0. -1.
</event>
<event>
 8    1  0.3541538E-009  0.6507178E+02  0.7561462E-02  0.1377702E+00
          3   -1    0    0  501    0  0.00000000000E+00  0.00000000000E+00  0.26128875107E+03  0.26128875107E+03  0.00000000000E+00 0. -1.
         -3   -1    0    0    0  501 -0.00000000000E+00 -0.00000000000E+00 -0.60093660718E+02  0.60093660718E+02  0.00000000000E+00 0.  1.
         25    2    1    2    0    0  0.17344285000E+02 -0.26817349739E+02  0.19170108310E+03  0.23112031787E+03  0.12508917459E+03 0.  0.
         23    2    1    2    0    0 -0.17344285000E+02  0.26817349739E+02  0.94940072502E+01  0.90262093922E+02  0.83887513709E+02 0.  0.
          5    1    3    3  502    0  0.19252173462E+02 -0.48949632885E+01 -0.13707324676E+02  0.24494285014E+02  0.41800000000E+01 0. -1.
         -5    1    3    3    0  502 -0.19078884620E+01 -0.21922386450E+02  0.20540840778E+03  0.20662603285E+03  0.41800000000E+01 0. -1.
        -11    1    4    4    0    0 -0.46140830959E+02  0.34533359224E+02  0.15865184108E+02  0.59776527564E+02  0.00000000000E+00 0. -1.
         11    1    4    4    0    0  0.28796545960E+02 -0.77160094850E+01 -0.63711768581E+01  0.30485566357E+02  0.00000000000E+00 0.  1.
</event>
<event>
 8    1  0.3541538E-009  0.2084191E+03  0.7561462E-02  0.1142824E+00
         -2   -1    0    0    0  501 -0.00000000000E+00  0.00000000000E+00  0.22141222559E+02  0.22141222559E+02  0.00000000000E+00 0.  1.
          2   -1    0    0  501    0  0.00000000000E+00 -0.00000000000E+00 -0.24179776337E+04  0.24179776337E+04  0.00000000000E+00 0. -1.
         25    2    1    2    0    0 -0.18690146600E+03  0.34881443601E+02 -0.16280750067E+04  0.16439050004E+04  0.12508616947E+03 0.  0.
         23    2    1    2    0    0  0.18690146600E+03 -0.34881443601E+02 -0.76776140444E+03  0.79621385586E+03  0.91378646392E+02 0.  0.
          5    1    3    3  502    0 -0.15168996389E+03 -0.10177926102E+02 -0.14184282780E+04  0.14265586870E+04  0.41800000000E+01 0. -1.
         -5    1    3    3    0  502 -0.35211502102E+02  0.45059369703E+02 -0.20964672876E+03  0.21734631342E+03  0.41800000000E+01 0. -1.
        -11    1    4    4    0    0  0.18987229117E+03 -0.46446791163E+02 -0.74805455955E+03  0.77317165974E+03  0.00000000000E+00 0. -1.
         11    1    4    4    0    0 -0.29708251755E+01  0.11565347561E+02 -0.19706844891E+02  0.23042196119E+02  0.00000000000E+00 0.  1.
</event>
<event>
 8    1  0.3541538E-009  0.1360896E+03  0.7561462E-02  0.1218690E+00
          1   -1    0    0  501    0  0.00000000000E+00  0.00000000000E+00  0.37981921489E+03  0.37981921489E+03  0.00000000000E+00 0. -1.
         -1   -1    0    0    0  501 -0.00000000000E+00 -0.00000000000E+00 -0.63534557724E+02  0.63534557724E+02  0.00000000000E+00 0.  1.
         25    2    1    2    0    0  0.69347980644E+02  0.74753805178E+02  0.11027707101E+03  0.19546330925E+03  0.12509036360E+03 0.  0.
         23    2    1    2    0    0 -0.69347980644E+02 -0.74753805178E+02  0.20600758616E+03  0.24789046336E+03  0.92807771577E+02 0.  0.
          5    1    3    3  502    0  0.11614820543E+02  0.84667139868E+02  0.20169222087E+02  0.87907329326E+02  0.41800000000E+01 0. -1.
         -5    1    3    3    0  502  0.57733160101E+02 -0.99133346902E+01  0.90107848924E+02  0.10755597992E+03  0.41800000000E+01 0. -1.
        -11    1    4    4    0    0 -0.72163155411E+02 -0.22541603021E+02  0.73508615245E+02  0.10544743421E+03  0.00000000000E+00 0.  1.
         11    1    4    4    0    0  0.28151747663E+01 -0.52212202157E+02  0.13249897091E+03  0.14244302916E+03  0.00000000000E+00 0. -1.
</event>
<event>
 8    1  0.3541538E-009  0.1274622E+03  0.7561462E-02  0.1231271E+00
          2   -1    0    0  501    0  0.00000000000E+00  0.00000000000E+00  0.75684231611E+03  0.75684231611E+03  0.00000000000E+00 0. -1.
         -2   -1    0    0    0  501 -0.00000000000E+00 -0.00000000000E+00 -0.26271574107E+02  0.26271574107E+02  0.00000000000E+00 0.  1.
         25    2    1    2    0    0  0.12742488920E+02  0.69868961440E+02  0.24723540282E+03  0.28603633191E+03  0.12508955179E+03 0.  0.
         23    2    1    2    0    0 -0.12742488920E+02 -0.69868961440E+02  0.48333533918E+03  0.49707755830E+03  0.91809618650E+02 0.  0.
          5    1    3    3  502    0  0.66330957463E+02  0.17537451493E+02  0.12325518638E+03  0.14112643797E+03  0.41800000000E+01 0.  1.
         -5    1    3    3    0  502 -0.53588468543E+02  0.52331509947E+02  0.12398021644E+03  0.14490989394E+03  0.41800000000E+01 0.  1.
        -11    1    4    4    0    0 -0.45353146549E+02 -0.15800066658E+02  0.28240496648E+03  0.28645962211E+03  0.00000000000E+00 0. -1.
         11    1    4    4    0    0  0.32610657629E+02 -0.54068894782E+02  0.20093037270E+03  0.21061793619E+03  0.00000000000E+00 0.  1.
</event>
<event>
 8    1  0.3541538E-009  0.1295856E+03  0.7561462E-02  0.1228072E+00
          1   -1    0    0  501    0  0.00000000000E+00  0.00000000000E+00  0.34260387386E+03  0.34260387386E+03  0.00000000000E+00 0. -1.
         -1   -1    0    0    0  501 -0.00000000000E+00 -0.00000000000E+00 -0.75024960783E+02  0.75024960783E+02  0.00000000000E+00 0.  1.
         25    2    1    2    0    0 -0.12066328673E+01 -0.11687598533E+03  0.12885234769E+03  0.21427047974E+03  0.12508980403E+03 0.  0.
         23    2    1    2    0    0  0.12066328673E+01  0.11687598533E+03  0.13872656539E+03  0.20335835490E+03  0.91913593407E+02 0.  0.
          5    1    3    3  502    0  0.30115514172E+02 -0.18054074719E+02 -0.13732462887E+02  0.37933451527E+02  0.41800000000E+01 0.  1.
         -5    1    3    3    0  502 -0.31322147039E+02 -0.98821910615E+02  0.14258481058E+03  0.17633702821E+03  0.41800000000E+01 0.  1.
        -11    1    4    4    0    0  0.14317354750E+02  0.57930145622E+02  0.12908061309E+03  0.14220651565E+03  0.00000000000E+00 0. -1.
         11    1    4    4    0    0 -0.13110721882E+02  0.58945839713E+02  0.96459523003E+01  0.61151839249E+02  0.00000000000E+00 0.  1.
</event>
<event>
 8    1  0.3541538E-009  0.8665384E+02  0.7561462E-02  0.1311163E+00
         -1   -1    0    0    0  501 -0.00000000000E+00  0.00000000000E+00  0.11608300331E+03  0.11608300331E+03  0.00000000000E+00 0.  1.
          1   -1    0    0  501    0  0.00000000000E+00 -0.00000000000E+00 -0.25608147700E+03  0.25608147700E+03  0.00000000000E+00 0. -1.
         25    2    1    2    0    0  0.34564432615E+02 -0.42049222648E+02  0.57097973521E+02  0.14788739722E+03  0.12509063334E+03 0.  0.
         23    2    1    2    0    0 -0.34564432615E+02  0.42049222648E+02 -0.19709644722E+03  0.22427708309E+03  0.92143167759E+02 0.  0.
          5    1    3    3  502    0  0.36154897035E+01 -0.53543471301E+02  0.87553522356E+02  0.10277678124E+03  0.41800000000E+01 0.  1.
         -5    1    3    3    0  502  0.30948942911E+02  0.11494248653E+02 -0.30455548835E+02  0.45110615982E+02  0.41800000000E+01 0.  1.
        -11    1    4    4    0    0 -0.49051865004E+02  0.86674272938E+01 -0.42571557921E+02  0.65525165395E+02  0.00000000000E+00 0.  1.
         11    1    4    4    0    0  0.14487432389E+02  0.33381795354E+02 -0.15452488930E+03  0.15875191769E+03  0.00000000000E+00 0. -1.
</event>
<event>
 8    1  0.3541538E-009  0.1027144E+03  0.7561462E-02  0.1274689E+00
          3   -1    0    0  501    0  0.00000000000E+00  0.00000000000E+00  0.35679440912E+03  0.35679440912E+03  0.00000000000E+00 0. -1.
         -3   -1    0    0    0  501 -0.00000000000E+00 -0.00000000000E+00 -0.45843784539E+02  0.45843784539E+02  0.00000000000E+00 0.  1.
         25    2    1    2    0    0 -0.42639406933E+02 -0.43128004073E+02  0.12910144507E+03  0.18971737215E+03  0.12508938571E+03 0.  0.
         23    2    1    2    0    0  0.42639406933E+02  0.43128004073E+02  0.18184917951E+03  0.21292082151E+03  0.92671507947E+02 0.  0.
          5    1    3    3  502    0 -0.67082970082E+02 -0.36732586516E+02  0.22137697357E+02  0.79730532618E+02  0.41800000000E+01 0. -1.
         -5    1    3    3    0  502  0.24443563149E+02 -0.63954175568E+01  0.10696374771E+03  0.10998683953E+03  0.41800000000E+01 0. -1.
        -11    1    4    4    0    0  0.17594728458E+02 -0.25038227955E+02  0.23075334570E+02  0.38326993023E+02  0.00000000000E+00 0.  1.
         11    1    4    4    0    0  0.25044678475E+02  0.68166232028E+02  0.15877384494E+03  0.17459382849E+03  0.00000000000E+00 0. -1.
</event>
<event>
 8    1  0.3541538E-009  0.1237089E+03  0.7561462E-02  0.1237101E+00
          2   -1    0    0  501    0  0.00000000000E+00  0.00000000000E+00  0.22699236051E+03  0.22699236051E+03  0.00000000000E+00 0. -1.
         -2   -1    0    0    0  501 -0.00000000000E+00 -0.00000000000E+00 -0.14393164603E+03  0.14393164603E+03  0.00000000000E+00 0.  1.
         25    2    1    2    0    0 -0.44136055331E+02 -0.78979235633E+02  0.16079686626E+03  0.22290930335E+03  0.12508882556E+03 0.  0.
         23    2    1    2    0    0  0.44136055331E+02  0.78979235633E+02 -0.77736151790E+02  0.14801470318E+03  0.87634080255E+02 0.  0.
          5    1    3    3  502    0 -0.27452804450E+01  0.20585855028E+02 -0.79365126994E+01  0.22622436336E+02  0.41800000000E+01 0.  1.
         -5    1    3    3    0  502 -0.41390774886E+02 -0.99565090661E+02  0.16873337896E+03  0.20028686702E+03  0.41800000000E+01 0.  1.
        -11    1    4    4    0    0 -0.11302846675E+02  0.57935732826E+02 -0.64158872846E+02  0.87181789646E+02  0.00000000000E+00 0.  1.
         11    1    4    4    0    0  0.55438902006E+02  0.21043502807E+02 -0.13577278944E+02  0.60832913538E+02  0.00000000000E+00 0. -1.
</event>
<event>
 8    1  0.3541538E-009  0.1115757E+03  0.7561462E-02  0.1257679E+00
         -1   -1    0    0    0  501 -0.00000000000E+00  0.00000000000E+00  0.32431677567E+03  0.32431677567E+03  0.00000000000E+00 0.  1.
          1   -1    0    0  501    0  0.00000000000E+00 -0.00000000000E+00 -0.42328979107E+02  0.42328979107E+02  0.00000000000E+00 0. -1.
         25    2    1    2    0    0  0.31216796531E+02  0.28373825538E+02  0.12671686646E+03  0.18298817915E+03  0.12509175473E+03 0.  0.
         23    2    1    2    0    0 -0.31216796531E+02 -0.28373825538E+02  0.15527093011E+03  0.18365757564E+03  0.88552137127E+02 0.  0.
          5    1    3    3  502    0  0.49080833664E+02  0.69326688650E+02  0.97793663841E+02  0.12960011991E+03  0.41800000000E+01 0.  1.
         -5    1    3    3    0  502 -0.17864037132E+02 -0.40952863112E+02  0.28923202617E+02  0.53388059239E+02  0.41800000000E+01 0.  1.
        -11    1    4    4    0    0 -0.14638190726E+02 -0.57708937301E+02  0.12459994160E+03  0.13809324212E+03  0.00000000000E+00 0.  1.
         11    1    4    4    0    0 -0.16578605806E+02  0.29335111763E+02  0.30670988508E+02  0.45564333515E+02  0.00000000000E+00 0. -1.
</event>
<event>
 8    1  0.3541538E-009  0.1538752E+03  0.7561462E-02  0.1195790E+00
          2   -1    0    0  501    0  0.00000000000E+00  0.00000000000E+00  0.58321425197E+03  0.58321425197E+03  0.00000000000E+00 0. -1.
         -2   -1    0    0    0  501 -0.00000000000E+00 -0.00000000000E+00 -0.50576960640E+02  0.50576960640E+02  0.00000000000E+00 0.  1.
         25    2    1    2    0    0  0.64364464047E+02 -0.11192239535E+03  0.34740558175E+03  0.39116055728E+03  0.12508611643E+03 0.  0.
         23    2    1    2    0    0 -0.64364464047E+02  0.11192239535E+03  0.18523170958E+03  0.24263065533E+03  0.88822530135E+02 0.  0.
          5    1    3    3  502    0 -0.13972154200E+02  0.16510344412E+02  0.93007061945E+02  0.95580325053E+02  0.41800000000E+01 0.  1.
         -5    1    3    3    0  502  0.78336618248E+02 -0.12843273977E+03  0.25439851980E+03  0.29558023222E+03  0.41800000000E+01 0.  1.
        -11    1    4    4    0    0 -0.61643024639E+02  0.70237493922E+02  0.61086234311E+02  0.11164540323E+03  0.00000000000E+00 0.  1.
         11    1    4    4    0    0 -0.27214394081E+01  0.41684901433E+02  0.12414547527E+03  0.13098525211E+03  0.00000000000E+00 0. -1.
</event>
<event>
 8    1  0.3541538E-009  0.1018823E+03  0.7561462E-02  0.1276387E+00
         -1   -1    0    0    0  501 -0.00000000000E+00  0.00000000000E+00  0.21446290492E+03  0.21446290492E+03  0.00000000000E+00 0.  1.
          1   -1    0    0  501    0  0.00000000000E+00 -0.00000000000E+00 -0.63586385453E+02  0.63586385453E+02  0.00000000000E+00 0. -1.
         25    2    1    2    0    0 -0.26971455185E+02  0.71812628119E+01  0.12505968802E+03  0.17906240713E+03  0.12507753655E+03 0.  0.
         23    2    1    2    0    0  0.26971455185E+02 -0.71812628119E+01  0.25816831448E+02  0.98986883243E+02  0.91394006027E+02 0.  0.
          5    1    3    3  502    0 -0.26392399129E+02  0.62868451374E+02  0.90498650039E+02  0.11338641439E+03  0.41800000000E+01 0. -1.
         -5    1    3    3    0  502 -0.57905605651E+00 -0.55687188562E+02  0.34561037982E+02  0.65675992739E+02  0.41800000000E+01 0. -1.
        -11    1    4    4    0    0  0.20259164867E+02  0.33079215747E+02 -0.14693712138E+02  0.41479795708E+02  0.00000000000E+00 0. -1.
         11    1    4    4    0    0  0.67122903180E+01 -0.40260478559E+02  0.40510543587E+02  0.57507087535E+02  0.00000000000E+00 0.  1.
</event>
<event>
 8    1  0.3541538E-009  0.1078726E+03  0.7561462E-02  0.1264561E+00
          1   -1    0    0  501    0  0.00000000000E+00  0.00000000000E+00  0.98145884531E+03  0.98145884531E+03  0.00000000000E+00 0. -1.
         -1   -1    0    0    0  501 -0.00000000000E+00 -0.00000000000E+00 -0.19013948372E+02  0.19013948372E+02  0.00000000000E+00 0.  1.
         25    2    1    2    0    0 -0.43233134735E+01  0.18857167701E+02  0.83110560504E+03  0.84068969182E+03  0.12509335472E+03 0.  0.
         23    2    1    2    0    0  0.43233134735E+01 -0.18857167701E+02  0.13133929189E+03  0.15978310186E+03  0.88917637342E+02 0.  0.
          5    1    3    3  502    0 -0.56823747032E+02  0.39752514139E+02  0.42239688759E+03  0.42807219444E+03  0.41800000000E+01 0.  1.
         -5    1    3    3    0  502  0.52500433559E+02 -0.20895346438E+02  0.40870871745E+03  0.41261749738E+03  0.41800000000E+01 0.  1.
        -11    1    4    4    0    0 -0.41324762167E+02 -0.14329539747E+02  0.78046441524E+02  0.89466858177E+02  0.00000000000E+00 0. -1.
         11    1    4    4    0    0  0.45648075641E+02 -0.45276279534E+01  0.53292850371E+02  0.70316243680E+02  0.00000000000E+00 0.  1.
</event>
<event>
 8    1  0.3541538E-009  0.1694138E+03  0.7561462E-02  0.1178461E+00
          1   -1    0    0  501    0  0.00000000000E+00  0.00000000000E+00  0.25117523520E+03  0.25117523520E+03  0.00000000000E+00 0. -1.
         -1   -1    0    0    0  501 -0.00000000000E+00 -0.00000000000E+00 -0.16045289574E+03  0.16045289574E+03  0.00000000000E+00 0.  1.
         25    2    1    2    0    0 -0.10975137884E+03 -0.12824026413E+03  0.49126961342E+02  0.21575835196E+03  0.12508907871E+03 0.  0.
         23    2    1    2    0    0  0.10975137884E+03  0.12824026413E+03  0.41595378123E+02  0.19586977898E+03  0.90243361729E+02 0.  0.
          5    1    3    3  502    0 -0.58174983093E+02 -0.81610358617E+02  0.90195188607E+02  0.13489708573E+03  0.41800000000E+01 0.  1.
         -5    1    3    3    0  502 -0.51576395746E+02 -0.46629905509E+02 -0.41068227265E+02  0.80861266232E+02  0.41800000000E+01 0.  1.
        -11    1    4    4    0    0  0.29103977745E+02  0.30782401454E+02 -0.28682754765E+02  0.51159536558E+02  0.00000000000E+00 0.  1.
         11    1    4    4    0    0  0.80647401095E+02  0.97457862671E+02  0.70278132888E+02  0.14471024242E+03  0.00000000000E+00 0. -1.
</event>
<event>
 8    1  0.3541538E-009  0.9022976E+02  0.7561462E-02  0.1302296E+00
         -1   -1    0    0    0  501 -0.00000000000E+00  0.00000000000E+00  0.25505886312E+03  0.25505886312E+03  0.00000000000E+00 0.  1.
          1   -1    0    0  501    0  0.00000000000E+00 -0.00000000000E+00 -0.57581879081E+02  0.57581879081E+02  0.00000000000E+00 0. -1.
         25    2    1    2    0    0  0.46947316346E+02 -0.14745293233E+02  0.86397388232E+02  0.15979317102E+03  0.12509146504E+03 0.  0.
         23    2    1    2    0    0 -0.46947316346E+02  0.14745293233E+02  0.11107959581E+03  0.15284757118E+03  0.92748203365E+02 0.  0.
          5    1    3    3  502    0  0.33237314984E+02 -0.36444534303E+02 -0.17643206387E+02  0.52551672852E+02  0.41800000000E+01 0.  1.
         -5    1    3    3    0  502  0.13710001362E+02  0.21699241070E+02  0.10404059462E+03  0.10724149817E+03  0.41800000000E+01 0.  1.
        -11    1    4    4    0    0 -0.74696576511E+02  0.28216826384E+01  0.77151404749E+02  0.10742383204E+03  0.00000000000E+00 0.  1.
         11    1    4    4    0    0  0.27749260165E+02  0.11923610594E+02  0.33928191058E+02  0.45423739143E+02  0.00000000000E+00 0. -1.
</event>
<event>
 8    1  0.3541538E-009  0.8206804E+02  0.7561462E-02  0.1323283E+00
         -1   -1    0    0    0  501 -0.00000000000E+00  0.00000000000E+00  0.10598598490E+03  0.10598598490E+03  0.00000000000E+00 0.  1.
          1   -1    0    0  501    0  0.00000000000E+00 -0.00000000000E+00 -0.13827165641E+03  0.13827165641E+03  0.00000000000E+00 0. -1.
         25    2    1    2    0    0  0.28847327542E+02 -0.23486174237E+02 -0.58474169972E+02  0.14300562906E+03  0.12509041811E+03 0.  0.
         23    2    1    2    0    0 -0.28847327542E+02  0.23486174237E+02  0.26188498469E+02  0.10125201225E+03  0.90456419594E+02 0.  0.
          5    1    3    3  502    0  0.56889037052E+02  0.14610263442E+02 -0.72584234276E+02  0.93465318701E+02  0.41800000000E+01 0.  1.
         -5    1    3    3    0  502 -0.28041709510E+02 -0.38096437679E+02  0.14110064303E+02  0.49540310362E+02  0.41800000000E+01 0.  1.
        -11    1    4    4    0    0 -0.40506789638E+02  0.21747426850E+02  0.54074030438E+02  0.70977118490E+02  0.00000000000E+00 0.  1.
         11    1    4    4    0    0  0.11659462095E+02  0.17387473876E+01 -0.27885531970E+02  0.30274893758E+02  0.00000000000E+00 0. -1.
</event>
<event>
 8    1  0.3541538E-009  0.1258943E+03  0.7561462E-02  0.1233678E+00
         -2   -1    0    0    0  501 -0.00000000000E+00  0.00000000000E+00  0.16597653639E+03  0.16597653639E+03  0.00000000000E+00 0. -1.
          2   -1    0    0  501    0  0.00000000000E+00 -0.00000000000E+00 -0.11491528992E+03  0.11491528992E+03  0.00000000000E+00 0.  1.
         25    2    1    2    0    0  0.64290202411E+02 -0.43280747116E+02  0.65728404550E+02  0.16116530639E+03  0.12509028588E+03 0.  0.
         23    2    1    2    0    0 -0.64290202411E+02  0.43280747116E+02 -0.14667158080E+02  0.11972651993E+03  0.90071420837E+02 0.  0.
          5    1    3    3  502    0  0.20587886085E+02  0.36512414528E+02  0.55271111845E+02  0.69493781539E+02  0.41800000000E+01 0. -1.
         -5    1    3    3    0  502  0.43702316327E+02 -0.79793161644E+02  0.10457292706E+02  0.91671524849E+02  0.41800000000E+01 0. -1.
        -11    1    4    4    0    0 -0.47545667689E+02  0.71448209904E+02 -0.13960947516E+02  0.86950245946E+02  0.00000000000E+00 0.  1.
         11    1    4    4    0    0 -0.16744534722E+02 -0.28167462788E+02 -0.70621056351E+00  0.32776273985E+02  0.00000000000E+00 0. -1.
</event>
<event>
 8    1  0.3541538E-009  0.9348218E+02  0.7561462E-02  0.1294632E+00
         -1   -1    0    0    0  501 -0.00000000000E+00  0.00000000000E+00  0.69459387001E+02  0.69459387001E+02  0.00000000000E+00 0.  1.
          1   -1    0    0  501    0  0.00000000000E+00 -0.00000000000E+00 -0.21648936422E+03  0.21648936422E+03  0.00000000000E+00 0. -1.
         25    2    1    2    0    0 -0.42588399597E+02 -0.28736929740E+02 -0.10298511815E+03  0.16997540143E+03  0.12508444995E+03 0.  0.
         23    2    1    2    0    0  0.42588399597E+02  0.28736929740E+02 -0.44044859073E+02  0.11597334980E+03  0.94182192276E+02 0.  0.
          5    1    3    3  502    0 -0.85799317466E+02 -0.58656712467E+01 -0.67913031949E+02  0.10966121140E+03  0.41800000000E+01 0.  1.
         -5    1    3    3    0  502  0.43210917869E+02 -0.22871258493E+02 -0.35072086202E+02  0.60314190028E+02  0.41800000000E+01 0.  1.
        -11    1    4    4    0    0  0.83359832686E+01  0.89790374809E+01  0.29793051808E+02  0.32213935916E+02  0.00000000000E+00 0.  1.
         11    1    4    4    0    0  0.34252416328E+02  0.19757892259E+02 -0.73837910881E+02  0.83759413883E+02  0.00000000000E+00 0. -1.
</event>
<event>
 8    1  0.3541538E-009  0.1051270E+03  0.7561462E-02  0.1269870E+00
         -2   -1    0    0    0  501 -0.00000000000E+00  0.00000000000E+00  0.14738020134E+03  0.14738020134E+03  0.00000000000E+00 0.  1.
          2   -1    0    0  501    0  0.00000000000E+00 -0.00000000000E+00 -0.85943919895E+02  0.85943919895E+02  0.00000000000E+00 0. -1.
         25    2    1    2    0    0 -0.13754762237E+02 -0.33848322992E+01 -0.88070735289E+00  0.12589550914E+03  0.12509297743E+03 0.  0.
         23    2    1    2    0    0  0.13754762237E+02  0.33848322992E+01  0.62316988796E+02  0.10742861209E+03  0.86353048758E+02 0.  0.
          5    1    3    3  502    0  0.49746724513E+01 -0.62963965587E+02 -0.64563621748E+00  0.63301639588E+02  0.41800000000E+01 0. -1.
         -5    1    3    3    0  502 -0.18729434688E+02  0.59579133288E+02 -0.23507113541E+00  0.62593869552E+02  0.41800000000E+01 0. -1.
        -11    1    4    4    0    0  0.28868072214E+02 -0.33665611750E+02  0.46899336589E+02  0.64546779783E+02  0.00000000000E+00 0.  1.
         11    1    4    4    0    0 -0.15113309977E+02  0.37050444049E+02  0.15417652207E+02  0.42881832310E+02  0.00000000000E+00 0. -1.
</event>
<event>
 8    1  0.3541538E-009  0.9540751E+02  0.7561462E-02  0.1290261E+00
         -4   -1    0    0    0  501 -0.00000000000E+00  0.00000000000E+00  0.21977830471E+03  0.21977830471E+03  0.00000000000E+00 0. -1.
          4   -1    0    0  501    0  0.00000000000E+00 -0.00000000000E+00 -0.71711705034E+02  0.71711705034E+02  0.00000000000E+00 0.  1.
         25    2    1    2    0    0 -0.35108895306E+02  0.23760344898E+02  0.13634002832E+03  0.18982448336E+03  0.12509013806E+03 0.  0.
         23    2    1    2    0    0  0.35108895306E+02 -0.23760344898E+02  0.11726571358E+02  0.10166552639E+03  0.91657941614E+02 0.  0.
          5    1    3    3  502    0  0.15299147849E+02 -0.19086439985E+02 -0.11837751674E+02  0.27494742787E+02  0.41800000000E+01 0. -1.
         -5    1    3    3    0  502 -0.50408043156E+02  0.42846784883E+02  0.14817778000E+03  0.16232974057E+03  0.41800000000E+01 0. -1.
        -11    1    4    4    0    0 -0.27810504841E+02 -0.24083998362E+02  0.12150069892E+02  0.38743868612E+02  0.00000000000E+00 0.  1.
         11    1    4    4    0    0  0.62919400147E+02  0.32365346394E+00 -0.42349853423E+00  0.62921657778E+02  0.00000000000E+00 0. -1.
</event>
<event>
 8    1  0.3541538E-009  0.9709270E+02  0.7561462E-02  0.1286531E+00
         -1   -1    0    0    0  501 -0.00000000000E+00  0.00000000000E+00  0.50735959159E+02  0.50735959159E+02  0.00000000000E+00 0.  1.
          1   -1    0    0  501    0  0.00000000000E+00 -0.00000000000E+00 -0.27101522534E+03  0.27101522534E+03  0.00000000000E+00 0. -1.
         25    2    1    2    0    0 -0.34087936647E+02 -0.28692087658E+02 -0.13512295199E+03  0.18944978798E+03  0.12509111356E+03 0.  0.
         23    2    1    2    0    0  0.34087936647E+02  0.28692087658E+02 -0.85156314187E+02  0.13230139651E+03  0.90922155468E+02 0.  0.
          5    1    3    3  502    0 -0.81568289342E+02 -0.22367468589E+02 -0.84418339790E+02  0.11957264725E+03  0.41800000000E+01 0.  1.
         -5    1    3    3    0  502  0.47480352695E+02 -0.63246190684E+01 -0.50704612203E+02  0.69877140733E+02  0.41800000000E+01 0.  1.
        -11    1    4    4    0    0  0.11045721547E+02 -0.10959616124E+02 -0.85028505898E+02  0.86440545841E+02  0.00000000000E+00 0. -1.
         11    1    4    4    0    0  0.23042215100E+02  0.39651703782E+02 -0.12780828844E+00  0.45860850673E+02  0.00000000000E+00 0.  1.
</event>
<event>
 8    1  0.3541538E-009  0.1662017E+03  0.7561462E-02  0.1181868E+00
         -1   -1    0    0    0  501 -0.00000000000E+00  0.00000000000E+00  0.11569062621E+03  0.11569062621E+03  0.00000000000E+00 0.  1.
          1   -1    0    0  501    0  0.00000000000E+00 -0.00000000000E+00 -0.26480334644E+03  0.26480334644E+03  0.00000000000E+00 0. -1.
         25    2    1    2    0    0  0.12196960963E+03  0.62596174444E+02 -0.72153582140E+02  0.19911685489E+03  0.12508603343E+03 0.  0.
         23    2    1    2    0    0 -0.12196960963E+03 -0.62596174444E+02 -0.76959138094E+02  0.18137711776E+03  0.90443812292E+02 0.  0.
          5    1    3    3  502    0 -0.25960138951E+02  0.11295099998E+02 -0.68915428293E+01  0.29435928062E+02  0.41800000000E+01 0. -1.
         -5    1    3    3    0  502  0.14792974858E+03  0.51301074445E+02 -0.65262039311E+02  0.16968092683E+03  0.41800000000E+01 0. -1.
        -11    1    4    4    0    0 -0.58573754227E+02 -0.73215561859E+00  0.74138576967E+01  0.59045626612E+02  0.00000000000E+00 0.  1.
         11    1    4    4    0    0 -0.63395855407E+02 -0.61864018825E+02 -0.84372995791E+02  0.12233149115E+03  0.00000000000E+00 0. -1.
</event>
<event>
 8    1  0.3541538E-009  0.1527113E+03  0.7561462E-02  0.1197180E+00
          1   -1    0    0  501    0  0.00000000000E+00  0.00000000000E+00  0.12803968403E+03  0.12803968403E+03  0.00000000000E+00 0. -1.
         -1   -1    0    0    0  501 -0.00000000000E+00 -0.00000000000E+00 -0.23234484686E+03  0.23234484686E+03  0.00000000000E+00 0.  1.
         25    2    1    2    0    0  0.10826827593E+03  0.73230054135E+02 -0.83290357865E+02  0.19916968796E+03  0.12508645205E+03 0.  0.
         23    2    1    2    0    0 -0.10826827593E+03 -0.73230054135E+02 -0.21014804969E+02  0.16121484293E+03  0.91999691033E+02 0.  0.
          5    1    3    3  502    0  0.84536912594E+02 -0.29106485118E+01 -0.84029158820E+02  0.11930353472E+03  0.41800000000E+01 0. -1.
         -5    1    3    3    0  502  0.23731363336E+02  0.76140702647E+02  0.73880095522E+00  0.79866153233E+02  0.41800000000E+01 0. -1.
        -11    1    4    4    0    0 -0.86426149717E+02 -0.28350532311E+02  0.23925904156E+02  0.94051480195E+02  0.00000000000E+00 0. -1.
         11    1    4    4    0    0 -0.21842126214E+02 -0.44879521825E+02 -0.44940709125E+02  0.67163362731E+02  0.00000000000E+00 0.  1.
</event>
<event>
 8    1  0.3541538E-009  0.1135163E+03  0.7561462E-02  0.1254193E+00
          2   -1    0    0  501    0  0.00000000000E+00  0.00000000000E+00  0.83473614883E+03  0.83473614883E+03  0.00000000000E+00 0. -1.
         -2   -1    0    0    0  501 -0.00000000000E+00 -0.00000000000E+00 -0.17726923867E+02  0.17726923867E+02  0.00000000000E+00 0.  1.
         25    2    1    2    0    0  0.42254709568E+02  0.32310709895E+02  0.52323452971E+03  0.54060119497E+03  0.12508331811E+03 0.  0.
         23    2    1    2    0    0 -0.42254709568E+02 -0.32310709895E+02  0.29377469525E+03  0.31186187772E+03  0.90137765406E+02 0.  0.
          5    1    3    3  502    0  0.13635855573E+02  0.73801315223E+02  0.40634722249E+03  0.41324098092E+03  0.41800000000E+01 0. -1.
         -5    1    3    3    0  502  0.28618853995E+02 -0.41490605328E+02  0.11688730721E+03  0.12736021405E+03  0.41800000000E+01 0. -1.
        -11    1    4    4    0    0 -0.67007497440E+02 -0.36314096181E+02  0.25060829967E+03  0.26194128761E+03  0.00000000000E+00 0.  1.
         11    1    4    4    0    0  0.24752787872E+02  0.40033862862E+01  0.43166395586E+02  0.49920590112E+02  0.00000000000E+00 0. -1.
</event>
<event>
 8    1  0.3541538E-009  0.8410579E+02  0.7561462E-02  0.1317788E+00
          2   -1    0    0  501    0  0.00000000000E+00  0.00000000000E+00  0.19140040300E+03  0.19140040300E+03  0.00000000000E+00 0. -1.
         -2   -1    0    0    0  501 -0.00000000000E+00 -0.00000000000E+00 -0.82865185089E+02  0.82865185089E+02  0.00000000000E+00 0.  1.
         25    2    1    2    0    0 -0.31217578361E+02 -0.13506128302E+02  0.11537191492E+03  0.17353617633E+03  0.12508866073E+03 0.  0.
         23    2    1    2    0    0  0.31217578361E+02  0.13506128302E+02 -0.68366970140E+01  0.10072941175E+03  0.94565962512E+02 0.  0.
          5    1    3    3  502    0  0.79836998460E+01  0.19079001874E+02 -0.19846800080E+02  0.28967492973E+02  0.41800000000E+01 0.  1.
         -5    1    3    3    0  502 -0.39201278207E+02 -0.32585130175E+02  0.13521871500E+03  0.14456868336E+03  0.41800000000E+01 0.  1.
        -11    1    4    4    0    0  0.60443567060E+02 -0.61314592548E+01 -0.18711952436E+02  0.63570093248E+02  0.00000000000E+00 0. -1.
         11    1    4    4    0    0 -0.29225988699E+02  0.19637587557E+02  0.11875255422E+02  0.37159318506E+02  0.00000000000E+00 0.  1.
</event>
<event>
 8    1  0.3541538E-009  0.1128791E+03  0.7561462E-02  0.1255329E+00
          1   -1    0    0  501    0  0.00000000000E+00  0.00000000000E+00  0.17158893142E+03  0.17158893142E+03  0.00000000000E+00 0. -1.
         -1   -1    0    0    0  501 -0.00000000000E+00 -0.00000000000E+00 -0.91901752523E+02  0.91901752523E+02  0.00000000000E+00 0.  1.
         25    2    1    2    0    0 -0.82874041136E+00 -0.56136421048E+02  0.11533005840E+02  0.13759330221E+03  0.12508765731E+03 0.  0.
         23    2    1    2    0    0  0.82874041136E+00  0.56136421048E+02  0.68154173056E+02  0.12589738173E+03  0.89739483192E+02 0.  0.
          5    1    3    3  502    0 -0.83203356219E+01 -0.89415518888E+02  0.34463533861E+02  0.96278609094E+02  0.41800000000E+01 0.  1.
         -5    1    3    3    0  502  0.74915952105E+01  0.33279097840E+02 -0.22930528022E+02  0.41314693115E+02  0.41800000000E+01 0.  1.
        -11    1    4    4    0    0 -0.37604737311E+02  0.56276591549E+01  0.43583632910E+02  0.57838740248E+02  0.00000000000E+00 0. -1.
         11    1    4    4    0    0  0.38433477722E+02  0.50508761893E+02  0.24570540145E+02  0.68058641485E+02  0.00000000000E+00 0.  1.
</event>
<event>
 8    1  0.3541538E-009  0.2432813E+03  0.7561462E-02  0.1117626E+00
         -2   -1    0    0    0  501 -0.00000000000E+00  0.00000000000E+00  0.22075064575E+03  0.22075064575E+03  0.00000000000E+00 0.  1.
          2   -1    0    0  501    0  0.00000000000E+00 -0.00000000000E+00 -0.29905455847E+03  0.29905455847E+03  0.00000000000E+00 0. -1.
         25    2    1    2    0    0 -0.15658289784E+02 -0.22121628237E+03 -0.11055104651E+03  0.27758009727E+03  0.12508937162E+03 0.  0.
         23    2    1    2    0    0  0.15658289784E+02  0.22121628237E+03  0.32247133788E+02  0.24222510695E+03  0.91930947869E+02 0.  0.
          5    1    3    3  502    0  0.52508305510E+02 -0.11059623539E+03 -0.35825942593E+02  0.12763079563E+03  0.41800000000E+01 0.  1.
         -5    1    3    3    0  502 -0.68166595294E+02 -0.11062004697E+03 -0.74725103917E+02  0.14994930164E+03  0.41800000000E+01 0.  1.
        -11    1    4    4    0    0  0.44419569101E+02  0.99065827998E+02  0.41877734584E+02  0.11636529143E+03  0.00000000000E+00 0.  1.
         11    1    4    4    0    0 -0.28761279317E+02  0.12215045437E+03 -0.96306007967E+01  0.12585981552E+03  0.00000000000E+00 0. -1.
</event>
<event>
 8    1  0.3541538E-009  0.1481033E+03  0.7561462E-02  0.1202823E+00
          2   -1    0    0  501    0  0.00000000000E+00  0.00000000000E+00  0.12696277427E+04  0.12696277427E+04  0.00000000000E+00 0. -1.
         -2   -1    0    0    0  501 -0.00000000000E+00 -0.00000000000E+00 -0.21027306306E+02  0.21027306306E+02  0.00000000000E+00 0.  1.
         25    2    1    2    0    0  0.19479769399E+02 -0.11820860460E+03  0.73886644306E+03  0.75889704152E+03  0.12509341839E+03 0.  0.
         23    2    1    2    0    0 -0.19479769399E+02  0.11820860460E+03  0.50973399333E+03  0.53175800749E+03  0.92655809052E+02 0.  0.
          5    1    3    3  502    0 -0.28405444343E+02 -0.11985930111E+03  0.57800495549E+03  0.59099942665E+03  0.41800000000E+01 0. -1.
         -5    1    3    3    0  502  0.47885213742E+02  0.16506965090E+01  0.16086148757E+03  0.16789761486E+03  0.41800000000E+01 0. -1.
        -11    1    4    4    0    0  0.56767975734E+00  0.91317932331E+02  0.47412619674E+03  0.48284048863E+03  0.00000000000E+00 0. -1.
         11    1    4    4    0    0 -0.20047449156E+02  0.26890672273E+02  0.35607796589E+02  0.48917518855E+02  0.00000000000E+00 0.  1.
</event>
<event>
 8    1  0.3541538E-009  0.2245209E+03  0.7561462E-02  0.1130557E+00
         -1   -1    0    0    0  501 -0.00000000000E+00  0.00000000000E+00  0.14402536590E+03  0.14402536590E+03  0.00000000000E+00 0.  1.
          1   -1    0    0  501    0  0.00000000000E+00 -0.00000000000E+00 -0.43558283782E+03  0.43558283782E+03  0.00000000000E+00 0. -1.
         25    2    1    2    0    0  0.19161563783E+03  0.11486910156E+03 -0.15726422506E+03  0.30048437092E+03  0.12508939816E+03 0.  0.
         23    2    1    2    0    0 -0.19161563783E+03 -0.11486910156E+03 -0.13429324686E+03  0.27912383280E+03  0.99819711141E+02 0.  0.
          5    1    3    3  502    0  0.82775969531E+02  0.33761727789E+02  0.40910596804E+01  0.89587524602E+02  0.41800000000E+01 0. -1.
         -5    1    3    3    0  502  0.10883966829E+03  0.81107373774E+02 -0.16135528474E+03  0.21089684632E+03  0.41800000000E+01 0. -1.
        -11    1    4    4    0    0 -0.17583828674E+02 -0.65819777912E+01  0.16231745801E+02  0.24819005504E+02  0.00000000000E+00 0.  1.
         11    1    4    4    0    0 -0.17403180915E+03 -0.10828712377E+03 -0.15052499266E+03  0.25430482729E+03  0.00000000000E+00 0. -1.
</event>
<event>
 8    1  0.3541538E-009  0.1347725E+03  0.7561462E-02  0.1220541E+00
         -2   -1    0    0    0  501 -0.00000000000E+00  0.00000000000E+00  0.36983501869E+02  0.36983501869E+02  0.00000000000E+00 0.  1.
          2   -1    0    0  501    0  0.00000000000E+00 -0.00000000000E+00 -0.52572237352E+03  0.52572237352E+03  0.00000000000E+00 0. -1.
         25    2    1    2    0    0  0.94075867553E+01 -0.83261432783E+02 -0.24085791946E+03  0.28404356039E+03  0.12508892018E+03 0.  0.
         23    2    1    2    0    0 -0.94075867553E+01  0.83261432783E+02 -0.24788095219E+03  0.27866231500E+03  0.95847537611E+02 0.  0.
          5    1    3    3  502    0 -0.42279443043E+02  0.10159911749E+02 -0.72391888667E+02  0.84550772058E+02  0.41800000000E+01 0. -1.
         -5    1    3    3    0  502  0.51687029799E+02 -0.93421344532E+02 -0.16846603079E+03  0.19949278833E+03  0.41800000000E+01 0. -1.
        -11    1    4    4    0    0  0.37604993453E+02  0.42929124874E+02 -0.16894530675E+03  0.17832431681E+03  0.00000000000E+00 0. -1.
         11    1    4    4    0    0 -0.47012580208E+02  0.40332307909E+02 -0.78935645444E+02  0.10033799819E+03  0.00000000000E+00 0.  1.
</event>
<event>
 8    1  0.3541538E-009  0.1174782E+03  0.7561462E-02  0.1247316E+00
          3   -1    0    0  501    0  0.00000000000E+00  0.00000000000E+00  0.64354440381E+02  0.64354440381E+02  0.00000000000E+00 0. -1.
         -3   -1    0    0    0  501 -0.00000000000E+00 -0.00000000000E+00 -0.35948859609E+03  0.35948859609E+03  0.00000000000E+00 0.  1.
         25    2    1    2    0    0 -0.40415116637E+02 -0.44891390683E+02 -0.37385306195E+02  0.14385257461E+03  0.12508910221E+03 0.  0.
         23    2    1    2    0    0  0.40415116637E+02  0.44891390683E+02 -0.25774884951E+03  0.27999046186E+03  0.91167816135E+02 0.  0.
          5    1    3    3  502    0 -0.70579769782E+02 -0.59695550639E+02 -0.52920881228E+02  0.10659809913E+03  0.41800000000E+01 0.  1.
         -5    1    3    3    0  502  0.30164653145E+02  0.14804159955E+02  0.15535575033E+02  0.37254475475E+02  0.41800000000E+01 0.  1.
        -11    1    4    4    0    0  0.43783354202E+02 -0.16713500893E+02 -0.12827862057E+03  0.13657132830E+03  0.00000000000E+00 0.  1.
         11    1    4    4    0    0 -0.33682375656E+01  0.61604891576E+02 -0.12947022894E+03  0.14341913356E+03  0.00000000000E+00 0. -1.
</event>
<event>
 8    1  0.3541538E-009  0.1635935E+03  0.7561462E-02  0.1184698E+00
          2   -1    0    0  501    0  0.00000000000E+00  0.00000000000E+00  0.18246791181E+03  0.18246791181E+03  0.00000000000E+00 0. -1.
         -2   -1    0    0    0  501 -0.00000000000E+00 -0.00000000000E+00 -0.23243827781E+03  0.23243827781E+03  0.00000000000E+00 0.  1.
         25    2    1    2    0    0 -0.15118767163E+03 -0.43180492014E+02  0.55006773506E+02  0.20831607178E+03  0.12509026215E+03 0.  0.
         23    2    1    2    0    0  0.15118767163E+03  0.43180492014E+02 -0.10497713951E+03  0.20659011784E+03  0.83288714881E+02 0.  0.
          5    1    3    3  502    0 -0.15162960543E+03 -0.28092439989E+02  0.33136485712E+01  0.15430221999E+03  0.41800000000E+01 0. -1.
         -5    1    3    3    0  502  0.44193379694E+00 -0.15088052025E+02  0.51693124935E+02  0.54013851787E+02  0.41800000000E+01 0. -1.
        -11    1    4    4    0    0  0.95474050185E+02  0.25869614868E+02 -0.16015768476E+02  0.10020497030E+03  0.00000000000E+00 0.  1.
         11    1    4    4    0    0  0.55713621446E+02  0.17310877146E+02 -0.88961371034E+02  0.10638514755E+03  0.00000000000E+00 0. -1.
</event>
<event>
 8    1  0.3541538E-009  0.9617866E+02  0.7561462E-02  0.1288543E+00
         -2   -1    0    0    0  501 -0.00000000000E+00  0.00000000000E+00  0.25452717632E+02  0.25452717632E+02  0.00000000000E+00 0.  1.
          2   -1    0    0  501    0  0.00000000000E+00 -0.00000000000E+00 -0.57854056488E+03  0.57854056488E+03  0.00000000000E+00 0. -1.
         25    2    1    2    0    0 -0.40953527890E+02 -0.19932810752E+02 -0.37395755412E+03  0.39694562992E+03  0.12508825857E+03 0.  0.
         23    2    1    2    0    0  0.40953527890E+02  0.19932810752E+02 -0.17913029312E+03  0.20704765259E+03  0.93308949940E+02 0.  0.
          5    1    3    3  502    0 -0.15086366669E+02 -0.60732831973E+02 -0.95202676433E+02  0.11400481279E+03  0.41800000000E+01 0. -1.
         -5    1    3    3    0  502 -0.25867161221E+02  0.40800021221E+02 -0.27875487769E+03  0.28294081713E+03  0.41800000000E+01 0. -1.
        -11    1    4    4    0    0  0.22902673081E+02  0.44863031770E+02 -0.16619564578E+03  0.17366121251E+03  0.00000000000E+00 0. -1.
         11    1    4    4    0    0  0.18050854809E+02 -0.24930221019E+02 -0.12934647337E+02  0.33386440079E+02  0.00000000000E+00 0.  1.
</event>
<event>
 8    1  0.3541538E-009  0.1201335E+03  0.7561462E-02  0.1242877E+00
         -1   -1    0    0    0  501 -0.00000000000E+00  0.00000000000E+00  0.23638900997E+03  0.23638900997E+03  0.00000000000E+00 0. -1.
          1   -1    0    0  501    0  0.00000000000E+00 -0.00000000000E+00 -0.81905190071E+02  0.81905190071E+02  0.00000000000E+00 0.  1.
         25    2    1    2    0    0  0.29951663518E+02 -0.68719092591E+02  0.36473988500E+02  0.15032427059E+03  0.12509044191E+03 0.  0.
         23    2    1    2    0    0 -0.29951663518E+02  0.68719092591E+02  0.11800983140E+03  0.16796992946E+03  0.93102959461E+02 0.  0.
          5    1    3    3  502    0 -0.38383982694E+02 -0.25695940736E+02  0.50158542663E+02  0.68315176205E+02  0.41800000000E+01 0.  1.
         -5    1    3    3    0  502  0.68335646212E+02 -0.43023151855E+02 -0.13684554163E+02  0.82009094382E+02  0.41800000000E+01 0.  1.
        -11    1    4    4    0    0  0.97619866684E+01  0.72481933353E+02  0.10076856412E+03  0.12451196955E+03  0.00000000000E+00 0. -1.
         11    1    4    4    0    0 -0.39713650186E+02 -0.37628407621E+01  0.17241267277E+02  0.43457959904E+02  0.00000000000E+00 0.  1.
</event>
<event>
 8    1  0.3541538E-009  0.1128285E+03  0.7561462E-02  0.1255420E+00
          2   -1    0    0  501    0  0.00000000000E+00  0.00000000000E+00  0.29867772336E+04  0.29867772336E+04  0.00000000000E+00 0. -1.
         -2   -1    0    0    0  501 -0.00000000000E+00 -0.00000000000E+00 -0.94515990399E+01  0.94515990399E+01  0.00000000000E+00 0.  1.
         25    2    1    2    0    0 -0.41009812208E+02 -0.15921076950E+02  0.26198824375E+04  0.26232356739E+04  0.12508448728E+03 0.  0.
         23    2    1    2    0    0  0.41009812208E+02  0.15921076950E+02  0.35744319706E+03  0.37299315877E+03  0.97071993777E+02 0.  0.
          5    1    3    3  502    0 -0.13418248319E+02 -0.64247108905E+02  0.19222990992E+04  0.19234237806E+04  0.41800000000E+01 0.  1.
         -5    1    3    3    0  502 -0.27591563889E+02  0.48326031955E+02  0.69758333830E+03  0.69981189332E+03  0.41800000000E+01 0.  1.
        -11    1    4    4    0    0  0.33109453475E+02 -0.37533842446E+02  0.21223897847E+03  0.21806056319E+03  0.00000000000E+00 0.  1.
         11    1    4    4    0    0  0.79003587327E+01  0.53454919396E+02  0.14520421860E+03  0.15493259558E+03  0.00000000000E+00 0. -1.
</event>
<event>
 8    1  0.3541538E-009  0.9499818E+02  0.7561462E-02  0.1291180E+00
         -1   -1    0    0    0  501 -0.00000000000E+00  0.00000000000E+00  0.47129060100E+02  0.47129060100E+02  0.00000000000E+00 0.  1.
          1   -1    0    0  501    0  0.00000000000E+00 -0.00000000000E+00 -0.36811565641E+03  0.36811565641E+03  0.00000000000E+00 0. -1.
         25    2    1    2    0    0  0.22762730052E+02 -0.48775501954E+02 -0.10178825312E+03  0.17001726841E+03  0.12509129311E+03 0.  0.
         23    2    1    2    0    0 -0.22762730052E+02  0.48775501954E+02 -0.21919834318E+03  0.24522744810E+03  0.95871769450E+02 0.  0.
          5    1    3    3  502    0  0.31196701556E+02 -0.88729065858E+02 -0.79998915381E+02  0.12354505323E+03  0.41800000000E+01 0.  1.
         -5    1    3    3    0  502 -0.84339715044E+01  0.39953563904E+02 -0.21789337742E+02  0.46472215174E+02  0.41800000000E+01 0.  1.
        -11    1    4    4    0    0 -0.19906545374E+02  0.31291797317E+02 -0.22385806038E+03  0.22690940555E+03  0.00000000000E+00 0. -1.
         11    1    4    4    0    0 -0.28561846778E+01  0.17483704638E+02  0.46597171953E+01  0.18318042557E+02  0.00000000000E+00 0.  1.
</event>
<event>
 8    1  0.3541538E-009  0.1032327E+03  0.7561462E-02  0.1273641E+00
         -2   -1    0    0    0  501 -0.00000000000E+00  0.00000000000E+00  0.68939978388E+02  0.68939978388E+02  0.00000000000E+00 0.  1.
          2   -1    0    0  501    0  0.00000000000E+00 -0.00000000000E+00 -0.34687452451E+03  0.34687452451E+03  0.00000000000E+00 0. -1.
         25    2    1    2    0    0 -0.84008918527E+02  0.43239647894E+01 -0.24332555294E+03  0.28623737843E+03  0.12509323336E+03 0.  0.
         23    2    1    2    0    0  0.84008918527E+02 -0.43239647894E+01 -0.34608993181E+02  0.12957712447E+03  0.92283550609E+02 0.  0.
          5    1    3    3  502    0  0.11859660336E+02  0.14866768247E+02  0.47479971492E+01  0.20042161019E+02  0.41800000000E+01 0. -1.
         -5    1    3    3    0  502 -0.95868578862E+02 -0.10542803458E+02 -0.24807355009E+03  0.26619521741E+03  0.41800000000E+01 0. -1.
        -11    1    4    4    0    0  0.32772849079E+02  0.14546424075E+02 -0.59580028364E+02  0.69537312789E+02  0.00000000000E+00 0. -1.
         11    1    4    4    0    0  0.51236069448E+02 -0.18870388865E+02  0.24971035183E+02  0.60039811679E+02  0.00000000000E+00 0.  1.
</event>
<event>
 8    1  0.3541538E-009  0.1398062E+03  0.7561462E-02  0.1213590E+00
          1   -1    0    0  501    0  0.00000000000E+00  0.00000000000E+00  0.91541624375E+02  0.91541624375E+02  0.00000000000E+00 0. -1.
         -1   -1    0    0    0  501 -0.00000000000E+00 -0.00000000000E+00 -0.30984436025E+03  0.30984436025E+03  0.00000000000E+00 0.  1.
         25    2    1    2    0    0  0.53709641143E+02  0.11083098358E+03 -0.15962071437E+03  0.23726441450E+03  0.12508955775E+03 0.  0.
         23    2    1    2    0    0 -0.53709641143E+02 -0.11083098358E+03 -0.58682021502E+02  0.16412157012E+03  0.91236383407E+02 0.  0.
          5    1    3    3  502    0  0.82326984359E+01  0.48380490706E+02  0.10515201587E+02  0.50363588722E+02  0.41800000000E+01 0. -1.
         -5    1    3    3    0  502  0.45476942707E+02  0.62450492878E+02 -0.17013591596E+03  0.18690082578E+03  0.41800000000E+01 0. -1.
        -11    1    4    4    0    0 -0.75335128840E+02 -0.55461324819E+02 -0.40695832284E+02  0.10201711108E+03  0.00000000000E+00 0. -1.
         11    1    4    4    0    0  0.21625487697E+02 -0.55369658765E+02 -0.17986189218E+02  0.62104459039E+02  0.00000000000E+00 0.  1.
</event>
<event>
 8    1  0.3541538E-009  0.1326230E+03  0.7561462E-02  0.1223615E+00
          1   -1    0    0  501    0  0.00000000000E+00  0.00000000000E+00  0.51041564513E+03  0.51041564513E+03  0.00000000000E+00 0. -1.
         -1   -1    0    0    0  501 -0.00000000000E+00 -0.00000000000E+00 -0.52521011816E+02  0.52521011816E+02  0.00000000000E+00 0.  1.
         25    2    1    2    0    0 -0.51015345158E+02  0.86099704686E+02  0.36679767195E+03  0.40025572023E+03  0.12509350438E+03 0.  0.
         23    2    1    2    0    0  0.51015345158E+02 -0.86099704686E+02  0.91096961359E+02  0.16268093672E+03  0.90281261696E+02 0.  0.
          5    1    3    3  502    0  0.31252441751E+02 -0.99956011817E+01  0.63236829097E+02  0.71365230418E+02  0.41800000000E+01 0.  1.
         -5    1    3    3    0  502 -0.82267786909E+02  0.96095305868E+02  0.30356084285E+03  0.32889048981E+03  0.41800000000E+01 0.  1.
        -11    1    4    4    0    0  0.12782373497E+02 -0.54557380648E+02 -0.32266019928E+01  0.56127602976E+02  0.00000000000E+00 0.  1.
         11    1    4    4    0    0  0.38232971660E+02 -0.31542324038E+02  0.94323563352E+02  0.10655333374E+03  0.00000000000E+00 0. -1.
</event>
<event>
 8    1  0.3541538E-009  0.1003400E+03  0.7561462E-02  0.1279583E+00
          1   -1    0    0  501    0  0.00000000000E+00  0.00000000000E+00  0.13146079998E+03  0.13146079998E+03  0.00000000000E+00 0. -1.
         -1   -1    0    0    0  501 -0.00000000000E+00 -0.00000000000E+00 -0.11791397708E+03  0.11791397708E+03  0.00000000000E+00 0.  1.
         25    2    1    2    0    0  0.16745220975E+02 -0.15351474884E+02 -0.45747971885E+02  0.13511667834E+03  0.12509024593E+03 0.  0.
         23    2    1    2    0    0 -0.16745220975E+02  0.15351474884E+02  0.59294794776E+02  0.11425809872E+03  0.94989316398E+02 0.  0.
          5    1    3    3  502    0 -0.30043147259E+02 -0.39818793738E+02 -0.62028105576E+02  0.79706243879E+02  0.41800000000E+01 0.  1.
         -5    1    3    3    0  502  0.46788368234E+02  0.24467318853E+02  0.16280133691E+02  0.55410434458E+02  0.41800000000E+01 0.  1.
        -11    1    4    4    0    0  0.10473489356E+02  0.51418362392E+02  0.32627694725E+02  0.61790844252E+02  0.00000000000E+00 0.  1.
         11    1    4    4    0    0 -0.27218710331E+02 -0.36066887508E+02  0.26667100051E+02  0.52467254471E+02  0.00000000000E+00 0. -1.
</event>
<event>
 8    1  0.3541538E-009  0.1293668E+03  0.7561462E-02  0.1228398E+00
          2   -1    0    0  501    0  0.00000000000E+00  0.00000000000E+00  0.37877027739E+03  0.37877027739E+03  0.00000000000E+00 0. -1.
         -2   -1    0    0    0  501 -0.00000000000E+00 -0.00000000000E+00 -0.48935283814E+02  0.48935283814E+02  0.00000000000E+00 0.  1.
         25    2    1    2    0    0 -0.30461233455E+02  0.76639691171E+02  0.17419061552E+03  0.22975663146E+03  0.12507681702E+03 0.  0.
         23    2    1    2    0    0  0.30461233455E+02 -0.76639691171E+02  0.15564437805E+03  0.19794892975E+03  0.90316539799E+02 0.  0.
          5    1    3    3  502    0  0.37151079966E+02  0.65399528231E+02  0.12249628376E+03  0.14380581689E+03  0.41800000000E+01 0.  1.
         -5    1    3    3    0  502 -0.67612313421E+02  0.11240162941E+02  0.51694331760E+02  0.85950814570E+02  0.41800000000E+01 0.  1.
        -11    1    4    4    0    0  0.91629933551E+00  0.16754216756E+02  0.55008448411E+02  0.57510631888E+02  0.00000000000E+00 0. -1.
         11    1    4    4    0    0  0.29544934120E+02 -0.93393907927E+02  0.10063592964E+03  0.14043829786E+03  0.00000000000E+00 0.  1.
</event>
<event>
 8    1  0.3541538E-009  0.1146902E+03  0.7561462E-02  0.1252123E+00
         -1   -1    0    0    0  501 -0.00000000000E+00  0.00000000000E+00  0.13225930781E+03  0.13225930781E+03  0.00000000000E+00 0.  1.
          1   -1    0    0  501    0  0.00000000000E+00 -0.00000000000E+00 -0.27512914272E+03  0.27512914272E+03  0.00000000000E+00 0. -1.
         25    2    1    2    0    0  0.87810303646E+02 -0.56768589167E+02  0.49706520587E+02  0.17044363230E+03  0.12508785496E+03 0.  0.
         23    2    1    2    0    0 -0.87810303646E+02  0.56768589167E+02 -0.19257635550E+03  0.23694481822E+03  0.90132524898E+02 0.  0.
          5    1    3    3  502    0  0.92591407695E+02 -0.52285585960E+02 -0.13044641752E+02  0.10721280873E+03  0.41800000000E+01 0.  1.
         -5    1    3    3    0  502 -0.47811040499E+01 -0.44830032076E+01  0.62751162339E+02  0.63230823564E+02  0.41800000000E+01 0.  1.
        -11    1    4    4    0    0  0.19941705032E+01  0.16758204307E+02 -0.10161162462E+03  0.10300357462E+03  0.00000000000E+00 0. -1.
         11    1    4    4    0    0 -0.89804474149E+02  0.40010384861E+02 -0.90964730881E+02  0.13394124360E+03  0.00000000000E+00 0.  1.
</event>
<event>
 8    1  0.3541538E-009  0.1585146E+03  0.7561462E-02  0.1190384E+00
          2   -1    0    0  501    0  0.00000000000E+00  0.00000000000E+00  0.10823496364E+03  0.10823496364E+03  0.00000000000E+00 0. -1.
         -2   -1    0    0    0  501 -0.00000000000E+00 -0.00000000000E+00 -0.26035407489E+03  0.26035407489E+03  0.00000000000E+00 0.  1.
         25    2    1    2    0    0  0.48797756414E+02 -0.11762644477E+03 -0.97008837552E+02  0.20316535003E+03  0.12509293885E+03 0.  0.
         23    2    1    2    0    0 -0.48797756414E+02  0.11762644477E+03 -0.55110273698E+02  0.16542368850E+03  0.90059163389E+02 0.  0.
          5    1    3    3  502    0 -0.20319597292E+02 -0.96637447617E+02 -0.83869172991E+02  0.12962713024E+03  0.41800000000E+01 0.  1.
         -5    1    3    3    0  502  0.69117353706E+02 -0.20988997150E+02 -0.13139664561E+02  0.73538219787E+02  0.41800000000E+01 0.  1.
        -11    1    4    4    0    0 -0.30725779937E+02  0.12316025519E+03 -0.66558353051E+02  0.14332667711E+03  0.00000000000E+00 0.  1.
         11    1    4    4    0    0 -0.18071976477E+02 -0.55338104194E+01  0.11448079353E+02  0.22097011391E+02  0.00000000000E+00 0. -1.
</event>
<event>
 8    1  0.3541538E-009  0.1561766E+03  0.7561462E-02  0.1193082E+00
          2   -1    0    0  501    0  0.00000000000E+00  0.00000000000E+00  0.11491170769E+04  0.11491170769E+04  0.00000000000E+00 0. -1.
         -2   -1    0    0    0  501 -0.00000000000E+00 -0.00000000000E+00 -0.34501886316E+02  0.34501886316E+02  0.00000000000E+00 0.  1.
         25    2    1    2    0    0  0.92608609697E+02  0.12393886121E+03  0.76345082072E+03  0.78894993849E+03  0.12509058273E+03 0.  0.
         23    2    1    2    0    0 -0.92608609697E+02 -0.12393886121E+03  0.35116436987E+03  0.39466902473E+03  0.92249815745E+02 0.  0.
          5    1    3    3  502    0  0.12109542613E+02  0.25903479107E+02  0.20983813695E+02  0.35713080088E+02  0.41800000000E+01 0.  1.
         -5    1    3    3    0  502  0.80499067083E+02  0.98035382099E+02  0.74246700702E+03  0.75323685841E+03  0.41800000000E+01 0.  1.
        -11    1    4    4    0    0 -0.46318897658E+02 -0.81466095893E+02  0.10555498399E+03  0.14115246971E+03  0.00000000000E+00 0.  1.
         11    1    4    4    0    0 -0.46289712039E+02 -0.42472765313E+02  0.24560938589E+03  0.25351655502E+03  0.00000000000E+00 0. -1.
</event>
<event>
 8    1  0.3541538E-009  0.1196742E+03  0.7561462E-02  0.1243635E+00
          1   -1    0    0  501    0  0.00000000000E+00  0.00000000000E+00  0.45092294310E+03  0.45092294310E+03  0.00000000000E+00 0. -1.
         -1   -1    0    0    0  501 -0.00000000000E+00 -0.00000000000E+00 -0.33284762924E+02  0.33284762924E+02  0.00000000000E+00 0.  1.
         25    2    1    2    0    0 -0.25924337724E+01  0.59405397691E+02  0.19314624718E+03  0.23767248326E+03  0.12508802705E+03 0.  0.
         23    2    1    2    0    0  0.25924337724E+01 -0.59405397691E+02  0.22449193300E+03  0.24653522277E+03  0.82748209019E+02 0.  0.
          5    1    3    3  502    0  0.75539673641E-01  0.98587775709E+02  0.13032270418E+03  0.16346569931E+03  0.41800000000E+01 0.  1.
         -5    1    3    3    0  502 -0.26679734460E+01 -0.39182378018E+02  0.62823542998E+02  0.74206783950E+02  0.41800000000E+01 0.  1.
        -11    1    4    4    0    0  0.22031299683E+01  0.20827285451E+02  0.35500204919E+02  0.41217643676E+02  0.00000000000E+00 0.  1.
         11    1    4    4    0    0  0.38930380411E+00 -0.80232683141E+02  0.18899172808E+03  0.20531757909E+03  0.00000000000E+00 0. -1.
</event>
<event>
 8    1  0.3541538E-009  0.1886603E+03  0.7561462E-02  0.1159675E+00
         -1   -1    0    0    0  501 -0.00000000000E+00  0.00000000000E+00  0.29429594864E+02  0.29429594864E+02  0.00000000000E+00 0.  1.
          1   -1    0    0  501    0  0.00000000000E+00 -0.00000000000E+00 -0.17857754741E+04  0.17857754741E+04  0.00000000000E+00 0. -1.
         25    2    1    2    0    0  0.13807438575E+03 -0.97889190075E+02 -0.13427909618E+04  0.13591852975E+04  0.12510106458E+03 0.  0.
         23    2    1    2    0    0 -0.13807438575E+03  0.97889190075E+02 -0.41355491745E+03  0.45601977146E+03  0.90991937454E+02 0.  0.
          5    1    3    3  502    0  0.99864372439E+01 -0.77170278245E+02 -0.40240023289E+03  0.40987607957E+03  0.41800000000E+01 0. -1.
         -5    1    3    3    0  502  0.12808794851E+03 -0.20718911830E+02 -0.94039072889E+03  0.94930921793E+03  0.41800000000E+01 0. -1.
        -11    1    4    4    0    0 -0.10240149534E+03  0.78057218615E+02 -0.38565088422E+03  0.40657791396E+03  0.00000000000E+00 0. -1.
         11    1    4    4    0    0 -0.35672890408E+02  0.19831971460E+02 -0.27904033235E+02  0.49441857498E+02  0.00000000000E+00 0.  1.
</event>
<event>
 8    1  0.3541538E-009  0.1353176E+03  0.7561462E-02  0.1219772E+00
          1   -1    0    0  501    0  0.00000000000E+00  0.00000000000E+00  0.13666021251E+03  0.13666021251E+03  0.00000000000E+00 0. -1.
         -1   -1    0    0    0  501 -0.00000000000E+00 -0.00000000000E+00 -0.32494977493E+03  0.32494977493E+03  0.00000000000E+00 0.  1.
         25    2    1    2    0    0 -0.66651496845E+02 -0.66878877512E+02  0.70963115034E+02  0.17204849772E+03  0.12509882327E+03 0.  0.
         23    2    1    2    0    0  0.66651496845E+02  0.66878877512E+02 -0.25925267745E+03  0.28956148972E+03  0.87856128269E+02 0.  0.
          5    1    3    3  502    0 -0.86218863315E+02 -0.80744667941E+02  0.83450557977E+02  0.14468884483E+03  0.41800000000E+01 0. -1.
         -5    1    3    3    0  502  0.19567366470E+02  0.13865790430E+02 -0.12487442943E+02  0.27359652886E+02  0.41800000000E+01 0. -1.
        -11    1    4    4    0    0  0.63909670253E+02  0.86908075149E+02 -0.20475042340E+03  0.23143075716E+03  0.00000000000E+00 0.  1.
         11    1    4    4    0    0  0.27418265919E+01 -0.20029197638E+02 -0.54502254054E+02  0.58130732560E+02  0.00000000000E+00 0. -1.
</event>
<event>
 8    1  0.3541538E-009  0.1898520E+03  0.7561462E-02  0.1158595E+00
         -4   -1    0    0    0  501 -0.00000000000E+00  0.00000000000E+00  0.32096746547E+03  0.32096746547E+03  0.00000000000E+00 0.  1.
          4   -1    0    0  501    0  0.00000000000E+00 -0.00000000000E+00 -0.13111955746E+03  0.13111955746E+03  0.00000000000E+00 0. -1.
         25    2    1    2    0    0  0.10079612168E+03 -0.14201920023E+03  0.96139792889E+02  0.23499167821E+03  0.12509563410E+03 0.  0.
         23    2    1    2    0    0 -0.10079612168E+03  0.14201920023E+03  0.93708115114E+02  0.21709534472E+03  0.89553707242E+02 0.  0.
          5    1    3    3  502    0  0.75681061480E+02 -0.14316118821E+03  0.30844522270E+02  0.16489877450E+03  0.41800000000E+01 0. -1.
         -5    1    3    3    0  502  0.25115060202E+02  0.11419879805E+01  0.65295270619E+02  0.70092903712E+02  0.41800000000E+01 0. -1.
        -11    1    4    4    0    0 -0.72697240315E+02  0.33342144619E+02  0.59708951730E+02  0.99808548101E+02  0.00000000000E+00 0.  1.
         11    1    4    4    0    0 -0.28098881366E+02  0.10867705561E+03  0.33999163384E+02  0.11728679662E+03  0.00000000000E+00 0. -1.
</event>
<event>
 8    1  0.3541538E-009  0.8083722E+02  0.7561462E-02  0.1326692E+00
         -2   -1    0    0    0  501 -0.00000000000E+00  0.00000000000E+00  0.21585854966E+02  0.21585854966E+02  0.00000000000E+00 0.  1.
          2   -1    0    0  501    0  0.00000000000E+00 -0.00000000000E+00 -0.83146739323E+03  0.83146739323E+03  0.00000000000E+00 0. -1.
         25    2    1    2    0    0 -0.42030068316E+02 -0.87023683172E+01 -0.65440224292E+03  0.66763197130E+03  0.12509154931E+03 0.  0.
         23    2    1    2    0    0  0.42030068316E+02  0.87023683172E+01 -0.15547929534E+03  0.18542127689E+03  0.91460268902E+02 0.  0.
          5    1    3    3  502    0 -0.49402198043E+02 -0.16231197689E+01 -0.65470870407E+03  0.65658523535E+03  0.41800000000E+01 0.  1.
         -5    1    3    3    0  502  0.73721297268E+01 -0.70792485484E+01  0.30646115558E+00  0.11046735950E+02  0.41800000000E+01 0.  1.
        -11    1    4    4    0    0  0.37891570403E+02 -0.38280151272E+02 -0.82049778914E+02  0.98149413187E+02  0.00000000000E+00 0. -1.
         11    1    4    4    0    0  0.41384979132E+01  0.46982519590E+02 -0.73429516428E+02  0.87271863707E+02  0.00000000000E+00 0.  1.
</event>
<event>
 8    1  0.3541538E-009  0.1035272E+03  0.7561462E-02  0.1273049E+00
         -4   -1    0    0    0  501 -0.00000000000E+00  0.00000000000E+00  0.52591976486E+03  0.52591976486E+03  0.00000000000E+00 0. -1.
          4   -1    0    0  501    0  0.00000000000E+00 -0.00000000000E+00 -0.27108413087E+02  0.27108413087E+02  0.00000000000E+00 0.  1.
         25    2    1    2    0    0 -0.12929946422E+02  0.10974871370E+02  0.38155490703E+03  0.40189056106E+03  0.12507695500E+03 0.  0.
         23    2    1    2    0    0  0.12929946422E+02 -0.10974871370E+02  0.11725644474E+03  0.15113761688E+03  0.93839618972E+02 0.  0.
          5    1    3    3  502    0  0.27462756583E+02  0.49501288411E+02  0.10147895750E+03  0.11627567144E+03  0.41800000000E+01 0.  1.
         -5    1    3    3    0  502 -0.40392703004E+02 -0.38526417040E+02  0.28007594953E+03  0.28561488962E+03  0.41800000000E+01 0.  1.
        -11    1    4    4    0    0 -0.37452561374E+02  0.11455302825E+02  0.59905858667E+02  0.71572552133E+02  0.00000000000E+00 0. -1.
         11    1    4    4    0    0  0.50382507795E+02 -0.22430174195E+02  0.57350586072E+02  0.79565064752E+02  0.00000000000E+00 0.  1.
</event>
<event>
 8    1  0.3541538E-009  0.9333924E+02  0.7561462E-02  0.1294961E+00
         -1   -1    0    0    0  501 -0.00000000000E+00  0.00000000000E+00  0.16516505368E+03  0.16516505368E+03  0.00000000000E+00 0.  1.
          1   -1    0    0  501    0  0.00000000000E+00 -0.00000000000E+00 -0.88910798974E+02  0.88910798974E+02  0.00000000000E+00 0. -1.
         25    2    1    2    0    0  0.53896278894E+02  0.59673246110E+01  0.49003991593E+02  0.14487703446E+03  0.12509015181E+03 0.  0.
         23    2    1    2    0    0 -0.53896278894E+02 -0.59673246110E+01  0.27250263110E+02  0.10919881819E+03  0.90782086415E+02 0.  0.
          5    1    3    3  502    0 -0.18327138907E+02  0.10081278933E+02 -0.30556010506E+02  0.37264706942E+02  0.41800000000E+01 0.  1.
         -5    1    3    3    0  502  0.72223417800E+02 -0.41139543218E+01  0.79560002099E+02  0.10761232751E+03  0.41800000000E+01 0.  1.
        -11    1    4    4    0    0 -0.64383937175E+02 -0.26662242579E+02  0.42323281880E+02  0.81531752922E+02  0.00000000000E+00 0.  1.
         11    1    4    4    0    0  0.10487658282E+02  0.20694917968E+02 -0.15073018770E+02  0.27667065272E+02  0.00000000000E+00 0. -1.
</event>
<event>
 8    1  0.3541538E-009  0.9941364E+02  0.7561462E-02  0.1281534E+00
         -1   -1    0    0    0  501 -0.00000000000E+00  0.00000000000E+00  0.12657150458E+03  0.12657150458E+03  0.00000000000E+00 0.  1.
          1   -1    0    0  501    0  0.00000000000E+00 -0.00000000000E+00 -0.12790541059E+03  0.12790541059E+03  0.00000000000E+00 0. -1.
         25    2    1    2    0    0 -0.24551330391E+02 -0.61897642266E+02  0.10119392935E+01  0.14171412926E+03  0.12509110467E+03 0.  0.
         23    2    1    2    0    0  0.24551330391E+02  0.61897642266E+02 -0.23458453010E+01  0.11276278591E+03  0.90971737122E+02 0.  0.
          5    1    3    3  502    0  0.19540995529E+02  0.69652601033E+01  0.44302859444E+02  0.49097669084E+02  0.41800000000E+01 0.  1.
         -5    1    3    3    0  502 -0.44092325920E+02 -0.68862902369E+02 -0.43290920151E+02  0.92616460174E+02  0.41800000000E+01 0.  1.
        -11    1    4    4    0    0 -0.16950415352E+02  0.49731316211E+02  0.28375701704E+02  0.59713489597E+02  0.00000000000E+00 0.  1.
         11    1    4    4    0    0  0.41501745743E+02  0.12166326055E+02 -0.30721547005E+02  0.53049296317E+02  0.00000000000E+00 0. -1.
</event>
<event>
 8    1  0.3541538E-009  0.2100705E+03  0.7561462E-02  0.1141510E+00
         -1   -1    0    0    0  501 -0.00000000000E+00  0.00000000000E+00  0.65154139797E+02  0.65154139797E+02  0.00000000000E+00 0.  1.
          1   -1    0    0  501    0  0.00000000000E+00 -0.00000000000E+00 -0.75576967560E+03  0.75576967560E+03  0.00000000000E+00 0. -1.
         25    2    1    2    0    0  0.18890786556E+02  0.18707240128E+03 -0.44411999001E+03  0.49823962485E+03  0.12508882086E+03 0.  0.
         23    2    1    2    0    0 -0.18890786556E+02 -0.18707240128E+03 -0.24649554579E+03  0.32268419055E+03  0.89510265303E+02 0.  0.
          5    1    3    3  502    0 -0.48396720453E+02  0.37642867620E+02 -0.13539745935E+03  0.14869153450E+03  0.41800000000E+01 0.  1.
         -5    1    3    3    0  502  0.67287507009E+02  0.14942953366E+03 -0.30872253066E+03  0.34954809035E+03  0.41800000000E+01 0.  1.
        -11    1    4    4    0    0 -0.36422974466E+02 -0.13381273992E+03 -0.11653350718E+03  0.18114232175E+03  0.00000000000E+00 0.  1.
         11    1    4    4    0    0  0.17532187911E+02 -0.53259661365E+02 -0.12996203862E+03  0.14154186880E+03  0.00000000000E+00 0. -1.
</event>
<event>
 8    1  0.3541538E-009  0.1039220E+03  0.7561462E-02  0.1272258E+00
         -3   -1    0    0    0  501 -0.00000000000E+00  0.00000000000E+00  0.52147030401E+03  0.52147030401E+03  0.00000000000E+00 0.  1.
          3   -1    0    0  501    0  0.00000000000E+00 -0.00000000000E+00 -0.25491656552E+02  0.25491656552E+02  0.00000000000E+00 0. -1.
         25    2    1    2    0    0  0.71049960805E+01 -0.40749201602E+02  0.30890409621E+03  0.33583509210E+03  0.12510991179E+03 0.  0.
         23    2    1    2    0    0 -0.71049960805E+01  0.40749201602E+02  0.18707455125E+03  0.21112686846E+03  0.88694354170E+02 0.  0.
          5    1    3    3  502    0 -0.47743790654E+02 -0.14086276375E+02  0.23340865194E+03  0.23869428969E+03  0.41800000000E+01 0.  1.
         -5    1    3    3    0  502  0.54848786734E+02 -0.26662925228E+02  0.75495444270E+02  0.97140802413E+02  0.41800000000E+01 0.  1.
        -11    1    4    4    0    0  0.29870023703E+02  0.50364841020E+02  0.97300427576E+02  0.11356147557E+03  0.00000000000E+00 0. -1.
         11    1    4    4    0    0 -0.36975019784E+02 -0.96156394173E+01  0.89774123672E+02  0.97565392893E+02  0.00000000000E+00 0.  1.
</event>
<event>
 8    1  0.3541538E-009  0.1079947E+03  0.7561462E-02  0.1264329E+00
         -1   -1    0    0    0  501 -0.00000000000E+00  0.00000000000E+00  0.81263380356E+02  0.81263380356E+02  0.00000000000E+00 0.  1.
          1   -1    0    0  501    0  0.00000000000E+00 -0.00000000000E+00 -0.40876891351E+03  0.40876891351E+03  0.00000000000E+00 0. -1.
         25    2    1    2    0    0  0.23898508961E+02  0.54484159414E+01 -0.36641217617E+03  0.38795417019E+03  0.12509888632E+03 0.  0.
         23    2    1    2    0    0 -0.23898508961E+02 -0.54484159414E+01  0.38906643019E+02  0.10207812367E+03  0.91133926143E+02 0.  0.
          5    1    3    3  502    0  0.46435265177E+02 -0.47962752491E+02 -0.15767487460E+03  0.17127608695E+03  0.41800000000E+01 0.  1.
         -5    1    3    3    0  502 -0.22536756216E+02  0.53411168432E+02 -0.20873730157E+03  0.21667808325E+03  0.41800000000E+01 0.  1.
        -11    1    4    4    0    0  0.70034812200E+01 -0.42305477078E+02  0.48729180540E+01  0.43157241228E+02  0.00000000000E+00 0.  1.
         11    1    4    4    0    0 -0.30901990181E+02  0.36857061137E+02  0.34033724965E+02  0.58920882442E+02  0.00000000000E+00 0. -1.
</event>
<event>
 8    1  0.3541538E-009  0.1163903E+03  0.7561462E-02  0.1249173E+00
         -1   -1    0    0    0  501 -0.00000000000E+00  0.00000000000E+00  0.42287103733E+03  0.42287103733E+03  0.00000000000E+00 0.  1.
          1   -1    0    0  501    0  0.00000000000E+00 -0.00000000000E+00 -0.44199329291E+02  0.44199329291E+02  0.00000000000E+00 0. -1.
         25    2    1    2    0    0  0.32294731049E+02 -0.47451261396E+02  0.10545375456E+03  0.17338618401E+03  0.12509077742E+03 0.  0.
         23    2    1    2    0    0 -0.32294731049E+02  0.47451261396E+02  0.27321795349E+03  0.29368418261E+03  0.91147008441E+02 0.  0.
          5    1    3    3  502    0  0.31606676510E+02  0.33186649622E+02  0.73136076762E+02  0.86410033198E+02  0.41800000000E+01 0. -1.
         -5    1    3    3    0  502  0.68805453848E+00 -0.80637911018E+02  0.32317677793E+02  0.86976150813E+02  0.41800000000E+01 0. -1.
        -11    1    4    4    0    0 -0.62771188672E+02  0.22696093889E+02  0.14577351813E+03  0.16032857946E+03  0.00000000000E+00 0. -1.
         11    1    4    4    0    0  0.30476457623E+02  0.24755167507E+02  0.12744443536E+03  0.13335560315E+03  0.00000000000E+00 0.  1.
</event>
<event>
 8    1  0.3541538E-009  0.1112413E+03  0.7561462E-02  0.1258288E+00
          2   -1    0    0  501    0  0.00000000000E+00  0.00000000000E+00  0.49311862706E+03  0.49311862706E+03  0.00000000000E+00 0. -1.
         -2   -1    0    0    0  501 -0.00000000000E+00 -0.00000000000E+00 -0.28179750368E+02  0.28179750368E+02  0.00000000000E+00 0.  1.
         25    2    1    2    0    0  0.32975408644E+02  0.27102150511E+02  0.33514640593E+03  0.36026775041E+03  0.12509130442E+03 0.  0.
         23    2    1    2    0    0 -0.32975408644E+02 -0.27102150511E+02  0.12979247077E+03  0.16103062702E+03  0.85222492529E+02 0.  0.
          5    1    3    3  502    0 -0.41118925415E+02 -0.12350882462E+02  0.71047364352E+02  0.83117451274E+02  0.41800000000E+01 0. -1.
         -5    1    3    3    0  502  0.74094334060E+02  0.39453032973E+02  0.26409904158E+03  0.27715029914E+03  0.41800000000E+01 0. -1.
        -11    1    4    4    0    0  0.26717240375E+02 -0.23358357394E+02  0.46921688993E+02  0.58830848127E+02  0.00000000000E+00 0. -1.
         11    1    4    4    0    0 -0.59692649019E+02 -0.37437931174E+01  0.82870781772E+02  0.10219977889E+03  0.00000000000E+00 0.  1.
</event>
<event>
 8    1  0.3541538E-009  0.2272452E+03  0.7561462E-02  0.1128594E+00
          1   -1    0    0  501    0  0.00000000000E+00  0.00000000000E+00  0.31618785898E+03  0.31618785898E+03  0.00000000000E+00 0. -1.
         -1   -1    0    0    0  501 -0.00000000000E+00 -0.00000000000E+00 -0.28876670381E+03  0.28876670381E+03  0.00000000000E+00 0.  1.
         25    2    1    2    0    0 -0.57423403440E+02 -0.20842111321E+03 -0.16575599608E+03  0.29976481094E+03  0.12508830459E+03 0.  0.
         23    2    1    2    0    0  0.57423403440E+02  0.20842111321E+03  0.19317715125E+03  0.30518975186E+03  0.95323476522E+02 0.  0.
          5    1    3    3  502    0 -0.51044165971E+02 -0.91681626326E+02 -0.14794516977E+03  0.18142842430E+03  0.41800000000E+01 0. -1.
         -5    1    3    3    0  502 -0.63792374697E+01 -0.11673948689E+03 -0.17810826308E+02  0.11833638664E+03  0.41800000000E+01 0. -1.
        -11    1    4    4    0    0  0.79879411270E+02  0.15094067384E+03  0.16459059223E+03  0.23717898392E+03  0.00000000000E+00 0.  1.
         11    1    4    4    0    0 -0.22456007829E+02  0.57480439375E+02  0.28586559024E+02  0.68010767935E+02  0.00000000000E+00 0. -1.
</event>
<event>
 8    1  0.3541538E-009  0.9572167E+02  0.7561462E-02  0.1289559E+00
          1   -1    0    0  501    0  0.00000000000E+00  0.00000000000E+00  0.34042787413E+03  0.34042787413E+03  0.00000000000E+00 0. -1.
         -1   -1    0    0    0  501 -0.00000000000E+00 -0.00000000000E+00 -0.40795208625E+02  0.40795208625E+02  0.00000000000E+00 0.  1.
         25    2    1    2    0    0 -0.48857648075E+01 -0.42887587293E+02  0.15678970655E+03  0.20516744852E+03  0.12508978379E+03 0.  0.
         23    2    1    2    0    0  0.48857648075E+01  0.42887587293E+02  0.14284295896E+03  0.17605563424E+03  0.93425154978E+02 0.  0.
          5    1    3    3  502    0 -0.25655179950E+02  0.33220581653E+02  0.97997025976E+02  0.10668966587E+03  0.41800000000E+01 0. -1.
         -5    1    3    3    0  502  0.20769415142E+02 -0.76108168946E+02  0.58792680574E+02  0.98477782645E+02  0.41800000000E+01 0. -1.
        -11    1    4    4    0    0 -0.48122895448E+01 -0.12831044571E+02 -0.73618807886E+01  0.15556063905E+02  0.00000000000E+00 0.  1.
         11    1    4    4    0    0  0.96980543523E+01  0.55718631864E+02  0.15020483974E+03  0.16049957033E+03  0.00000000000E+00 0. -1.
</event>
<event>
 8    1  0.3541538E-009  0.9676982E+02  0.7561462E-02  0.1287239E+00
          2   -1    0    0  501    0  0.00000000000E+00  0.00000000000E+00  0.36139594737E+03  0.36139594737E+03  0.00000000000E+00 0. -1.
         -2   -1    0    0    0  501 -0.00000000000E+00 -0.00000000000E+00 -0.45679079469E+02  0.45679079469E+02  0.00000000000E+00 0.  1.
         25    2    1    2    0    0  0.62700124076E+02  0.14681441073E+02  0.13855865036E+03  0.19746600191E+03  0.12508985590E+03 0.  0.
         23    2    1    2    0    0 -0.62700124076E+02 -0.14681441073E+02  0.17715821755E+03  0.20960902494E+03  0.91673654989E+02 0.  0.
          5    1    3    3  502    0 -0.88679984196E+01  0.44862871295E+02  0.96760429739E+01  0.46929913961E+02  0.41800000000E+01 0.  1.
         -5    1    3    3    0  502  0.71568122496E+02 -0.30181430221E+02  0.12888260738E+03  0.15053608794E+03  0.41800000000E+01 0.  1.
        -11    1    4    4    0    0 -0.48899591658E+02 -0.22658003856E+02  0.18439044550E+03  0.19210515765E+03  0.00000000000E+00 0. -1.
         11    1    4    4    0    0 -0.13800532418E+02  0.79765627828E+01 -0.72322279535E+01  0.17503867288E+02  0.00000000000E+00 0.  1.
</event>
<event>
 8    1  0.3541538E-009  0.1696473E+03  0.7561462E-02  0.1178216E+00
          4   -1    0    0  501    0  0.00000000000E+00  0.00000000000E+00  0.11917974497E+04  0.11917974497E+04  0.00000000000E+00 0. -1.
         -4   -1    0    0    0  501 -0.00000000000E+00 -0.00000000000E+00 -0.30794817934E+02  0.30794817934E+02  0.00000000000E+00 0.  1.
         25    2    1    2    0    0 -0.14992605538E+03 -0.49165297193E+02  0.63336533603E+03  0.66460064293E+03  0.12508923682E+03 0.  0.
         23    2    1    2    0    0  0.14992605538E+03  0.49165297193E+02  0.52763729569E+03  0.55799162466E+03  0.89769086294E+02 0.  0.
          5    1    3    3  502    0 -0.82013948643E+02 -0.19406305676E+02  0.53359154144E+03  0.54022245230E+03  0.41800000000E+01 0. -1.
         -5    1    3    3    0  502 -0.67912106739E+02 -0.29758991518E+02  0.99773794596E+02  0.12437819064E+03  0.41800000000E+01 0. -1.
        -11    1    4    4    0    0  0.92833583523E+02  0.73676187920E+02  0.31924553265E+03  0.34053482203E+03  0.00000000000E+00 0.  1.
         11    1    4    4    0    0  0.57092471859E+02 -0.24510890727E+02  0.20839176303E+03  0.21745680262E+03  0.00000000000E+00 0. -1.
</event>
<event>
 8    1  0.3541538E-009  0.1033105E+03  0.7561462E-02  0.1273484E+00
          2   -1    0    0  501    0  0.00000000000E+00  0.00000000000E+00  0.50863303166E+03  0.50863303166E+03  0.00000000000E+00 0. -1.
         -2   -1    0    0    0  501 -0.00000000000E+00 -0.00000000000E+00 -0.32531225570E+02  0.32531225570E+02  0.00000000000E+00 0.  1.
         25    2    1    2    0    0 -0.20457754835E+02 -0.66552480085E+02  0.27864025152E+03  0.31326721581E+03  0.12509279115E+03 0.  0.
         23    2    1    2    0    0  0.20457754835E+02  0.66552480085E+02  0.19746155457E+03  0.22789704142E+03  0.89990241781E+02 0.  0.
          5    1    3    3  502    0  0.33036872447E+02 -0.62600128426E+02  0.23019324063E+03  0.24086637676E+03  0.41800000000E+01 0.  1.
         -5    1    3    3    0  502 -0.53494627282E+02 -0.39523516591E+01  0.48447010889E+02  0.72400839054E+02  0.41800000000E+01 0.  1.
        -11    1    4    4    0    0  0.17426240387E+02  0.22878986159E+01 -0.25801852730E+01  0.17764168715E+02  0.00000000000E+00 0.  1.
         11    1    4    4    0    0  0.30315144481E+01  0.64264581469E+02  0.20004173984E+03  0.21013287270E+03  0.00000000000E+00 0. -1.
</event>
<event>
 8    1  0.3541538E-009  0.1808669E+03  0.7561462E-02  0.1166967E+00
          1   -1    0    0  501    0  0.00000000000E+00  0.00000000000E+00  0.37898697333E+03  0.37898697333E+03  0.00000000000E+00 0. -1.
         -1   -1    0    0    0  501 -0.00000000000E+00 -0.00000000000E+00 -0.11076632487E+03  0.11076632487E+03  0.00000000000E+00 0.  1.
         25    2    1    2    0    0  0.13253744812E+03  0.50010850581E+02  0.25182569874E+03  0.31485116399E+03  0.12509121707E+03 0.  0.
         23    2    1    2    0    0 -0.13253744812E+03 -0.50010850581E+02  0.16394949722E+02  0.17490213421E+03  0.10126550175E+03 0.  0.
          5    1    3    3  502    0  0.47137525012E+02 -0.41096296677E+02  0.66903204909E+02  0.91675313427E+02  0.41800000000E+01 0. -1.
         -5    1    3    3    0  502  0.85399923112E+02  0.91107147258E+02  0.18492249383E+03  0.22317585056E+03  0.41800000000E+01 0. -1.
        -11    1    4    4    0    0 -0.49808879148E+01 -0.46233002117E+02  0.55225150637E+01  0.46827320036E+02  0.00000000000E+00 0. -1.
         11    1    4    4    0    0 -0.12755656021E+03 -0.37778484648E+01  0.10872434658E+02  0.12807481418E+03  0.00000000000E+00 0.  1.
</event>
<event>
 8    1  0.3541538E-009  0.9831806E+02  0.7561462E-02  0.1283873E+00
          3   -1    0    0  501    0  0.00000000000E+00  0.00000000000E+00  0.81245225558E+02  0.81245225558E+02  0.00000000000E+00 0. -1.
         -3   -1    0    0    0  501 -0.00000000000E+00 -0.00000000000E+00 -0.21515101235E+03  0.21515101235E+03  0.00000000000E+00 0.  1.
         25    2    1    2    0    0  0.20514361420E+02 -0.72294385184E+02 -0.65501791549E+02  0.15995862293E+03  0.12509580009E+03 0.  0.
         23    2    1    2    0    0 -0.20514361420E+02  0.72294385184E+02 -0.68403995247E+02  0.13643761498E+03  0.91042841901E+02 0.  0.
          5    1    3    3  502    0 -0.44374634192E+01 -0.36901486183E+02 -0.98495213382E+02  0.10535744028E+03  0.41800000000E+01 0. -1.
         -5    1    3    3    0  502  0.24951824839E+02 -0.35392899000E+02  0.32993421833E+02  0.54601182650E+02  0.41800000000E+01 0. -1.
        -11    1    4    4    0    0  0.15655539811E+01 -0.20390461377E+02 -0.25349481787E+01  0.20606985143E+02  0.00000000000E+00 0.  1.
         11    1    4    4    0    0 -0.22079915401E+02  0.92684846560E+02 -0.65869047068E+02  0.11583062983E+03  0.00000000000E+00 0. -1.
</event>
<event>
 8    1  0.3541538E-009  0.1384824E+03  0.7561462E-02  0.1215386E+00
         -2   -1    0    0    0  501 -0.00000000000E+00  0.00000000000E+00  0.70003586367E+02  0.70003586367E+02  0.00000000000E+00 0.  1.
          2   -1    0    0  501    0  0.00000000000E+00 -0.00000000000E+00 -0.58343582014E+03  0.58343582014E+03  0.00000000000E+00 0. -1.
         25    2    1    2    0    0 -0.10928616127E+03  0.40519247900E+02 -0.46918716874E+03  0.49936721809E+03  0.12508295129E+03 0.  0.
         23    2    1    2    0    0  0.10928616127E+03 -0.40519247900E+02 -0.44245065035E+02  0.15407218841E+03  0.90528111477E+02 0.  0.
          5    1    3    3  502    0 -0.10561941123E+03  0.54681553567E-01 -0.42986585869E+03  0.44267097475E+03  0.41800000000E+01 0. -1.
         -5    1    3    3    0  502 -0.36667500330E+01  0.40464566346E+02 -0.39321310049E+02  0.56696243344E+02  0.41800000000E+01 0. -1.
        -11    1    4    4    0    0  0.11114844632E+03 -0.23892737903E+02 -0.62150607497E+02  0.12956673206E+03  0.00000000000E+00 0. -1.
         11    1    4    4    0    0 -0.18622850536E+01 -0.16626509997E+02  0.17905542462E+02  0.24505456355E+02  0.00000000000E+00 0.  1.
</event>
<event>
 8    1  0.3541538E-009  0.1652985E+03  0.7561462E-02  0.1182841E+00
          1   -1    0    0  501    0  0.00000000000E+00  0.00000000000E+00  0.94550647516E+03  0.94550647516E+03  0.00000000000E+00 0. -1.
         -1   -1    0    0    0  501 -0.00000000000E+00 -0.00000000000E+00 -0.34267191568E+02  0.34267191568E+02  0.00000000000E+00 0.  1.
         25    2    1    2    0    0  0.12630476635E+03  0.51954231370E+02  0.35895161114E+03  0.40391261840E+03  0.12508800103E+03 0.  0.
         23    2    1    2    0    0 -0.12630476635E+03 -0.51954231370E+02  0.55228767245E+03  0.57586104833E+03  0.89118671917E+02 0.  0.
          5    1    3    3  502    0  0.77106355070E+00 -0.23269476675E+02  0.13012612269E+03  0.13225862274E+03  0.41800000000E+01 0.  1.
         -5    1    3    3    0  502  0.12553370280E+03  0.75223708046E+02  0.22882548845E+03  0.27165399565E+03  0.41800000000E+01 0.  1.
        -11    1    4    4    0    0 -0.13324341402E+03 -0.28740568895E+02  0.42619470301E+03  0.44746145371E+03  0.00000000000E+00 0.  1.
         11    1    4    4    0    0  0.69386476732E+01 -0.23213662476E+02  0.12609296944E+03  0.12839959463E+03  0.00000000000E+00 0. -1.
</event>
<event>
 8    1  0.3541538E-009  0.9579897E+02  0.7561462E-02  0.1289387E+00
          1   -1    0    0  501    0  0.00000000000E+00  0.00000000000E+00  0.37244169596E+03  0.37244169596E+03  0.00000000000E+00 0. -1.
         -1   -1    0    0    0  501 -0.00000000000E+00 -0.00000000000E+00 -0.37340465933E+02  0.37340465933E+02  0.00000000000E+00 0.  1.
         25    2    1    2    0    0  0.20493747893E+01 -0.46917075360E+01  0.10977760986E+03  0.16650969085E+03  0.12509253162E+03 0.  0.
         23    2    1    2    0    0 -0.20493747893E+01  0.46917075360E+01  0.22532362017E+03  0.24327247104E+03  0.91567184633E+02 0.  0.
          5    1    3    3  502    0 -0.48812511749E+02 -0.11776476008E+02  0.10284220168E+03  0.11452221416E+03  0.41800000000E+01 0. -1.
         -5    1    3    3    0  502  0.50861886538E+02  0.70847684719E+01  0.69354081802E+01  0.51987476695E+02  0.41800000000E+01 0. -1.
        -11    1    4    4    0    0  0.39129171955E+02  0.22148221076E+02  0.13834562489E+03  0.14546871732E+03  0.00000000000E+00 0.  1.
         11    1    4    4    0    0 -0.41178546744E+02 -0.17456513540E+02  0.86977995286E+02  0.97803753716E+02  0.00000000000E+00 0. -1.
</event>
<event>
 8    1  0.3541538E-009  0.1475827E+03  0.7561462E-02  0.1203475E+00
         -1   -1    0    0    0  501 -0.00000000000E+00  0.00000000000E+00  0.99961441676E+02  0.99961441676E+02  0.00000000000E+00 0.  1.
          1   -1    0    0  501    0  0.00000000000E+00 -0.00000000000E+00 -0.24963318104E+03  0.24963318104E+03  0.00000000000E+00 0. -1.
         25    2    1    2    0    0 -0.11355567420E+03 -0.10805919835E+02 -0.74050958935E+02  0.18477719196E+03  0.12508959630E+03 0.  0.
         23    2    1    2    0    0  0.11355567420E+03  0.10805919835E+02 -0.75620780433E+02  0.16481743076E+03  0.91840209073E+02 0.  0.
          5    1    3    3  502    0 -0.45159405375E+02 -0.53105021701E+02  0.74154402943E+01  0.70228031288E+02  0.41800000000E+01 0. -1.
         -5    1    3    3    0  502 -0.68396268822E+02  0.42299101867E+02 -0.81466399229E+02  0.11454916067E+03  0.41800000000E+01 0. -1.
        -11    1    4    4    0    0  0.80513630909E+02 -0.35437187097E+02 -0.57787863201E+02  0.10525053978E+03  0.00000000000E+00 0. -1.
         11    1    4    4    0    0  0.33042043289E+02  0.46243106932E+02 -0.17832917232E+02  0.59566890975E+02  0.00000000000E+00 0.  1.
</event>
<event>
 8    1  0.3541538E-009  0.1051857E+03  0.7561462E-02  0.1269754E+00
          1   -1    0    0  501    0  0.00000000000E+00  0.00000000000E+00  0.19631126427E+03  0.19631126427E+03  0.00000000000E+00 0. -1.
         -1   -1    0    0    0  501 -0.00000000000E+00 -0.00000000000E+00 -0.71615298601E+02  0.71615298601E+02  0.00000000000E+00 0.  1.
         25    2    1    2    0    0 -0.20349849511E+02 -0.42324313195E+02  0.70426901728E+02  0.15103865586E+03  0.12508902116E+03 0.  0.
         23    2    1    2    0    0  0.20349849511E+02  0.42324313195E+02  0.54269063939E+02  0.11688790701E+03  0.92261517664E+02 0.  0.
          5    1    3    3  502    0 -0.68354990229E+02 -0.12998439480E+02  0.13699450396E+02  0.71038802490E+02  0.41800000000E+01 0. -1.
         -5    1    3    3    0  502  0.48005140718E+02 -0.29325873715E+02  0.56727451332E+02  0.79999853369E+02  0.41800000000E+01 0. -1.
        -11    1    4    4    0    0 -0.14760162180E+02  0.46605569908E+02 -0.36497808347E+01  0.49023080627E+02  0.00000000000E+00 0.  1.
         11    1    4    4    0    0  0.35110011690E+02 -0.42812567133E+01  0.57918844774E+02  0.67864826382E+02  0.00000000000E+00 0. -1.
</event>
<event>
 8    1  0.3541538E-009  0.1705438E+03  0.7561462E-02  0.1177282E+00
         -2   -1    0    0    0  501 -0.00000000000E+00  0.00000000000E+00  0.23002527675E+03  0.23002527675E+03  0.00000000000E+00 0.  1.
          2   -1    0    0  501    0  0.00000000000E+00 -0.00000000000E+00 -0.14509101603E+03  0.14509101603E+03  0.00000000000E+00 0. -1.
         25    2    1    2    0    0 -0.13649122944E+03 -0.38624909629E+02  0.51858970206E+01  0.18920767098E+03  0.12510359656E+03 0.  0.
         23    2    1    2    0    0  0.13649122944E+03  0.38624909629E+02  0.79748363697E+02  0.18590862181E+03  0.89891461178E+02 0.  0.
          5    1    3    3  502    0 -0.75550504591E+01 -0.44795188945E+02  0.33981598461E+02  0.56885052289E+02  0.41800000000E+01 0.  1.
         -5    1    3    3    0  502 -0.12893617898E+03  0.61702793155E+01 -0.28795701440E+02  0.13232261869E+03  0.41800000000E+01 0.  1.
        -11    1    4    4    0    0  0.11700925039E+03  0.64747660585E+02  0.73935663632E+02  0.15280676223E+03  0.00000000000E+00 0. -1.
         11    1    4    4    0    0  0.19481979049E+02 -0.26122750956E+02  0.58127000652E+01  0.33101859574E+02  0.00000000000E+00 0.  1.
</event>
<event>
 8    1  0.3541538E-009  0.8800068E+02  0.7561462E-02  0.1307767E+00
          2   -1    0    0  501    0  0.00000000000E+00  0.00000000000E+00  0.36404939133E+03  0.36404939133E+03  0.00000000000E+00 0.  1.
         -2   -1    0    0    0  501 -0.00000000000E+00 -0.00000000000E+00 -0.39932835044E+02  0.39932835044E+02  0.00000000000E+00 0. -1.
         25    2    1    2    0    0  0.38054092706E+01 -0.38268682432E+02  0.12075982658E+03  0.17807120749E+03  0.12508975189E+03 0.  0.
         23    2    1    2    0    0 -0.38054092706E+01  0.38268682432E+02  0.20335672972E+03  0.22591101888E+03  0.90569618185E+02 0.  0.
          5    1    3    3  502    0  0.39869480746E+02  0.13146022692E+02  0.10504175859E+03  0.11319733590E+03  0.41800000000E+01 0.  1.
         -5    1    3    3    0  502 -0.36064071475E+02 -0.51414705124E+02  0.15718067986E+02  0.64873871593E+02  0.41800000000E+01 0.  1.
        -11    1    4    4    0    0  0.23729484155E+02  0.32549005763E-02  0.81462367753E+01  0.25088834219E+02  0.00000000000E+00 0. -1.
         11    1    4    4    0    0 -0.27534893426E+02  0.38265427532E+02  0.19521049294E+03  0.20082218467E+03  0.00000000000E+00 0.  1.
</event>
<event>
 8    1  0.3541538E-009  0.1226665E+03  0.7561462E-02  0.1238762E+00
         -2   -1    0    0    0  501 -0.00000000000E+00  0.00000000000E+00  0.15126023905E+03  0.15126023905E+03  0.00000000000E+00 0.  1.
          2   -1    0    0  501    0  0.00000000000E+00 -0.00000000000E+00 -0.15674818842E+03  0.15674818842E+03  0.00000000000E+00 0. -1.
         25    2    1    2    0    0 -0.56696142225E+01  0.94626494224E+02  0.51122734580E+02  0.16507262456E+03  0.12509644061E+03 0.  0.
         23    2    1    2    0    0  0.56696142225E+01 -0.94626494224E+02 -0.56610683952E+02  0.14293580290E+03  0.90772001624E+02 0.  0.
          5    1    3    3  502    0 -0.47416897987E+02  0.48578925351E+02  0.72313123212E+02  0.99272022200E+02  0.41800000000E+01 0.  1.
         -5    1    3    3    0  502  0.41747283765E+02  0.46047568873E+02 -0.21190388632E+02  0.65800602362E+02  0.41800000000E+01 0.  1.
        -11    1    4    4    0    0  0.31464411997E+02 -0.23226985576E+02  0.11688349882E+02  0.40818128377E+02  0.00000000000E+00 0.  1.
         11    1    4    4    0    0 -0.25794797774E+02 -0.71399508648E+02 -0.68299033834E+02  0.10211767452E+03  0.00000000000E+00 0. -1.
</event>
<event>
 8    1  0.3541538E-009  0.1459543E+03  0.7561462E-02  0.1205534E+00
         -2   -1    0    0    0  501 -0.00000000000E+00  0.00000000000E+00  0.98158532479E+02  0.98158532479E+02  0.00000000000E+00 0.  1.
          2   -1    0    0  501    0  0.00000000000E+00 -0.00000000000E+00 -0.30240071506E+03  0.30240071506E+03  0.00000000000E+00 0. -1.
         25    2    1    2    0    0 -0.54556313478E+02  0.84232266389E+02 -0.67369148669E+01  0.16051184778E+03  0.12508877333E+03 0.  0.
         23    2    1    2    0    0  0.54556313478E+02 -0.84232266389E+02 -0.19750526772E+03  0.24004739977E+03  0.92428119729E+02 0.  0.
          5    1    3    3  502    0  0.32792120092E+02  0.54888296178E+02  0.14864287628E+02  0.65775889535E+02  0.41800000000E+01 0. -1.
         -5    1    3    3    0  502 -0.87348433570E+02  0.29343970211E+02 -0.21601202495E+02  0.94735958242E+02  0.41800000000E+01 0. -1.
        -11    1    4    4    0    0 -0.11570362787E+02 -0.65990584866E+02 -0.11090580336E+03  0.12957132323E+03  0.00000000000E+00 0. -1.
         11    1    4    4    0    0  0.66126676264E+02 -0.18241681523E+02 -0.86599464359E+02  0.11047607653E+03  0.00000000000E+00 0.  1.
</event>
<event>
 8    1  0.3541538E-009  0.2556039E+03  0.7561462E-02  0.1109814E+00
          2   -1    0    0  501    0  0.00000000000E+00  0.00000000000E+00  0.43156395663E+03  0.43156395663E+03  0.00000000000E+00 0.  1.
         -2   -1    0    0    0  501 -0.00000000000E+00 -0.00000000000E+00 -0.15329939316E+03  0.15329939316E+03  0.00000000000E+00 0. -1.
         25    2    1    2    0    0 -0.19188793901E+03  0.13176802421E+03  0.14726190000E+03  0.30251914892E+03  0.12509186596E+03 0.  0.
         23    2    1    2    0    0  0.19188793901E+03 -0.13176802421E+03  0.13100266347E+03  0.28234420087E+03  0.91502768199E+02 0.  0.
          5    1    3    3  502    0 -0.77664940550E+02  0.12525146758E+03  0.62818143820E+02  0.16026030299E+03  0.41800000000E+01 0.  1.
         -5    1    3    3    0  502 -0.11422299846E+03  0.65165566313E+01  0.84443756184E+02  0.14225884593E+03  0.41800000000E+01 0.  1.
        -11    1    4    4    0    0  0.93716138970E+02 -0.11716621674E+03  0.89980908810E+02  0.17494913832E+03  0.00000000000E+00 0.  1.
         11    1    4    4    0    0  0.98171800041E+02 -0.14601807464E+02  0.41021754661E+02  0.10739506255E+03  0.00000000000E+00 0. -1.
</event>
<event>
 8    1  0.3541538E-009  0.1289369E+03  0.7561462E-02  0.1229042E+00
          3   -1    0    0  501    0  0.00000000000E+00  0.00000000000E+00  0.25992875059E+02  0.25992875059E+02  0.00000000000E+00 0. -1.
         -3   -1    0    0    0  501 -0.00000000000E+00 -0.00000000000E+00 -0.70682537476E+03  0.70682537476E+03  0.00000000000E+00 0.  1.
         25    2    1    2    0    0 -0.21329306258E+01  0.79067690930E+02 -0.37536887714E+03  0.40349340629E+03  0.12509550692E+03 0.  0.
         23    2    1    2    0    0  0.21329306258E+01 -0.79067690930E+02 -0.30546362255E+03  0.32932484352E+03  0.94289865391E+02 0.  0.
          5    1    3    3  502    0  0.35439234376E+02  0.90445843046E+02 -0.32649996528E+03  0.34067005972E+03  0.41800000000E+01 0. -1.
         -5    1    3    3    0  502 -0.37572165002E+02 -0.11378152115E+02 -0.48868911860E+02  0.62823346575E+02  0.41800000000E+01 0. -1.
        -11    1    4    4    0    0 -0.24697971607E+02  0.11107994087E+02 -0.95104920993E+02  0.98885405047E+02  0.00000000000E+00 0.  1.
         11    1    4    4    0    0  0.26830902233E+02 -0.90175685017E+02 -0.21035870156E+03  0.23043943848E+03  0.00000000000E+00 0. -1.
</event>
<event>
 8    1  0.3541538E-009  0.7226701E+02  0.7561462E-02  0.1352549E+00
         -2   -1    0    0    0  501 -0.00000000000E+00  0.00000000000E+00  0.10057076399E+03  0.10057076399E+03  0.00000000000E+00 0.  1.
          2   -1    0    0  501    0  0.00000000000E+00 -0.00000000000E+00 -0.14714772595E+03  0.14714772595E+03  0.00000000000E+00 0. -1.
         25    2    1    2    0    0 -0.21905459959E+02 -0.44379126519E+02  0.43600560312E+01  0.13459320316E+03  0.12508782595E+03 0.  0.
         23    2    1    2    0    0  0.21905459959E+02  0.44379126519E+02 -0.50937017990E+02  0.11312528677E+03  0.88053362561E+02 0.  0.
          5    1    3    3  502    0  0.76330164381E+01  0.58756013943E+01 -0.52210471134E+02  0.53255904158E+02  0.41800000000E+01 0. -1.
         -5    1    3    3    0  502 -0.29538476397E+02 -0.50254727913E+02  0.56570527165E+02  0.81337299004E+02  0.41800000000E+01 0. -1.
        -11    1    4    4    0    0 -0.14346566230E+02  0.35468320977E+02  0.11872074355E+02  0.40059604404E+02  0.00000000000E+00 0.  1.
         11    1    4    4    0    0  0.36252026189E+02  0.89108055419E+01 -0.62809092346E+02  0.73065682365E+02  0.00000000000E+00 0. -1.
</event>
<event>
 8    1  0.3541538E-009  0.8715316E+02  0.7561462E-02  0.1309896E+00
         -3   -1    0    0    0  501 -0.00000000000E+00  0.00000000000E+00  0.21725925119E+02  0.21725925119E+02  0.00000000000E+00 0.  1.
          3   -1    0    0  501    0  0.00000000000E+00 -0.00000000000E+00 -0.11062029871E+04  0.11062029871E+04  0.00000000000E+00 0. -1.
         25    2    1    2    0    0  0.49374731182E+02  0.63702025247E+02 -0.84908327412E+03  0.86202448420E+03  0.12509193769E+03 0.  0.
         23    2    1    2    0    0 -0.49374731182E+02 -0.63702025247E+02 -0.23539378787E+03  0.26590442802E+03  0.93803610676E+02 0.  0.
          5    1    3    3  502    0  0.31623521256E+02  0.64416730904E+02 -0.83712390720E+03  0.84020442199E+03  0.41800000000E+01 0. -1.
         -5    1    3    3    0  502  0.17751209926E+02 -0.71470565686E+00 -0.11959366918E+02  0.21820062215E+02  0.41800000000E+01 0. -1.
        -11    1    4    4    0    0 -0.80104520338E+01 -0.29292761325E+02 -0.68749635058E+01  0.31136768153E+02  0.00000000000E+00 0.  1.
         11    1    4    4    0    0 -0.41364279148E+02 -0.34409263922E+02 -0.22851882436E+03  0.23476765987E+03  0.00000000000E+00 0. -1.
</event>
<event>
 8    1  0.3541538E-009  0.1584880E+03  0.7561462E-02  0.1190414E+00
         -3   -1    0    0    0  501 -0.00000000000E+00  0.00000000000E+00  0.10031328240E+03  0.10031328240E+03  0.00000000000E+00 0.  1.
          3   -1    0    0  501    0  0.00000000000E+00 -0.00000000000E+00 -0.37459989218E+03  0.37459989218E+03  0.00000000000E+00 0. -1.
         25    2    1    2    0    0  0.13857933952E+03 -0.31446360037E+02 -0.49446501354E+02  0.19566755909E+03  0.12509088808E+03 0.  0.
         23    2    1    2    0    0 -0.13857933952E+03  0.31446360037E+02 -0.22484010843E+03  0.27924561550E+03  0.85040769711E+02 0.  0.
          5    1    3    3  502    0  0.89864727416E+02  0.16751637265E+02  0.24532080845E+02  0.94739548105E+02  0.41800000000E+01 0. -1.
         -5    1    3    3    0  502  0.48714612104E+02 -0.48197997302E+02 -0.73978582199E+02  0.10092801098E+03  0.41800000000E+01 0. -1.
        -11    1    4    4    0    0 -0.13443124873E+03  0.45684439380E+02 -0.16539148936E+03  0.21797516691E+03  0.00000000000E+00 0.  1.
         11    1    4    4    0    0 -0.41480907891E+01 -0.14238079343E+02 -0.59448619067E+02  0.61270448582E+02  0.00000000000E+00 0. -1.
</event>
<event>
 8    1  0.3541538E-009  0.1114179E+03  0.7561462E-02  0.1257966E+00
          3   -1    0    0  501    0  0.00000000000E+00  0.00000000000E+00  0.51018361382E+03  0.51018361382E+03  0.00000000000E+00 0. -1.
         -3   -1    0    0    0  501 -0.00000000000E+00 -0.00000000000E+00 -0.32033718348E+02  0.32033718348E+02  0.00000000000E+00 0.  1.
         25    2    1    2    0    0  0.49679416812E+02 -0.13322620296E+02  0.17302651477E+03  0.21961652205E+03  0.12509078814E+03 0.  0.
         23    2    1    2    0    0 -0.49679416812E+02  0.13322620296E+02  0.30512338070E+03  0.32260081012E+03  0.91244005684E+02 0.  0.
          5    1    3    3  502    0  0.40937521035E+01 -0.57238112049E+02  0.34074879334E+02  0.66869500364E+02  0.41800000000E+01 0.  1.
         -5    1    3    3    0  502  0.45585664709E+02  0.43915491754E+02  0.13895163544E+03  0.15274702168E+03  0.41800000000E+01 0.  1.
        -11    1    4    4    0    0 -0.10800774777E+02  0.48344939377E+02  0.18615319847E+03  0.19263152183E+03  0.00000000000E+00 0. -1.
         11    1    4    4    0    0 -0.38878642036E+02 -0.35022319081E+02  0.11897018223E+03  0.12996928830E+03  0.00000000000E+00 0.  1.
</event>
<event>
 8    1  0.3541538E-009  0.1271583E+03  0.7561462E-02  0.1231734E+00
         -2   -1    0    0    0  501 -0.00000000000E+00  0.00000000000E+00  0.29836391749E+03  0.29836391749E+03  0.00000000000E+00 0.  1.
          2   -1    0    0  501    0  0.00000000000E+00 -0.00000000000E+00 -0.97110462800E+02  0.97110462800E+02  0.00000000000E+00 0. -1.
         25    2    1    2    0    0  0.11225237701E+03 -0.51336945971E+02  0.56679531197E+02  0.18465725624E+03  0.12509858057E+03 0.  0.
         23    2    1    2    0    0 -0.11225237701E+03  0.51336945971E+02  0.14457392350E+03  0.21081712405E+03  0.91138149372E+02 0.  0.
          5    1    3    3  502    0  0.50677361226E+02 -0.25894985118E+01  0.86643450399E+02  0.10049607127E+03  0.41800000000E+01 0. -1.
         -5    1    3    3    0  502  0.61575015784E+02 -0.48747447459E+02 -0.29963919201E+02  0.84161184976E+02  0.41800000000E+01 0. -1.
        -11    1    4    4    0    0 -0.74712606194E+02  0.24567974972E+02  0.14472022691E+03  0.16471036092E+03  0.00000000000E+00 0. -1.
         11    1    4    4    0    0 -0.37539770817E+02  0.26768971000E+02 -0.14630341313E+00  0.46106763127E+02  0.00000000000E+00 0.  1.
</event>
<event>
 8    1  0.3541538E-009  0.1250421E+03  0.7561462E-02  0.1235004E+00
          2   -1    0    0  501    0  0.00000000000E+00  0.00000000000E+00  0.66757418804E+03  0.66757418804E+03  0.00000000000E+00 0. -1.
         -2   -1    0    0    0  501 -0.00000000000E+00 -0.00000000000E+00 -0.23730009917E+02  0.23730009917E+02  0.00000000000E+00 0.  1.
         25    2    1    2    0    0 -0.72464572152E+00  0.63006093105E+02  0.39002109811E+03  0.41440658010E+03  0.12508422674E+03 0.  0.
         23    2    1    2    0    0  0.72464572152E+00 -0.63006093105E+02  0.25382308001E+03  0.27689761785E+03  0.90971654635E+02 0.  0.
          5    1    3    3  502    0  0.41143272826E+01 -0.38185267221E+02  0.10367870244E+03  0.11064261413E+03  0.41800000000E+01 0.  1.
         -5    1    3    3    0  502 -0.48389730041E+01  0.10119136033E+03  0.28634239567E+03  0.30376396597E+03  0.41800000000E+01 0.  1.
        -11    1    4    4    0    0  0.45355423233E+02 -0.27644317927E+02  0.10810669726E+03  0.12045073981E+03  0.00000000000E+00 0.  1.
         11    1    4    4    0    0 -0.44630777511E+02 -0.35361775178E+02  0.14571638276E+03  0.15644687804E+03  0.00000000000E+00 0. -1.
</event>
<event>
 8    1  0.3541538E-009  0.1302990E+03  0.7561462E-02  0.1227013E+00
         -2   -1    0    0    0  501 -0.00000000000E+00  0.00000000000E+00  0.23703776206E+02  0.23703776206E+02  0.00000000000E+00 0.  1.
          2   -1    0    0  501    0  0.00000000000E+00 -0.00000000000E+00 -0.82277531748E+03  0.82277531748E+03  0.00000000000E+00 0. -1.
         25    2    1    2    0    0 -0.70282150818E+02  0.32810909914E+02 -0.55587534555E+03  0.57503112538E+03  0.12508900362E+03 0.  0.
         23    2    1    2    0    0  0.70282150818E+02 -0.32810909914E+02 -0.24319619573E+03  0.27144796831E+03  0.92322658937E+02 0.  0.
          5    1    3    3  502    0 -0.10417759150E+03  0.22116944823E+02 -0.47120304421E+03  0.48310652147E+03  0.41800000000E+01 0.  1.
         -5    1    3    3    0  502  0.33895440678E+02  0.10693965091E+02 -0.84672301345E+02  0.91924603905E+02  0.41800000000E+01 0.  1.
        -11    1    4    4    0    0 -0.19042332476E+02  0.71935449637E+01 -0.65379391137E+02  0.68474975726E+02  0.00000000000E+00 0.  1.
         11    1    4    4    0    0  0.89324483294E+02 -0.40004454877E+02 -0.17781680459E+03  0.20297299259E+03  0.00000000000E+00 0. -1.
</event>
<event>
 8    1  0.3541538E-009  0.1496703E+03  0.7561462E-02  0.1200879E+00
          4   -1    0    0  501    0  0.00000000000E+00  0.00000000000E+00  0.31700152689E+02  0.31700152689E+02  0.00000000000E+00 0. -1.
         -4   -1    0    0    0  501 -0.00000000000E+00 -0.00000000000E+00 -0.79016188946E+03  0.79016188946E+03  0.00000000000E+00 0.  1.
         25    2    1    2    0    0  0.74393233486E+02  0.86544088891E+02 -0.50317634622E+03  0.53090268586E+03  0.12508794487E+03 0.  0.
         23    2    1    2    0    0 -0.74393233486E+02 -0.86544088891E+02 -0.25528539055E+03  0.29095935629E+03  0.80389575637E+02 0.  0.
          5    1    3    3  502    0  0.50222276266E+02  0.11320661642E+03 -0.30106312617E+03  0.32556795508E+03  0.41800000000E+01 0.  1.
         -5    1    3    3    0  502  0.24170957220E+02 -0.26662527532E+02 -0.20211322005E+03  0.20533473079E+03  0.41800000000E+01 0.  1.
        -11    1    4    4    0    0 -0.34457765605E+02  0.90215372509E+01 -0.75314351022E+02  0.83312527358E+02  0.00000000000E+00 0.  1.
         11    1    4    4    0    0 -0.39935467881E+02 -0.95565626142E+02 -0.17997103953E+03  0.20764682893E+03  0.00000000000E+00 0. -1.
</event>
<event>
 8    1  0.3541538E-009  0.9771470E+02  0.7561462E-02  0.1285176E+00
          2   -1    0    0  501    0  0.00000000000E+00  0.00000000000E+00  0.52596753655E+03  0.52596753655E+03  0.00000000000E+00 0. -1.
         -2   -1    0    0    0  501 -0.00000000000E+00 -0.00000000000E+00 -0.48167642000E+02  0.48167642000E+02  0.00000000000E+00 0.  1.
         25    2    1    2    0    0 -0.17251281524E+02  0.22836822931E+02  0.45889740591E+03  0.47650001293E+03  0.12508519487E+03 0.  0.
         23    2    1    2    0    0  0.17251281524E+02 -0.22836822931E+02  0.18902488639E+02  0.97635165620E+02  0.91412221793E+02 0.  0.
          5    1    3    3  502    0 -0.69104991294E+02  0.26425717561E+02  0.31006081648E+03  0.31879303738E+03  0.41800000000E+01 0.  1.
         -5    1    3    3    0  502  0.51853709770E+02 -0.35888946303E+01  0.14883658944E+03  0.15770697555E+03  0.41800000000E+01 0.  1.
        -11    1    4    4    0    0  0.33595720621E+02  0.77704857213E+01 -0.24328995570E+02  0.42201337868E+02  0.00000000000E+00 0.  1.
         11    1    4    4    0    0 -0.16344439097E+02 -0.30607308652E+02  0.43231484209E+02  0.55433827752E+02  0.00000000000E+00 0. -1.
</event>
<event>
 8    1  0.3541538E-009  0.8953065E+02  0.7561462E-02  0.1303992E+00
         -1   -1    0    0    0  501 -0.00000000000E+00  0.00000000000E+00  0.40191189684E+02  0.40191189684E+02  0.00000000000E+00 0.  1.
          1   -1    0    0  501    0  0.00000000000E+00 -0.00000000000E+00 -0.32485814562E+03  0.32485814562E+03  0.00000000000E+00 0. -1.
         25    2    1    2    0    0 -0.22569002264E+02 -0.23484435201E+02 -0.12064451485E+03  0.17681962643E+03  0.12509677361E+03 0.  0.
         23    2    1    2    0    0  0.22569002264E+02  0.23484435201E+02 -0.16402244109E+03  0.18822970888E+03  0.86407080519E+02 0.  0.
          5    1    3    3  502    0 -0.37714026682E+02  0.35896143717E+02 -0.98561009600E+02  0.11154651925E+03  0.41800000000E+01 0. -1.
         -5    1    3    3    0  502  0.15145024417E+02 -0.59380578918E+02 -0.22083505250E+02  0.65273107183E+02  0.41800000000E+01 0. -1.
        -11    1    4    4    0    0  0.30218761177E+02 -0.93954732199E+01 -0.14260852253E+02  0.34710522196E+02  0.00000000000E+00 0.  1.
         11    1    4    4    0    0 -0.76497589130E+01  0.32879908421E+02 -0.14976158883E+03  0.15351918668E+03  0.00000000000E+00 0. -1.
</event>
<event>
 8    1  0.3541538E-009  0.9347218E+02  0.7561462E-02  0.1294655E+00
         -1   -1    0    0    0  501 -0.00000000000E+00  0.00000000000E+00  0.78509291860E+03  0.78509291860E+03  0.00000000000E+00 0.  1.
          1   -1    0    0  501    0  0.00000000000E+00 -0.00000000000E+00 -0.14524898663E+02  0.14524898663E+02  0.00000000000E+00 0. -1.
         25    2    1    2    0    0  0.19529902120E+02  0.23260922441E+01  0.47176973565E+03  0.48846684100E+03  0.12508534483E+03 0.  0.
         23    2    1    2    0    0 -0.19529902120E+02 -0.23260922441E+01  0.29879828428E+03  0.31115097627E+03  0.84543997775E+02 0.  0.
          5    1    3    3  502    0 -0.39409869374E+02  0.91514919520E+01  0.60395433552E+02  0.72814616684E+02  0.41800000000E+01 0. -1.
         -5    1    3    3    0  502  0.58939771493E+02 -0.68253997079E+01  0.41137430210E+03  0.41565222431E+03  0.41800000000E+01 0. -1.
        -11    1    4    4    0    0 -0.44463058972E+02  0.24003181538E+02  0.17142525011E+03  0.17871690662E+03  0.00000000000E+00 0. -1.
         11    1    4    4    0    0  0.24933156853E+02 -0.26329273782E+02  0.12737303418E+03  0.13243406965E+03  0.00000000000E+00 0.  1.
</event>
<event>
 8    1  0.3541538E-009  0.7418961E+02  0.7561462E-02  0.1346399E+00
          1   -1    0    0  501    0  0.00000000000E+00  0.00000000000E+00  0.22660106277E+03  0.22660106277E+03  0.00000000000E+00 0. -1.
         -1   -1    0    0    0  501 -0.00000000000E+00 -0.00000000000E+00 -0.55880190554E+02  0.55880190554E+02  0.00000000000E+00 0.  1.
         25    2    1    2    0    0 -0.27759249595E+02 -0.93900936693E+01  0.10066704899E+03  0.16321724342E+03  0.12508902430E+03 0.  0.
         23    2    1    2    0    0  0.27759249595E+02  0.93900936693E+01  0.70053823233E+02  0.11926400991E+03  0.91965298420E+02 0.  0.
          5    1    3    3  502    0 -0.50829390495E+02 -0.15619336052E+02  0.12056795191E+03  0.13183965270E+03  0.41800000000E+01 0.  1.
         -5    1    3    3    0  502  0.23070140901E+02  0.62292423827E+01 -0.19900902923E+02  0.31377590714E+02  0.41800000000E+01 0.  1.
        -11    1    4    4    0    0  0.10100363186E+02 -0.27818060494E+02 -0.83071355400E+01  0.30738743094E+02  0.00000000000E+00 0.  1.
         11    1    4    4    0    0  0.17658886409E+02  0.37208154163E+02  0.78360958773E+02  0.88525266818E+02  0.00000000000E+00 0. -1.
</event>
<event>
 8    1  0.3541538E-009  0.9763822E+02  0.7561462E-02  0.1285342E+00
         -4   -1    0    0    0  501 -0.00000000000E+00  0.00000000000E+00  0.34323664678E+02  0.34323664678E+02  0.00000000000E+00 0.  1.
          4   -1    0    0  501    0  0.00000000000E+00 -0.00000000000E+00 -0.48079009472E+03  0.48079009472E+03  0.00000000000E+00 0. -1.
         25    2    1    2    0    0  0.68296045264E+02 -0.17233158803E+01 -0.28285383990E+03  0.31673568123E+03  0.12509147614E+03 0.  0.
         23    2    1    2    0    0 -0.68296045264E+02  0.17233158803E+01 -0.16361259014E+03  0.19837807816E+03  0.88980124900E+02 0.  0.
          5    1    3    3  502    0  0.33210263039E+02  0.43148657438E+02 -0.41155887406E+02  0.68381340130E+02  0.41800000000E+01 0.  1.
         -5    1    3    3    0  502  0.35085782225E+02 -0.44871973318E+02 -0.24169795250E+03  0.24835434110E+03  0.41800000000E+01 0.  1.
        -11    1    4    4    0    0 -0.55943666458E+02 -0.19291841492E+02 -0.16362960345E+03  0.17400148301E+03  0.00000000000E+00 0. -1.
         11    1    4    4    0    0 -0.12352378806E+02  0.21015157372E+02  0.17013315559E-01  0.24376595148E+02  0.00000000000E+00 0.  1.
</event>
<event>
 8    1  0.3541538E-009  0.1495463E+03  0.7561462E-02  0.1201032E+00
         -1   -1    0    0    0  501 -0.00000000000E+00  0.00000000000E+00  0.14049702877E+02  0.14049702877E+02  0.00000000000E+00 0.  1.
          1   -1    0    0  501    0  0.00000000000E+00 -0.00000000000E+00 -0.25771483885E+04  0.25771483885E+04  0.00000000000E+00 0. -1.
         25    2    1    2    0    0  0.10498022330E+03  0.84283224628E+02 -0.18829183867E+04  0.18918650324E+04  0.12508853085E+03 0.  0.
         23    2    1    2    0    0 -0.10498022330E+03 -0.84283224628E+02 -0.68018029893E+03  0.69933305900E+03  0.91087755046E+02 0.  0.
          5    1    3    3  502    0  0.75892711043E+01  0.55489388796E+00 -0.96045220673E+03  0.96049144648E+03  0.41800000000E+01 0.  1.
         -5    1    3    3    0  502  0.97390952200E+02  0.83728330740E+02 -0.92246618000E+03  0.93137358594E+03  0.41800000000E+01 0.  1.
        -11    1    4    4    0    0  0.92111951346E+01 -0.37314243889E+02 -0.18925794773E+03  0.19312112700E+03  0.00000000000E+00 0. -1.
         11    1    4    4    0    0 -0.11419141844E+03 -0.46968980739E+02 -0.49092235120E+03  0.50621193201E+03  0.00000000000E+00 0.  1.
</event>
<event>
 8    1  0.3541538E-009  0.1126217E+03  0.7561462E-02  0.1255791E+00
          1   -1    0    0  501    0  0.00000000000E+00  0.00000000000E+00  0.30230891856E+03  0.30230891856E+03  0.00000000000E+00 0. -1.
         -1   -1    0    0    0  501 -0.00000000000E+00 -0.00000000000E+00 -0.74132930115E+02  0.74132930115E+02  0.00000000000E+00 0.  1.
         25    2    1    2    0    0 -0.64477545208E+02 -0.26945083786E+02  0.33218579701E+02  0.14708712160E+03  0.12509099059E+03 0.  0.
         23    2    1    2    0    0  0.64477545208E+02  0.26945083786E+02  0.19495740875E+03  0.22935472708E+03  0.98548507000E+02 0.  0.
          5    1    3    3  502    0  0.15178215534E+02 -0.50423736054E+02  0.35943967541E+02  0.63893447137E+02  0.41800000000E+01 0. -1.
         -5    1    3    3    0  502 -0.79655760741E+02  0.23478652267E+02 -0.27253878396E+01  0.83193674462E+02  0.41800000000E+01 0. -1.
        -11    1    4    4    0    0  0.59999700461E+02 -0.19486995744E+01  0.19055393059E+03  0.19978629069E+03  0.00000000000E+00 0. -1.
         11    1    4    4    0    0  0.44778447465E+01  0.28893783361E+02  0.44034781574E+01  0.29568436387E+02  0.00000000000E+00 0.  1.
</event>
<event>
 8    1  0.3541538E-009  0.8820289E+02  0.7561462E-02  0.1307263E+00
         -2   -1    0    0    0  501 -0.00000000000E+00  0.00000000000E+00  0.28215260724E+02  0.28215260724E+02  0.00000000000E+00 0.  1.
          2   -1    0    0  501    0  0.00000000000E+00 -0.00000000000E+00 -0.44869913214E+03  0.44869913214E+03  0.00000000000E+00 0. -1.
         25    2    1    2    0    0 -0.69193824424E+01  0.30606098863E+02 -0.26159176095E+03  0.29165458603E+03  0.12509011556E+03 0.  0.
         23    2    1    2    0    0  0.69193824424E+01 -0.30606098863E+02 -0.15889211046E+03  0.18525980684E+03  0.89943771998E+02 0.  0.
          5    1    3    3  502    0 -0.43884367509E+02  0.19130877868E+02 -0.24443065556E+03  0.24910970671E+03  0.41800000000E+01 0. -1.
         -5    1    3    3    0  502  0.36964985066E+02  0.11475220995E+02 -0.17161105396E+02  0.42544879319E+02  0.41800000000E+01 0. -1.
        -11    1    4    4    0    0  0.40679638870E+01  0.29232331521E+02 -0.85917811496E+02  0.90845736656E+02  0.00000000000E+00 0. -1.
         11    1    4    4    0    0  0.28514185554E+01 -0.59838430384E+02 -0.72974298966E+02  0.94414070181E+02  0.00000000000E+00 0.  1.
</event>
<event>
 8    1  0.3541538E-009  0.1280140E+03  0.7561462E-02  0.1230433E+00
          1   -1    0    0  501    0  0.00000000000E+00  0.00000000000E+00  0.54805225498E+02  0.54805225498E+02  0.00000000000E+00 0. -1.
         -1   -1    0    0    0  501 -0.00000000000E+00 -0.00000000000E+00 -0.41647122658E+03  0.41647122658E+03  0.00000000000E+00 0.  1.
         25    2    1    2    0    0  0.58537059249E+02 -0.65697183311E+02 -0.28483913190E+03  0.32329355671E+03  0.12507072219E+03 0.  0.
         23    2    1    2    0    0 -0.58537059249E+02  0.65697183311E+02 -0.76826869185E+02  0.14798289537E+03  0.90850769358E+02 0.  0.
          5    1    3    3  502    0 -0.19989447209E+02 -0.69842531087E+02 -0.11502564847E+03  0.13610998991E+03  0.41800000000E+01 0.  1.
         -5    1    3    3    0  502  0.78526506458E+02  0.41453477757E+01 -0.16981348343E+03  0.18718356680E+03  0.41800000000E+01 0.  1.
        -11    1    4    4    0    0 -0.68674273474E+01  0.50061807208E+02  0.41069165647E+01  0.50697266819E+02  0.00000000000E+00 0. -1.
         11    1    4    4    0    0 -0.51669631902E+02  0.15635376103E+02 -0.80933785750E+02  0.97285628551E+02  0.00000000000E+00 0.  1.
</event>
<event>
 8    1  0.3541538E-009  0.1048215E+03  0.7561462E-02  0.1270472E+00
         -3   -1    0    0    0  501 -0.00000000000E+00  0.00000000000E+00  0.39106260767E+02  0.39106260767E+02  0.00000000000E+00 0.  1.
          3   -1    0    0  501    0  0.00000000000E+00 -0.00000000000E+00 -0.43660076095E+03  0.43660076095E+03  0.00000000000E+00 0. -1.
         25    2    1    2    0    0  0.47374589806E+02  0.47537874206E+02 -0.27092362824E+03  0.30586146579E+03  0.12508965854E+03 0.  0.
         23    2    1    2    0    0 -0.47374589806E+02 -0.47537874206E+02 -0.12657087195E+03  0.16984555593E+03  0.91231167925E+02 0.  0.
          5    1    3    3  502    0  0.70032385563E+00  0.73220450323E+02 -0.84306789618E+02  0.11174449416E+03  0.41800000000E+01 0.  1.
         -5    1    3    3    0  502  0.46674265950E+02 -0.25682576117E+02 -0.18661683862E+03  0.19411697163E+03  0.41800000000E+01 0.  1.
        -11    1    4    4    0    0 -0.11993177219E+02 -0.45902532705E+02 -0.12576610288E+03  0.13441722897E+03  0.00000000000E+00 0. -1.
         11    1    4    4    0    0 -0.35381412587E+02 -0.16353415013E+01 -0.80476906640E+00  0.35428326967E+02  0.00000000000E+00 0.  1.
</event>
<event>
 8    1  0.3541538E-009  0.1494752E+03  0.7561462E-02  0.1201119E+00
          2   -1    0    0  501    0  0.00000000000E+00  0.00000000000E+00  0.16508799297E+04  0.16508799297E+04  0.00000000000E+00 0. -1.
         -2   -1    0    0    0  501 -0.00000000000E+00 -0.00000000000E+00 -0.16247724387E+02  0.16247724387E+02  0.00000000000E+00 0.  1.
         25    2    1    2    0    0 -0.58012508561E+00 -0.12040738493E+03  0.90744502311E+03  0.92390615278E+03  0.12509130382E+03 0.  0.
         23    2    1    2    0    0  0.58012508561E+00  0.12040738493E+03  0.72718718219E+03  0.74322150129E+03  0.95282354866E+02 0.  0.
          5    1    3    3  502    0  0.52967678094E+02 -0.72700859969E+02  0.33201958384E+03  0.34401375905E+03  0.41800000000E+01 0.  1.
         -5    1    3    3    0  502 -0.53547803180E+02 -0.47706524966E+02  0.57542543927E+03  0.57989239374E+03  0.41800000000E+01 0.  1.
        -11    1    4    4    0    0 -0.19235868211E+02  0.11489837816E+03  0.69715494471E+03  0.70682152830E+03  0.00000000000E+00 0. -1.
         11    1    4    4    0    0  0.19815993296E+02  0.55090067747E+01  0.30032237477E+02  0.36399972992E+02  0.00000000000E+00 0.  1.
</event>
<event>
 8    1  0.3541538E-009  0.1232646E+03  0.7561462E-02  0.1237807E+00
         -1   -1    0    0    0  501 -0.00000000000E+00  0.00000000000E+00  0.14786301010E+03  0.14786301010E+03  0.00000000000E+00 0.  1.
          1   -1    0    0  501    0  0.00000000000E+00 -0.00000000000E+00 -0.10627721155E+03  0.10627721155E+03  0.00000000000E+00 0. -1.
         25    2    1    2    0    0  0.56163789740E+02  0.25131178095E+02  0.22494782631E+02  0.14120629715E+03  0.12508899120E+03 0.  0.
         23    2    1    2    0    0 -0.56163789740E+02 -0.25131178095E+02  0.19091015912E+02  0.11293392450E+03  0.92755900210E+02 0.  0.
          5    1    3    3  502    0  0.37172188280E+02  0.73841163349E+02 -0.31267385481E+01  0.82834400343E+02  0.41800000000E+01 0.  1.
         -5    1    3    3    0  502  0.18991601460E+02 -0.48709985254E+02  0.25621521179E+02  0.58371896808E+02  0.41800000000E+01 0.  1.
        -11    1    4    4    0    0  0.21974479718E+02 -0.24842756766E+02  0.60645142283E+01  0.33716741471E+02  0.00000000000E+00 0.  1.
         11    1    4    4    0    0 -0.78138269458E+02 -0.28842132899E+00  0.13026501684E+02  0.79217183028E+02  0.00000000000E+00 0. -1.
</event>
<event>
 8    1  0.3541538E-009  0.1179468E+03  0.7561462E-02  0.1246523E+00
         -2   -1    0    0    0  501 -0.00000000000E+00  0.00000000000E+00  0.78170415174E+02  0.78170415174E+02  0.00000000000E+00 0.  1.
          2   -1    0    0  501    0  0.00000000000E+00 -0.00000000000E+00 -0.32159977094E+03  0.32159977094E+03  0.00000000000E+00 0. -1.
         25    2    1    2    0    0 -0.69889649317E+02 -0.73561436422E+02 -0.19631607093E+03  0.25393517822E+03  0.12508887648E+03 0.  0.
         23    2    1    2    0    0  0.69889649317E+02  0.73561436422E+02 -0.47113284835E+02  0.14583500790E+03  0.93553941187E+02 0.  0.
          5    1    3    3  502    0 -0.46474739313E+02  0.74570575575E+01 -0.85019434799E+01  0.48013170532E+02  0.41800000000E+01 0. -1.
         -5    1    3    3    0  502 -0.23414910005E+02 -0.81018493979E+02 -0.18781412745E+03  0.20592200768E+03  0.41800000000E+01 0. -1.
        -11    1    4    4    0    0  0.67119365602E+02  0.58955584939E+02  0.71033695767E+01  0.89617119423E+02  0.00000000000E+00 0.  1.
         11    1    4    4    0    0  0.27702837151E+01  0.14605851483E+02 -0.54216654412E+02  0.56217888479E+02  0.00000000000E+00 0. -1.
</event>
<event>
 8    1  0.3541538E-009  0.1300016E+03  0.7561462E-02  0.1227453E+00
         -1   -1    0    0    0  501 -0.00000000000E+00  0.00000000000E+00  0.75812263678E+02  0.75812263678E+02  0.00000000000E+00 0. -1.
          1   -1    0    0  501    0  0.00000000000E+00 -0.00000000000E+00 -0.22319021731E+03  0.22319021731E+03  0.00000000000E+00 0.  1.
         25    2    1    2    0    0  0.25914692996E+02  0.67843711421E+02 -0.81514890785E+02  0.16603047841E+03  0.12508837615E+03 0.  0.
         23    2    1    2    0    0 -0.25914692996E+02 -0.67843711421E+02 -0.65863062845E+02  0.13297200258E+03  0.89829115156E+02 0.  0.
          5    1    3    3  502    0  0.48415402751E+01 -0.37027451967E+02 -0.22316199255E+02  0.43703064659E+02  0.41800000000E+01 0. -1.
         -5    1    3    3    0  502  0.21073152721E+02  0.10487116339E+03 -0.59198691530E+02  0.12232741375E+03  0.41800000000E+01 0. -1.
        -11    1    4    4    0    0  0.23760971923E+01 -0.83169226475E+02 -0.50357767307E+02  0.97255698026E+02  0.00000000000E+00 0. -1.
         11    1    4    4    0    0 -0.28290790188E+02  0.15325515054E+02 -0.15505295538E+02  0.35716304552E+02  0.00000000000E+00 0.  1.
</event>
<event>
 8    1  0.3541538E-009  0.1135209E+03  0.7561462E-02  0.1254185E+00
          1   -1    0    0  501    0  0.00000000000E+00  0.00000000000E+00  0.35022529693E+03  0.35022529693E+03  0.00000000000E+00 0. -1.
         -1   -1    0    0    0  501 -0.00000000000E+00 -0.00000000000E+00 -0.46249889143E+02  0.46249889143E+02  0.00000000000E+00 0.  1.
         25    2    1    2    0    0 -0.36403612952E+02 -0.28663594750E+02  0.93378536688E+02  0.16283766858E+03  0.12509888286E+03 0.  0.
         23    2    1    2    0    0  0.36403612952E+02  0.28663594750E+02  0.21059687110E+03  0.23363751750E+03  0.89936770928E+02 0.  0.
          5    1    3    3  502    0 -0.36347297507E+02 -0.74228373664E+02  0.38173683356E+02  0.91135503476E+02  0.41800000000E+01 0. -1.
         -5    1    3    3    0  502 -0.56315445066E-01  0.45564778914E+02  0.55204853331E+02  0.71702165101E+02  0.41800000000E+01 0. -1.
        -11    1    4    4    0    0 -0.56896995541E+01 -0.27646591177E+02  0.38534826418E+02  0.47766510567E+02  0.00000000000E+00 0.  1.
         11    1    4    4    0    0  0.42093312506E+02  0.56310185927E+02  0.17206204468E+03  0.18587100693E+03  0.00000000000E+00 0. -1.
</event>
<event>
 8    1  0.3541538E-009  0.8907178E+02  0.7561462E-02  0.1305115E+00
         -2   -1    0    0    0  501 -0.00000000000E+00  0.00000000000E+00  0.59490291869E+02  0.59490291869E+02  0.00000000000E+00 0.  1.
          2   -1    0    0  501    0  0.00000000000E+00 -0.00000000000E+00 -0.20425067354E+03  0.20425067354E+03  0.00000000000E+00 0. -1.
         25    2    1    2    0    0  0.10829764113E+02 -0.19964119978E+01 -0.81730815246E+02  0.14983272650E+03  0.12509456550E+03 0.  0.
         23    2    1    2    0    0 -0.10829764113E+02  0.19964119978E+01 -0.63029566427E+02  0.11390823891E+03  0.94239541578E+02 0.  0.
          5    1    3    3  502    0 -0.30355251841E+02  0.49446168102E+02 -0.49378597928E+02  0.76302576546E+02  0.41800000000E+01 0.  1.
         -5    1    3    3    0  502  0.41185015954E+02 -0.51442580100E+02 -0.32352217319E+02  0.73530149951E+02  0.41800000000E+01 0.  1.
        -11    1    4    4    0    0 -0.22768674668E+02 -0.19088715308E+02 -0.79325697594E+02  0.84707484304E+02  0.00000000000E+00 0. -1.
         11    1    4    4    0    0  0.11938910556E+02  0.21085127306E+02  0.16296131167E+02  0.29200754610E+02  0.00000000000E+00 0.  1.
</event>
<event>
 8    1  0.3541538E-009  0.9889914E+02  0.7561462E-02  0.1282628E+00
          2   -1    0    0  501    0  0.00000000000E+00  0.00000000000E+00  0.21642168589E+03  0.21642168589E+03  0.00000000000E+00 0. -1.
         -2   -1    0    0    0  501 -0.00000000000E+00 -0.00000000000E+00 -0.99225438468E+02  0.99225438468E+02  0.00000000000E+00 0.  1.
         25    2    1    2    0    0 -0.43475802518E+02  0.42150655532E+02  0.14325023491E+03  0.19958781990E+03  0.12509134616E+03 0.  0.
         23    2    1    2    0    0  0.43475802518E+02 -0.42150655532E+02 -0.26053987487E+02  0.11605930446E+03  0.95520305284E+02 0.  0.
          5    1    3    3  502    0 -0.57360062100E+02  0.13869209771E+02  0.68758666523E+01  0.59559060151E+02  0.41800000000E+01 0. -1.
         -5    1    3    3    0  502  0.13884259582E+02  0.28281445762E+02  0.13637436826E+03  0.14002875975E+03  0.41800000000E+01 0. -1.
        -11    1    4    4    0    0  0.19068424609E+02 -0.68402371392E+02  0.12148088501E+01  0.71020877139E+02  0.00000000000E+00 0.  1.
         11    1    4    4    0    0  0.24407377909E+02  0.26251715859E+02 -0.27268796337E+02  0.45038427322E+02  0.00000000000E+00 0. -1.
</event>
<event>
 8    1  0.3541538E-009  0.1228124E+03  0.7561462E-02  0.1238528E+00
          2   -1    0    0  501    0  0.00000000000E+00  0.00000000000E+00  0.47030195628E+03  0.47030195628E+03  0.00000000000E+00 0. -1.
         -2   -1    0    0    0  501 -0.00000000000E+00 -0.00000000000E+00 -0.49376930803E+02  0.49376930803E+02  0.00000000000E+00 0.  1.
         25    2    1    2    0    0  0.16537587275E+02 -0.10534040766E+03  0.24693630368E+03  0.29664168277E+03  0.12509459063E+03 0.  0.
         23    2    1    2    0    0 -0.16537587275E+02  0.10534040766E+03  0.17398872180E+03  0.22303720431E+03  0.90019030846E+02 0.  0.
          5    1    3    3  502    0 -0.26555581645E+01 -0.13421686313E+02  0.18161761601E+03  0.18218019788E+03  0.41800000000E+01 0. -1.
         -5    1    3    3    0  502  0.19193145440E+02 -0.91918721347E+02  0.65318687666E+02  0.11446148490E+03  0.41800000000E+01 0. -1.
        -11    1    4    4    0    0  0.32693242125E+02  0.18672181817E+02  0.66704171134E+02  0.76595984889E+02  0.00000000000E+00 0. -1.
         11    1    4    4    0    0 -0.49230829400E+02  0.86668225844E+02  0.10728455067E+03  0.14644121942E+03  0.00000000000E+00 0.  1.
</event>
<event>
 8    1  0.3541538E-009  0.1131537E+03  0.7561462E-02  0.1254839E+00
         -2   -1    0    0    0  501 -0.00000000000E+00  0.00000000000E+00  0.72971606875E+02  0.72971606875E+02  0.00000000000E+00 0.  1.
          2   -1    0    0  501    0  0.00000000000E+00 -0.00000000000E+00 -0.24185190937E+03  0.24185190937E+03  0.00000000000E+00 0. -1.
         25    2    1    2    0    0  0.49566079525E+02 -0.56681305809E+02 -0.12253274278E+03  0.19061549271E+03  0.12510166403E+03 0.  0.
         23    2    1    2    0    0 -0.49566079525E+02  0.56681305809E+02 -0.46347559715E+02  0.12420802353E+03  0.87235142858E+02 0.  0.
          5    1    3    3  502    0  0.14160301480E+02  0.33716803330E+02 -0.35281242248E+01  0.36976438787E+02  0.41800000000E+01 0. -1.
         -5    1    3    3    0  502  0.35405778045E+02 -0.90398109139E+02 -0.11900461855E+03  0.15363905393E+03  0.41800000000E+01 0. -1.
        -11    1    4    4    0    0 -0.61195406546E+02  0.48895269957E+02 -0.64372653589E+02  0.10138769026E+03  0.00000000000E+00 0.  1.
         11    1    4    4    0    0  0.11629327021E+02  0.77860358525E+01  0.18025093873E+02  0.22820333267E+02  0.00000000000E+00 0. -1.
</event>
<event>
 8    1  0.3541538E-009  0.1780717E+03  0.7561462E-02  0.1169682E+00
         -2   -1    0    0    0  501 -0.00000000000E+00  0.00000000000E+00  0.21019004347E+02  0.21019004347E+02  0.00000000000E+00 0.  1.
          2   -1    0    0  501    0  0.00000000000E+00 -0.00000000000E+00 -0.18911873463E+04  0.18911873463E+04  0.00000000000E+00 0. -1.
         25    2    1    2    0    0 -0.99642976211E+00  0.16290206008E+03 -0.11509087822E+04  0.11690920858E+04  0.12508879266E+03 0.  0.
         23    2    1    2    0    0  0.99642976211E+00 -0.16290206008E+03 -0.71925955974E+03  0.74311426484E+03  0.91358755986E+02 0.  0.
          5    1    3    3  502    0  0.37653106265E+02  0.12969801285E+03 -0.56393785483E+03  0.57989887693E+03  0.41800000000E+01 0. -1.
         -5    1    3    3    0  502 -0.38649536027E+02  0.33204047223E+02 -0.58697092736E+03  0.58919320885E+03  0.41800000000E+01 0. -1.
        -11    1    4    4    0    0  0.23655257958E+02 -0.10694811367E+03 -0.59462923768E+03  0.60463327774E+03  0.00000000000E+00 0. -1.
         11    1    4    4    0    0 -0.22658828196E+02 -0.55953946410E+02 -0.12463032206E+03  0.13848098711E+03  0.00000000000E+00 0.  1.
</event>
<event>
 8    1  0.3541538E-009  0.1252376E+03  0.7561462E-02  0.1234698E+00
         -3   -1    0    0    0  501 -0.00000000000E+00  0.00000000000E+00  0.78870893924E+02  0.78870893924E+02  0.00000000000E+00 0.  1.
          3   -1    0    0  501    0  0.00000000000E+00 -0.00000000000E+00 -0.29396131140E+03  0.29396131140E+03  0.00000000000E+00 0. -1.
         25    2    1    2    0    0  0.83414396165E+02 -0.41703071361E+02 -0.52184084683E+02  0.16452340550E+03  0.12509062561E+03 0.  0.
         23    2    1    2    0    0 -0.83414396165E+02  0.41703071361E+02 -0.16290633279E+03  0.20830879982E+03  0.90315974059E+02 0.  0.
          5    1    3    3  502    0 -0.24192186920E+02 -0.30600422502E+02  0.88889710252E+01  0.40226035986E+02  0.41800000000E+01 0.  1.
         -5    1    3    3    0  502  0.10760658309E+03 -0.11102648859E+02 -0.61073055708E+02  0.12429736952E+03  0.41800000000E+01 0.  1.
        -11    1    4    4    0    0 -0.16842899167E+02 -0.91913002677E+01  0.57089069471E+01  0.20018862892E+02  0.00000000000E+00 0.  1.
         11    1    4    4    0    0 -0.66571496998E+02  0.50894371629E+02 -0.16861523974E+03  0.18828993693E+03  0.00000000000E+00 0. -1.
</event>
<event>
 8    1  0.3541538E-009  0.7087611E+02  0.7561462E-02  0.1357139E+00
          2   -1    0    0  501    0  0.00000000000E+00  0.00000000000E+00  0.93924479640E+03  0.93924479640E+03  0.00000000000E+00 0. -1.
         -2   -1    0    0    0  501 -0.00000000000E+00 -0.00000000000E+00 -0.19697687935E+02  0.19697687935E+02  0.00000000000E+00 0.  1.
         25    2    1    2    0    0  0.67206424960E+01  0.14217803189E+02  0.78447750140E+03  0.79454343070E+03  0.12508796942E+03 0.  0.
         23    2    1    2    0    0 -0.67206424960E+01 -0.14217803189E+02  0.13506960707E+03  0.16439905364E+03  0.92390135415E+02 0.  0.
          5    1    3    3  502    0 -0.21832294876E+02  0.15525575718E+02  0.33896003163E+02  0.43406267190E+02  0.41800000000E+01 0.  1.
         -5    1    3    3    0  502  0.28552937372E+02 -0.13077725289E+01  0.75058149824E+03  0.75113716351E+03  0.41800000000E+01 0.  1.
        -11    1    4    4    0    0 -0.11873490967E+02 -0.49087468487E+02  0.11031729247E+03  0.12132792081E+03  0.00000000000E+00 0.  1.
         11    1    4    4    0    0  0.51528484712E+01  0.34869665299E+02  0.24752314595E+02  0.43071132829E+02  0.00000000000E+00 0. -1.
</event>
<event>
 8    1  0.3541538E-009  0.9425963E+02  0.7561462E-02  0.1292852E+00
          3   -1    0    0  501    0  0.00000000000E+00  0.00000000000E+00  0.30432490289E+03  0.30432490289E+03  0.00000000000E+00 0. -1.
         -3   -1    0    0    0  501 -0.00000000000E+00 -0.00000000000E+00 -0.44136115128E+02  0.44136115128E+02  0.00000000000E+00 0.  1.
         25    2    1    2    0    0  0.14527190116E+02  0.38237620451E+02  0.13223086286E+03  0.18656423484E+03  0.12509219704E+03 0.  0.
         23    2    1    2    0    0 -0.14527190116E+02 -0.38237620451E+02  0.12795792491E+03  0.16189678318E+03  0.90355868577E+02 0.  0.
          5    1    3    3  502    0  0.47180328283E+01  0.69576790766E+02  0.13634984354E+03  0.15320555434E+03  0.41800000000E+01 0.  1.
         -5    1    3    3    0  502  0.98091572875E+01 -0.31339170315E+02 -0.41189806892E+01  0.33358680499E+02  0.41800000000E+01 0.  1.
        -11    1    4    4    0    0 -0.14033533663E+02  0.21576043298E+02  0.65580914871E+01  0.26560765716E+02  0.00000000000E+00 0.  1.
         11    1    4    4    0    0 -0.49365645259E+00 -0.59813663749E+02  0.12139983342E+03  0.13533601746E+03  0.00000000000E+00 0. -1.
</event>
<event>
 8    1  0.3541538E-009  0.2445578E+03  0.7561462E-02  0.1116793E+00
          1   -1    0    0  501    0  0.00000000000E+00  0.00000000000E+00  0.61173845179E+03  0.61173845179E+03  0.00000000000E+00 0. -1.
         -1   -1    0    0    0  501 -0.00000000000E+00 -0.00000000000E+00 -0.11105388604E+03  0.11105388604E+03  0.00000000000E+00 0.  1.
         25    2    1    2    0    0  0.44426756634E+00 -0.22283739644E+03  0.36886147500E+03  0.44873588128E+03  0.12509356814E+03 0.  0.
         23    2    1    2    0    0 -0.44426756634E+00  0.22283739644E+03  0.13182309075E+03  0.27405645655E+03  0.89849382292E+02 0.  0.
          5    1    3    3  502    0  0.43572628817E+01  0.13509760092E+02  0.67117487909E+01  0.16248671619E+02  0.41800000000E+01 0.  1.
         -5    1    3    3    0  502 -0.39129953153E+01 -0.23634715653E+03  0.36214972621E+03  0.43248720967E+03  0.41800000000E+01 0.  1.
        -11    1    4    4    0    0  0.31449939019E+02  0.33707003457E+02  0.41598056182E+02  0.62093953204E+02  0.00000000000E+00 0.  1.
         11    1    4    4    0    0 -0.31894206586E+02  0.18913039298E+03  0.90225034564E+02  0.21196250335E+03  0.00000000000E+00 0. -1.
</event>
<event>
 8    1  0.3541538E-009  0.1068137E+03  0.7561462E-02  0.1266587E+00
         -1   -1    0    0    0  501 -0.00000000000E+00  0.00000000000E+00  0.11479750823E+03  0.11479750823E+03  0.00000000000E+00 0.  1.
          1   -1    0    0  501    0  0.00000000000E+00 -0.00000000000E+00 -0.11275041504E+03  0.11275041504E+03  0.00000000000E+00 0. -1.
         25    2    1    2    0    0 -0.17988722113E+02  0.70875313769E+01  0.32167026428E+02  0.13058262538E+03  0.12507308758E+03 0.  0.
         23    2    1    2    0    0  0.17988722113E+02 -0.70875313769E+01 -0.30119933240E+02  0.96965297891E+02  0.90117874988E+02 0.  0.
          5    1    3    3  502    0 -0.19686133476E+02 -0.57297358550E+02  0.63202943262E+01  0.61056937922E+02  0.41800000000E+01 0. -1.
         -5    1    3    3    0  502  0.16974113629E+01  0.64384889927E+02  0.25846732102E+02  0.69525687458E+02  0.41800000000E+01 0. -1.
        -11    1    4    4    0    0  0.42047944829E+02  0.24487704679E+02 -0.30199107538E+02  0.57268345889E+02  0.00000000000E+00 0. -1.
         11    1    4    4    0    0 -0.24059222715E+02 -0.31575236056E+02  0.79174297263E-01  0.39696952002E+02  0.00000000000E+00 0.  1.
</event>
<event>
 8    1  0.3541538E-009  0.2305838E+03  0.7561462E-02  0.1126230E+00
          1   -1    0    0  501    0  0.00000000000E+00  0.00000000000E+00  0.16291794228E+04  0.16291794228E+04  0.00000000000E+00 0. -1.
         -1   -1    0    0    0  501 -0.00000000000E+00 -0.00000000000E+00 -0.44624887517E+02  0.44624887517E+02  0.00000000000E+00 0.  1.
         25    2    1    2    0    0 -0.15721578207E+03  0.13943606770E+03  0.12130589000E+04  0.12374644490E+04  0.12508856314E+03 0.  0.
         23    2    1    2    0    0  0.15721578207E+03 -0.13943606770E+03  0.37149563531E+03  0.43633986132E+03  0.90687642005E+02 0.  0.
          5    1    3    3  502    0  0.12959388331E+02  0.43926833489E+02  0.16043462386E+03  0.16689593578E+03  0.41800000000E+01 0.  1.
         -5    1    3    3    0  502 -0.17017517040E+03  0.95509234213E+02  0.10526242761E+04  0.10705685132E+04  0.41800000000E+01 0.  1.
        -11    1    4    4    0    0  0.12668951265E+03 -0.14083223773E+03  0.26634435043E+03  0.32683828540E+03  0.00000000000E+00 0.  1.
         11    1    4    4    0    0  0.30526269414E+02  0.13961700294E+01  0.10515128488E+03  0.10950157591E+03  0.00000000000E+00 0. -1.
</event>
<event>
 8    1  0.3541538E-009  0.1130558E+03  0.7561462E-02  0.1255013E+00
          2   -1    0    0  501    0  0.00000000000E+00  0.00000000000E+00  0.39775785214E+03  0.39775785214E+03  0.00000000000E+00 0. -1.
         -2   -1    0    0    0  501 -0.00000000000E+00 -0.00000000000E+00 -0.37319954118E+02  0.37319954118E+02  0.00000000000E+00 0.  1.
         25    2    1    2    0    0 -0.48564365645E+02  0.12543291045E+02  0.17642443836E+03  0.22201046919E+03  0.12508890527E+03 0.  0.
         23    2    1    2    0    0  0.48564365645E+02 -0.12543291045E+02  0.18401345966E+03  0.21306733706E+03  0.94978445056E+02 0.  0.
          5    1    3    3  502    0 -0.59629050701E+02 -0.45200565515E+02  0.85994317388E+02  0.11406669029E+03  0.41800000000E+01 0. -1.
         -5    1    3    3    0  502  0.11064685056E+02  0.57743856560E+02  0.90430120970E+02  0.10794377891E+03  0.41800000000E+01 0. -1.
        -11    1    4    4    0    0 -0.15518064129E+02 -0.22544955865E+02  0.11560273457E+03  0.11879847469E+03  0.00000000000E+00 0. -1.
         11    1    4    4    0    0  0.64082429774E+02  0.10001664820E+02  0.68410725093E+02  0.94268862371E+02  0.00000000000E+00 0.  1.
</event>
<event>
 8    1  0.3541538E-009  0.1148677E+03  0.7561462E-02  0.1251812E+00
          2   -1    0    0  501    0  0.00000000000E+00  0.00000000000E+00  0.74916628259E+03  0.74916628259E+03  0.00000000000E+00 0. -1.
         -2   -1    0    0    0  501 -0.00000000000E+00 -0.00000000000E+00 -0.22502311170E+02  0.22502311170E+02  0.00000000000E+00 0.  1.
         25    2    1    2    0    0  0.29958001690E+02 -0.57919528370E+02  0.48483144484E+03  0.50493664517E+03  0.12508929651E+03 0.  0.
         23    2    1    2    0    0 -0.29958001690E+02  0.57919528370E+02  0.24183252658E+03  0.26673194859E+03  0.91710456620E+02 0.  0.
          5    1    3    3  502    0  0.50253666266E+02 -0.88111525576E+02  0.30621976868E+03  0.32260981238E+03  0.41800000000E+01 0. -1.
         -5    1    3    3    0  502 -0.20295664577E+02  0.30191997207E+02  0.17861167616E+03  0.18232683279E+03  0.41800000000E+01 0. -1.
        -11    1    4    4    0    0  0.38359675824E+01  0.57672973075E+02  0.21760302167E+03  0.22514875418E+03  0.00000000000E+00 0. -1.
         11    1    4    4    0    0 -0.33793969272E+02  0.24655529478E+00  0.24229504911E+02  0.41583194405E+02  0.00000000000E+00 0.  1.
</event>
<event>
 8    1  0.3541538E-009  0.8089788E+02  0.7561462E-02  0.1326523E+00
         -4   -1    0    0    0  501 -0.00000000000E+00  0.00000000000E+00  0.18455079514E+03  0.18455079514E+03  0.00000000000E+00 0.  1.
          4   -1    0    0  501    0  0.00000000000E+00 -0.00000000000E+00 -0.64255017980E+02  0.64255017980E+02  0.00000000000E+00 0. -1.
         25    2    1    2    0    0  0.22283075028E+02 -0.91606328925E+01  0.44102829212E+02  0.13481147944E+03  0.12509445558E+03 0.  0.
         23    2    1    2    0    0 -0.22283075028E+02  0.91606328925E+01  0.76192947948E+02  0.11399433368E+03  0.81295080823E+02 0.  0.
          5    1    3    3  502    0  0.38063094870E+02 -0.56452863972E+02  0.49798992592E+02  0.84457901376E+02  0.41800000000E+01 0. -1.
         -5    1    3    3    0  502 -0.15780019841E+02  0.47292231079E+02 -0.56961633798E+01  0.50353578065E+02  0.41800000000E+01 0. -1.
        -11    1    4    4    0    0 -0.24674562932E+02 -0.82191765851E+01  0.88709588061E+02  0.92443387723E+02  0.00000000000E+00 0.  1.
         11    1    4    4    0    0  0.23914879034E+01  0.17379809478E+02 -0.12516640113E+02  0.21550945956E+02  0.00000000000E+00 0. -1.
</event>
<event>
 8    1  0.3541538E-009  0.1134538E+03  0.7561462E-02  0.1254304E+00
         -1   -1    0    0    0  501 -0.00000000000E+00  0.00000000000E+00  0.23771079575E+03  0.23771079575E+03  0.00000000000E+00 0.  1.
          1   -1    0    0  501    0  0.00000000000E+00 -0.00000000000E+00 -0.65101870630E+02  0.65101870630E+02  0.00000000000E+00 0. -1.
         25    2    1    2    0    0 -0.57027639825E+02  0.23531012126E+01  0.71239142229E+02  0.15485360596E+03  0.12508770965E+03 0.  0.
         23    2    1    2    0    0  0.57027639825E+02 -0.23531012126E+01  0.10136978289E+03  0.14795906041E+03  0.91424077168E+02 0.  0.
          5    1    3    3  502    0 -0.78772136646E+02 -0.34049393491E+02  0.20002500774E+02  0.88215549344E+02  0.41800000000E+01 0.  1.
         -5    1    3    3    0  502  0.21744496821E+02  0.36402494703E+02  0.51236641454E+02  0.66638056620E+02  0.41800000000E+01 0.  1.
        -11    1    4    4    0    0 -0.13092583542E+02 -0.21964632454E+02  0.57559486413E+02  0.62983770122E+02  0.00000000000E+00 0.  1.
         11    1    4    4    0    0  0.70120223367E+02  0.19611531241E+02  0.43810296474E+02  0.84975290290E+02  0.00000000000E+00 0. -1.
</event>
<event>
 8    1  0.3541538E-009  0.1022615E+03  0.7561462E-02  0.1275611E+00
          1   -1    0    0  501    0  0.00000000000E+00  0.00000000000E+00  0.56309638120E+03  0.56309638120E+03  0.00000000000E+00 0. -1.
         -1   -1    0    0    0  501 -0.00000000000E+00 -0.00000000000E+00 -0.23005790285E+02  0.23005790285E+02  0.00000000000E+00 0.  1.
         25    2    1    2    0    0  0.12855596452E+02 -0.72305225788E+01  0.23007018490E+03  0.26229293269E+03  0.12509094988E+03 0.  0.
         23    2    1    2    0    0 -0.12855596452E+02  0.72305225788E+01  0.31002040602E+03  0.32380923880E+03  0.92315893363E+02 0.  0.
          5    1    3    3  502    0  0.11381017932E+02  0.57062564376E+02  0.80368649994E+02  0.99308892473E+02  0.41800000000E+01 0. -1.
         -5    1    3    3    0  502  0.14745785203E+01 -0.64293086954E+02  0.14970153491E+03  0.16298404022E+03  0.41800000000E+01 0. -1.
        -11    1    4    4    0    0  0.33097078335E+02  0.12729116092E+02  0.61282684349E+02  0.70802643960E+02  0.00000000000E+00 0.  1.
         11    1    4    4    0    0 -0.45952674787E+02 -0.54985935132E+01  0.24873772167E+03  0.25300659484E+03  0.00000000000E+00 0. -1.
</event>
<event>
 8    1  0.3541538E-009  0.1784125E+03  0.7561462E-02  0.1169348E+00
          2   -1    0    0  501    0  0.00000000000E+00  0.00000000000E+00  0.34596280076E+03  0.34596280076E+03  0.00000000000E+00 0. -1.
         -2   -1    0    0    0  501 -0.00000000000E+00 -0.00000000000E+00 -0.11866921804E+03  0.11866921804E+03  0.00000000000E+00 0.  1.
         25    2    1    2    0    0 -0.16713792649E+03  0.21698840274E+02  0.14852470831E+03  0.25712420790E+03  0.12508934073E+03 0.  0.
         23    2    1    2    0    0  0.16713792649E+03 -0.21698840274E+02  0.78768874411E+02  0.20750781091E+03  0.91918604596E+02 0.  0.
          5    1    3    3  502    0 -0.80120968535E+02 -0.30861334105E+02  0.11906022717E+02  0.86781434182E+02  0.41800000000E+01 0. -1.
         -5    1    3    3    0  502 -0.87016957959E+02  0.52560174379E+02  0.13661868559E+03  0.17034277371E+03  0.41800000000E+01 0. -1.
        -11    1    4    4    0    0  0.66627338990E+02 -0.17619069240E+01 -0.15326234681E+02  0.68390058389E+02  0.00000000000E+00 0. -1.
         11    1    4    4    0    0  0.10051058750E+03 -0.19936933350E+02  0.94095109091E+02  0.13911775252E+03  0.00000000000E+00 0.  1.
</event>
<event>
 8    1  0.3541538E-009  0.1230613E+03  0.7561462E-02  0.1238131E+00
         -1   -1    0    0    0  501 -0.00000000000E+00  0.00000000000E+00  0.33732226123E+02  0.33732226123E+02  0.00000000000E+00 0.  1.
          1   -1    0    0  501    0  0.00000000000E+00 -0.00000000000E+00 -0.49048379089E+03  0.49048379089E+03  0.00000000000E+00 0. -1.
         25    2    1    2    0    0 -0.51907798475E+02 -0.26262626122E+02 -0.17832608670E+03  0.22545942559E+03  0.12509042456E+03 0.  0.
         23    2    1    2    0    0  0.51907798475E+02  0.26262626122E+02 -0.27842547807E+03  0.29875659142E+03  0.91381666687E+02 0.  0.
          5    1    3    3  502    0  0.22532400991E+02  0.34710936240E+02 -0.56507117223E+02  0.70164698289E+02  0.41800000000E+01 0.  1.
         -5    1    3    3    0  502 -0.74440199466E+02 -0.60973562363E+02 -0.12181896947E+03  0.15529472730E+03  0.41800000000E+01 0.  1.
        -11    1    4    4    0    0  0.20624830968E+02  0.59258886092E+02 -0.15465461353E+03  0.16689831850E+03  0.00000000000E+00 0.  1.
         11    1    4    4    0    0  0.31282967507E+02 -0.32996259970E+02 -0.12377086454E+03  0.13185827292E+03  0.00000000000E+00 0. -1.
</event>
<event>
 8    1  0.3541538E-009  0.1292732E+03  0.7561462E-02  0.1228538E+00
          4   -1    0    0  501    0  0.00000000000E+00  0.00000000000E+00  0.11099169978E+03  0.11099169978E+03  0.00000000000E+00 0.  1.
         -4   -1    0    0    0  501 -0.00000000000E+00 -0.00000000000E+00 -0.23732485032E+03  0.23732485032E+03  0.00000000000E+00 0. -1.
         25    2    1    2    0    0  0.99219816320E+02 -0.26381862351E+02 -0.13347974592E+03  0.20977505064E+03  0.12509258446E+03 0.  0.
         23    2    1    2    0    0 -0.99219816320E+02  0.26381862351E+02  0.71465953752E+01  0.13854149947E+03  0.92747499363E+02 0.  0.
          5    1    3    3  502    0  0.93656809169E+02 -0.44572441982E+02 -0.15122637231E+03  0.18342624831E+03  0.41800000000E+01 0.  1.
         -5    1    3    3    0  502  0.55630071505E+01  0.18190579631E+02  0.17746626389E+02  0.26348802327E+02  0.41800000000E+01 0.  1.
        -11    1    4    4    0    0 -0.22415841880E+02 -0.31802894498E+02  0.15373314292E+02  0.41835784419E+02  0.00000000000E+00 0.  1.
         11    1    4    4    0    0 -0.76803974440E+02  0.58184756848E+02 -0.82267189172E+01  0.96705715050E+02  0.00000000000E+00 0. -1.
</event>
<event>
 8    1  0.3541538E-009  0.1260663E+03  0.7561462E-02  0.1233412E+00
          1   -1    0    0  501    0  0.00000000000E+00  0.00000000000E+00  0.30338911934E+03  0.30338911934E+03  0.00000000000E+00 0. -1.
         -1   -1    0    0    0  501 -0.00000000000E+00 -0.00000000000E+00 -0.69922988222E+02  0.69922988222E+02  0.00000000000E+00 0.  1.
         25    2    1    2    0    0 -0.73324362690E+02  0.42619113272E+02  0.18751218551E+03  0.24083708017E+03  0.12509527765E+03 0.  0.
         23    2    1    2    0    0  0.73324362690E+02 -0.42619113272E+02  0.45953945603E+02  0.13247502739E+03  0.90802074780E+02 0.  0.
          5    1    3    3  502    0  0.33041123294E+02 -0.63858377922E+01  0.44345134356E+02  0.55825246027E+02  0.41800000000E+01 0. -1.
         -5    1    3    3    0  502 -0.10636548598E+03  0.49004951064E+02  0.14316705116E+03  0.18501183415E+03  0.41800000000E+01 0. -1.
        -11    1    4    4    0    0  0.53163918672E+02  0.79361133037E+00 -0.14742485406E+02  0.55175836591E+02  0.00000000000E+00 0.  1.
         11    1    4    4    0    0  0.20160444018E+02 -0.43412724602E+02  0.60696431009E+02  0.77299190795E+02  0.00000000000E+00 0. -1.
</event>
<event>
 8    1  0.3541538E-009  0.1220817E+03  0.7561462E-02  0.1239702E+00
          1   -1    0    0  501    0  0.00000000000E+00  0.00000000000E+00  0.73478687243E+03  0.73478687243E+03  0.00000000000E+00 0. -1.
         -1   -1    0    0    0  501 -0.00000000000E+00 -0.00000000000E+00 -0.34939943603E+02  0.34939943603E+02  0.00000000000E+00 0.  1.
         25    2    1    2    0    0  0.60551221719E+02  0.84154119619E+02  0.24094207841E+03  0.29060021896E+03  0.12508811219E+03 0.  0.
         23    2    1    2    0    0 -0.60551221719E+02 -0.84154119619E+02  0.45890485042E+03  0.47912659708E+03  0.90665693536E+02 0.  0.
          5    1    3    3  502    0  0.48773035377E+02  0.23615767797E+02  0.15039658636E+02  0.56393059861E+02  0.41800000000E+01 0.  1.
         -5    1    3    3    0  502  0.11778186341E+02  0.60538351822E+02  0.22590241977E+03  0.23420715910E+03  0.41800000000E+01 0.  1.
        -11    1    4    4    0    0 -0.60094984337E+02 -0.97560391987E+02  0.44610457097E+03  0.46058519893E+03  0.00000000000E+00 0. -1.
         11    1    4    4    0    0 -0.45623738191E+00  0.13406272368E+02  0.12800279448E+02  0.18541398148E+02  0.00000000000E+00 0.  1.
</event>
<event>
 8    1  0.3541538E-009  0.1114002E+03  0.7561462E-02  0.1257999E+00
          1   -1    0    0  501    0  0.00000000000E+00  0.00000000000E+00  0.15224366361E+03  0.15224366361E+03  0.00000000000E+00 0. -1.
         -1   -1    0    0    0  501 -0.00000000000E+00 -0.00000000000E+00 -0.11006725445E+03  0.11006725445E+03  0.00000000000E+00 0.  1.
         25    2    1    2    0    0  0.21118877681E+01  0.46478265062E+02 -0.30604081357E+02  0.13692482323E+03  0.12508840165E+03 0.  0.
         23    2    1    2    0    0 -0.21118877681E+01 -0.46478265062E+02  0.72780490513E+02  0.12538609483E+03  0.90884452930E+02 0.  0.
          5    1    3    3  502    0 -0.53686396070E+02  0.39967309334E+02 -0.42441626918E+02  0.79362327548E+02  0.41800000000E+01 0.  1.
         -5    1    3    3    0  502  0.55798283838E+02  0.65109557279E+01  0.11837545561E+02  0.57562495678E+02  0.41800000000E+01 0.  1.
        -11    1    4    4    0    0  0.14037388700E+02  0.23618435589E+02  0.80854555557E+01  0.28640065864E+02  0.00000000000E+00 0.  1.
         11    1    4    4    0    0 -0.16149276468E+02 -0.70096700650E+02  0.64695034957E+02  0.96746028966E+02  0.00000000000E+00 0. -1.
</event>
<event>
 8    1  0.3541538E-009  0.7866890E+02  0.7561462E-02  0.1332872E+00
          2   -1    0    0  501    0  0.00000000000E+00  0.00000000000E+00  0.39301935980E+03  0.39301935980E+03  0.00000000000E+00 0. -1.
         -2   -1    0    0    0  501 -0.00000000000E+00 -0.00000000000E+00 -0.63141172879E+02  0.63141172879E+02  0.00000000000E+00 0.  1.
         25    2    1    2    0    0  0.67652679970E+01  0.57036856646E+02  0.32060810007E+03  0.34890832808E+03  0.12509394751E+03 0.  0.
         23    2    1    2    0    0 -0.67652679970E+01 -0.57036856646E+02  0.92700868545E+01  0.10725220461E+03  0.90100660462E+02 0.  0.
          5    1    3    3  502    0  0.13789665838E+02  0.29252197960E+00  0.27571818226E+03  0.27609460133E+03  0.41800000000E+01 0. -1.
         -5    1    3    3    0  502 -0.70243978414E+01  0.56744334667E+02  0.44889917805E+02  0.72813726744E+02  0.41800000000E+01 0. -1.
        -11    1    4    4    0    0 -0.35284654335E+02 -0.32580214632E+02 -0.26946228205E+02  0.55068833576E+02  0.00000000000E+00 0.  1.
         11    1    4    4    0    0  0.28519386338E+02 -0.24456642015E+02  0.36216315059E+02  0.52183371031E+02  0.00000000000E+00 0. -1.
</event>
<event>
 8    1  0.3541538E-009  0.1487885E+03  0.7561462E-02  0.1201970E+00
         -1   -1    0    0    0  501 -0.00000000000E+00  0.00000000000E+00  0.69481191268E+02  0.69481191268E+02  0.00000000000E+00 0.  1.
          1   -1    0    0  501    0  0.00000000000E+00 -0.00000000000E+00 -0.32171293412E+03  0.32171293412E+03  0.00000000000E+00 0. -1.
         25    2    1    2    0    0 -0.43533293265E+02 -0.91884813269E+02 -0.15432621419E+03  0.22316426069E+03  0.12509092825E+03 0.  0.
         23    2    1    2    0    0  0.43533293265E+02  0.91884813269E+02 -0.97905528654E+02  0.16802986469E+03  0.91162362607E+02 0.  0.
          5    1    3    3  502    0 -0.55039460331E+02 -0.11912434308E+03 -0.12776069112E+03  0.18319448109E+03  0.41800000000E+01 0. -1.
         -5    1    3    3    0  502  0.11506167066E+02  0.27239529810E+02 -0.26565523073E+02  0.39969779596E+02  0.41800000000E+01 0. -1.
        -11    1    4    4    0    0  0.63999541967E+02  0.28949942971E+02 -0.46634944408E+02  0.84314047525E+02  0.00000000000E+00 0. -1.
         11    1    4    4    0    0 -0.20466248702E+02  0.62934870298E+02 -0.51270584246E+02  0.83715817170E+02  0.00000000000E+00 0.  1.
</event>
<event>
 8    1  0.3541538E-009  0.8474864E+02  0.7561462E-02  0.1316091E+00
          2   -1    0    0  501    0  0.00000000000E+00  0.00000000000E+00  0.86191335599E+02  0.86191335599E+02  0.00000000000E+00 0. -1.
         -2   -1    0    0    0  501 -0.00000000000E+00 -0.00000000000E+00 -0.28711492117E+03  0.28711492117E+03  0.00000000000E+00 0.  1.
         25    2    1    2    0    0  0.49083801377E+02 -0.27421955990E+02  0.80798260072E+01  0.13738406472E+03  0.12509162411E+03 0.  0.
         23    2    1    2    0    0 -0.49083801377E+02  0.27421955990E+02 -0.20900341158E+03  0.23592219205E+03  0.93891806998E+02 0.  0.
          5    1    3    3  502    0  0.57184308078E+02 -0.16802759115E+02  0.59363485330E+02  0.84225136360E+02  0.41800000000E+01 0. -1.
         -5    1    3    3    0  502 -0.81005067011E+01 -0.10619196875E+02 -0.51283659323E+02  0.53158928362E+02  0.41800000000E+01 0. -1.
        -11    1    4    4    0    0 -0.36110621469E+02  0.54702224778E+02 -0.18808373349E+03  0.19917781298E+03  0.00000000000E+00 0.  1.
         11    1    4    4    0    0 -0.12973179908E+02 -0.27280268788E+02 -0.20919678091E+02  0.36744379073E+02  0.00000000000E+00 0. -1.
</event>
<event>
 8    1  0.3541538E-009  0.9914132E+02  0.7561462E-02  0.1282112E+00
          1   -1    0    0  501    0  0.00000000000E+00  0.00000000000E+00  0.49025686257E+02  0.49025686257E+02  0.00000000000E+00 0. -1.
         -1   -1    0    0    0  501 -0.00000000000E+00 -0.00000000000E+00 -0.34983939218E+03  0.34983939218E+03  0.00000000000E+00 0.  1.
         25    2    1    2    0    0  0.22986776774E+02  0.69583638795E+02 -0.17460197313E+03  0.22694437920E+03  0.12509047740E+03 0.  0.
         23    2    1    2    0    0 -0.22986776774E+02 -0.69583638795E+02 -0.12621173279E+03  0.17192069923E+03  0.90868314805E+02 0.  0.
          5    1    3    3  502    0  0.32447199340E+02  0.17020019671E+02  0.70604231798E+01  0.37547620299E+02  0.41800000000E+01 0.  1.
         -5    1    3    3    0  502 -0.94604225663E+01  0.52563619124E+02 -0.18166239631E+03  0.18939675891E+03  0.41800000000E+01 0.  1.
        -11    1    4    4    0    0 -0.37318785658E+02 -0.54502489347E+00 -0.14966431896E+02  0.40211725888E+02  0.00000000000E+00 0.  1.
         11    1    4    4    0    0  0.14332008884E+02 -0.69038613901E+02 -0.11124530089E+03  0.13170897334E+03  0.00000000000E+00 0. -1.
</event>
<event>
 8    1  0.3541538E-009  0.1887413E+03  0.7561462E-02  0.1159602E+00
         -1   -1    0    0    0  501 -0.00000000000E+00  0.00000000000E+00  0.42558505590E+03  0.42558505590E+03  0.00000000000E+00 0.  1.
          1   -1    0    0  501    0  0.00000000000E+00 -0.00000000000E+00 -0.10495782614E+03  0.10495782614E+03  0.00000000000E+00 0. -1.
         25    2    1    2    0    0 -0.15317078080E+03 -0.63943551864E+02  0.77771213242E+02  0.22191275237E+03  0.12508733804E+03 0.  0.
         23    2    1    2    0    0  0.15317078080E+03  0.63943551864E+02  0.24285601652E+03  0.30863012967E+03  0.93399391125E+02 0.  0.
          5    1    3    3  502    0  0.63202376005E+01 -0.26804586584E+02 -0.17028777976E+02  0.32647862787E+02  0.41800000000E+01 0. -1.
         -5    1    3    3    0  502 -0.15949101840E+03 -0.37138965281E+02  0.94799991218E+02  0.18926488958E+03  0.41800000000E+01 0. -1.
        -11    1    4    4    0    0  0.16340431202E+02  0.44757800933E+02  0.35334526954E+02  0.59319467558E+02  0.00000000000E+00 0. -1.
         11    1    4    4    0    0  0.13683034960E+03  0.19185750931E+02  0.20752148957E+03  0.24931066211E+03  0.00000000000E+00 0.  1.
</event>
<event>
 8    1  0.3541538E-009  0.1451944E+03  0.7561462E-02  0.1206506E+00
         -1   -1    0    0    0  501 -0.00000000000E+00  0.00000000000E+00  0.87638915651E+02  0.87638915651E+02  0.00000000000E+00 0.  1.
          1   -1    0    0  501    0  0.00000000000E+00 -0.00000000000E+00 -0.27757851708E+03  0.27757851708E+03  0.00000000000E+00 0. -1.
         25    2    1    2    0    0 -0.35464741491E+02 -0.96456274991E+02 -0.53389360521E+02  0.17046749984E+03  0.12508870377E+03 0.  0.
         23    2    1    2    0    0  0.35464741491E+02  0.96456274991E+02 -0.13655024090E+03  0.19474993289E+03  0.93380978766E+02 0.  0.
          5    1    3    3  502    0 -0.51232965264E+02  0.11450651915E+02 -0.20124790868E+02  0.56377422489E+02  0.41800000000E+01 0. -1.
         -5    1    3    3    0  502  0.15768223773E+02 -0.10790692691E+03 -0.33264569653E+02  0.11409007735E+03  0.41800000000E+01 0. -1.
        -11    1    4    4    0    0  0.11892051890E+02  0.10335056606E+03 -0.13459306223E+03  0.17011188320E+03  0.00000000000E+00 0. -1.
         11    1    4    4    0    0  0.23572689600E+02 -0.68942910682E+01 -0.19571786699E+01  0.24638049693E+02  0.00000000000E+00 0.  1.
</event>
<event>
 8    1  0.3541538E-009  0.9532687E+02  0.7561462E-02  0.1290442E+00
          3   -1    0    0  501    0  0.00000000000E+00  0.00000000000E+00  0.17977159537E+03  0.17977159537E+03  0.00000000000E+00 0. -1.
         -3   -1    0    0    0  501 -0.00000000000E+00 -0.00000000000E+00 -0.92747425825E+02  0.92747425825E+02  0.00000000000E+00 0.  1.
         25    2    1    2    0    0 -0.52876877281E+02  0.29545474000E+02  0.11657508458E+02  0.13947189930E+03  0.12509042331E+03 0.  0.
         23    2    1    2    0    0  0.52876877281E+02 -0.29545474000E+02  0.75366661089E+02  0.13304712190E+03  0.91392033884E+02 0.  0.
          5    1    3    3  502    0  0.85016942903E+01 -0.23411850735E+02  0.45090676070E+02  0.51682057129E+02  0.41800000000E+01 0.  1.
         -5    1    3    3    0  502 -0.61378571572E+02  0.52957324734E+02 -0.33433167612E+02  0.87789842167E+02  0.41800000000E+01 0.  1.
        -11    1    4    4    0    0  0.14960580206E+02 -0.41783425205E+02  0.81436864425E+02  0.92745007786E+02  0.00000000000E+00 0.  1.
         11    1    4    4    0    0  0.37916297075E+02  0.12237951205E+02 -0.60702033358E+01  0.40302114115E+02  0.00000000000E+00 0. -1.
</event>
<event>
 8    1  0.3541538E-009  0.7376780E+02  0.7561462E-02  0.1347730E+00
          2   -1    0    0  501    0  0.00000000000E+00  0.00000000000E+00  0.22652795576E+03  0.22652795576E+03  0.00000000000E+00 0. -1.
         -2   -1    0    0    0  501 -0.00000000000E+00 -0.00000000000E+00 -0.68887552415E+02  0.68887552415E+02  0.00000000000E+00 0.  1.
         25    2    1    2    0    0  0.39656961418E+02 -0.49129810279E+02  0.92903285531E+02  0.16812316463E+03  0.12509182698E+03 0.  0.
         23    2    1    2    0    0 -0.39656961418E+02  0.49129810279E+02  0.64737117813E+02  0.12729234354E+03  0.89588132334E+02 0.  0.
          5    1    3    3  502    0  0.14065470001E+02 -0.51763478682E+02 -0.16010046373E+02  0.56134562941E+02  0.41800000000E+01 0.  1.
         -5    1    3    3    0  502  0.25591491416E+02  0.26336684031E+01  0.10891333190E+03  0.11198860169E+03  0.41800000000E+01 0.  1.
        -11    1    4    4    0    0 -0.98907857090E+01  0.31627569455E+02  0.82177536155E+02  0.88607438966E+02  0.00000000000E+00 0. -1.
         11    1    4    4    0    0 -0.29766175708E+02  0.17502240825E+02 -0.17440418342E+02  0.38684904577E+02  0.00000000000E+00 0.  1.
</event>
<event>
 8    1  0.3541538E-009  0.1255736E+03  0.7561462E-02  0.1234176E+00
          1   -1    0    0  501    0  0.00000000000E+00  0.00000000000E+00  0.34989954071E+02  0.34989954071E+02  0.00000000000E+00 0. -1.
         -1   -1    0    0    0  501 -0.00000000000E+00 -0.00000000000E+00 -0.63910383783E+03  0.63910383783E+03  0.00000000000E+00 0.  1.
         25    2    1    2    0    0 -0.17921652729E+02  0.87082787219E+02 -0.45565419930E+03  0.48080501811E+03  0.12509244036E+03 0.  0.
         23    2    1    2    0    0  0.17921652729E+02 -0.87082787219E+02 -0.14845968447E+03  0.19328877380E+03  0.86114311805E+02 0.  0.
          5    1    3    3  502    0  0.13659220084E+02  0.11042137330E+03 -0.37186661475E+03  0.38817741504E+03  0.41800000000E+01 0.  1.
         -5    1    3    3    0  502 -0.31580872813E+02 -0.23338586080E+02 -0.83787584541E+02  0.92627603073E+02  0.41800000000E+01 0.  1.
        -11    1    4    4    0    0 -0.15714195906E+02 -0.21758958716E+02 -0.10400443217E+03  0.10741187155E+03  0.00000000000E+00 0.  1.
         11    1    4    4    0    0  0.33635848635E+02 -0.65323828503E+02 -0.44455252293E+02  0.85876902250E+02  0.00000000000E+00 0. -1.
</event>
<event>
 8    1  0.3541538E-009  0.1203909E+03  0.7561462E-02  0.1242454E+00
          2   -1    0    0  501    0  0.00000000000E+00  0.00000000000E+00  0.48106745988E+03  0.48106745988E+03  0.00000000000E+00 0. -1.
         -2   -1    0    0    0  501 -0.00000000000E+00 -0.00000000000E+00 -0.34218359928E+02  0.34218359928E+02  0.00000000000E+00 0.  1.
         25    2    1    2    0    0 -0.29033356249E+02 -0.58751663785E+02  0.28070463636E+03  0.31422553689E+03  0.12509157202E+03 0.  0.
         23    2    1    2    0    0  0.29033356249E+02  0.58751663785E+02  0.16614446359E+03  0.20106028291E+03  0.92339378436E+02 0.  0.
          5    1    3    3  502    0  0.46543836845E+02 -0.10589773196E+02  0.66257607966E+02  0.81768056465E+02  0.41800000000E+01 0. -1.
         -5    1    3    3    0  502 -0.75577193095E+02 -0.48161890589E+02  0.21444702839E+03  0.23245748043E+03  0.41800000000E+01 0. -1.
        -11    1    4    4    0    0  0.48153353613E+02  0.78672612298E+01  0.37935950790E+02  0.61804333390E+02  0.00000000000E+00 0. -1.
         11    1    4    4    0    0 -0.19119997363E+02  0.50884402555E+02  0.12820851280E+03  0.13925594952E+03  0.00000000000E+00 0.  1.
</event>
<event>
 8    1  0.3541538E-009  0.1057498E+03  0.7561462E-02  0.1268649E+00
         -1   -1    0    0    0  501 -0.00000000000E+00  0.00000000000E+00  0.24906376890E+03  0.24906376890E+03  0.00000000000E+00 0.  1.
          1   -1    0    0  501    0  0.00000000000E+00 -0.00000000000E+00 -0.13296725904E+03  0.13296725904E+03  0.00000000000E+00 0. -1.
         25    2    1    2    0    0 -0.31341335944E+02  0.37739622194E+02 -0.81035636953E+02  0.15689515406E+03  0.12507100579E+03 0.  0.
         23    2    1    2    0    0  0.31341335944E+02 -0.37739622194E+02  0.19713214682E+03  0.22513587388E+03  0.97049059618E+02 0.  0.
          5    1    3    3  502    0 -0.28244636478E+02 -0.30157514343E+02  0.10472968745E+02  0.42829786778E+02  0.41800000000E+01 0. -1.
         -5    1    3    3    0  502 -0.30966994666E+01  0.67897136537E+02 -0.91508605698E+02  0.11406536729E+03  0.41800000000E+01 0. -1.
        -11    1    4    4    0    0  0.50176370838E+02 -0.56311032010E+02  0.17530655823E+03  0.19084284077E+03  0.00000000000E+00 0.  1.
         11    1    4    4    0    0 -0.18835034893E+02  0.18571409815E+02  0.21825588596E+02  0.34293033104E+02  0.00000000000E+00 0. -1.
</event>
<event>
 8    1  0.3541538E-009  0.1315792E+03  0.7561462E-02  0.1225131E+00
          2   -1    0    0  501    0  0.00000000000E+00  0.00000000000E+00  0.95010383805E+03  0.95010383805E+03  0.00000000000E+00 0.  1.
         -2   -1    0    0    0  501 -0.00000000000E+00 -0.00000000000E+00 -0.28153760033E+02  0.28153760033E+02  0.00000000000E+00 0. -1.
         25    2    1    2    0    0  0.63887564825E+02  0.97855558167E+02  0.61137545483E+03  0.63488950229E+03  0.12508957647E+03 0.  0.
         23    2    1    2    0    0 -0.63887564825E+02 -0.97855558167E+02  0.31057462319E+03  0.34336809580E+03  0.88248067625E+02 0.  0.
          5    1    3    3  502    0  0.60417173374E+02  0.67485556041E+02  0.17204852643E+03  0.19448059790E+03  0.41800000000E+01 0.  1.
         -5    1    3    3    0  502  0.34703914508E+01  0.30370002126E+02  0.43932692840E+03  0.44040890439E+03  0.41800000000E+01 0.  1.
        -11    1    4    4    0    0 -0.40388987305E+01 -0.78682645877E+02  0.12825399329E+03  0.15052029185E+03  0.00000000000E+00 0. -1.
         11    1    4    4    0    0 -0.59848666095E+02 -0.19172912291E+02  0.18232062990E+03  0.19284780395E+03  0.00000000000E+00 0.  1.
</event>
<event>
 8    1  0.3541538E-009  0.1215586E+03  0.7561462E-02  0.1240548E+00
          1   -1    0    0  501    0  0.00000000000E+00  0.00000000000E+00  0.78326002968E+02  0.78326002968E+02  0.00000000000E+00 0. -1.
         -1   -1    0    0    0  501 -0.00000000000E+00 -0.00000000000E+00 -0.40711999081E+03  0.40711999081E+03  0.00000000000E+00 0.  1.
         25    2    1    2    0    0  0.52755108436E+02 -0.70143187786E+02 -0.23063716115E+02  0.15453892393E+03  0.12508867155E+03 0.  0.
         23    2    1    2    0    0 -0.52755108436E+02  0.70143187786E+02 -0.30573027173E+03  0.33090706985E+03  0.91243200096E+02 0.  0.
          5    1    3    3  502    0 -0.28932526009E+02  0.10957107761E+02  0.13033176295E+02  0.33830243217E+02  0.41800000000E+01 0. -1.
         -5    1    3    3    0  502  0.81687634445E+02 -0.81100295547E+02 -0.36096892410E+02  0.12070868072E+03  0.41800000000E+01 0. -1.
        -11    1    4    4    0    0 -0.25628533579E+02  0.63941835245E+02 -0.29173826506E+03  0.29976089693E+03  0.00000000000E+00 0.  1.
         11    1    4    4    0    0 -0.27126574857E+02  0.62013525406E+01 -0.13992006671E+02  0.31146172919E+02  0.00000000000E+00 0. -1.
</event>
<event>
 8    1  0.3541538E-009  0.2421771E+03  0.7561462E-02  0.1118351E+00
         -1   -1    0    0    0  501 -0.00000000000E+00  0.00000000000E+00  0.12577228954E+03  0.12577228954E+03  0.00000000000E+00 0.  1.
          1   -1    0    0  501    0  0.00000000000E+00 -0.00000000000E+00 -0.52817477820E+03  0.52817477820E+03  0.00000000000E+00 0. -1.
         25    2    1    2    0    0 -0.17670526359E+03  0.14963822198E+03 -0.17804883586E+03  0.31774966604E+03  0.12508842736E+03 0.  0.
         23    2    1    2    0    0  0.17670526359E+03 -0.14963822198E+03 -0.22435365280E+03  0.33619740171E+03  0.95277404088E+02 0.  0.
          5    1    3    3  502    0  0.11631206014E+02  0.21484441855E+02  0.52416657363E+01  0.25334041424E+02  0.41800000000E+01 0. -1.
         -5    1    3    3    0  502 -0.18833646961E+03  0.12815378012E+03 -0.18329050160E+03  0.29241562462E+03  0.41800000000E+01 0. -1.
        -11    1    4    4    0    0  0.95554183831E+02 -0.75018989257E+02 -0.53224051278E+02  0.13263201134E+03  0.00000000000E+00 0.  1.
         11    1    4    4    0    0  0.81151079763E+02 -0.74619232720E+02 -0.17112960152E+03  0.20356539037E+03  0.00000000000E+00 0. -1.
</event>
<event>
 8    1  0.3541538E-009  0.1143623E+03  0.7561462E-02  0.1252698E+00
         -1   -1    0    0    0  501 -0.00000000000E+00  0.00000000000E+00  0.17296741137E+03  0.17296741137E+03  0.00000000000E+00 0.  1.
          1   -1    0    0  501    0  0.00000000000E+00 -0.00000000000E+00 -0.83526421337E+02  0.83526421337E+02  0.00000000000E+00 0. -1.
         25    2    1    2    0    0  0.38850259641E+01 -0.51302721985E+02  0.45839386458E+02  0.14281736201E+03  0.12509391204E+03 0.  0.
         23    2    1    2    0    0 -0.38850259641E+01  0.51302721985E+02  0.43601603571E+02  0.11367647070E+03  0.91510531887E+02 0.  0.
          5    1    3    3  502    0 -0.49263354565E+02 -0.51856557583E+02 -0.12868989783E+01  0.71659676083E+02  0.41800000000E+01 0. -1.
         -5    1    3    3    0  502  0.53148380529E+02  0.55383559863E+00  0.47126285436E+02  0.71157685922E+02  0.41800000000E+01 0. -1.
        -11    1    4    4    0    0  0.43126011632E+02  0.22758010708E+02  0.11892359885E+02  0.50191714000E+02  0.00000000000E+00 0. -1.
         11    1    4    4    0    0 -0.47011037596E+02  0.28544711277E+02  0.31709243685E+02  0.63484756697E+02  0.00000000000E+00 0.  1.
</event>
<event>
 8    1  0.3541538E-009  0.1099411E+03  0.7561462E-02  0.1260679E+00
          2   -1    0    0  501    0  0.00000000000E+00  0.00000000000E+00  0.18486338354E+03  0.18486338354E+03  0.00000000000E+00 0. -1.
         -2   -1    0    0    0  501 -0.00000000000E+00 -0.00000000000E+00 -0.85271436877E+02  0.85271436877E+02  0.00000000000E+00 0.  1.
         25    2    1    2    0    0 -0.62200399262E+02  0.26226082164E+01  0.46688768554E+02  0.14731858549E+03  0.12508859572E+03 0.  0.
         23    2    1    2    0    0  0.62200399262E+02 -0.26226082164E+01  0.52903178109E+02  0.12281623493E+03  0.91702309493E+02 0.  0.
          5    1    3    3  502    0 -0.99144260162E+02  0.10648148831E+02  0.44345282701E+02  0.10921054846E+03  0.41800000000E+01 0. -1.
         -5    1    3    3    0  502  0.36943860899E+02 -0.80255406146E+01  0.23434858534E+01  0.38108037030E+02  0.41800000000E+01 0. -1.
        -11    1    4    4    0    0  0.14987728612E+02 -0.25501935966E+02 -0.17990164909E+02  0.34621189760E+02  0.00000000000E+00 0.  1.
         11    1    4    4    0    0  0.47212670651E+02  0.22879327750E+02  0.70893343019E+02  0.88195045170E+02  0.00000000000E+00 0. -1.
</event>
<event>
 8    1  0.3541538E-009  0.9910681E+02  0.7561462E-02  0.1282185E+00
          2   -1    0    0  501    0  0.00000000000E+00  0.00000000000E+00  0.17541169444E+02  0.17541169444E+02  0.00000000000E+00 0. -1.
         -2   -1    0    0    0  501 -0.00000000000E+00 -0.00000000000E+00 -0.84383090789E+03  0.84383090789E+03  0.00000000000E+00 0.  1.
         25    2    1    2    0    0 -0.45268560070E+02  0.30708067236E+02 -0.56447829013E+03  0.58075418466E+03  0.12508978794E+03 0.  0.
         23    2    1    2    0    0  0.45268560070E+02 -0.30708067236E+02 -0.26181144832E+03  0.28061789268E+03  0.84905472711E+02 0.  0.
          5    1    3    3  502    0  0.10470283343E+02  0.45769362870E+02 -0.45009345286E+03  0.45255502441E+03  0.41800000000E+01 0. -1.
         -5    1    3    3    0  502 -0.55738843413E+02 -0.15061295634E+02 -0.11438483726E+03  0.12819916024E+03  0.41800000000E+01 0. -1.
        -11    1    4    4    0    0 -0.10469668211E+02 -0.35721333110E+02 -0.55324157176E+02  0.66681256428E+02  0.00000000000E+00 0.  1.
         11    1    4    4    0    0  0.55738228281E+02  0.50132658733E+01 -0.20648729114E+03  0.21393663625E+03  0.00000000000E+00 0. -1.
</event>
<event>
 8    1  0.3541538E-009  0.4149009E+03  0.7561462E-02  0.1038739E+00
         -2   -1    0    0    0  501 -0.00000000000E+00  0.00000000000E+00  0.48073608369E+03  0.48073608369E+03  0.00000000000E+00 0.  1.
          2   -1    0    0  501    0  0.00000000000E+00 -0.00000000000E+00 -0.38248241749E+03  0.38248241749E+03  0.00000000000E+00 0. -1.
         25    2    1    2    0    0  0.30786715833E+03 -0.26106419617E+03 -0.47805224973E+02  0.42528824667E+03  0.12509217210E+03 0.  0.
         23    2    1    2    0    0 -0.30786715833E+03  0.26106419617E+03  0.14605889118E+03  0.43793025451E+03  0.86677600451E+02 0.  0.
          5    1    3    3  502    0  0.30824871119E+03 -0.27002987650E+03 -0.38366429899E+02  0.41161007944E+03  0.41800000000E+01 0. -1.
         -5    1    3    3    0  502 -0.38155286265E+00  0.89656803266E+01 -0.94387950743E+01  0.13678167230E+02  0.41800000000E+01 0. -1.
        -11    1    4    4    0    0 -0.13848863372E+03  0.16479477227E+03  0.51322497863E+02  0.22129260590E+03  0.00000000000E+00 0. -1.
         11    1    4    4    0    0 -0.16937852461E+03  0.96269423900E+02  0.94736393317E+02  0.21663764861E+03  0.00000000000E+00 0.  1.
</event>
<event>
 8    1  0.3541538E-009  0.8299721E+02  0.7561462E-02  0.1320755E+00
          2   -1    0    0  501    0  0.00000000000E+00  0.00000000000E+00  0.14396804548E+04  0.14396804548E+04  0.00000000000E+00 0. -1.
         -2   -1    0    0    0  501 -0.00000000000E+00 -0.00000000000E+00 -0.20159431738E+02  0.20159431738E+02  0.00000000000E+00 0.  1.
         25    2    1    2    0    0  0.35421880135E+02  0.60491747442E+01  0.12951601063E+04  0.13016828356E+04  0.12508877452E+03 0.  0.
         23    2    1    2    0    0 -0.35421880135E+02 -0.60491747442E+01  0.12436091669E+03  0.15815705084E+03  0.90866457083E+02 0.  0.
          5    1    3    3  502    0  0.41925174721E+02 -0.52420253423E+02  0.52938727679E+03  0.53364216894E+03  0.41800000000E+01 0.  1.
         -5    1    3    3    0  502 -0.65032945859E+01  0.58469428168E+02  0.76577282953E+03  0.76804066671E+03  0.41800000000E+01 0.  1.
        -11    1    4    4    0    0 -0.83883901291E+01  0.58490639467E+01 -0.13630434584E+02  0.17040111061E+02  0.00000000000E+00 0.  1.
         11    1    4    4    0    0 -0.27033490006E+02 -0.11898238691E+02  0.13799135128E+03  0.14111693978E+03  0.00000000000E+00 0. -1.
</event>
<event>
 8    1  0.3541538E-009  0.1175083E+03  0.7561462E-02  0.1247265E+00
         -1   -1    0    0    0  501 -0.00000000000E+00  0.00000000000E+00  0.83835652946E+02  0.83835652946E+02  0.00000000000E+00 0.  1.
          1   -1    0    0  501    0  0.00000000000E+00 -0.00000000000E+00 -0.19724096948E+03  0.19724096948E+03  0.00000000000E+00 0. -1.
         25    2    1    2    0    0  0.48482810624E+02 -0.27909391538E+02 -0.10700104635E+03  0.17385885173E+03  0.12509260307E+03 0.  0.
         23    2    1    2    0    0 -0.48482810624E+02  0.27909391538E+02 -0.64042701844E+01  0.10721777069E+03  0.91242087954E+02 0.  0.
          5    1    3    3  502    0  0.42160582571E+02  0.45795391465E+02 -0.56705633889E+02  0.84307377595E+02  0.41800000000E+01 0.  1.
         -5    1    3    3    0  502  0.63222280528E+01 -0.73704783003E+02 -0.50295412457E+02  0.89551474132E+02  0.41800000000E+01 0.  1.
        -11    1    4    4    0    0 -0.30053887946E+02 -0.27133069896E+02  0.17924132873E+02  0.44279952596E+02  0.00000000000E+00 0.  1.
         11    1    4    4    0    0 -0.18428922678E+02  0.55042461434E+02 -0.24328403057E+02  0.62937818099E+02  0.00000000000E+00 0. -1.
</event>
<event>
 8    1  0.3541538E-009  0.2159460E+03  0.7561462E-02  0.1136942E+00
         -1   -1    0    0    0  501 -0.00000000000E+00  0.00000000000E+00  0.42410689445E+03  0.42410689445E+03  0.00000000000E+00 0.  1.
          1   -1    0    0  501    0  0.00000000000E+00 -0.00000000000E+00 -0.13052449977E+03  0.13052449977E+03  0.00000000000E+00 0. -1.
         25    2    1    2    0    0  0.20594854686E+03 -0.26763615589E+01  0.11423556168E+03  0.26668055236E+03  0.12508711601E+03 0.  0.
         23    2    1    2    0    0 -0.20594854686E+03  0.26763615589E+01  0.17934683300E+03  0.28795084186E+03  0.91260253995E+02 0.  0.
          5    1    3    3  502    0  0.13337201652E+03  0.83706565609E+01  0.34884606655E+01  0.13374529689E+03  0.41800000000E+01 0. -1.
         -5    1    3    3    0  502  0.72576530335E+02 -0.11047018120E+02  0.11074710101E+03  0.13293525547E+03  0.41800000000E+01 0. -1.
        -11    1    4    4    0    0 -0.83945397350E+02 -0.43086785902E+02  0.64887092267E+02  0.11451478332E+03  0.00000000000E+00 0.  1.
         11    1    4    4    0    0 -0.12200314951E+03  0.45763147461E+02  0.11445974073E+03  0.17343605854E+03  0.00000000000E+00 0. -1.
</event>
<event>
 8    1  0.3541538E-009  0.1133931E+03  0.7561462E-02  0.1254412E+00
         -1   -1    0    0    0  501 -0.00000000000E+00  0.00000000000E+00  0.59838024336E+02  0.59838024336E+02  0.00000000000E+00 0.  1.
          1   -1    0    0  501    0  0.00000000000E+00 -0.00000000000E+00 -0.27044291501E+03  0.27044291501E+03  0.00000000000E+00 0. -1.
         25    2    1    2    0    0  0.29203446649E+02  0.51176350281E+02 -0.15783263249E+03  0.20983392414E+03  0.12508907113E+03 0.  0.
         23    2    1    2    0    0 -0.29203446649E+02 -0.51176350281E+02 -0.52772258185E+02  0.12044701521E+03  0.90833430601E+02 0.  0.
          5    1    3    3  502    0 -0.40082582925E+02  0.43949519365E+02 -0.11033342021E+03  0.12541574750E+03  0.41800000000E+01 0.  1.
         -5    1    3    3    0  502  0.69286029574E+02  0.72268309159E+01 -0.47499212282E+02  0.84418176636E+02  0.41800000000E+01 0.  1.
        -11    1    4    4    0    0  0.23456446994E+02  0.67613063571E+00 -0.38635320414E+02  0.45203429535E+02  0.00000000000E+00 0.  1.
         11    1    4    4    0    0 -0.52659893643E+02 -0.51852480917E+02 -0.14136937771E+02  0.75243585675E+02  0.00000000000E+00 0. -1.
</event>
<event>
 8    1  0.3541538E-009  0.1299740E+03  0.7561462E-02  0.1227494E+00
         -2   -1    0    0    0  501 -0.00000000000E+00  0.00000000000E+00  0.41180429048E+02  0.41180429048E+02  0.00000000000E+00 0.  1.
          2   -1    0    0  501    0  0.00000000000E+00 -0.00000000000E+00 -0.66499128012E+03  0.66499128012E+03  0.00000000000E+00 0. -1.
         25    2    1    2    0    0 -0.89173292272E+02  0.46166745271E+02 -0.48618742876E+03  0.51196608808E+03  0.12509122686E+03 0.  0.
         23    2    1    2    0    0  0.89173292272E+02 -0.46166745271E+02 -0.13762342231E+03  0.19420562109E+03  0.93232893711E+02 0.  0.
          5    1    3    3  502    0 -0.51148260968E+02 -0.12975489508E+02 -0.60063094410E+02  0.80059700462E+02  0.41800000000E+01 0.  1.
         -5    1    3    3    0  502 -0.38025031304E+02  0.59142234779E+02 -0.42612433435E+03  0.43190638762E+03  0.41800000000E+01 0.  1.
        -11    1    4    4    0    0  0.67607583826E+02 -0.74739556728E+02 -0.10822669007E+03  0.14788442505E+03  0.00000000000E+00 0. -1.
         11    1    4    4    0    0  0.21565708446E+02  0.28572811457E+02 -0.29396732247E+02  0.46321196035E+02  0.00000000000E+00 0.  1.
</event>
<event>
 8    1  0.3541538E-009  0.7830784E+02  0.7561462E-02  0.1333923E+00
          2   -1    0    0  501    0  0.00000000000E+00  0.00000000000E+00  0.16740427818E+03  0.16740427818E+03  0.00000000000E+00 0. -1.
         -2   -1    0    0    0  501 -0.00000000000E+00 -0.00000000000E+00 -0.16904154043E+03  0.16904154043E+03  0.00000000000E+00 0.  1.
         25    2    1    2    0    0 -0.39315858131E+02  0.20951863336E+02 -0.12159059118E+03  0.18004283378E+03  0.12508570204E+03 0.  0.
         23    2    1    2    0    0  0.39315858131E+02 -0.20951863336E+02  0.11995332893E+03  0.15640298484E+03  0.89935394961E+02 0.  0.
          5    1    3    3  502    0 -0.38918967876E+01 -0.11188787923E+02 -0.13058985656E+03  0.13119267843E+03  0.41800000000E+01 0.  1.
         -5    1    3    3    0  502 -0.35423961343E+02  0.32140651259E+02  0.89992653835E+01  0.48850155353E+02  0.41800000000E+01 0.  1.
        -11    1    4    4    0    0 -0.26699480231E+02 -0.12515291152E+02  0.59886412024E+02  0.66752356530E+02  0.00000000000E+00 0. -1.
         11    1    4    4    0    0  0.66015338361E+02 -0.84365721838E+01  0.60066916904E+02  0.89650628305E+02  0.00000000000E+00 0.  1.
</event>
<event>
 8    1  0.3541538E-009  0.1066430E+03  0.7561462E-02  0.1266916E+00
         -2   -1    0    0    0  501 -0.00000000000E+00  0.00000000000E+00  0.26968890502E+03  0.26968890502E+03  0.00000000000E+00 0.  1.
          2   -1    0    0  501    0  0.00000000000E+00 -0.00000000000E+00 -0.82680773092E+02  0.82680773092E+02  0.00000000000E+00 0. -1.
         25    2    1    2    0    0  0.55382457174E+02  0.47001641981E+02  0.18989059825E+02  0.14587866594E+03  0.12507449729E+03 0.  0.
         23    2    1    2    0    0 -0.55382457174E+02 -0.47001641981E+02  0.16801907210E+03  0.20649101217E+03  0.95560235485E+02 0.  0.
          5    1    3    3  502    0  0.46646754085E+02 -0.12228017905E+01  0.63925731969E+02  0.79255198686E+02  0.41800000000E+01 0.  1.
         -5    1    3    3    0  502  0.87357030884E+01  0.48224443771E+02 -0.44936672144E+02  0.66623467254E+02  0.41800000000E+01 0.  1.
        -11    1    4    4    0    0 -0.65393175800E+01  0.27443198121E+02  0.61487400993E+02  0.67650515729E+02  0.00000000000E+00 0.  1.
         11    1    4    4    0    0 -0.48843139594E+02 -0.74444840101E+02  0.10653167111E+03  0.13884049644E+03  0.00000000000E+00 0. -1.
</event>
<event>
 8    1  0.3541538E-009  0.1152597E+03  0.7561462E-02  0.1251129E+00
          3   -1    0    0  501    0  0.00000000000E+00  0.00000000000E+00  0.17641002192E+03  0.17641002192E+03  0.00000000000E+00 0. -1.
         -3   -1    0    0    0  501 -0.00000000000E+00 -0.00000000000E+00 -0.14020751230E+03  0.14020751230E+03  0.00000000000E+00 0.  1.
         25    2    1    2    0    0  0.65251196664E+02  0.34239288319E+02  0.11131855779E+03  0.18294703549E+03  0.12509096273E+03 0.  0.
         23    2    1    2    0    0 -0.65251196664E+02 -0.34239288319E+02 -0.75116048171E+02  0.13367049873E+03  0.82433815919E+02 0.  0.
          5    1    3    3  502    0 -0.21133230971E+02  0.37099747546E+02  0.80265425156E+02  0.91011074022E+02  0.41800000000E+01 0. -1.
         -5    1    3    3    0  502  0.86384427635E+02 -0.28604592271E+01  0.31053132634E+02  0.91935961468E+02  0.41800000000E+01 0. -1.
        -11    1    4    4    0    0  0.12347017927E+02 -0.17965778896E+02 -0.42837974409E+02  0.48065685415E+02  0.00000000000E+00 0.  1.
         11    1    4    4    0    0 -0.77598214591E+02 -0.16273509424E+02 -0.32278073763E+02  0.85604813314E+02  0.00000000000E+00 0. -1.
</event>
<event>
 8    1  0.3541538E-009  0.1427359E+03  0.7561462E-02  0.1209694E+00
         -3   -1    0    0    0  501 -0.00000000000E+00  0.00000000000E+00  0.18326302488E+03  0.18326302488E+03  0.00000000000E+00 0.  1.
          3   -1    0    0  501    0  0.00000000000E+00 -0.00000000000E+00 -0.17790364613E+03  0.17790364613E+03  0.00000000000E+00 0. -1.
         25    2    1    2    0    0 -0.11399134164E+03  0.45296755281E+02 -0.72734212650E+02  0.18969268640E+03  0.12508887870E+03 0.  0.
         23    2    1    2    0    0  0.11399134164E+03 -0.45296755281E+02  0.78093591396E+02  0.17147398460E+03  0.90878470333E+02 0.  0.
          5    1    3    3  502    0 -0.10885716385E+03  0.19947639482E+02 -0.10189436598E+03  0.15049160994E+03  0.41800000000E+01 0.  1.
         -5    1    3    3    0  502 -0.51341777917E+01  0.25349115799E+02  0.29160153333E+02  0.39201076462E+02  0.41800000000E+01 0.  1.
        -11    1    4    4    0    0  0.71749599265E+02  0.16544566902E+02  0.58552856007E+02  0.94075313633E+02  0.00000000000E+00 0. -1.
         11    1    4    4    0    0  0.42241742379E+02 -0.61841322183E+02  0.19540735390E+02  0.77398670971E+02  0.00000000000E+00 0.  1.
</event>
<event>
 8    1  0.3541538E-009  0.9344673E+02  0.7561462E-02  0.1294713E+00
         -2   -1    0    0    0  501 -0.00000000000E+00  0.00000000000E+00  0.20132017478E+02  0.20132017478E+02  0.00000000000E+00 0. -1.
          2   -1    0    0  501    0  0.00000000000E+00 -0.00000000000E+00 -0.92762778008E+03  0.92762778008E+03  0.00000000000E+00 0.  1.
         25    2    1    2    0    0  0.77711887089E+01  0.77978572932E+02 -0.61180075756E+03  0.62935570048E+03  0.12508949424E+03 0.  0.
         23    2    1    2    0    0 -0.77711887089E+01 -0.77978572932E+02 -0.29569500504E+03  0.31840409707E+03  0.88343555603E+02 0.  0.
          5    1    3    3  502    0  0.15721619777E+02  0.57595878798E+02 -0.96357887273E+02  0.11343178312E+03  0.41800000000E+01 0.  1.
         -5    1    3    3    0  502 -0.79504310678E+01  0.20382694134E+02 -0.51544287028E+03  0.51592391736E+03  0.41800000000E+01 0.  1.
        -11    1    4    4    0    0  0.29236180161E+02 -0.51657904575E+02 -0.90394794889E+02  0.10814116829E+03  0.00000000000E+00 0. -1.
         11    1    4    4    0    0 -0.37007368870E+02 -0.26320668357E+02 -0.20530021015E+03  0.21026292879E+03  0.00000000000E+00 0.  1.
</event>
<event>
 8    1  0.3541538E-009  0.1618794E+03  0.7561462E-02  0.1186591E+00
         -2   -1    0    0    0  501 -0.00000000000E+00  0.00000000000E+00  0.14362561713E+03  0.14362561713E+03  0.00000000000E+00 0.  1.
          2   -1    0    0  501    0  0.00000000000E+00 -0.00000000000E+00 -0.20916660202E+03  0.20916660202E+03  0.00000000000E+00 0. -1.
         25    2    1    2    0    0  0.87027514904E+02 -0.10154800636E+03 -0.48565867286E+02  0.18945035318E+03  0.12508799666E+03 0.  0.
         23    2    1    2    0    0 -0.87027514904E+02  0.10154800636E+03 -0.16975117611E+02  0.16334186597E+03  0.92231364586E+02 0.  0.
          5    1    3    3  502    0  0.55874658034E+02  0.17336955472E+02 -0.45026239327E+01  0.58824259092E+02  0.41800000000E+01 0. -1.
         -5    1    3    3    0  502  0.31152856870E+02 -0.11888496184E+03 -0.44063243354E+02  0.13062609409E+03  0.41800000000E+01 0. -1.
        -11    1    4    4    0    0 -0.78001800922E+02  0.56807575906E+02  0.26750817814E+02  0.10013484849E+03  0.00000000000E+00 0.  1.
         11    1    4    4    0    0 -0.90257139821E+01  0.44740430458E+02 -0.43725935424E+02  0.63207017484E+02  0.00000000000E+00 0. -1.
</event>
<event>
 8    1  0.3541538E-009  0.8027603E+02  0.7561462E-02  0.1328270E+00
         -1   -1    0    0    0  501 -0.00000000000E+00  0.00000000000E+00  0.73377819204E+02  0.73377819204E+02  0.00000000000E+00 0.  1.
          1   -1    0    0  501    0  0.00000000000E+00 -0.00000000000E+00 -0.21784428950E+03  0.21784428950E+03  0.00000000000E+00 0. -1.
         25    2    1    2    0    0  0.97459774194E+01  0.58340696242E+02 -0.10538384702E+03  0.17392806101E+03  0.12508634730E+03 0.  0.
         23    2    1    2    0    0 -0.97459774194E+01 -0.58340696242E+02 -0.39082623274E+02  0.11729404769E+03  0.93444214736E+02 0.  0.
          5    1    3    3  502    0 -0.46032967083E+01  0.74326367566E+02 -0.90421263773E+01  0.75132095043E+02  0.41800000000E+01 0. -1.
         -5    1    3    3    0  502  0.14349274128E+02 -0.15985671324E+02 -0.96341720640E+02  0.98795965968E+02  0.41800000000E+01 0. -1.
        -11    1    4    4    0    0 -0.12108525300E+02 -0.10056796905E+02 -0.61877136561E+02  0.63847753116E+02  0.00000000000E+00 0. -1.
         11    1    4    4    0    0  0.23625478805E+01 -0.48283899337E+02  0.22794513287E+02  0.53446294574E+02  0.00000000000E+00 0.  1.
</event>
<event>
 8    1  0.3541538E-009  0.9170542E+02  0.7561462E-02  0.1298774E+00
         -1   -1    0    0    0  501 -0.00000000000E+00  0.00000000000E+00  0.35654532722E+02  0.35654532722E+02  0.00000000000E+00 0.  1.
          1   -1    0    0  501    0  0.00000000000E+00 -0.00000000000E+00 -0.52796627075E+03  0.52796627075E+03  0.00000000000E+00 0. -1.
         25    2    1    2    0    0 -0.52785495164E+02 -0.35075172566E+02 -0.38577778375E+03  0.41047508726E+03  0.12509485440E+03 0.  0.
         23    2    1    2    0    0  0.52785495164E+02  0.35075172566E+02 -0.10653395428E+03  0.15314571621E+03  0.89930810901E+02 0.  0.
          5    1    3    3  502    0 -0.45011952259E+02 -0.23031179563E+01 -0.37050081861E+03  0.37325555480E+03  0.41800000000E+01 0.  1.
         -5    1    3    3    0  502 -0.77735429049E+01 -0.32772054610E+02 -0.15276965136E+02  0.37219532458E+02  0.41800000000E+01 0.  1.
        -11    1    4    4    0    0 -0.21358139107E+02 -0.17348015854E+01 -0.47469300637E+01  0.21947960900E+02  0.00000000000E+00 0. -1.
         11    1    4    4    0    0  0.74143634271E+02  0.36809974151E+02 -0.10178702422E+03  0.13119775531E+03  0.00000000000E+00 0.  1.
</event>
<event>
 8    1  0.3541538E-009  0.1900426E+03  0.7561462E-02  0.1158423E+00
          1   -1    0    0  501    0  0.00000000000E+00  0.00000000000E+00  0.12532926107E+04  0.12532926107E+04  0.00000000000E+00 0. -1.
         -1   -1    0    0    0  501 -0.00000000000E+00 -0.00000000000E+00 -0.13590881539E+03  0.13590881539E+03  0.00000000000E+00 0.  1.
         25    2    1    2    0    0  0.12189960442E+03  0.11117469577E+03  0.11745411465E+04  0.11926497985E+04  0.12508921005E+03 0.  0.
         23    2    1    2    0    0 -0.12189960442E+03 -0.11117469577E+03 -0.57157351198E+02  0.19655162759E+03  0.90256595180E+02 0.  0.
          5    1    3    3  502    0  0.12839898164E+03  0.54850186630E+02  0.98217296944E+03  0.99205647811E+03  0.41800000000E+01 0.  1.
         -5    1    3    3    0  502 -0.64993772261E+01  0.56324509145E+02  0.19236817709E+03  0.20059332041E+03  0.41800000000E+01 0.  1.
        -11    1    4    4    0    0 -0.10040382420E+03 -0.12318775641E+03 -0.33520915670E+02  0.16241860432E+03  0.00000000000E+00 0.  1.
         11    1    4    4    0    0 -0.21495780218E+02  0.12013060631E+02 -0.23636435527E+02  0.34133023267E+02  0.00000000000E+00 0. -1.
</event>
<event>
 8    1  0.3541538E-009  0.1708831E+03  0.7561462E-02  0.1176930E+00
         -4   -1    0    0    0  501 -0.00000000000E+00  0.00000000000E+00  0.43599308674E+03  0.43599308674E+03  0.00000000000E+00 0.  1.
          4   -1    0    0  501    0  0.00000000000E+00 -0.00000000000E+00 -0.12804915918E+03  0.12804915918E+03  0.00000000000E+00 0. -1.
         25    2    1    2    0    0 -0.80104706788E+02 -0.12332999559E+03  0.33756602303E+03  0.38887798226E+03  0.12509281882E+03 0.  0.
         23    2    1    2    0    0  0.80104706788E+02  0.12332999559E+03 -0.29622095468E+02  0.17516426366E+03  0.90432288820E+02 0.  0.
          5    1    3    3  502    0 -0.10683159152E+03 -0.83392838429E+02  0.29449685272E+03  0.32421169490E+03  0.41800000000E+01 0. -1.
         -5    1    3    3    0  502  0.26726884736E+02 -0.39937157159E+02  0.43069170311E+02  0.64666287360E+02  0.41800000000E+01 0. -1.
        -11    1    4    4    0    0  0.89213475059E+02  0.11538730222E+03 -0.47667906140E+02  0.15344543956E+03  0.00000000000E+00 0. -1.
         11    1    4    4    0    0 -0.91087682706E+01  0.79426933666E+01  0.18045810672E+02  0.21718824097E+02  0.00000000000E+00 0.  1.
</event>
<event>
 8    1  0.3541538E-009  0.1035908E+03  0.7561462E-02  0.1272921E+00
          1   -1    0    0  501    0  0.00000000000E+00  0.00000000000E+00  0.28247185069E+03  0.28247185069E+03  0.00000000000E+00 0. -1.
         -1   -1    0    0    0  501 -0.00000000000E+00 -0.00000000000E+00 -0.65336380890E+02  0.65336380890E+02  0.00000000000E+00 0.  1.
         25    2    1    2    0    0  0.35815231492E+01 -0.80617318016E+02  0.12882484267E+03  0.19686279226E+03  0.12508852712E+03 0.  0.
         23    2    1    2    0    0 -0.35815231492E+01  0.80617318016E+02  0.88310627132E+02  0.15094543931E+03  0.92053134185E+02 0.  0.
          5    1    3    3  502    0 -0.33570714591E+02 -0.18843942805E+02 -0.10340030316E+02  0.40080864331E+02  0.41800000000E+01 0. -1.
         -5    1    3    3    0  502  0.37152237740E+02 -0.61773375211E+02  0.13916487298E+03  0.15678192793E+03  0.41800000000E+01 0. -1.
        -11    1    4    4    0    0  0.21631615209E+02  0.59676660180E+02  0.77186004427E+01  0.63943782650E+02  0.00000000000E+00 0.  1.
         11    1    4    4    0    0 -0.25213138359E+02  0.20940657836E+02  0.80592026689E+02  0.87001656664E+02  0.00000000000E+00 0. -1.
</event>
<event>
 8    1  0.3541538E-009  0.1253977E+03  0.7561462E-02  0.1234449E+00
          1   -1    0    0  501    0  0.00000000000E+00  0.00000000000E+00  0.10090335539E+04  0.10090335539E+04  0.00000000000E+00 0. -1.
         -1   -1    0    0    0  501 -0.00000000000E+00 -0.00000000000E+00 -0.15883405693E+02  0.15883405693E+02  0.00000000000E+00 0.  1.
         25    2    1    2    0    0 -0.42610448360E+02 -0.51524373813E+02  0.57847127526E+03  0.59560630220E+03  0.12508972583E+03 0.  0.
         23    2    1    2    0    0  0.42610448360E+02  0.51524373813E+02  0.41467887291E+03  0.42931065736E+03  0.88761824445E+02 0.  0.
          5    1    3    3  502    0  0.72443534910E+00  0.39793192456E+02  0.13934522286E+03  0.14497788282E+03  0.41800000000E+01 0.  1.
         -5    1    3    3    0  502 -0.43334883709E+02 -0.91317566268E+02  0.43912605240E+03  0.45062841938E+03  0.41800000000E+01 0.  1.
        -11    1    4    4    0    0 -0.49556824804E+01  0.60924713173E+02  0.19551433542E+03  0.20484685699E+03  0.00000000000E+00 0.  1.
         11    1    4    4    0    0  0.47566130840E+02 -0.94003393608E+01  0.21916453749E+03  0.22446380037E+03  0.00000000000E+00 0. -1.
</event>
<event>
 8    1  0.3541538E-009  0.9628008E+02  0.7561462E-02  0.1288319E+00
         -2   -1    0    0    0  501 -0.00000000000E+00  0.00000000000E+00  0.12681759887E+03  0.12681759887E+03  0.00000000000E+00 0.  1.
          2   -1    0    0  501    0  0.00000000000E+00 -0.00000000000E+00 -0.89213131876E+02  0.89213131876E+02  0.00000000000E+00 0. -1.
         25    2    1    2    0    0 -0.12047700567E+02 -0.21755687638E+02  0.28738092756E+02  0.13073629604E+03  0.12509054358E+03 0.  0.
         23    2    1    2    0    0  0.12047700567E+02  0.21755687638E+02  0.88663742328E+01  0.85294434704E+02  0.81105307878E+02 0.  0.
          5    1    3    3  502    0 -0.58945314961E+02  0.16932437155E+02  0.32775363558E+02  0.69663149801E+02  0.41800000000E+01 0. -1.
         -5    1    3    3    0  502  0.46897614393E+02 -0.38688124793E+02 -0.40372708017E+01  0.61073146237E+02  0.41800000000E+01 0. -1.
        -11    1    4    4    0    0 -0.17305332027E+02  0.34151796961E+02  0.28623516777E+02  0.47802985941E+02  0.00000000000E+00 0.  1.
         11    1    4    4    0    0  0.29353032595E+02 -0.12396109323E+02 -0.19757142544E+02  0.37491448763E+02  0.00000000000E+00 0. -1.
</event>
<event>
 8    1  0.3541538E-009  0.1162061E+03  0.7561462E-02  0.1249490E+00
          2   -1    0    0  501    0  0.00000000000E+00  0.00000000000E+00  0.53003665350E+03  0.53003665350E+03  0.00000000000E+00 0. -1.
         -2   -1    0    0    0  501 -0.00000000000E+00 -0.00000000000E+00 -0.34963226473E+02  0.34963226473E+02  0.00000000000E+00 0.  1.
         25    2    1    2    0    0  0.14311918662E+02  0.80359580563E+02  0.26257114020E+03  0.30208206962E+03  0.12508988734E+03 0.  0.
         23    2    1    2    0    0 -0.14311918662E+02 -0.80359580563E+02  0.23250228683E+03  0.26291781035E+03  0.91684068506E+02 0.  0.
          5    1    3    3  502    0  0.53163489624E+02  0.60432147425E+02  0.23913139748E+03  0.25234836780E+03  0.41800000000E+01 0. -1.
         -5    1    3    3    0  502 -0.38851570962E+02  0.19927433139E+02  0.23439742722E+02  0.49733701819E+02  0.41800000000E+01 0. -1.
        -11    1    4    4    0    0 -0.43195761522E+02 -0.47683467338E+02  0.19519658694E+03  0.20552687032E+03  0.00000000000E+00 0.  1.
         11    1    4    4    0    0  0.28883842860E+02 -0.32676113225E+02  0.37305699886E+02  0.57390940033E+02  0.00000000000E+00 0. -1.
</event>
<event>
 8    1  0.3541538E-009  0.1339831E+03  0.7561462E-02  0.1221662E+00
         -1   -1    0    0    0  501 -0.00000000000E+00  0.00000000000E+00  0.18390203501E+03  0.18390203501E+03  0.00000000000E+00 0.  1.
          1   -1    0    0  501    0  0.00000000000E+00 -0.00000000000E+00 -0.27943246955E+03  0.27943246955E+03  0.00000000000E+00 0. -1.
         25    2    1    2    0    0  0.39066568372E+02  0.87585993193E+02  0.12839158416E+03  0.20329562920E+03  0.12508881245E+03 0.  0.
         23    2    1    2    0    0 -0.39066568372E+02 -0.87585993193E+02 -0.22392201870E+03  0.26003887537E+03  0.91003534428E+02 0.  0.
          5    1    3    3  502    0  0.40327953114E+01  0.98623000881E+02  0.13338961114E+03  0.16599102536E+03  0.41800000000E+01 0. -1.
         -5    1    3    3    0  502  0.35033773060E+02 -0.11037007688E+02 -0.49980269804E+01  0.37304603834E+02  0.41800000000E+01 0. -1.
        -11    1    4    4    0    0 -0.26414953245E+02 -0.10634552392E+03 -0.18641498897E+03  0.21623521528E+03  0.00000000000E+00 0.  1.
         11    1    4    4    0    0 -0.12651615127E+02  0.18759530730E+02 -0.37507029728E+02  0.43803660093E+02  0.00000000000E+00 0. -1.
</event>
<event>
 8    1  0.3541538E-009  0.1669204E+03  0.7561462E-02  0.1181098E+00
         -3   -1    0    0    0  501 -0.00000000000E+00  0.00000000000E+00  0.50262344506E+02  0.50262344506E+02  0.00000000000E+00 0.  1.
          3   -1    0    0  501    0  0.00000000000E+00 -0.00000000000E+00 -0.65722381333E+03  0.65722381333E+03  0.00000000000E+00 0. -1.
         25    2    1    2    0    0 -0.13610139723E+03  0.19775391001E+00 -0.22332346994E+03  0.28990461936E+03  0.12509071376E+03 0.  0.
         23    2    1    2    0    0  0.13610139723E+03 -0.19775391001E+00 -0.38363799888E+03  0.41758153847E+03  0.93126782652E+02 0.  0.
          5    1    3    3  502    0 -0.10000084108E+03  0.49308634265E+02 -0.90355858815E+02  0.14357284998E+03  0.41800000000E+01 0.  1.
         -5    1    3    3    0  502 -0.36100556157E+02 -0.49110880355E+02 -0.13296761112E+03  0.14633176938E+03  0.41800000000E+01 0.  1.
        -11    1    4    4    0    0  0.76232556019E+02  0.42833170479E+02 -0.16333459044E+03  0.18526810715E+03  0.00000000000E+00 0. -1.
         11    1    4    4    0    0  0.59868841213E+02 -0.43030924389E+02 -0.22030340844E+03  0.23231343132E+03  0.00000000000E+00 0.  1.
</event>
<event>
 8    1  0.3541538E-009  0.1174508E+03  0.7561462E-02  0.1247363E+00
         -2   -1    0    0    0  501 -0.00000000000E+00  0.00000000000E+00  0.16844725864E+03  0.16844725864E+03  0.00000000000E+00 0. -1.
          2   -1    0    0  501    0  0.00000000000E+00 -0.00000000000E+00 -0.11482091267E+03  0.11482091267E+03  0.00000000000E+00 0.  1.
         25    2    1    2    0    0 -0.21590260429E+02  0.43478775952E+02 -0.44636214108E+02  0.14140873459E+03  0.12508994885E+03 0.  0.
         23    2    1    2    0    0  0.21590260429E+02 -0.43478775952E+02  0.98262560086E+02  0.14185943672E+03  0.90066785045E+02 0.  0.
          5    1    3    3  502    0 -0.70256621366E+02  0.47881984449E+02 -0.29198944187E+02  0.89992933179E+02  0.41800000000E+01 0.  1.
         -5    1    3    3    0  502  0.48666360937E+02 -0.44032084967E+01 -0.15437269921E+02  0.51415801409E+02  0.41800000000E+01 0.  1.
        -11    1    4    4    0    0 -0.27146903832E+02  0.94869072005E+01  0.39961177651E+02  0.49232626531E+02  0.00000000000E+00 0. -1.
         11    1    4    4    0    0  0.48737164261E+02 -0.52965683152E+02  0.58301382434E+02  0.92626810189E+02  0.00000000000E+00 0.  1.
</event>
<event>
 8    1  0.3541538E-009  0.1064843E+03  0.7561462E-02  0.1267223E+00
          2   -1    0    0  501    0  0.00000000000E+00  0.00000000000E+00  0.47881742832E+03  0.47881742832E+03  0.00000000000E+00 0. -1.
         -2   -1    0    0    0  501 -0.00000000000E+00 -0.00000000000E+00 -0.29825739561E+02  0.29825739561E+02  0.00000000000E+00 0.  1.
         25    2    1    2    0    0  0.14049294444E+02  0.42842644764E+02  0.31947731045E+03  0.34604484702E+03  0.12509360244E+03 0.  0.
         23    2    1    2    0    0 -0.14049294444E+02 -0.42842644764E+02  0.12951437831E+03  0.16259832086E+03  0.87357683541E+02 0.  0.
          5    1    3    3  502    0  0.52792970432E+02 -0.57841086237E+01  0.23563057475E+03  0.24157771792E+03  0.41800000000E+01 0. -1.
         -5    1    3    3    0  502 -0.38743675987E+02  0.48626753387E+02  0.83846735697E+02  0.10446712909E+03  0.41800000000E+01 0. -1.
        -11    1    4    4    0    0  0.11264841547E+02  0.23670022706E+02  0.25523956989E+02  0.36587416012E+02  0.00000000000E+00 0.  1.
         11    1    4    4    0    0 -0.25314135991E+02 -0.66512667470E+02  0.10399042132E+03  0.12601090485E+03  0.00000000000E+00 0. -1.
</event>
<event>
 8    1  0.3541538E-009  0.1014868E+03  0.7561462E-02  0.1277200E+00
         -1   -1    0    0    0  501 -0.00000000000E+00  0.00000000000E+00  0.10006527343E+03  0.10006527343E+03  0.00000000000E+00 0.  1.
          1   -1    0    0  501    0  0.00000000000E+00 -0.00000000000E+00 -0.17607667391E+03  0.17607667391E+03  0.00000000000E+00 0. -1.
         25    2    1    2    0    0  0.19786617986E+02  0.19592322031E+02  0.31770448489E+02  0.13203569737E+03  0.12509474269E+03 0.  0.
         23    2    1    2    0    0 -0.19786617986E+02 -0.19592322031E+02 -0.10778184897E+03  0.14410624996E+03  0.91511283333E+02 0.  0.
          5    1    3    3  502    0  0.57495894671E+02  0.52158600326E+02  0.14133277250E+02  0.79015944073E+02  0.41800000000E+01 0.  1.
         -5    1    3    3    0  502 -0.37709276685E+02 -0.32566278295E+02  0.17637171239E+02  0.53019753294E+02  0.41800000000E+01 0.  1.
        -11    1    4    4    0    0 -0.43634587862E+02  0.11139776096E+01 -0.10338150192E+03  0.11221832801E+03  0.00000000000E+00 0. -1.
         11    1    4    4    0    0  0.23847969876E+02 -0.20706299641E+02 -0.44003470533E+01  0.31887921949E+02  0.00000000000E+00 0.  1.
</event>
<event>
 8    1  0.3541538E-009  0.1110547E+03  0.7561462E-02  0.1258629E+00
          2   -1    0    0  501    0  0.00000000000E+00  0.00000000000E+00  0.29006178022E+03  0.29006178022E+03  0.00000000000E+00 0. -1.
         -2   -1    0    0    0  501 -0.00000000000E+00 -0.00000000000E+00 -0.44708938904E+02  0.44708938904E+02  0.00000000000E+00 0.  1.
         25    2    1    2    0    0  0.37855420085E+02  0.58715533322E+00  0.13572899178E+03  0.18842156930E+03  0.12508777313E+03 0.  0.
         23    2    1    2    0    0 -0.37855420085E+02 -0.58715533322E+00  0.10962384954E+03  0.14634914982E+03  0.89259776414E+02 0.  0.
          5    1    3    3  502    0 -0.22119104842E+02  0.45906074674E+02  0.32240120959E+02  0.60444356978E+02  0.41800000000E+01 0. -1.
         -5    1    3    3    0  502  0.59974524927E+02 -0.45318919341E+02  0.10348887082E+03  0.12797721232E+03  0.41800000000E+01 0. -1.
        -11    1    4    4    0    0 -0.66743933125E+02 -0.19580207071E+01  0.65091132947E+02  0.93249354113E+02  0.00000000000E+00 0. -1.
         11    1    4    4    0    0  0.28888513040E+02  0.13708653739E+01  0.44532716592E+02  0.53099795712E+02  0.00000000000E+00 0.  1.
</event>
<event>
 8    1  0.3541538E-009  0.1457226E+03  0.7561462E-02  0.1205830E+00
          2   -1    0    0  501    0  0.00000000000E+00  0.00000000000E+00  0.38420775745E+03  0.38420775745E+03  0.00000000000E+00 0.  1.
         -2   -1    0    0    0  501 -0.00000000000E+00 -0.00000000000E+00 -0.58540788101E+02  0.58540788101E+02  0.00000000000E+00 0. -1.
         25    2    1    2    0    0 -0.28848442944E+01  0.99759366418E+02  0.16418331851E+03  0.22926866059E+03  0.12509077959E+03 0.  0.
         23    2    1    2    0    0  0.28848442944E+01 -0.99759366418E+02  0.16148365083E+03  0.21347988496E+03  0.97654688976E+02 0.  0.
          5    1    3    3  502    0 -0.48756847345E+02  0.52614230714E+01  0.26064284071E+02  0.55693195634E+02  0.41800000000E+01 0. -1.
         -5    1    3    3    0  502  0.45872003051E+02  0.94497943347E+02  0.13811903444E+03  0.17357546496E+03  0.41800000000E+01 0. -1.
        -11    1    4    4    0    0  0.35908594764E+02 -0.43901700694E+01  0.26059221898E+02  0.44584569272E+02  0.00000000000E+00 0. -1.
         11    1    4    4    0    0 -0.33023750470E+02 -0.95369196349E+02  0.13542442894E+03  0.16889531568E+03  0.00000000000E+00 0.  1.
</event>
<event>
 8    1  0.3541538E-009  0.1292946E+03  0.7561462E-02  0.1228506E+00
          1   -1    0    0  501    0  0.00000000000E+00  0.00000000000E+00  0.62082837971E+03  0.62082837971E+03  0.00000000000E+00 0. -1.
         -1   -1    0    0    0  501 -0.00000000000E+00 -0.00000000000E+00 -0.54217146747E+02  0.54217146747E+02  0.00000000000E+00 0.  1.
         25    2    1    2    0    0  0.39158989541E+02 -0.80072448548E+02  0.51557828581E+03  0.53797056418E+03  0.12508531348E+03 0.  0.
         23    2    1    2    0    0 -0.39158989541E+02  0.80072448548E+02  0.51032947153E+02  0.13707496227E+03  0.90775327644E+02 0.  0.
          5    1    3    3  502    0  0.22471377803E+02  0.29323436045E+02  0.75293774317E+02  0.83972921664E+02  0.41800000000E+01 0. -1.
         -5    1    3    3    0  502  0.16687611737E+02 -0.10939588459E+03  0.44028451149E+03  0.45399764252E+03  0.41800000000E+01 0. -1.
        -11    1    4    4    0    0  0.14642221246E+02  0.42756158566E+02 -0.11394409309E+02  0.46608114120E+02  0.00000000000E+00 0.  1.
         11    1    4    4    0    0 -0.53801210787E+02  0.37316289983E+02  0.62427356461E+02  0.90466848154E+02  0.00000000000E+00 0. -1.
</event>
<event>
 8    1  0.3541538E-009  0.2868958E+03  0.7561462E-02  0.1091981E+00
         -1   -1    0    0    0  501 -0.00000000000E+00  0.00000000000E+00  0.25454916437E+03  0.25454916437E+03  0.00000000000E+00 0. -1.
          1   -1    0    0  501    0  0.00000000000E+00 -0.00000000000E+00 -0.34747553248E+03  0.34747553248E+03  0.00000000000E+00 0.  1.
         25    2    1    2    0    0 -0.54652086534E+02  0.27070524385E+03 -0.61570887403E+02  0.30936110321E+03  0.12508052762E+03 0.  0.
         23    2    1    2    0    0  0.54652086534E+02 -0.27070524385E+03 -0.31355480709E+02  0.29266359364E+03  0.91654968560E+02 0.  0.
          5    1    3    3  502    0 -0.78613733040E+02  0.21151716001E+03 -0.78812854888E+01  0.22583005792E+03  0.41800000000E+01 0. -1.
         -5    1    3    3    0  502  0.23961646506E+02  0.59188083846E+02 -0.53689601914E+02  0.83531045284E+02  0.41800000000E+01 0. -1.
        -11    1    4    4    0    0  0.37308688965E+02 -0.48318911249E+02 -0.33413493477E+02  0.69592506801E+02  0.00000000000E+00 0.  1.
         11    1    4    4    0    0  0.17343397569E+02 -0.22238633260E+03  0.20580127681E+01  0.22307108684E+03  0.00000000000E+00 0. -1.
</event>
<event>
 8    1  0.3541538E-009  0.1752139E+03  0.7561462E-02  0.1172517E+00
          1   -1    0    0  501    0  0.00000000000E+00  0.00000000000E+00  0.10953991671E+04  0.10953991671E+04  0.00000000000E+00 0. -1.
         -1   -1    0    0    0  501 -0.00000000000E+00 -0.00000000000E+00 -0.43317015391E+02  0.43317015391E+02  0.00000000000E+00 0.  1.
         25    2    1    2    0    0  0.13942477504E+03  0.10427958048E+03  0.73257491600E+03  0.76330064940E+03  0.12509346517E+03 0.  0.
         23    2    1    2    0    0 -0.13942477504E+03 -0.10427958048E+03  0.31950723576E+03  0.37541553314E+03  0.92403733803E+02 0.  0.
          5    1    3    3  502    0  0.53651261580E+02  0.31249635127E+02  0.81514222293E+02  0.10255261284E+03  0.41800000000E+01 0. -1.
         -5    1    3    3    0  502  0.85773513457E+02  0.73029945351E+02  0.65106069371E+03  0.66074803656E+03  0.41800000000E+01 0. -1.
        -11    1    4    4    0    0 -0.11178300402E+03 -0.71965317626E+02  0.30097381244E+03  0.32902839194E+03  0.00000000000E+00 0.  1.
         11    1    4    4    0    0 -0.27641771013E+02 -0.32314262852E+02  0.18533423318E+02  0.46387141196E+02  0.00000000000E+00 0. -1.
</event>
<event>
 8    1  0.3541538E-009  0.9636614E+02  0.7561462E-02  0.1288128E+00
         -1   -1    0    0    0  501 -0.00000000000E+00  0.00000000000E+00  0.27565249928E+02  0.27565249928E+02  0.00000000000E+00 0.  1.
          1   -1    0    0  501    0  0.00000000000E+00 -0.00000000000E+00 -0.49754117894E+03  0.49754117894E+03  0.00000000000E+00 0. -1.
         25    2    1    2    0    0 -0.33621966233E+02  0.16345547891E+01 -0.32313326256E+03  0.34813202739E+03  0.12509074601E+03 0.  0.
         23    2    1    2    0    0  0.33621966233E+02 -0.16345547891E+01 -0.14684266645E+03  0.17697440148E+03  0.92865826358E+02 0.  0.
          5    1    3    3  502    0  0.42455036920E+02  0.24285850018E+02 -0.10332545717E+03  0.11439342276E+03  0.41800000000E+01 0. -1.
         -5    1    3    3    0  502 -0.76077003153E+02 -0.22651295229E+02 -0.21980780539E+03  0.23373860463E+03  0.41800000000E+01 0. -1.
        -11    1    4    4    0    0  0.34269948564E+01  0.24185327527E+02  0.43646403895E+00  0.24430817878E+02  0.00000000000E+00 0.  1.
         11    1    4    4    0    0  0.30194971377E+02 -0.25819882316E+02 -0.14727913049E+03  0.15254358360E+03  0.00000000000E+00 0. -1.
</event>
<event>
 8    1  0.3541538E-009  0.1221511E+03  0.7561462E-02  0.1239590E+00
          3   -1    0    0  501    0  0.00000000000E+00  0.00000000000E+00  0.16762708054E+02  0.16762708054E+02  0.00000000000E+00 0. -1.
         -3   -1    0    0    0  501 -0.00000000000E+00 -0.00000000000E+00 -0.10399292448E+04  0.10399292448E+04  0.00000000000E+00 0.  1.
         25    2    1    2    0    0 -0.74927386786E+02  0.42781405569E+01 -0.57826431462E+03  0.59637845932E+03  0.12508090741E+03 0.  0.
         23    2    1    2    0    0  0.74927386786E+02 -0.42781405569E+01 -0.44490222213E+03  0.46031349355E+03  0.91203669349E+02 0.  0.
          5    1    3    3  502    0  0.14706284794E+02 -0.28352287412E+02 -0.49467212356E+02  0.59030538810E+02  0.41800000000E+01 0. -1.
         -5    1    3    3    0  502 -0.89633671580E+02  0.32630427969E+02 -0.52879710227E+03  0.53734792051E+03  0.41800000000E+01 0. -1.
        -11    1    4    4    0    0  0.39635024041E+02  0.42433856236E+02 -0.18497323050E+03  0.19387280183E+03  0.00000000000E+00 0.  1.
         11    1    4    4    0    0  0.35292362746E+02 -0.46711996793E+02 -0.25992899163E+03  0.26644069172E+03  0.00000000000E+00 0. -1.
</event>
<event>
 8    1  0.3541538E-009  0.1175230E+03  0.7561462E-02  0.1247240E+00
          2   -1    0    0  501    0  0.00000000000E+00  0.00000000000E+00  0.22659948412E+03  0.22659948412E+03  0.00000000000E+00 0. -1.
         -2   -1    0    0    0  501 -0.00000000000E+00 -0.00000000000E+00 -0.10630958866E+03  0.10630958866E+03  0.00000000000E+00 0.  1.
         25    2    1    2    0    0  0.46072232450E+02 -0.12807436012E+02  0.17094167384E+03  0.21715147576E+03  0.12508807517E+03 0.  0.
         23    2    1    2    0    0 -0.46072232450E+02  0.12807436012E+02 -0.50651778382E+02  0.11575759702E+03  0.92452893919E+02 0.  0.
          5    1    3    3  502    0  0.88207203991E+02 -0.71643736783E+00  0.12905818899E+03  0.15637938695E+03  0.41800000000E+01 0.  1.
         -5    1    3    3    0  502 -0.42134971541E+02 -0.12090998645E+02  0.41883484851E+02  0.60772088809E+02  0.41800000000E+01 0.  1.
        -11    1    4    4    0    0  0.27911362078E+02  0.40063432137E+01 -0.57810047173E+01  0.28783935356E+02  0.00000000000E+00 0. -1.
         11    1    4    4    0    0 -0.73983594528E+02  0.88010927986E+01 -0.44870773665E+02  0.86973661662E+02  0.00000000000E+00 0.  1.
</event>
<event>
 8    1  0.3541538E-009  0.3235825E+03  0.7561462E-02  0.1074012E+00
          2   -1    0    0  501    0  0.00000000000E+00  0.00000000000E+00  0.11073617829E+04  0.11073617829E+04  0.00000000000E+00 0. -1.
         -2   -1    0    0    0  501 -0.00000000000E+00 -0.00000000000E+00 -0.10082617981E+03  0.10082617981E+03  0.00000000000E+00 0.  1.
         25    2    1    2    0    0 -0.29289919757E+03  0.11980864501E+03  0.51446815586E+03  0.61682120726E+03  0.12508743732E+03 0.  0.
         23    2    1    2    0    0  0.29289919757E+03 -0.11980864501E+03  0.49206744727E+03  0.59136675549E+03  0.86256683647E+02 0.  0.
          5    1    3    3  502    0 -0.25087757356E+03  0.13051147805E+03  0.36870108924E+03  0.46468351426E+03  0.41800000000E+01 0. -1.
         -5    1    3    3    0  502 -0.42021624008E+02 -0.10702833043E+02  0.14576706663E+03  0.15213769300E+03  0.41800000000E+01 0. -1.
        -11    1    4    4    0    0  0.23654531630E+03 -0.11811679241E+03  0.35091071853E+03  0.43936726744E+03  0.00000000000E+00 0.  1.
         11    1    4    4    0    0  0.56353881272E+02 -0.16918525981E+01  0.14115672874E+03  0.15199948805E+03  0.00000000000E+00 0. -1.
</event>
<event>
 8    1  0.3541538E-009  0.1307728E+03  0.7561462E-02  0.1226314E+00
          2   -1    0    0  501    0  0.00000000000E+00  0.00000000000E+00  0.38876305361E+03  0.38876305361E+03  0.00000000000E+00 0. -1.
         -2   -1    0    0    0  501 -0.00000000000E+00 -0.00000000000E+00 -0.47776084756E+02  0.47776084756E+02  0.00000000000E+00 0.  1.
         25    2    1    2    0    0 -0.68017161502E+02  0.42790241471E+02  0.21016874297E+03  0.25744132653E+03  0.12509115499E+03 0.  0.
         23    2    1    2    0    0  0.68017161502E+02 -0.42790241471E+02  0.13081822588E+03  0.17909781184E+03  0.92224069306E+02 0.  0.
          5    1    3    3  502    0 -0.83692638274E+02  0.71011010259E+02  0.18904070193E+03  0.21863412511E+03  0.41800000000E+01 0.  1.
         -5    1    3    3    0  502  0.15675476772E+02 -0.28220768788E+02  0.21128041049E+02  0.38807201414E+02  0.41800000000E+01 0.  1.
        -11    1    4    4    0    0 -0.21593392402E+02 -0.79523851208E+01  0.43541285420E+02  0.49247929505E+02  0.00000000000E+00 0. -1.
         11    1    4    4    0    0  0.89610553904E+02 -0.34837856350E+02  0.87276940461E+02  0.12984988233E+03  0.00000000000E+00 0.  1.
</event>
<event>
 8    1  0.3541538E-009  0.2018824E+03  0.7561462E-02  0.1148161E+00
          1   -1    0    0  501    0  0.00000000000E+00  0.00000000000E+00  0.10515979320E+04  0.10515979320E+04  0.00000000000E+00 0. -1.
         -1   -1    0    0    0  501 -0.00000000000E+00 -0.00000000000E+00 -0.50840766447E+02  0.50840766447E+02  0.00000000000E+00 0.  1.
         25    2    1    2    0    0  0.16890186553E+03  0.47908059131E+02  0.76580059442E+03  0.79556319798E+03  0.12508888545E+03 0.  0.
         23    2    1    2    0    0 -0.16890186553E+03 -0.47908059131E+02  0.23495657114E+03  0.30687550047E+03  0.90249433007E+02 0.  0.
          5    1    3    3  502    0  0.65559998941E+02 -0.37439132243E+02  0.37053603473E+03  0.37817221939E+03  0.41800000000E+01 0.  1.
         -5    1    3    3    0  502  0.10334186659E+03  0.85347191373E+02  0.39526455969E+03  0.41739097859E+03  0.41800000000E+01 0.  1.
        -11    1    4    4    0    0 -0.71149194226E+02 -0.63140487896E+02  0.14337243761E+03  0.17205982947E+03  0.00000000000E+00 0. -1.
         11    1    4    4    0    0 -0.97752671302E+02  0.15232428765E+02  0.91584133527E+02  0.13481567100E+03  0.00000000000E+00 0.  1.
</event>
<event>
 8    1  0.3541538E-009  0.7073129E+02  0.7561462E-02  0.1357624E+00
         -2   -1    0    0    0  501 -0.00000000000E+00  0.00000000000E+00  0.65712558524E+03  0.65712558524E+03  0.00000000000E+00 0.  1.
          2   -1    0    0  501    0  0.00000000000E+00 -0.00000000000E+00 -0.25897467011E+02  0.25897467011E+02  0.00000000000E+00 0. -1.
         25    2    1    2    0    0  0.24337534714E+02  0.63313385648E+02  0.41284661831E+03  0.43668079631E+03  0.12508751823E+03 0.  0.
         23    2    1    2    0    0 -0.24337534714E+02 -0.63313385648E+02  0.21838149992E+03  0.24634225595E+03  0.91614011801E+02 0.  0.
          5    1    3    3  502    0  0.61953299835E+01  0.31505256329E+02  0.12606123969E+02  0.34746943052E+02  0.41800000000E+01 0. -1.
         -5    1    3    3    0  502  0.18142204731E+02  0.31808129319E+02  0.40024049434E+03  0.40193385326E+03  0.41800000000E+01 0. -1.
        -11    1    4    4    0    0 -0.28351157100E+02 -0.42893283568E+02  0.21955823552E+03  0.22549820547E+03  0.00000000000E+00 0.  1.
         11    1    4    4    0    0  0.40136223854E+01 -0.20420102079E+02 -0.11767356007E+01  0.20844050476E+02  0.00000000000E+00 0. -1.
</event>
<event>
 8    1  0.3541538E-009  0.1578968E+03  0.7561462E-02  0.1191092E+00
         -1   -1    0    0    0  501 -0.00000000000E+00  0.00000000000E+00  0.79809663869E+03  0.79809663869E+03  0.00000000000E+00 0.  1.
          1   -1    0    0  501    0  0.00000000000E+00 -0.00000000000E+00 -0.69844809425E+02  0.69844809425E+02  0.00000000000E+00 0. -1.
         25    2    1    2    0    0  0.14775197869E+03  0.46219569744E+02  0.11639572316E+03  0.23056965055E+03  0.12508998181E+03 0.  0.
         23    2    1    2    0    0 -0.14775197869E+03 -0.46219569744E+02  0.61185610610E+03  0.63737179757E+03  0.88927037107E+02 0.  0.
          5    1    3    3  502    0  0.90281384100E+02  0.40202464414E+02 -0.18062643411E+01  0.98932812811E+02  0.41800000000E+01 0.  1.
         -5    1    3    3    0  502  0.57470594588E+02  0.60171053298E+01  0.11820198750E+03  0.13163683773E+03  0.41800000000E+01 0.  1.
        -11    1    4    4    0    0 -0.65415116694E+02 -0.39303939244E+02  0.44135988474E+03  0.44790901419E+03  0.00000000000E+00 0. -1.
         11    1    4    4    0    0 -0.82336861994E+02 -0.69156304994E+01  0.17049622136E+03  0.18946278338E+03  0.00000000000E+00 0.  1.
</event>
<event>
 8    1  0.3541538E-009  0.8763834E+02  0.7561462E-02  0.1308674E+00
         -1   -1    0    0    0  501 -0.00000000000E+00  0.00000000000E+00  0.23044631879E+02  0.23044631879E+02  0.00000000000E+00 0.  1.
          1   -1    0    0  501    0  0.00000000000E+00 -0.00000000000E+00 -0.11681515392E+04  0.11681515392E+04  0.00000000000E+00 0. -1.
         25    2    1    2    0    0 -0.42799872760E+02 -0.34828535858E+02 -0.10166079151E+04  0.10257604064E+04  0.12509157541E+03 0.  0.
         23    2    1    2    0    0  0.42799872760E+02  0.34828535858E+02 -0.12849899223E+03  0.16543576471E+03  0.88386340696E+02 0.  0.
          5    1    3    3  502    0 -0.28151983952E+02 -0.61830399742E+02 -0.94837728721E+03  0.95081674566E+03  0.41800000000E+01 0. -1.
         -5    1    3    3    0  502 -0.14647888808E+02  0.27001863884E+02 -0.68230627865E+02  0.74943660697E+02  0.41800000000E+01 0. -1.
        -11    1    4    4    0    0  0.31770889818E+02 -0.73514250583E+01 -0.31982648913E+01  0.32766778733E+02  0.00000000000E+00 0.  1.
         11    1    4    4    0    0  0.11028982943E+02  0.42179960917E+02 -0.12530072734E+03  0.13266898597E+03  0.00000000000E+00 0. -1.
</event>
<event>
 8    1  0.3541538E-009  0.8543464E+02  0.7561462E-02  0.1314300E+00
          1   -1    0    0  501    0  0.00000000000E+00  0.00000000000E+00  0.13902469669E+04  0.13902469669E+04  0.00000000000E+00 0. -1.
         -1   -1    0    0    0  501 -0.00000000000E+00 -0.00000000000E+00 -0.97019572333E+01  0.97019572333E+01  0.00000000000E+00 0.  1.
         25    2    1    2    0    0  0.13058401182E+00  0.58220373595E+01  0.10576351318E+04  0.10650227060E+04  0.12508948450E+03 0.  0.
         23    2    1    2    0    0 -0.13058401182E+00 -0.58220373595E+01  0.32290987787E+03  0.33492621812E+03  0.88717919216E+02 0.  0.
          5    1    3    3  502    0  0.32767109241E+02  0.27349480102E+02  0.13715872367E+03  0.14370687314E+03  0.41800000000E+01 0. -1.
         -5    1    3    3    0  502 -0.32636525229E+02 -0.21527442742E+02  0.92047640817E+03  0.92131583291E+03  0.41800000000E+01 0. -1.
        -11    1    4    4    0    0 -0.70381936893E+01 -0.46689517378E+02  0.15951486934E+03  0.16635636670E+03  0.00000000000E+00 0.  1.
         11    1    4    4    0    0  0.69076096775E+01  0.40867480018E+02  0.16339500853E+03  0.16856985142E+03  0.00000000000E+00 0. -1.
</event>
<event>
 8    1  0.3541538E-009  0.4529218E+02  0.7561462E-02  0.1472526E+00
         -2   -1    0    0    0  501 -0.00000000000E+00  0.00000000000E+00  0.53130445461E+02  0.53130445461E+02  0.00000000000E+00 0.  1.
          2   -1    0    0  501    0  0.00000000000E+00 -0.00000000000E+00 -0.24380712813E+03  0.24380712813E+03  0.00000000000E+00 0. -1.
         25    2    1    2    0    0  0.22172223458E+01  0.60289539603E+01 -0.64156597840E+02  0.14073121985E+03  0.12509173767E+03 0.  0.
         23    2    1    2    0    0 -0.22172223458E+01 -0.60289539603E+01 -0.12652008483E+03  0.15620635375E+03  0.91388340200E+02 0.  0.
          5    1    3    3  502    0 -0.19606810964E+02  0.10967262272E+02  0.33447341810E+02  0.40508085021E+02  0.41800000000E+01 0. -1.
         -5    1    3    3    0  502  0.21824033310E+02 -0.49383083121E+01 -0.97603939650E+02  0.10022313482E+03  0.41800000000E+01 0. -1.
        -11    1    4    4    0    0  0.18131977947E+02 -0.14211328456E+02  0.44066589582E+01  0.23455257916E+02  0.00000000000E+00 0.  1.
         11    1    4    4    0    0 -0.20349200293E+02  0.81823744957E+01 -0.13092674379E+03  0.13275109583E+03  0.00000000000E+00 0. -1.
</event>
<event>
 8    1  0.3541538E-009  0.1197223E+03  0.7561462E-02  0.1243556E+00
          2   -1    0    0  501    0  0.00000000000E+00  0.00000000000E+00  0.30675346675E+03  0.30675346675E+03  0.00000000000E+00 0. -1.
         -2   -1    0    0    0  501 -0.00000000000E+00 -0.00000000000E+00 -0.52570381442E+02  0.52570381442E+02  0.00000000000E+00 0.  1.
         25    2    1    2    0    0 -0.39446612183E+02  0.38653875872E+02  0.19022366016E+03  0.23427099531E+03  0.12509077114E+03 0.  0.
         23    2    1    2    0    0  0.39446612183E+02 -0.38653875872E+02  0.63959425152E+02  0.12505285289E+03  0.92180532746E+02 0.  0.
          5    1    3    3  502    0 -0.53752998167E+02 -0.32222312839E+02  0.71217534832E+02  0.94958264117E+02  0.41800000000E+01 0.  1.
         -5    1    3    3    0  502  0.14306385983E+02  0.70876188710E+02  0.11900612533E+03  0.13931273119E+03  0.41800000000E+01 0.  1.
        -11    1    4    4    0    0  0.38728477136E+01  0.28207452329E+02  0.32047158757E+02  0.42868166519E+02  0.00000000000E+00 0. -1.
         11    1    4    4    0    0  0.35573764469E+02 -0.66861328201E+02  0.31912266395E+02  0.82184686370E+02  0.00000000000E+00 0.  1.
</event>
<event>
 8    1  0.3541538E-009  0.1129706E+03  0.7561462E-02  0.1255166E+00
         -1   -1    0    0    0  501 -0.00000000000E+00  0.00000000000E+00  0.56052424197E+03  0.56052424197E+03  0.00000000000E+00 0.  1.
          1   -1    0    0  501    0  0.00000000000E+00 -0.00000000000E+00 -0.32789428175E+02  0.32789428175E+02  0.00000000000E+00 0. -1.
         25    2    1    2    0    0  0.79535371818E+02  0.56564462056E+01  0.25331309450E+03  0.29355109461E+03  0.12508737164E+03 0.  0.
         23    2    1    2    0    0 -0.79535371818E+02 -0.56564462056E+01  0.27442171929E+03  0.29976257554E+03  0.90512158960E+02 0.  0.
          5    1    3    3  502    0  0.15116649759E+02  0.53741336405E+02  0.50680157997E+02  0.75515529219E+02  0.41800000000E+01 0.  1.
         -5    1    3    3    0  502  0.64418722059E+02 -0.48084890200E+02  0.20263293650E+03  0.21803556539E+03  0.41800000000E+01 0.  1.
        -11    1    4    4    0    0 -0.49202496787E+01  0.11842334262E+02 -0.19411353040E+01  0.12969878332E+02  0.00000000000E+00 0. -1.
         11    1    4    4    0    0 -0.74615122140E+02 -0.17498780468E+02  0.27636285460E+03  0.28679269721E+03  0.00000000000E+00 0.  1.
</event>
<event>
 8    1  0.3541538E-009  0.1096808E+03  0.7561462E-02  0.1261162E+00
         -3   -1    0    0    0  501 -0.00000000000E+00  0.00000000000E+00  0.62969238241E+02  0.62969238241E+02  0.00000000000E+00 0.  1.
          3   -1    0    0  501    0  0.00000000000E+00 -0.00000000000E+00 -0.23922810713E+03  0.23922810713E+03  0.00000000000E+00 0. -1.
         25    2    1    2    0    0 -0.32817182212E+02 -0.34760064153E+02 -0.14072908293E+03  0.19426169378E+03  0.12509077257E+03 0.  0.
         23    2    1    2    0    0  0.32817182212E+02  0.34760064153E+02 -0.35529785965E+02  0.10793565159E+03  0.90013941617E+02 0.  0.
          5    1    3    3  502    0  0.44877994138E+02 -0.70302594829E+01 -0.78693711865E+02  0.90959505239E+02  0.41800000000E+01 0.  1.
         -5    1    3    3    0  502 -0.77695176350E+02 -0.27729804670E+02 -0.62035371062E+02  0.10330218854E+03  0.41800000000E+01 0.  1.
        -11    1    4    4    0    0  0.37241174746E+02  0.57209026766E+02 -0.46465239200E+02  0.82576003136E+02  0.00000000000E+00 0. -1.
         11    1    4    4    0    0 -0.44239925341E+01 -0.22448962613E+02  0.10935453234E+02  0.25359648455E+02  0.00000000000E+00 0.  1.
</event>
<event>
 8    1  0.3541538E-009  0.1212924E+03  0.7561462E-02  0.1240980E+00
          1   -1    0    0  501    0  0.00000000000E+00  0.00000000000E+00  0.67385334536E+03  0.67385334536E+03  0.00000000000E+00 0. -1.
         -1   -1    0    0    0  501 -0.00000000000E+00 -0.00000000000E+00 -0.26711945203E+02  0.26711945203E+02  0.00000000000E+00 0.  1.
         25    2    1    2    0    0 -0.46667262590E+02  0.32621857148E+02  0.47675407969E+03  0.49616904430E+03  0.12508896457E+03 0.  0.
         23    2    1    2    0    0  0.46667262590E+02 -0.32621857148E+02  0.17038732046E+03  0.20439624626E+03  0.97488294421E+02 0.  0.
          5    1    3    3  502    0 -0.85441835451E+02 -0.15878101419E+01  0.29540216049E+03  0.30754306562E+03  0.41800000000E+01 0.  1.
         -5    1    3    3    0  502  0.38774572861E+02  0.34209667290E+02  0.18135191920E+03  0.18862597868E+03  0.41800000000E+01 0.  1.
        -11    1    4    4    0    0  0.11640403724E+02 -0.59732366530E+02  0.13364182096E+03  0.14684546612E+03  0.00000000000E+00 0.  1.
         11    1    4    4    0    0  0.35026858866E+02  0.27110509383E+02  0.36745499500E+02  0.57550780138E+02  0.00000000000E+00 0. -1.
</event>
<event>
 8    1  0.3541538E-009  0.1082955E+03  0.7561462E-02  0.1263759E+00
          4   -1    0    0  501    0  0.00000000000E+00  0.00000000000E+00  0.11056725852E+04  0.11056725852E+04  0.00000000000E+00 0. -1.
         -4   -1    0    0    0  501 -0.00000000000E+00 -0.00000000000E+00 -0.14227993875E+02  0.14227993875E+02  0.00000000000E+00 0.  1.
         25    2    1    2    0    0  0.17888740091E+02 -0.54512131325E+02  0.49319206414E+03  0.51203242703E+03  0.12508882732E+03 0.  0.
         23    2    1    2    0    0 -0.17888740091E+02  0.54512131325E+02  0.59825252722E+03  0.60786815208E+03  0.91137393531E+02 0.  0.
          5    1    3    3  502    0  0.38723708233E+02  0.10637189366E+02  0.35988959932E+03  0.36214730632E+03  0.41800000000E+01 0. -1.
         -5    1    3    3    0  502 -0.20834968142E+02 -0.65149320692E+02  0.13330246482E+03  0.14988512071E+03  0.41800000000E+01 0. -1.
        -11    1    4    4    0    0 -0.33626769061E+02 -0.14707389374E+02  0.20627632860E+03  0.20951608683E+03  0.00000000000E+00 0.  1.
         11    1    4    4    0    0  0.15738028970E+02  0.69219520699E+02  0.39197619862E+03  0.39835206525E+03  0.00000000000E+00 0. -1.
</event>
<event>
 8    1  0.3541538E-009  0.1228429E+03  0.7561462E-02  0.1238479E+00
          2   -1    0    0  501    0  0.00000000000E+00  0.00000000000E+00  0.72504079847E+03  0.72504079847E+03  0.00000000000E+00 0. -1.
         -2   -1    0    0    0  501 -0.00000000000E+00 -0.00000000000E+00 -0.29348652075E+02  0.29348652075E+02  0.00000000000E+00 0.  1.
         25    2    1    2    0    0 -0.54597890601E+02  0.53728360052E+02  0.52093325723E+03  0.54118936886E+03  0.12508720217E+03 0.  0.
         23    2    1    2    0    0  0.54597890601E+02 -0.53728360052E+02  0.17475888916E+03  0.21320008168E+03  0.95110142236E+02 0.  0.
          5    1    3    3  502    0 -0.59549403192E+02  0.86578495344E+02  0.45783249967E+03  0.46975529526E+03  0.41800000000E+01 0.  1.
         -5    1    3    3    0  502  0.49515125912E+01 -0.32850135292E+02  0.63100757568E+02  0.71434073602E+02  0.41800000000E+01 0.  1.
        -11    1    4    4    0    0  0.59875948304E+02 -0.68719644332E+02  0.94156332048E+02  0.13104554005E+03  0.00000000000E+00 0.  1.
         11    1    4    4    0    0 -0.52780577026E+01  0.14991284280E+02  0.80602557111E+02  0.82154541629E+02  0.00000000000E+00 0. -1.
</event>
<event>
 8    1  0.3541538E-009  0.1112927E+03  0.7561462E-02  0.1258195E+00
         -2   -1    0    0    0  501 -0.00000000000E+00  0.00000000000E+00  0.20497187705E+03  0.20497187705E+03  0.00000000000E+00 0.  1.
          2   -1    0    0  501    0  0.00000000000E+00 -0.00000000000E+00 -0.76952948966E+02  0.76952948966E+02  0.00000000000E+00 0. -1.
         25    2    1    2    0    0 -0.34924036384E+02 -0.17111618857E+02  0.13889379738E+02  0.13173236250E+03  0.12509198473E+03 0.  0.
         23    2    1    2    0    0  0.34924036384E+02  0.17111618857E+02  0.11412954835E+03  0.15019246352E+03  0.89552925547E+02 0.  0.
          5    1    3    3  502    0  0.43040290358E+02  0.78262961405E+01 -0.12392914760E+02  0.45659328090E+02  0.41800000000E+01 0.  1.
         -5    1    3    3    0  502 -0.77964326742E+02 -0.24937914997E+02  0.26282294498E+02  0.86073034412E+02  0.41800000000E+01 0.  1.
        -11    1    4    4    0    0  0.59586021361E+02 -0.95641827499E+01  0.81123086972E+02  0.10110847033E+03  0.00000000000E+00 0.  1.
         11    1    4    4    0    0 -0.24661984977E+02  0.26675801606E+02  0.33006461378E+02  0.49083993186E+02  0.00000000000E+00 0. -1.
</event>
<event>
 8    1  0.3541538E-009  0.1104731E+03  0.7561462E-02  0.1259696E+00
          4   -1    0    0  501    0  0.00000000000E+00  0.00000000000E+00  0.61276839679E+03  0.61276839679E+03  0.00000000000E+00 0. -1.
         -4   -1    0    0    0  501 -0.00000000000E+00 -0.00000000000E+00 -0.30713592662E+02  0.30713592662E+02  0.00000000000E+00 0.  1.
         25    2    1    2    0    0 -0.32814549919E+02  0.37897224168E+02  0.47433073511E+03  0.49310157532E+03  0.12508606247E+03 0.  0.
         23    2    1    2    0    0  0.32814549919E+02 -0.37897224168E+02  0.10772406902E+03  0.15038041413E+03  0.92178086458E+02 0.  0.
          5    1    3    3  502    0  0.46626707704E+02  0.40044567741E+01  0.20103807054E+03  0.20645547644E+03  0.41800000000E+01 0.  1.
         -5    1    3    3    0  502 -0.79441257623E+02  0.33892767394E+02  0.27329266457E+03  0.28664609888E+03  0.41800000000E+01 0.  1.
        -11    1    4    4    0    0 -0.21361843728E+02  0.24143116724E-01  0.72239964298E+02  0.75332206872E+02  0.00000000000E+00 0. -1.
         11    1    4    4    0    0  0.54176393647E+02 -0.37921367285E+02  0.35484104718E+02  0.75048207261E+02  0.00000000000E+00 0.  1.
</event>
<event>
 8    1  0.3541538E-009  0.1400992E+03  0.7561462E-02  0.1213196E+00
          1   -1    0    0  501    0  0.00000000000E+00  0.00000000000E+00  0.19518253212E+03  0.19518253212E+03  0.00000000000E+00 0. -1.
         -1   -1    0    0    0  501 -0.00000000000E+00 -0.00000000000E+00 -0.15839483733E+03  0.15839483733E+03  0.00000000000E+00 0.  1.
         25    2    1    2    0    0  0.32104322994E+02  0.13459477077E+03  0.10967447306E+02  0.18685292262E+03  0.12508912789E+03 0.  0.
         23    2    1    2    0    0 -0.32104322994E+02 -0.13459477077E+03  0.25820247479E+02  0.16672444683E+03  0.89352762234E+02 0.  0.
          5    1    3    3  502    0  0.10629832115E+02  0.84256047961E+02 -0.54826508538E+02  0.10117061524E+03  0.41800000000E+01 0. -1.
         -5    1    3    3    0  502  0.21474490879E+02  0.50338722808E+02  0.65793955843E+02  0.85682307380E+02  0.41800000000E+01 0. -1.
        -11    1    4    4    0    0 -0.14237969099E+02 -0.21499911235E+02  0.43796786737E+02  0.50824447618E+02  0.00000000000E+00 0. -1.
         11    1    4    4    0    0 -0.17866353895E+02 -0.11309485953E+03 -0.17976539258E+02  0.11589999922E+03  0.00000000000E+00 0.  1.
</event>
<event>
 8    1  0.3541538E-009  0.1105954E+03  0.7561462E-02  0.1259471E+00
         -2   -1    0    0    0  501 -0.00000000000E+00  0.00000000000E+00  0.45663219171E+02  0.45663219171E+02  0.00000000000E+00 0.  1.
          2   -1    0    0  501    0  0.00000000000E+00 -0.00000000000E+00 -0.55716193811E+03  0.55716193811E+03  0.00000000000E+00 0. -1.
         25    2    1    2    0    0  0.96537091043E+02 -0.25137303772E+00 -0.15374536812E+03  0.22045949108E+03  0.12508107713E+03 0.  0.
         23    2    1    2    0    0 -0.96537091043E+02  0.25137303772E+00 -0.35775335082E+03  0.38236566619E+03  0.94321628101E+02 0.  0.
          5    1    3    3  502    0  0.31693666685E+02  0.13974250975E+02  0.15824479173E+02  0.38309982241E+02  0.41800000000E+01 0. -1.
         -5    1    3    3    0  502  0.64843424359E+02 -0.14225624013E+02 -0.16956984729E+03  0.18214950884E+03  0.41800000000E+01 0. -1.
        -11    1    4    4    0    0 -0.44404649904E+02  0.35502910016E+02 -0.83721566384E+02  0.10120044580E+03  0.00000000000E+00 0.  1.
         11    1    4    4    0    0 -0.52132441139E+02 -0.35251536979E+02 -0.27403178443E+03  0.28116522039E+03  0.00000000000E+00 0. -1.
</event>
<event>
 8    1  0.3541538E-009  0.9113749E+02  0.7561462E-02  0.1300120E+00
          2   -1    0    0  501    0  0.00000000000E+00  0.00000000000E+00  0.10200545397E+03  0.10200545397E+03  0.00000000000E+00 0. -1.
         -2   -1    0    0    0  501 -0.00000000000E+00 -0.00000000000E+00 -0.20040370651E+03  0.20040370651E+03  0.00000000000E+00 0.  1.
         25    2    1    2    0    0 -0.19006909948E+02  0.21634164767E+02  0.40313764321E+02  0.13454462396E+03  0.12509099301E+03 0.  0.
         23    2    1    2    0    0  0.19006909948E+02 -0.21634164767E+02 -0.13871201687E+03  0.16786453651E+03  0.90045429007E+02 0.  0.
          5    1    3    3  502    0 -0.22298198081E+02 -0.43968839098E+02 -0.11480051106E+02  0.50791066367E+02  0.41800000000E+01 0. -1.
         -5    1    3    3    0  502  0.32912881328E+01  0.65603003865E+02  0.51793815427E+02  0.83753557597E+02  0.41800000000E+01 0. -1.
        -11    1    4    4    0    0  0.12018458106E+02  0.20773869366E+02 -0.11751695063E+03  0.11994261407E+03  0.00000000000E+00 0.  1.
         11    1    4    4    0    0  0.69884518426E+01 -0.42408034133E+02 -0.21195066234E+02  0.47921922446E+02  0.00000000000E+00 0. -1.
</event>
<event>
 8    1  0.3541538E-009  0.2266665E+03  0.7561462E-02  0.1129008E+00
         -1   -1    0    0    0  501 -0.00000000000E+00  0.00000000000E+00  0.26140367485E+03  0.26140367485E+03  0.00000000000E+00 0.  1.
          1   -1    0    0  501    0  0.00000000000E+00 -0.00000000000E+00 -0.22880622150E+03  0.22880622150E+03  0.00000000000E+00 0. -1.
         25    2    1    2    0    0  0.13527166278E+03  0.16198237488E+03  0.77860663672E+02  0.25738349174E+03  0.12508903370E+03 0.  0.
         23    2    1    2    0    0 -0.13527166278E+03 -0.16198237488E+03 -0.45263210318E+02  0.23282640460E+03  0.87307868772E+02 0.  0.
          5    1    3    3  502    0  0.12934497277E+03  0.88984691585E+02  0.98700102253E+01  0.15736354985E+03  0.41800000000E+01 0. -1.
         -5    1    3    3    0  502  0.59266900024E+01  0.72997683299E+02  0.67990653447E+02  0.10001994190E+03  0.41800000000E+01 0. -1.
        -11    1    4    4    0    0 -0.79072062950E+02 -0.39994380782E+02 -0.43006911459E+02  0.98496375906E+02  0.00000000000E+00 0.  1.
         11    1    4    4    0    0 -0.56199599825E+02 -0.12198799410E+03 -0.22562988592E+01  0.13433002870E+03  0.00000000000E+00 0. -1.
</event>
<event>
 8    1  0.3541538E-009  0.2479798E+03  0.7561462E-02  0.1114588E+00
          1   -1    0    0  501    0  0.00000000000E+00  0.00000000000E+00  0.81226909139E+02  0.81226909139E+02  0.00000000000E+00 0.  1.
         -1   -1    0    0    0  501 -0.00000000000E+00 -0.00000000000E+00 -0.85242938263E+03  0.85242938263E+03  0.00000000000E+00 0. -1.
         25    2    1    2    0    0 -0.19896225273E+03  0.13320320644E+03 -0.39721612615E+03  0.48037110746E+03  0.12508668113E+03 0.  0.
         23    2    1    2    0    0  0.19896225273E+03 -0.13320320644E+03 -0.37398634734E+03  0.45328518431E+03  0.90953824003E+02 0.  0.
          5    1    3    3  502    0 -0.18522082815E+03  0.11978281172E+03 -0.25666052210E+03  0.33844759294E+03  0.41800000000E+01 0. -1.
         -5    1    3    3    0  502 -0.13741424578E+02  0.13420394716E+02 -0.14055560405E+03  0.14192351452E+03  0.41800000000E+01 0.  1.
        -11    1    4    4    0    0  0.17042338584E+03 -0.66150754500E+02 -0.25507586023E+03  0.31382120265E+03  0.00000000000E+00 0.  1.
         11    1    4    4    0    0  0.28538866883E+02 -0.67052451937E+02 -0.11891048712E+03  0.13946398166E+03  0.00000000000E+00 0. -1.
</event>
<event>
 8    1  0.3541538E-009  0.6235255E+02  0.7561462E-02  0.1388216E+00
          1   -1    0    0  501    0  0.00000000000E+00  0.00000000000E+00  0.88175655358E+02  0.88175655358E+02  0.00000000000E+00 0.  1.
         -1   -1    0    0    0  501 -0.00000000000E+00 -0.00000000000E+00 -0.23712216848E+03  0.23712216848E+03  0.00000000000E+00 0. -1.
         25    2    1    2    0    0  0.10185379616E+02 -0.27521804141E+02 -0.18366247961E+03  0.22414271391E+03  0.12508740192E+03 0.  0.
         23    2    1    2    0    0 -0.10185379616E+02  0.27521804141E+02  0.34715966496E+02  0.10115510993E+03  0.90365736171E+02 0.  0.
          5    1    3    3  502    0  0.22570032631E+02 -0.26971591821E+02  0.43435088040E+01  0.35682090845E+02  0.41800000000E+01 0.  1.
         -5    1    3    3    0  502 -0.12384653016E+02 -0.55021231986E+00 -0.18800598842E+03  0.18846062306E+03  0.41800000000E+01 0.  1.
        -11    1    4    4    0    0 -0.39852271492E+02  0.78742944878E+01  0.48260397845E+02  0.63081487435E+02  0.00000000000E+00 0.  1.
         11    1    4    4    0    0  0.29666891877E+02  0.19647509653E+02 -0.13544431350E+02  0.38073622493E+02  0.00000000000E+00 0. -1.
</event>
<event>
 8    1  0.3541538E-009  0.1560990E+03  0.7561462E-02  0.1193173E+00
          1   -1    0    0  501    0  0.00000000000E+00  0.00000000000E+00  0.51053723010E+03  0.51053723010E+03  0.00000000000E+00 0. -1.
         -1   -1    0    0    0  501 -0.00000000000E+00 -0.00000000000E+00 -0.61607411286E+02  0.61607411286E+02  0.00000000000E+00 0.  1.
         25    2    1    2    0    0 -0.11220140877E+03  0.16328342213E+02  0.10600774397E+03  0.19935136069E+03  0.12509017684E+03 0.  0.
         23    2    1    2    0    0  0.11220140877E+03 -0.16328342213E+02  0.34292207485E+03  0.37279328069E+03  0.92322856458E+02 0.  0.
          5    1    3    3  502    0  0.25542240164E+02  0.12455203686E+02  0.68353261249E+01  0.29525111595E+02  0.41800000000E+01 0. -1.
         -5    1    3    3    0  502 -0.13774364893E+03  0.38731385266E+01  0.99172417844E+02  0.16982624910E+03  0.41800000000E+01 0. -1.
        -11    1    4    4    0    0  0.70635232889E+02  0.35599040693E+02  0.16930831604E+03  0.18687411191E+03  0.00000000000E+00 0.  1.
         11    1    4    4    0    0  0.41566175877E+02 -0.51927382906E+02  0.17361375881E+03  0.18591916878E+03  0.00000000000E+00 0. -1.
</event>
<event>
 8    1  0.3541538E-009  0.8797214E+02  0.7561462E-02  0.1307838E+00
         -1   -1    0    0    0  501 -0.00000000000E+00  0.00000000000E+00  0.99220224451E+02  0.99220224451E+02  0.00000000000E+00 0.  1.
          1   -1    0    0  501    0  0.00000000000E+00 -0.00000000000E+00 -0.15917857432E+03  0.15917857432E+03  0.00000000000E+00 0. -1.
         25    2    1    2    0    0 -0.30709492575E+01  0.46931331174E+02 -0.79209025903E+02  0.15534712218E+03  0.12508668199E+03 0.  0.
         23    2    1    2    0    0  0.30709492575E+01 -0.46931331174E+02  0.19250676031E+02  0.10305167659E+03  0.89649757088E+02 0.  0.
          5    1    3    3  502    0 -0.50955385942E+02 -0.12340427655E+02 -0.52980402257E+02  0.74653418773E+02  0.41800000000E+01 0. -1.
         -5    1    3    3    0  502  0.47884436684E+02  0.59271758830E+02 -0.26228623646E+02  0.80693703408E+02  0.41800000000E+01 0. -1.
        -11    1    4    4    0    0  0.11219477860E+01 -0.22770091771E+02 -0.36060279121E+02  0.42662390655E+02  0.00000000000E+00 0. -1.
         11    1    4    4    0    0  0.19490014715E+01 -0.24161239403E+02  0.55310955153E+02  0.60389285938E+02  0.00000000000E+00 0.  1.
</event>
<event>
 8    1  0.3541538E-009  0.1388638E+03  0.7561462E-02  0.1214866E+00
         -1   -1    0    0    0  501 -0.00000000000E+00  0.00000000000E+00  0.19810560202E+03  0.19810560202E+03  0.00000000000E+00 0.  1.
          1   -1    0    0  501    0  0.00000000000E+00 -0.00000000000E+00 -0.11527185250E+03  0.11527185250E+03  0.00000000000E+00 0. -1.
         25    2    1    2    0    0  0.85312953558E+02 -0.39254738579E+02  0.92668096231E+02  0.18180489909E+03  0.12508561360E+03 0.  0.
         23    2    1    2    0    0 -0.85312953558E+02  0.39254738579E+02 -0.98343467062E+01  0.13157255543E+03  0.91626352227E+02 0.  0.
          5    1    3    3  502    0 -0.32321767273E+02 -0.15136770343E+01  0.15891178841E+02  0.36290354404E+02  0.41800000000E+01 0. -1.
         -5    1    3    3    0  502  0.11763472083E+03 -0.37741061545E+02  0.76776917390E+02  0.14551454469E+03  0.41800000000E+01 0. -1.
        -11    1    4    4    0    0 -0.22233076707E+02 -0.23612192456E+02 -0.25361692030E+02  0.41171115543E+02  0.00000000000E+00 0.  1.
         11    1    4    4    0    0 -0.63079876851E+02  0.62866931035E+02  0.15527345324E+02  0.90401439890E+02  0.00000000000E+00 0. -1.
</event>
<event>
 8    1  0.3541538E-009  0.1432098E+03  0.7561462E-02  0.1209074E+00
         -1   -1    0    0    0  501 -0.00000000000E+00  0.00000000000E+00  0.39816711209E+03  0.39816711209E+03  0.00000000000E+00 0.  1.
          1   -1    0    0  501    0  0.00000000000E+00 -0.00000000000E+00 -0.57266407957E+02  0.57266407957E+02  0.00000000000E+00 0. -1.
         25    2    1    2    0    0 -0.46671200903E+02  0.86334948395E+02  0.24368174731E+03  0.29096417429E+03  0.12508969759E+03 0.  0.
         23    2    1    2    0    0  0.46671200903E+02 -0.86334948395E+02  0.97218956822E+02  0.16446934575E+03  0.89256460930E+02 0.  0.
          5    1    3    3  502    0 -0.52419297841E+02 -0.13721973904E+02  0.55264977954E+02  0.77509777075E+02  0.41800000000E+01 0. -1.
         -5    1    3    3    0  502  0.57480969385E+01  0.10005692230E+03  0.18841676935E+03  0.21345439722E+03  0.41800000000E+01 0. -1.
        -11    1    4    4    0    0  0.30664007461E+02 -0.10370478517E+03  0.86724677346E+02  0.13862226907E+03  0.00000000000E+00 0.  1.
         11    1    4    4    0    0  0.16007193441E+02  0.17369836773E+02  0.10494279476E+02  0.25847076684E+02  0.00000000000E+00 0. -1.
</event>
<event>
 8    1  0.3541538E-009  0.1011238E+03  0.7561462E-02  0.1277950E+00
         -2   -1    0    0    0  501 -0.00000000000E+00  0.00000000000E+00  0.13669122148E+03  0.13669122148E+03  0.00000000000E+00 0.  1.
          2   -1    0    0  501    0  0.00000000000E+00 -0.00000000000E+00 -0.99199743857E+02  0.99199743857E+02  0.00000000000E+00 0. -1.
         25    2    1    2    0    0 -0.81079968715E+01  0.44360968955E+02  0.21214876089E+02  0.13464831520E+03  0.12508582110E+03 0.  0.
         23    2    1    2    0    0  0.81079968715E+01 -0.44360968955E+02  0.16276601537E+02  0.10124265014E+03  0.89171246874E+02 0.  0.
          5    1    3    3  502    0 -0.48593471211E+02  0.44281989934E+02 -0.27311098866E+02  0.71313312909E+02  0.41800000000E+01 0. -1.
         -5    1    3    3    0  502  0.40485474340E+02  0.78979021109E-01  0.48525974955E+02  0.63335002293E+02  0.41800000000E+01 0. -1.
        -11    1    4    4    0    0  0.17735749692E+02 -0.67931983416E+02 -0.14400968082E+01  0.70223821220E+02  0.00000000000E+00 0. -1.
         11    1    4    4    0    0 -0.96277528205E+01  0.23571014461E+02  0.17716698345E+02  0.31018828916E+02  0.00000000000E+00 0.  1.
</event>
<event>
 8    1  0.3541538E-009  0.8838587E+02  0.7561462E-02  0.1306808E+00
          2   -1    0    0  501    0  0.00000000000E+00  0.00000000000E+00  0.11048574838E+03  0.11048574838E+03  0.00000000000E+00 0.  1.
         -2   -1    0    0    0  501 -0.00000000000E+00 -0.00000000000E+00 -0.14754259583E+03  0.14754259583E+03  0.00000000000E+00 0. -1.
         25    2    1    2    0    0 -0.55614961336E+01  0.43969261022E+02  0.22983467312E+02  0.13468410224E+03  0.12508933397E+03 0.  0.
         23    2    1    2    0    0  0.55614961336E+01 -0.43969261022E+02 -0.60040314766E+02  0.12334424196E+03  0.98207619223E+02 0.  0.
          5    1    3    3  502    0 -0.13064354620E+02 -0.20294737798E+02  0.56584549290E+02  0.61659041204E+02  0.41800000000E+01 0. -1.
         -5    1    3    3    0  502  0.75028584861E+01  0.64263998820E+02 -0.33601081978E+02  0.73025061040E+02  0.41800000000E+01 0. -1.
        -11    1    4    4    0    0 -0.33498673174E+02 -0.32639694110E+02  0.45760824541E+01  0.46994162049E+02  0.00000000000E+00 0.  1.
         11    1    4    4    0    0  0.39060169308E+02 -0.11329566912E+02 -0.64616397220E+02  0.76350079911E+02  0.00000000000E+00 0. -1.
</event>
<event>
 8    1  0.3541538E-009  0.1239954E+03  0.7561462E-02  0.1236648E+00
         -1   -1    0    0    0  501 -0.00000000000E+00  0.00000000000E+00  0.12309122590E+03  0.12309122590E+03  0.00000000000E+00 0.  1.
          1   -1    0    0  501    0  0.00000000000E+00 -0.00000000000E+00 -0.17558516186E+03  0.17558516186E+03  0.00000000000E+00 0. -1.
         25    2    1    2    0    0 -0.55224468617E+02 -0.76727613922E+02 -0.27356977803E+02  0.15916742064E+03  0.12509594272E+03 0.  0.
         23    2    1    2    0    0  0.55224468617E+02  0.76727613922E+02 -0.25136958151E+02  0.13950896712E+03  0.99468671303E+02 0.  0.
          5    1    3    3  502    0 -0.85988434672E+02 -0.80276570087E+02 -0.11426781396E+00  0.11771076442E+03  0.41800000000E+01 0. -1.
         -5    1    3    3    0  502  0.30763966055E+02  0.35489561643E+01 -0.27242709989E+02  0.41456656219E+02  0.41800000000E+01 0. -1.
        -11    1    4    4    0    0  0.11223819412E+02  0.40528327782E+02  0.36418352599E+02  0.55631069386E+02  0.00000000000E+00 0.  1.
         11    1    4    4    0    0  0.44000649205E+02  0.36199286140E+02 -0.61555310750E+02  0.83877897739E+02  0.00000000000E+00 0. -1.
</event>
<event>
 8    1  0.3541538E-009  0.1492490E+03  0.7561462E-02  0.1201399E+00
         -1   -1    0    0    0  501 -0.00000000000E+00  0.00000000000E+00  0.30329588753E+03  0.30329588753E+03  0.00000000000E+00 0.  1.
          1   -1    0    0  501    0  0.00000000000E+00 -0.00000000000E+00 -0.78780388940E+02  0.78780388940E+02  0.00000000000E+00 0. -1.
         25    2    1    2    0    0 -0.10744175148E+03  0.21755547398E+02  0.10672709547E+03  0.19762343209E+03  0.12508922495E+03 0.  0.
         23    2    1    2    0    0  0.10744175148E+03 -0.21755547398E+02  0.11778840312E+03  0.18445284439E+03  0.90175995083E+02 0.  0.
          5    1    3    3  502    0 -0.57822059287E+02  0.74097129216E+02  0.60661723528E+02  0.11194236106E+03  0.41800000000E+01 0. -1.
         -5    1    3    3    0  502 -0.49619692189E+02 -0.52341581818E+02  0.46065371940E+02  0.85681071026E+02  0.41800000000E+01 0. -1.
        -11    1    4    4    0    0  0.28679736039E+02 -0.41993122496E+02  0.79969445096E+02  0.94768463874E+02  0.00000000000E+00 0.  1.
         11    1    4    4    0    0  0.78762015437E+02  0.20237575098E+02  0.37818958027E+02  0.89684380512E+02  0.00000000000E+00 0. -1.
</event>
<event>
 8    1  0.3541538E-009  0.1535337E+03  0.7561462E-02  0.1196197E+00
         -2   -1    0    0    0  501 -0.00000000000E+00  0.00000000000E+00  0.20985157251E+02  0.20985157251E+02  0.00000000000E+00 0.  1.
          2   -1    0    0  501    0  0.00000000000E+00 -0.00000000000E+00 -0.13276090294E+04  0.13276090294E+04  0.00000000000E+00 0. -1.
         25    2    1    2    0    0  0.93890098549E+02  0.84119581669E+02 -0.66858832858E+03  0.69177300557E+03  0.12509229992E+03 0.  0.
         23    2    1    2    0    0 -0.93890098549E+02 -0.84119581669E+02 -0.63803554353E+03  0.65682118104E+03  0.91832752484E+02 0.  0.
          5    1    3    3  502    0  0.11963429602E+03  0.88497506404E+02 -0.60179672079E+03  0.61993623783E+03  0.41800000000E+01 0. -1.
         -5    1    3    3    0  502 -0.25744197469E+02 -0.43779247357E+01 -0.66791607792E+02  0.71836767743E+02  0.41800000000E+01 0. -1.
        -11    1    4    4    0    0 -0.28126693820E+02 -0.44970118182E+01 -0.35571670826E+02  0.45570580267E+02  0.00000000000E+00 0.  1.
         11    1    4    4    0    0 -0.65763404729E+02 -0.79622569850E+02 -0.60246387270E+03  0.61125060077E+03  0.00000000000E+00 0. -1.
</event>
<event>
 8    1  0.3541538E-009  0.1101309E+03  0.7561462E-02  0.1260328E+00
          1   -1    0    0  501    0  0.00000000000E+00  0.00000000000E+00  0.42327407224E+03  0.42327407224E+03  0.00000000000E+00 0. -1.
         -1   -1    0    0    0  501 -0.00000000000E+00 -0.00000000000E+00 -0.60342461041E+02  0.60342461041E+02  0.00000000000E+00 0.  1.
         25    2    1    2    0    0  0.87275160093E+02  0.55043949088E+02  0.27235602319E+03  0.31697351659E+03  0.12509043509E+03 0.  0.
         23    2    1    2    0    0 -0.87275160093E+02 -0.55043949088E+02  0.90575588008E+02  0.16664301669E+03  0.94441346711E+02 0.  0.
          5    1    3    3  502    0  0.86533990575E+02  0.61742362376E+02  0.28378061274E+03  0.30306626240E+03  0.41800000000E+01 0. -1.
         -5    1    3    3    0  502  0.74116951803E+00 -0.66984132873E+01 -0.11424589549E+02  0.13907254193E+02  0.41800000000E+01 0. -1.
        -11    1    4    4    0    0 -0.49375458605E+02 -0.16931458029E+02 -0.94921377406E+01  0.53053848704E+02  0.00000000000E+00 0.  1.
         11    1    4    4    0    0 -0.37899701488E+02 -0.38112491060E+02  0.10006772575E+03  0.11358916799E+03  0.00000000000E+00 0. -1.
</event>
<event>
 8    1  0.3541538E-009  0.2418122E+03  0.7561462E-02  0.1118591E+00
          1   -1    0    0  501    0  0.00000000000E+00  0.00000000000E+00  0.36826262041E+03  0.36826262041E+03  0.00000000000E+00 0. -1.
         -1   -1    0    0    0  501 -0.00000000000E+00 -0.00000000000E+00 -0.16899656051E+03  0.16899656051E+03  0.00000000000E+00 0.  1.
         25    2    1    2    0    0 -0.22055004576E+03  0.33641828021E+02  0.12893325397E+03  0.28643624684E+03  0.12509134362E+03 0.  0.
         23    2    1    2    0    0  0.22055004576E+03 -0.33641828021E+02  0.70332805928E+02  0.25082293408E+03  0.90506051706E+02 0.  0.
          5    1    3    3  502    0 -0.15093362319E+01 -0.25904425450E+02  0.20648926263E+01  0.26363867988E+02  0.41800000000E+01 0. -1.
         -5    1    3    3    0  502 -0.21904070953E+03  0.59546253471E+02  0.12686836135E+03  0.26007237885E+03  0.41800000000E+01 0. -1.
        -11    1    4    4    0    0  0.83997019910E+02  0.15057062386E+02  0.62236594142E+02  0.10562011235E+03  0.00000000000E+00 0. -1.
         11    1    4    4    0    0  0.13655302585E+03 -0.48698890407E+02  0.80962117867E+01  0.14520282174E+03  0.00000000000E+00 0.  1.
</event>
<event>
 8    1  0.3541538E-009  0.1094624E+03  0.7561462E-02  0.1261569E+00
          1   -1    0    0  501    0  0.00000000000E+00  0.00000000000E+00  0.39597288313E+02  0.39597288313E+02  0.00000000000E+00 0. -1.
         -1   -1    0    0    0  501 -0.00000000000E+00 -0.00000000000E+00 -0.54806796431E+03  0.54806796431E+03  0.00000000000E+00 0.  1.
         25    2    1    2    0    0  0.77369764038E+01 -0.15211512160E+02 -0.46550658810E+03  0.48232185944E+03  0.12508693624E+03 0.  0.
         23    2    1    2    0    0 -0.77369764038E+01  0.15211512160E+02 -0.42964087893E+02  0.10534339318E+03  0.94657629026E+02 0.  0.
          5    1    3    3  502    0  0.76796263507E+01  0.55104480281E+02 -0.20248205261E+03  0.21002841340E+03  0.41800000000E+01 0.  1.
         -5    1    3    3    0  502  0.57350053103E-01 -0.70315992441E+02 -0.26302453549E+03  0.27229344603E+03  0.41800000000E+01 0.  1.
        -11    1    4    4    0    0  0.35839253286E+02  0.29932923681E+02 -0.35697779915E+02  0.58777236129E+02  0.00000000000E+00 0.  1.
         11    1    4    4    0    0 -0.43576229690E+02 -0.14721411521E+02 -0.72663079786E+01  0.46566157054E+02  0.00000000000E+00 0. -1.
</event>
<event>
 8    1  0.3541538E-009  0.1546858E+03  0.7561462E-02  0.1194830E+00
          1   -1    0    0  501    0  0.00000000000E+00  0.00000000000E+00  0.99746023258E+03  0.99746023258E+03  0.00000000000E+00 0. -1.
         -1   -1    0    0    0  501 -0.00000000000E+00 -0.00000000000E+00 -0.37580160053E+02  0.37580160053E+02  0.00000000000E+00 0.  1.
         25    2    1    2    0    0  0.72214039011E+02  0.12110632207E+03  0.70594899506E+03  0.73068033645E+03  0.12509261276E+03 0.  0.
         23    2    1    2    0    0 -0.72214039011E+02 -0.12110632207E+03  0.25393107746E+03  0.30436005618E+03  0.90952971492E+02 0.  0.
          5    1    3    3  502    0  0.80371326421E+02  0.12838803237E+03  0.70223772477E+03  0.71839984094E+03  0.41800000000E+01 0.  1.
         -5    1    3    3    0  502 -0.81572874100E+01 -0.72817103018E+01  0.37112702915E+01  0.12280495511E+02  0.41800000000E+01 0.  1.
        -11    1    4    4    0    0 -0.21396743932E+02 -0.93106167344E+01  0.11910930071E+01  0.23365079443E+02  0.00000000000E+00 0.  1.
         11    1    4    4    0    0 -0.50817295080E+02 -0.11179570533E+03  0.25273998446E+03  0.28099497674E+03  0.00000000000E+00 0. -1.
</event>
<event>
 8    1  0.3541538E-009  0.1512646E+03  0.7561462E-02  0.1198928E+00
          1   -1    0    0  501    0  0.00000000000E+00  0.00000000000E+00  0.10353130247E+04  0.10353130247E+04  0.00000000000E+00 0. -1.
         -1   -1    0    0    0  501 -0.00000000000E+00 -0.00000000000E+00 -0.34439938351E+02  0.34439938351E+02  0.00000000000E+00 0.  1.
         25    2    1    2    0    0  0.14147522696E+03 -0.21136967755E+02  0.37329897423E+03  0.41888216738E+03  0.12509250472E+03 0.  0.
         23    2    1    2    0    0 -0.14147522696E+03  0.21136967755E+02  0.62757411213E+03  0.65087079568E+03  0.96547994341E+02 0.  0.
          5    1    3    3  502    0  0.96903349483E+02  0.15205159660E+02  0.33637851145E+03  0.35041322947E+03  0.41800000000E+01 0.  1.
         -5    1    3    3    0  502  0.44571877477E+02 -0.36342127415E+02  0.36920462788E+02  0.68468937916E+02  0.41800000000E+01 0.  1.
        -11    1    4    4    0    0 -0.58941121649E+02 -0.73048670344E+01  0.10147435902E+03  0.11757747421E+03  0.00000000000E+00 0.  1.
         11    1    4    4    0    0 -0.82534105311E+02  0.28441834789E+02  0.52609975311E+03  0.53329332147E+03  0.00000000000E+00 0. -1.
</event>
<event>
 8    1  0.3541538E-009  0.2197455E+03  0.7561462E-02  0.1134073E+00
         -2   -1    0    0    0  501 -0.00000000000E+00  0.00000000000E+00  0.77706319697E+03  0.77706319697E+03  0.00000000000E+00 0.  1.
          2   -1    0    0  501    0  0.00000000000E+00 -0.00000000000E+00 -0.72904456933E+02  0.72904456933E+02  0.00000000000E+00 0. -1.
         25    2    1    2    0    0 -0.37463646050E+02  0.20023253040E+03  0.25764965539E+03  0.35146456040E+03  0.12508957305E+03 0.  0.
         23    2    1    2    0    0  0.37463646050E+02 -0.20023253040E+03  0.44650908465E+03  0.49850309351E+03  0.87397829271E+02 0.  0.
          5    1    3    3  502    0  0.29415411933E+02  0.67455280461E+02  0.30092626742E+02  0.79614822147E+02  0.41800000000E+01 0. -1.
         -5    1    3    3    0  502 -0.66879057983E+02  0.13277724994E+03  0.22755702865E+03  0.27184973825E+03  0.41800000000E+01 0. -1.
        -11    1    4    4    0    0  0.38392169316E+02 -0.35408747857E+02  0.68647752147E+02  0.86256895170E+02  0.00000000000E+00 0. -1.
         11    1    4    4    0    0 -0.92852326557E+00 -0.16482378254E+03  0.37786133250E+03  0.41224619834E+03  0.00000000000E+00 0.  1.
</event>
<event>
 8    1  0.3541538E-009  0.1171267E+03  0.7561462E-02  0.1247914E+00
          1   -1    0    0  501    0  0.00000000000E+00  0.00000000000E+00  0.25252202477E+03  0.25252202477E+03  0.00000000000E+00 0. -1.
         -1   -1    0    0    0  501 -0.00000000000E+00 -0.00000000000E+00 -0.62645811709E+02  0.62645811709E+02  0.00000000000E+00 0.  1.
         25    2    1    2    0    0 -0.44190560137E+02  0.43232776588E+02  0.76655010199E+02  0.15920199093E+03  0.12508958690E+03 0.  0.
         23    2    1    2    0    0  0.44190560137E+02 -0.43232776588E+02  0.11322120286E+03  0.15596584555E+03  0.87660855709E+02 0.  0.
          5    1    3    3  502    0  0.39895400467E+02  0.38050171100E+01  0.46364383008E+02  0.61426781987E+02  0.41800000000E+01 0.  1.
         -5    1    3    3    0  502 -0.84085960604E+02  0.39427759478E+02  0.30290627192E+02  0.97775208943E+02  0.41800000000E+01 0.  1.
        -11    1    4    4    0    0  0.20893686553E+02 -0.65509738691E+02  0.50054530255E+02  0.85050149913E+02  0.00000000000E+00 0. -1.
         11    1    4    4    0    0  0.23296873583E+02  0.22276962103E+02  0.63166672608E+02  0.70915695637E+02  0.00000000000E+00 0.  1.
</event>
<event>
 8    1  0.3541538E-009  0.1214453E+03  0.7561462E-02  0.1240732E+00
          2   -1    0    0  501    0  0.00000000000E+00  0.00000000000E+00  0.75263442673E+02  0.75263442673E+02  0.00000000000E+00 0. -1.
         -2   -1    0    0    0  501 -0.00000000000E+00 -0.00000000000E+00 -0.28834720396E+03  0.28834720396E+03  0.00000000000E+00 0.  1.
         25    2    1    2    0    0  0.69044510176E+01 -0.91529607918E+02 -0.67440483485E+02  0.16917498263E+03  0.12508643159E+03 0.  0.
         23    2    1    2    0    0 -0.69044510176E+01  0.91529607918E+02 -0.14564327780E+03  0.19443566400E+03  0.90376559442E+02 0.  0.
          5    1    3    3  502    0  0.57274030376E+00 -0.11623353860E+03 -0.79269127444E+02  0.14075379389E+03  0.41800000000E+01 0.  1.
         -5    1    3    3    0  502  0.63317107139E+01  0.24703930685E+02  0.11828643960E+02  0.28421188747E+02  0.41800000000E+01 0.  1.
        -11    1    4    4    0    0  0.11111705336E+02  0.76422179624E+02 -0.15163906760E+03  0.17017116782E+03  0.00000000000E+00 0.  1.
         11    1    4    4    0    0 -0.18016156353E+02  0.15107428294E+02  0.59957898019E+01  0.24264496178E+02  0.00000000000E+00 0. -1.
</event>
<event>
 8    1  0.3541538E-009  0.9400506E+02  0.7561462E-02  0.1293433E+00
          1   -1    0    0  501    0  0.00000000000E+00  0.00000000000E+00  0.71582120522E+02  0.71582120522E+02  0.00000000000E+00 0. -1.
         -1   -1    0    0    0  501 -0.00000000000E+00 -0.00000000000E+00 -0.17897158572E+03  0.17897158572E+03  0.00000000000E+00 0.  1.
         25    2    1    2    0    0 -0.19997404199E+02  0.23042404670E+02 -0.56841982818E+02  0.14074515615E+03  0.12508932561E+03 0.  0.
         23    2    1    2    0    0  0.19997404199E+02 -0.23042404670E+02 -0.50547482379E+02  0.10980855009E+03  0.92585209994E+02 0.  0.
          5    1    3    3  502    0  0.16056482407E+02  0.64157312113E+02 -0.69993341237E+01  0.66636584569E+02  0.41800000000E+01 0. -1.
         -5    1    3    3    0  502 -0.36053886606E+02 -0.41114907443E+02 -0.49842648694E+02  0.74108571584E+02  0.41800000000E+01 0. -1.
        -11    1    4    4    0    0  0.34499530637E+02 -0.34217364791E+02 -0.68620743223E+02  0.84082412358E+02  0.00000000000E+00 0.  1.
         11    1    4    4    0    0 -0.14502126438E+02  0.11174960121E+02  0.18073260844E+02  0.25726137729E+02  0.00000000000E+00 0. -1.
</event>
<event>
 8    1  0.3541538E-009  0.1064018E+03  0.7561462E-02  0.1267382E+00
          2   -1    0    0  501    0  0.00000000000E+00  0.00000000000E+00  0.51304133395E+03  0.51304133395E+03  0.00000000000E+00 0. -1.
         -2   -1    0    0    0  501 -0.00000000000E+00 -0.00000000000E+00 -0.34740895797E+02  0.34740895797E+02  0.00000000000E+00 0.  1.
         25    2    1    2    0    0 -0.28713867570E+02  0.15362748248E+02  0.38446471478E+03  0.40561072248E+03  0.12508573483E+03 0.  0.
         23    2    1    2    0    0  0.28713867570E+02 -0.15362748248E+02  0.93835723373E+02  0.14217150726E+03  0.10172066787E+03 0.  0.
          5    1    3    3  502    0 -0.16138549725E+02  0.65170517568E+02  0.29301041181E+03  0.30063303707E+03  0.41800000000E+01 0.  1.
         -5    1    3    3    0  502 -0.12575317845E+02 -0.49807769320E+02  0.91454302965E+02  0.10497768541E+03  0.41800000000E+01 0.  1.
        -11    1    4    4    0    0  0.32317563744E+02  0.32595279789E+02  0.12318934246E+02  0.47525081081E+02  0.00000000000E+00 0.  1.
         11    1    4    4    0    0 -0.36036961743E+01 -0.47958028037E+02  0.81516789128E+02  0.94646426181E+02  0.00000000000E+00 0. -1.
</event>
<event>
 8    1  0.3541538E-009  0.9442877E+02  0.7561462E-02  0.1292468E+00
          3   -1    0    0  501    0  0.00000000000E+00  0.00000000000E+00  0.39025921597E+03  0.39025921597E+03  0.00000000000E+00 0.  1.
         -3   -1    0    0    0  501 -0.00000000000E+00 -0.00000000000E+00 -0.32529409382E+02  0.32529409382E+02  0.00000000000E+00 0. -1.
         25    2    1    2    0    0  0.24206341496E+02 -0.20628824187E+02  0.21088136194E+03  0.24724199936E+03  0.12508461966E+03 0.  0.
         23    2    1    2    0    0 -0.24206341496E+02  0.20628824187E+02  0.14684844465E+03  0.17554662599E+03  0.90778063685E+02 0.  0.
          5    1    3    3  502    0  0.56859653664E+02 -0.24222101724E+02  0.41283699473E+02  0.74441565465E+02  0.41800000000E+01 0.  1.
         -5    1    3    3    0  502 -0.32653312168E+02  0.35932775374E+01  0.16959766247E+03  0.17280043390E+03  0.41800000000E+01 0.  1.
        -11    1    4    4    0    0  0.32548451327E+02 -0.22007851529E+01  0.33599220277E+02  0.46831108703E+02  0.00000000000E+00 0. -1.
         11    1    4    4    0    0 -0.56754792823E+02  0.22829609340E+02  0.11324922437E+03  0.12871551729E+03  0.00000000000E+00 0.  1.
</event>
<event>
 8    1  0.3541538E-009  0.1031279E+03  0.7561462E-02  0.1273853E+00
         -2   -1    0    0    0  501 -0.00000000000E+00  0.00000000000E+00  0.50304904823E+02  0.50304904823E+02  0.00000000000E+00 0. -1.
          2   -1    0    0  501    0  0.00000000000E+00 -0.00000000000E+00 -0.37764561319E+03  0.37764561319E+03  0.00000000000E+00 0.  1.
         25    2    1    2    0    0 -0.27391089379E+02 -0.36044704314E+02 -0.68609397293E+02  0.14967321880E+03  0.12508129574E+03 0.  0.
         23    2    1    2    0    0  0.27391089379E+02  0.36044704314E+02 -0.25873131108E+03  0.27827729921E+03  0.91906862856E+02 0.  0.
          5    1    3    3  502    0 -0.76262911035E+02 -0.11682625275E+02 -0.31085878500E+02  0.83284569849E+02  0.41800000000E+01 0. -1.
         -5    1    3    3    0  502  0.48871821656E+02 -0.24362079040E+02 -0.37523518793E+02  0.66388648952E+02  0.41800000000E+01 0. -1.
        -11    1    4    4    0    0  0.32048115214E+02 -0.54152142472E+01 -0.25412560119E+02  0.41257780429E+02  0.00000000000E+00 0. -1.
         11    1    4    4    0    0 -0.46570258349E+01  0.41459918561E+02 -0.23331875096E+03  0.23701951879E+03  0.00000000000E+00 0.  1.
</event>
<event>
 8    1  0.3541538E-009  0.1053388E+03  0.7561462E-02  0.1269454E+00
         -1   -1    0    0    0  501 -0.00000000000E+00  0.00000000000E+00  0.12186609007E+02  0.12186609007E+02  0.00000000000E+00 0.  1.
          1   -1    0    0  501    0  0.00000000000E+00 -0.00000000000E+00 -0.11323474694E+04  0.11323474694E+04  0.00000000000E+00 0. -1.
         25    2    1    2    0    0  0.26745391341E+02  0.20220687078E+02 -0.72470849557E+03  0.73618562052E+03  0.12507066867E+03 0.  0.
         23    2    1    2    0    0 -0.26745391341E+02 -0.20220687078E+02 -0.39545236479E+03  0.40834845786E+03  0.96133750956E+02 0.  0.
          5    1    3    3  502    0  0.67684260788E+02  0.70716246706E+01 -0.23828657296E+03  0.24784900704E+03  0.41800000000E+01 0.  1.
         -5    1    3    3    0  502 -0.40938869447E+02  0.13149062408E+02 -0.48642192261E+03  0.48833661348E+03  0.41800000000E+01 0.  1.
        -11    1    4    4    0    0 -0.57363192092E+02  0.76759839225E+01 -0.18435736698E+03  0.19322809137E+03  0.00000000000E+00 0.  1.
         11    1    4    4    0    0  0.30617800751E+02 -0.27896671001E+02 -0.21109499781E+03  0.21512036649E+03  0.00000000000E+00 0. -1.
</event>
<event>
 8    1  0.3541538E-009  0.1247813E+03  0.7561462E-02  0.1235412E+00
          1   -1    0    0  501    0  0.00000000000E+00  0.00000000000E+00  0.15783988691E+03  0.15783988691E+03  0.00000000000E+00 0. -1.
         -1   -1    0    0    0  501 -0.00000000000E+00 -0.00000000000E+00 -0.11568414080E+03  0.11568414080E+03  0.00000000000E+00 0.  1.
         25    2    1    2    0    0  0.69165719435E+02  0.31362257212E+02  0.55364017232E+02  0.15646008283E+03  0.12508834955E+03 0.  0.
         23    2    1    2    0    0 -0.69165719435E+02 -0.31362257212E+02 -0.13208271119E+02  0.11706394487E+03  0.88102331635E+02 0.  0.
          5    1    3    3  502    0 -0.11160322346E+02  0.54668863650E+02  0.45539178686E+02  0.72142405304E+02  0.41800000000E+01 0. -1.
         -5    1    3    3    0  502  0.80326041781E+02 -0.23306606437E+02  0.98248385460E+01  0.84317677531E+02  0.41800000000E+01 0. -1.
        -11    1    4    4    0    0 -0.70132013755E+02 -0.53187810164E+02  0.56539481281E+01  0.88200961632E+02  0.00000000000E+00 0. -1.
         11    1    4    4    0    0  0.96629431989E+00  0.21825552951E+02 -0.18862219247E+02  0.28862983236E+02  0.00000000000E+00 0.  1.
</event>
<event>
 8    1  0.3541538E-009  0.2471564E+03  0.7561462E-02  0.1115115E+00
         -1   -1    0    0    0  501 -0.00000000000E+00  0.00000000000E+00  0.89376117958E+02  0.89376117958E+02  0.00000000000E+00 0.  1.
          1   -1    0    0  501    0  0.00000000000E+00 -0.00000000000E+00 -0.88431786658E+03  0.88431786658E+03  0.00000000000E+00 0. -1.
         25    2    1    2    0    0  0.71759050829E+02 -0.23387238645E+03 -0.25975490801E+03  0.37810873698E+03  0.12509176722E+03 0.  0.
         23    2    1    2    0    0 -0.71759050829E+02  0.23387238645E+03 -0.53518684061E+03  0.59558524756E+03  0.91930290032E+02 0.  0.
          5    1    3    3  502    0  0.29783920439E+01 -0.40044494674E+02  0.72823131350E+01  0.41023613413E+02  0.41800000000E+01 0. -1.
         -5    1    3    3    0  502  0.68780658785E+02 -0.19382789178E+03 -0.26703722114E+03  0.33708512356E+03  0.41800000000E+01 0. -1.
        -11    1    4    4    0    0 -0.38712957922E+02  0.61155705355E+02 -0.81441507155E+02  0.10895610353E+03  0.00000000000E+00 0.  1.
         11    1    4    4    0    0 -0.33046092907E+02  0.17271668109E+03 -0.45374533346E+03  0.48662914403E+03  0.00000000000E+00 0. -1.
</event>
<event>
 8    1  0.3541538E-009  0.1036932E+03  0.7561462E-02  0.1272716E+00
          1   -1    0    0  501    0  0.00000000000E+00  0.00000000000E+00  0.48449443020E+03  0.48449443020E+03  0.00000000000E+00 0. -1.
         -1   -1    0    0    0  501 -0.00000000000E+00 -0.00000000000E+00 -0.29903423420E+02  0.29903423420E+02  0.00000000000E+00 0.  1.
         25    2    1    2    0    0  0.11407017923E+02 -0.18456410924E+02  0.36304683167E+03  0.38460538532E+03  0.12509013260E+03 0.  0.
         23    2    1    2    0    0 -0.11407017923E+02  0.18456410924E+02  0.91544175114E+02  0.12979246830E+03  0.89414706103E+02 0.  0.
          5    1    3    3  502    0  0.44402865333E+02 -0.51832575309E+02  0.13046210452E+03  0.14729583642E+03  0.41800000000E+01 0.  1.
         -5    1    3    3    0  502 -0.32995847410E+02  0.33376164384E+02  0.23258472715E+03  0.23730954890E+03  0.41800000000E+01 0.  1.
        -11    1    4    4    0    0  0.13104238217E+02  0.50143699964E+02  0.54914575600E+02  0.75509749825E+02  0.00000000000E+00 0.  1.
         11    1    4    4    0    0 -0.24511256140E+02 -0.31687289040E+02  0.36629599515E+02  0.54282718473E+02  0.00000000000E+00 0. -1.
</event>
<event>
 8    1  0.3541538E-009  0.1116166E+03  0.7561462E-02  0.1257605E+00
         -1   -1    0    0    0  501 -0.00000000000E+00  0.00000000000E+00  0.69809132770E+01  0.69809132770E+01  0.00000000000E+00 0.  1.
          1   -1    0    0  501    0  0.00000000000E+00 -0.00000000000E+00 -0.23273043934E+04  0.23273043934E+04  0.00000000000E+00 0. -1.
         25    2    1    2    0    0  0.26803334464E+02  0.33570636652E+01 -0.18337856266E+04  0.18382444518E+04  0.12507298580E+03 0.  0.
         23    2    1    2    0    0 -0.26803334464E+02 -0.33570636652E+01 -0.48653785357E+03  0.49604085489E+03  0.92778004634E+02 0.  0.
          5    1    3    3  502    0  0.68245607826E+02 -0.28949259750E+02 -0.11827574684E+04  0.11850857454E+04  0.41800000000E+01 0. -1.
         -5    1    3    3    0  502 -0.41442273362E+02  0.32306323415E+02 -0.65102815817E+03  0.65315870636E+03  0.41800000000E+01 0. -1.
        -11    1    4    4    0    0  0.16969758833E+02 -0.37234764275E+02 -0.22820825349E+03  0.23184781075E+03  0.00000000000E+00 0. -1.
         11    1    4    4    0    0 -0.43773093297E+02  0.33877700610E+02 -0.25832960008E+03  0.26419304414E+03  0.00000000000E+00 0.  1.
</event>
<event>
 8    1  0.3541538E-009  0.1045889E+03  0.7561462E-02  0.1270932E+00
         -1   -1    0    0    0  501 -0.00000000000E+00  0.00000000000E+00  0.11262466063E+03  0.11262466063E+03  0.00000000000E+00 0.  1.
          1   -1    0    0  501    0  0.00000000000E+00 -0.00000000000E+00 -0.19891347650E+03  0.19891347650E+03  0.00000000000E+00 0. -1.
         25    2    1    2    0    0 -0.81094339878E+01  0.12012275701E+02  0.58736601304E+02  0.13895185022E+03  0.12509025005E+03 0.  0.
         23    2    1    2    0    0  0.81094339878E+01 -0.12012275701E+02 -0.14502541717E+03  0.17258628692E+03  0.92431580741E+02 0.  0.
          5    1    3    3  502    0  0.21971291456E+02 -0.50801454053E+02  0.33064058590E+02  0.64608279288E+02  0.41800000000E+01 0.  1.
         -5    1    3    3    0  502 -0.30080725444E+02  0.62813729754E+02  0.25672542714E+02  0.74343570927E+02  0.41800000000E+01 0.  1.
        -11    1    4    4    0    0 -0.16184213587E+02 -0.42173681075E+02 -0.11508849700E+03  0.12363620136E+03  0.00000000000E+00 0. -1.
         11    1    4    4    0    0  0.24293647575E+02  0.30161405375E+02 -0.29936920176E+02  0.48950085560E+02  0.00000000000E+00 0.  1.
</event>
<event>
 8    1  0.3541538E-009  0.8227161E+02  0.7561462E-02  0.1322726E+00
         -2   -1    0    0    0  501 -0.00000000000E+00  0.00000000000E+00  0.31491921858E+03  0.31491921858E+03  0.00000000000E+00 0.  1.
          2   -1    0    0  501    0  0.00000000000E+00 -0.00000000000E+00 -0.44645613298E+02  0.44645613298E+02  0.00000000000E+00 0. -1.
         25    2    1    2    0    0 -0.43218762104E+02  0.38065484697E+01  0.18215508786E+03  0.22518925929E+03  0.12508946902E+03 0.  0.
         23    2    1    2    0    0  0.43218762104E+02 -0.38065484697E+01  0.88118517420E+02  0.13437557258E+03  0.91703708674E+02 0.  0.
          5    1    3    3  502    0 -0.51467695689E+02 -0.71197140573E+01  0.10794240918E+02  0.53231588975E+02  0.41800000000E+01 0. -1.
         -5    1    3    3    0  502  0.82489335849E+01  0.10926262527E+02  0.17136084694E+03  0.17195767032E+03  0.41800000000E+01 0. -1.
        -11    1    4    4    0    0  0.70392849863E+02 -0.70095526385E+01  0.77747018589E+02  0.10511368150E+03  0.00000000000E+00 0. -1.
         11    1    4    4    0    0 -0.27174087759E+02  0.32030041687E+01  0.10371498832E+02  0.29261891075E+02  0.00000000000E+00 0.  1.
</event>
<event>
 8    1  0.3541538E-009  0.1629861E+03  0.7561462E-02  0.1185366E+00
          1   -1    0    0  501    0  0.00000000000E+00  0.00000000000E+00  0.37979045635E+03  0.37979045635E+03  0.00000000000E+00 0. -1.
         -1   -1    0    0    0  501 -0.00000000000E+00 -0.00000000000E+00 -0.96372065271E+02  0.96372065271E+02  0.00000000000E+00 0.  1.
         25    2    1    2    0    0  0.11675721399E+03 -0.95280365427E+02  0.99556019099E+02  0.21970352364E+03  0.12509053643E+03 0.  0.
         23    2    1    2    0    0 -0.11675721399E+03  0.95280365427E+02  0.18386237198E+03  0.25645899799E+03  0.96204213854E+02 0.  0.
          5    1    3    3  502    0  0.10848610014E+03 -0.10396937946E+03  0.12220996044E+03  0.19373077354E+03  0.41800000000E+01 0. -1.
         -5    1    3    3    0  502  0.82711138532E+01  0.86890140324E+01 -0.22653941337E+02  0.25972750092E+02  0.41800000000E+01 0. -1.
        -11    1    4    4    0    0  0.58574757394E+01  0.15737676871E+02 -0.51182560648E+01  0.17555085886E+02  0.00000000000E+00 0.  1.
         11    1    4    4    0    0 -0.12261468973E+03  0.79542688556E+02  0.18898062805E+03  0.23890391210E+03  0.00000000000E+00 0. -1.
</event>
<event>
 8    1  0.3541538E-009  0.2675055E+03  0.7561462E-02  0.1102716E+00
         -1   -1    0    0    0  501 -0.00000000000E+00  0.00000000000E+00  0.32789489652E+03  0.32789489652E+03  0.00000000000E+00 0.  1.
          1   -1    0    0  501    0  0.00000000000E+00 -0.00000000000E+00 -0.31200494627E+03  0.31200494627E+03  0.00000000000E+00 0. -1.
         25    2    1    2    0    0 -0.68763170726E+02  0.24948597397E+03  0.16108683147E+03  0.32949654976E+03  0.12508950466E+03 0.  0.
         23    2    1    2    0    0  0.68763170726E+02 -0.24948597397E+03 -0.14519688123E+03  0.31040329303E+03  0.91084823914E+02 0.  0.
          5    1    3    3  502    0 -0.63107431498E+00  0.13110620712E+03  0.13891338678E+03  0.19105925056E+03  0.41800000000E+01 0. -1.
         -5    1    3    3    0  502 -0.68132096411E+02  0.11837976685E+03  0.22173444699E+02  0.13843729920E+03  0.41800000000E+01 0. -1.
        -11    1    4    4    0    0  0.59595608452E+02 -0.93154974134E+02 -0.26004699090E+02  0.11360338959E+03  0.00000000000E+00 0. -1.
         11    1    4    4    0    0  0.91675622742E+01 -0.15633099983E+03 -0.11919218214E+03  0.19679990343E+03  0.00000000000E+00 0.  1.
</event>
<event>
 8    1  0.3541538E-009  0.1228569E+03  0.7561462E-02  0.1238457E+00
          1   -1    0    0  501    0  0.00000000000E+00  0.00000000000E+00  0.75539118706E+02  0.75539118706E+02  0.00000000000E+00 0. -1.
         -1   -1    0    0    0  501 -0.00000000000E+00 -0.00000000000E+00 -0.29879159604E+03  0.29879159604E+03  0.00000000000E+00 0.  1.
         25    2    1    2    0    0  0.94061138500E+02 -0.44084421231E+02 -0.11689006054E+03  0.20025491962E+03  0.12509121715E+03 0.  0.
         23    2    1    2    0    0 -0.94061138500E+02  0.44084421231E+02 -0.10636241680E+03  0.17407579513E+03  0.90545484549E+02 0.  0.
          5    1    3    3  502    0  0.18412324457E+01  0.15267407504E+02  0.19505785799E+02  0.25187932596E+02  0.41800000000E+01 0. -1.
         -5    1    3    3    0  502  0.92219906054E+02 -0.59351828735E+02 -0.13639584634E+03  0.17506698702E+03  0.41800000000E+01 0. -1.
        -11    1    4    4    0    0 -0.12518191701E+02  0.35967623838E+02 -0.78968850459E+02  0.87672426856E+02  0.00000000000E+00 0.  1.
         11    1    4    4    0    0 -0.81542946799E+02  0.81167973932E+01 -0.27393566340E+02  0.86403368276E+02  0.00000000000E+00 0. -1.
</event>
<event>
 8    1  0.3541538E-009  0.1218470E+03  0.7561462E-02  0.1240081E+00
          2   -1    0    0  501    0  0.00000000000E+00  0.00000000000E+00  0.38103027013E+03  0.38103027013E+03  0.00000000000E+00 0. -1.
         -2   -1    0    0    0  501 -0.00000000000E+00 -0.00000000000E+00 -0.43661498102E+02  0.43661498102E+02  0.00000000000E+00 0.  1.
         25    2    1    2    0    0 -0.15324741126E+02  0.54070240943E+02  0.11878189838E+03  0.18143355963E+03  0.12510219234E+03 0.  0.
         23    2    1    2    0    0  0.15324741126E+02 -0.54070240943E+02  0.21858687365E+03  0.24325820861E+03  0.90751837882E+02 0.  0.
          5    1    3    3  502    0  0.22257201216E+02 -0.34235481967E+02  0.37497775732E+02  0.55596823797E+02  0.41800000000E+01 0.  1.
         -5    1    3    3    0  502 -0.37581942342E+02  0.88305722910E+02  0.81284122652E+02  0.12583673583E+03  0.41800000000E+01 0.  1.
        -11    1    4    4    0    0  0.51161833747E+02 -0.48160787539E+02  0.15029535259E+03  0.16590867276E+03  0.00000000000E+00 0. -1.
         11    1    4    4    0    0 -0.35837092620E+02 -0.59094534041E+01  0.68291521060E+02  0.77349535847E+02  0.00000000000E+00 0.  1.
</event>
<event>
 8    1  0.3541538E-009  0.7002230E+02  0.7561462E-02  0.1360017E+00
         -1   -1    0    0    0  501 -0.00000000000E+00  0.00000000000E+00  0.34626573516E+02  0.34626573516E+02  0.00000000000E+00 0.  1.
          1   -1    0    0  501    0  0.00000000000E+00 -0.00000000000E+00 -0.37993473703E+03  0.37993473703E+03  0.00000000000E+00 0. -1.
         25    2    1    2    0    0 -0.13583016805E+02  0.31639097385E+02 -0.18660667603E+03  0.22727735020E+03  0.12508961406E+03 0.  0.
         23    2    1    2    0    0  0.13583016805E+02 -0.31639097385E+02 -0.15870148748E+03  0.18728396034E+03  0.93293026772E+02 0.  0.
          5    1    3    3  502    0  0.13378626663E+02 -0.13522288693E+02 -0.17120922342E+03  0.17231340786E+03  0.41800000000E+01 0.  1.
         -5    1    3    3    0  502 -0.26961643468E+02  0.45161386078E+02 -0.15397452610E+02  0.54963942343E+02  0.41800000000E+01 0.  1.
        -11    1    4    4    0    0  0.14802161359E+02  0.15044784733E+02  0.76555743351E+00  0.21119555079E+02  0.00000000000E+00 0.  1.
         11    1    4    4    0    0 -0.12191445542E+01 -0.46683882118E+02 -0.15946704491E+03  0.16616440526E+03  0.00000000000E+00 0. -1.
</event>
<event>
 8    1  0.3541538E-009  0.1531090E+03  0.7561462E-02  0.1196704E+00
         -2   -1    0    0    0  501 -0.00000000000E+00  0.00000000000E+00  0.95828016345E+02  0.95828016345E+02  0.00000000000E+00 0.  1.
          2   -1    0    0  501    0  0.00000000000E+00 -0.00000000000E+00 -0.34293667879E+03  0.34293667879E+03  0.00000000000E+00 0. -1.
         25    2    1    2    0    0 -0.12358114503E+03  0.31153200216E+02 -0.21585465838E+03  0.28014804186E+03  0.12508745151E+03 0.  0.
         23    2    1    2    0    0  0.12358114503E+03 -0.31153200216E+02 -0.31254004069E+02  0.15861665327E+03  0.89104481570E+02 0.  0.
          5    1    3    3  502    0  0.19037253588E+01 -0.35897477312E+02 -0.46460698896E+02  0.58892461228E+02  0.41800000000E+01 0. -1.
         -5    1    3    3    0  502 -0.12548487039E+03  0.67050677528E+02 -0.16939395948E+03  0.22125558063E+03  0.41800000000E+01 0. -1.
        -11    1    4    4    0    0  0.38524967405E+02 -0.59668762520E+01 -0.54412642144E+02  0.66936629366E+02  0.00000000000E+00 0. -1.
         11    1    4    4    0    0  0.85056177622E+02 -0.25186323964E+02  0.23158638075E+02  0.91680023909E+02  0.00000000000E+00 0.  1.
</event>
<event>
 8    1  0.3541538E-009  0.8006048E+02  0.7561462E-02  0.1328880E+00
          1   -1    0    0  501    0  0.00000000000E+00  0.00000000000E+00  0.75648171173E+03  0.75648171173E+03  0.00000000000E+00 0. -1.
         -1   -1    0    0    0  501 -0.00000000000E+00 -0.00000000000E+00 -0.19661772691E+02  0.19661772691E+02  0.00000000000E+00 0.  1.
         25    2    1    2    0    0  0.14000629944E+02  0.51969801105E+02  0.46446228082E+03  0.48401468939E+03  0.12509249128E+03 0.  0.
         23    2    1    2    0    0 -0.14000629944E+02 -0.51969801105E+02  0.27235765822E+03  0.29212879503E+03  0.90904681014E+02 0.  0.
          5    1    3    3  502    0  0.12572402442E+02  0.40417039674E+02  0.37002645994E+02  0.56376152846E+02  0.41800000000E+01 0.  1.
         -5    1    3    3    0  502  0.14282275014E+01  0.11552761431E+02  0.42745963483E+03  0.42763853655E+03  0.41800000000E+01 0.  1.
        -11    1    4    4    0    0 -0.25212590717E+02  0.20123851966E+02  0.71857598268E+02  0.78766481307E+02  0.00000000000E+00 0.  1.
         11    1    4    4    0    0  0.11211960774E+02 -0.72093653071E+02  0.20050005995E+03  0.21336231372E+03  0.00000000000E+00 0. -1.
</event>
<event>
 8    1  0.3541538E-009  0.1120479E+03  0.7561462E-02  0.1256824E+00
          3   -1    0    0  501    0  0.00000000000E+00  0.00000000000E+00  0.53538618140E+03  0.53538618140E+03  0.00000000000E+00 0. -1.
         -3   -1    0    0    0  501 -0.00000000000E+00 -0.00000000000E+00 -0.30627586231E+02  0.30627586231E+02  0.00000000000E+00 0.  1.
         25    2    1    2    0    0 -0.36002312433E+02  0.68895177979E+00  0.41219111831E+03  0.43225588668E+03  0.12508793868E+03 0.  0.
         23    2    1    2    0    0  0.36002312433E+02 -0.68895177979E+00  0.92567476868E+02  0.13375788096E+03  0.89586783565E+02 0.  0.
          5    1    3    3  502    0 -0.81363455575E+02  0.11940928639E+02  0.28625454928E+03  0.29786194296E+03  0.41800000000E+01 0. -1.
         -5    1    3    3    0  502  0.45361143141E+02 -0.11251976860E+02  0.12593656903E+03  0.13439394372E+03  0.41800000000E+01 0. -1.
        -11    1    4    4    0    0  0.65258293845E+02  0.30999268058E+01  0.51482170610E+02  0.83178533002E+02  0.00000000000E+00 0. -1.
         11    1    4    4    0    0 -0.29255981411E+02 -0.37888785856E+01  0.41085306258E+02  0.50579347955E+02  0.00000000000E+00 0.  1.
</event>
<event>
 8    1  0.3541538E-009  0.9706316E+02  0.7561462E-02  0.1286596E+00
          1   -1    0    0  501    0  0.00000000000E+00  0.00000000000E+00  0.13811236723E+02  0.13811236723E+02  0.00000000000E+00 0. -1.
         -1   -1    0    0    0  501 -0.00000000000E+00 -0.00000000000E+00 -0.12500839055E+04  0.12500839055E+04  0.00000000000E+00 0.  1.
         25    2    1    2    0    0 -0.29990938718E+02  0.41037517608E+02 -0.95936076215E+03  0.96881600894E+03  0.12509137847E+03 0.  0.
         23    2    1    2    0    0  0.29990938718E+02 -0.41037517608E+02 -0.27691190657E+03  0.29507913323E+03  0.88362642610E+02 0.  0.
          5    1    3    3  502    0  0.31067570619E+02  0.12590976893E+02 -0.79617632044E+02  0.86487955090E+02  0.41800000000E+01 0.  1.
         -5    1    3    3    0  502 -0.61058509337E+02  0.28446540715E+02 -0.87974313011E+03  0.88232805385E+03  0.41800000000E+01 0.  1.
        -11    1    4    4    0    0 -0.23630627064E+02 -0.29863285792E+02 -0.17786414556E+03  0.18189523537E+03  0.00000000000E+00 0.  1.
         11    1    4    4    0    0  0.53621565782E+02 -0.11174231816E+02 -0.99047761015E+02  0.11318389786E+03  0.00000000000E+00 0. -1.
</event>
<event>
 8    1  0.3541538E-009  0.1419185E+03  0.7561462E-02  0.1210771E+00
          2   -1    0    0  501    0  0.00000000000E+00  0.00000000000E+00  0.49445616747E+03  0.49445616747E+03  0.00000000000E+00 0. -1.
         -2   -1    0    0    0  501 -0.00000000000E+00 -0.00000000000E+00 -0.91439207552E+02  0.91439207552E+02  0.00000000000E+00 0.  1.
         25    2    1    2    0    0  0.82853085973E+02  0.78269726826E+02  0.13773630148E+02  0.16978842732E+03  0.12509041998E+03 0.  0.
         23    2    1    2    0    0 -0.82853085973E+02 -0.78269726826E+02  0.38924332977E+03  0.41610694771E+03  0.92972244061E+02 0.  0.
          5    1    3    3  502    0  0.84941992884E+02  0.32581757915E+02 -0.39657229703E+02  0.99332176920E+02  0.41800000000E+01 0.  1.
         -5    1    3    3    0  502 -0.20889069115E+01  0.45687968911E+02  0.53430859851E+02  0.70456250395E+02  0.41800000000E+01 0.  1.
        -11    1    4    4    0    0 -0.34301753596E+02 -0.90489454777E+02  0.26779219915E+03  0.28474131005E+03  0.00000000000E+00 0. -1.
         11    1    4    4    0    0 -0.48551332377E+02  0.12219727951E+02  0.12145113062E+03  0.13136563765E+03  0.00000000000E+00 0.  1.
</event>
<event>
 8    1  0.3541538E-009  0.8340178E+02  0.7561462E-02  0.1319666E+00
         -1   -1    0    0    0  501 -0.00000000000E+00  0.00000000000E+00  0.90084969264E+02  0.90084969264E+02  0.00000000000E+00 0.  1.
          1   -1    0    0  501    0  0.00000000000E+00 -0.00000000000E+00 -0.24766548875E+03  0.24766548875E+03  0.00000000000E+00 0. -1.
         25    2    1    2    0    0  0.14524476705E+02 -0.53051865707E+02 -0.18302669895E+03  0.22841159054E+03  0.12509045241E+03 0.  0.
         23    2    1    2    0    0 -0.14524476705E+02  0.53051865707E+02  0.25446179466E+02  0.10933886747E+03  0.91005598797E+02 0.  0.
          5    1    3    3  502    0 -0.40370371892E+02 -0.23914448287E+02 -0.15138812573E+03  0.15854811502E+03  0.41800000000E+01 0.  1.
         -5    1    3    3    0  502  0.54894848597E+02 -0.29137417420E+02 -0.31638573221E+02  0.69863475521E+02  0.41800000000E+01 0.  1.
        -11    1    4    4    0    0  0.30484289018E+00  0.29972033522E+02  0.58892296865E+02  0.66081149753E+02  0.00000000000E+00 0.  1.
         11    1    4    4    0    0 -0.14829319595E+02  0.23079832185E+02 -0.33446117399E+02  0.43257717721E+02  0.00000000000E+00 0. -1.
</event>
<event>
 8    1  0.3541538E-009  0.1821085E+03  0.7561462E-02  0.1165778E+00
          1   -1    0    0  501    0  0.00000000000E+00  0.00000000000E+00  0.32900102878E+03  0.32900102878E+03  0.00000000000E+00 0.  1.
         -1   -1    0    0    0  501 -0.00000000000E+00 -0.00000000000E+00 -0.11095313628E+03  0.11095313628E+03  0.00000000000E+00 0. -1.
         25    2    1    2    0    0 -0.10638794957E+03 -0.11299117466E+03  0.89244962445E+02  0.21840093866E+03  0.12509558473E+03 0.  0.
         23    2    1    2    0    0  0.10638794957E+03  0.11299117466E+03  0.12880293006E+03  0.22155322641E+03  0.91707338713E+02 0.  0.
          5    1    3    3  502    0 -0.75505033916E+02 -0.98395815861E+01 -0.33417761165E+01  0.76331300133E+02  0.41800000000E+01 0. -1.
         -5    1    3    3    0  502 -0.30882915658E+02 -0.10315159307E+03  0.92586738562E+02  0.14206963852E+03  0.41800000000E+01 0. -1.
        -11    1    4    4    0    0  0.11619744515E+03  0.69020304631E+02  0.94038113772E+02  0.16464754949E+03  0.00000000000E+00 0.  1.
         11    1    4    4    0    0 -0.98094955721E+01  0.43970870025E+02  0.34764816289E+02  0.56905676920E+02  0.00000000000E+00 0. -1.
</event>
<event>
 8    1  0.3541538E-009  0.1044484E+03  0.7561462E-02  0.1271210E+00
          1   -1    0    0  501    0  0.00000000000E+00  0.00000000000E+00  0.36618510525E+03  0.36618510525E+03  0.00000000000E+00 0. -1.
         -1   -1    0    0    0  501 -0.00000000000E+00 -0.00000000000E+00 -0.36341829013E+02  0.36341829013E+02  0.00000000000E+00 0.  1.
         25    2    1    2    0    0 -0.95157520792E+01  0.29738737126E+02  0.23551381869E+03  0.26849458796E+03  0.12509053898E+03 0.  0.
         23    2    1    2    0    0  0.95157520792E+01 -0.29738737126E+02  0.94329457540E+02  0.13403234630E+03  0.89953772973E+02 0.  0.
          5    1    3    3  502    0 -0.38711572846E+02 -0.34196259795E+02  0.14392049831E+03  0.15296585335E+03  0.41800000000E+01 0. -1.
         -5    1    3    3    0  502  0.29195820767E+02  0.63934996921E+02  0.91593320383E+02  0.11552873461E+03  0.41800000000E+01 0. -1.
        -11    1    4    4    0    0  0.41006631341E+02 -0.35990141280E+02  0.84265069896E+02  0.10038643378E+03  0.00000000000E+00 0.  1.
         11    1    4    4    0    0 -0.31490879262E+02  0.62514041540E+01  0.10064387644E+02  0.33645912519E+02  0.00000000000E+00 0. -1.
</event>
<event>
 8    1  0.3541538E-009  0.1105560E+03  0.7561462E-02  0.1259544E+00
         -3   -1    0    0    0  501 -0.00000000000E+00  0.00000000000E+00  0.51904257665E+02  0.51904257665E+02  0.00000000000E+00 0.  1.
          3   -1    0    0  501    0  0.00000000000E+00 -0.00000000000E+00 -0.27123634588E+03  0.27123634588E+03  0.00000000000E+00 0. -1.
         25    2    1    2    0    0  0.98373577318E+01 -0.34151964561E+02 -0.76138905868E+02  0.15069244396E+03  0.12509176387E+03 0.  0.
         23    2    1    2    0    0 -0.98373577318E+01  0.34151964561E+02 -0.14319318235E+03  0.17244815959E+03  0.89280176880E+02 0.  0.
          5    1    3    3  502    0  0.62807872029E+02 -0.83407918362E+00 -0.18760603657E+02  0.65688333260E+02  0.41800000000E+01 0. -1.
         -5    1    3    3    0  502 -0.52970514298E+02 -0.33317885377E+02 -0.57378302211E+02  0.85004110698E+02  0.41800000000E+01 0. -1.
        -11    1    4    4    0    0 -0.31201767896E+02 -0.20113618810E+02 -0.65687152710E+02  0.75451375154E+02  0.00000000000E+00 0. -1.
         11    1    4    4    0    0  0.21364410165E+02  0.54265583370E+02 -0.77506029639E+02  0.96996784435E+02  0.00000000000E+00 0.  1.
</event>
<event>
 8    1  0.3541538E-009  0.2027643E+03  0.7561462E-02  0.1147428E+00
         -4   -1    0    0    0  501 -0.00000000000E+00  0.00000000000E+00  0.14141347835E+03  0.14141347835E+03  0.00000000000E+00 0.  1.
          4   -1    0    0  501    0  0.00000000000E+00 -0.00000000000E+00 -0.32963874217E+03  0.32963874217E+03  0.00000000000E+00 0. -1.
         25    2    1    2    0    0  0.28005868179E+02  0.17562752327E+03 -0.31600488878E+02  0.21971772300E+03  0.12509169164E+03 0.  0.
         23    2    1    2    0    0 -0.28005868179E+02 -0.17562752327E+03 -0.15662477494E+03  0.25133449752E+03  0.83715912097E+02 0.  0.
          5    1    3    3  502    0  0.46718572491E+02  0.66548159224E+01 -0.72095481299E+01  0.47920367015E+02  0.41800000000E+01 0.  1.
         -5    1    3    3    0  502 -0.18712704312E+02  0.16897270735E+03 -0.24390940748E+02  0.17179735598E+03  0.41800000000E+01 0.  1.
        -11    1    4    4    0    0  0.18960685212E+02 -0.69518150380E+02 -0.25981692053E+02  0.76598493053E+02  0.00000000000E+00 0.  1.
         11    1    4    4    0    0 -0.46966553391E+02 -0.10610937289E+03 -0.13064308289E+03  0.17473600447E+03  0.00000000000E+00 0. -1.
</event>
<event>
 8    1  0.3541538E-009  0.2113214E+03  0.7561462E-02  0.1140524E+00
         -2   -1    0    0    0  501 -0.00000000000E+00  0.00000000000E+00  0.24209773045E+03  0.24209773045E+03  0.00000000000E+00 0. -1.
          2   -1    0    0  501    0  0.00000000000E+00 -0.00000000000E+00 -0.21467027272E+03  0.21467027272E+03  0.00000000000E+00 0.  1.
         25    2    1    2    0    0 -0.62484178505E+02 -0.18952188980E+03  0.26673235458E+02  0.23702676017E+03  0.12508958498E+03 0.  0.
         23    2    1    2    0    0  0.62484178505E+02  0.18952188980E+03  0.75422227117E+00  0.21974124299E+03  0.91993617947E+02 0.  0.
          5    1    3    3  502    0 -0.22969215240E+02 -0.62730981295E+01  0.42456189436E+02  0.48856289567E+02  0.41800000000E+01 0. -1.
         -5    1    3    3    0  502 -0.39514963265E+02 -0.18324879167E+03 -0.15782953977E+02  0.18817047060E+03  0.41800000000E+01 0. -1.
        -11    1    4    4    0    0  0.47355149487E+02  0.43957947407E+02  0.28782169509E+02  0.70733475843E+02  0.00000000000E+00 0. -1.
         11    1    4    4    0    0  0.15129029018E+02  0.14556394239E+03 -0.28027947237E+02  0.14900776715E+03  0.00000000000E+00 0.  1.
</event>
<event>
 8    1  0.3541538E-009  0.1502933E+03  0.7561462E-02  0.1200113E+00
          1   -1    0    0  501    0  0.00000000000E+00  0.00000000000E+00  0.66795117384E+03  0.66795117384E+03  0.00000000000E+00 0. -1.
         -1   -1    0    0    0  501 -0.00000000000E+00 -0.00000000000E+00 -0.42787631556E+02  0.42787631556E+02  0.00000000000E+00 0.  1.
         25    2    1    2    0    0  0.93633812014E+02  0.87707830440E+02  0.28020068667E+03  0.33259709055E+03  0.12509374709E+03 0.  0.
         23    2    1    2    0    0 -0.93633812014E+02 -0.87707830440E+02  0.34496285561E+03  0.37814171485E+03  0.86786119170E+02 0.  0.
          5    1    3    3  502    0  0.17267730076E+02 -0.26643541636E+02  0.10538137248E+03  0.11013972434E+03  0.41800000000E+01 0.  1.
         -5    1    3    3    0  502  0.76366081937E+02  0.11435137208E+03  0.17481931419E+03  0.22245736621E+03  0.41800000000E+01 0.  1.
        -11    1    4    4    0    0 -0.72648921418E+02 -0.51180697016E+02  0.31269449595E+03  0.32507718672E+03  0.00000000000E+00 0. -1.
         11    1    4    4    0    0 -0.20984890596E+02 -0.36527133423E+02  0.32268359662E+02  0.53064528121E+02  0.00000000000E+00 0.  1.
</event>
<event>
 8    1  0.3541538E-009  0.1076733E+03  0.7561462E-02  0.1264940E+00
         -1   -1    0    0    0  501 -0.00000000000E+00  0.00000000000E+00  0.10886078728E+02  0.10886078728E+02  0.00000000000E+00 0.  1.
          1   -1    0    0  501    0  0.00000000000E+00 -0.00000000000E+00 -0.13006030238E+04  0.13006030238E+04  0.00000000000E+00 0. -1.
         25    2    1    2    0    0  0.73915660483E+01  0.17449622648E+02 -0.99427736102E+03  0.10022950100E+04  0.12509473167E+03 0.  0.
         23    2    1    2    0    0 -0.73915660483E+01 -0.17449622648E+02 -0.29543958409E+03  0.30919409255E+03  0.89203780413E+02 0.  0.
          5    1    3    3  502    0 -0.11752971342E+02 -0.51421294117E+02 -0.33697076181E+03  0.34109976333E+03  0.41800000000E+01 0. -1.
         -5    1    3    3    0  502  0.19144537391E+02  0.68870916766E+02 -0.65730659920E+03  0.66119524669E+03  0.41800000000E+01 0. -1.
        -11    1    4    4    0    0 -0.11713515104E+02 -0.53374991597E+02 -0.16397311872E+03  0.17283888402E+03  0.00000000000E+00 0.  1.
         11    1    4    4    0    0  0.43219490560E+01  0.35925368949E+02 -0.13146646536E+03  0.13635520853E+03  0.00000000000E+00 0. -1.
</event>
<event>
 8    1  0.3541538E-009  0.1470832E+03  0.7561462E-02  0.1204104E+00
          1   -1    0    0  501    0  0.00000000000E+00  0.00000000000E+00  0.59940570556E+03  0.59940570556E+03  0.00000000000E+00 0. -1.
         -1   -1    0    0    0  501 -0.00000000000E+00 -0.00000000000E+00 -0.64902675022E+02  0.64902675022E+02  0.00000000000E+00 0.  1.
         25    2    1    2    0    0  0.10740066633E+03 -0.32182884978E+02  0.77471237415E+02  0.18498577933E+03  0.12508918703E+03 0.  0.
         23    2    1    2    0    0 -0.10740066633E+03  0.32182884978E+02  0.45703179312E+03  0.47932260125E+03  0.91112320427E+02 0.  0.
          5    1    3    3  502    0 -0.19793445235E+02 -0.10526436621E+02 -0.14010969570E+02  0.26765014674E+02  0.41800000000E+01 0. -1.
         -5    1    3    3    0  502  0.12719411157E+03 -0.21656448357E+02  0.91482206985E+02  0.15822076465E+03  0.41800000000E+01 0. -1.
        -11    1    4    4    0    0 -0.37562526593E+02  0.56905074192E+02  0.26097928368E+03  0.26973935083E+03  0.00000000000E+00 0.  1.
         11    1    4    4    0    0 -0.69838139740E+02 -0.24722189215E+02  0.19605250944E+03  0.20958325042E+03  0.00000000000E+00 0. -1.
</event>
<event>
 8    1  0.3541538E-009  0.1277559E+03  0.7561462E-02  0.1230824E+00
         -1   -1    0    0    0  501 -0.00000000000E+00  0.00000000000E+00  0.16296862067E+03  0.16296862067E+03  0.00000000000E+00 0.  1.
          1   -1    0    0  501    0  0.00000000000E+00 -0.00000000000E+00 -0.13192042933E+03  0.13192042933E+03  0.00000000000E+00 0. -1.
         25    2    1    2    0    0  0.87669691020E+02 -0.44356190023E+02  0.31068786696E+02  0.16207372866E+03  0.12509667341E+03 0.  0.
         23    2    1    2    0    0 -0.87669691020E+02  0.44356190023E+02 -0.20595358089E-01  0.13281532133E+03  0.89367012028E+02 0.  0.
          5    1    3    3  502    0  0.26339358480E+02 -0.78501453975E+02  0.38408738873E+02  0.91372554431E+02  0.41800000000E+01 0.  1.
         -5    1    3    3    0  502  0.61330332540E+02  0.34145263952E+02 -0.73399521772E+01  0.70701174232E+02  0.41800000000E+01 0.  1.
        -11    1    4    4    0    0 -0.57028727175E+02  0.43337327980E+02  0.40282353367E+02  0.82177051008E+02  0.00000000000E+00 0.  1.
         11    1    4    4    0    0 -0.30640963845E+02  0.10188620428E+01 -0.40302948725E+02  0.50638270322E+02  0.00000000000E+00 0. -1.
</event>
<event>
 8    1  0.3541538E-009  0.1133508E+03  0.7561462E-02  0.1254488E+00
          2   -1    0    0  501    0  0.00000000000E+00  0.00000000000E+00  0.32812787966E+03  0.32812787966E+03  0.00000000000E+00 0.  1.
         -2   -1    0    0    0  501 -0.00000000000E+00 -0.00000000000E+00 -0.63285571900E+02  0.63285571900E+02  0.00000000000E+00 0. -1.
         25    2    1    2    0    0 -0.67026000825E+02 -0.37981268194E+02  0.77742276068E+02  0.16621287553E+03  0.12509115470E+03 0.  0.
         23    2    1    2    0    0  0.67026000825E+02  0.37981268194E+02  0.18710003169E+03  0.22520057602E+03  0.98862612056E+02 0.  0.
          5    1    3    3  502    0  0.12143944299E+01 -0.47723450112E+02 -0.15333897994E+02  0.50315040218E+02  0.41800000000E+01 0. -1.
         -5    1    3    3    0  502 -0.68240395255E+02  0.97421819180E+01  0.93076174061E+02  0.11589783532E+03  0.41800000000E+01 0. -1.
        -11    1    4    4    0    0  0.32336822901E+02 -0.22918315877E+02  0.12644790959E+03  0.13251412437E+03  0.00000000000E+00 0.  1.
         11    1    4    4    0    0  0.34689177924E+02  0.60899584071E+02  0.60652122105E+02  0.92686451657E+02  0.00000000000E+00 0. -1.
</event>
<event>
 8    1  0.3541538E-009  0.1053314E+03  0.7561462E-02  0.1269468E+00
         -2   -1    0    0    0  501 -0.00000000000E+00  0.00000000000E+00  0.12616866804E+03  0.12616866804E+03  0.00000000000E+00 0.  1.
          2   -1    0    0  501    0  0.00000000000E+00 -0.00000000000E+00 -0.13578280299E+03  0.13578280299E+03  0.00000000000E+00 0. -1.
         25    2    1    2    0    0 -0.47411773427E+02 -0.46462619833E+02  0.40361940554E+01  0.14166827073E+03  0.12508779624E+03 0.  0.
         23    2    1    2    0    0  0.47411773427E+02  0.46462619833E+02 -0.13650329009E+02  0.12028320030E+03  0.99373364088E+02 0.  0.
          5    1    3    3  502    0 -0.39191032698E+02 -0.64403828111E+02 -0.45517942691E+02  0.88165444626E+02  0.41800000000E+01 0. -1.
         -5    1    3    3    0  502 -0.82207407287E+01  0.17941208277E+02  0.49554136747E+02  0.53502826106E+02  0.41800000000E+01 0. -1.
        -11    1    4    4    0    0  0.42384008725E+02  0.74923957398E+02  0.44239729822E+01  0.86194983176E+02  0.00000000000E+00 0.  1.
         11    1    4    4    0    0  0.50277647015E+01 -0.28461337565E+02 -0.18074301992E+02  0.34088217119E+02  0.00000000000E+00 0. -1.
</event>
<event>
 8    1  0.3541538E-009  0.1126498E+03  0.7561462E-02  0.1255740E+00
         -1   -1    0    0    0  501 -0.00000000000E+00  0.00000000000E+00  0.12115253513E+02  0.12115253513E+02  0.00000000000E+00 0.  1.
          1   -1    0    0  501    0  0.00000000000E+00 -0.00000000000E+00 -0.12589018924E+04  0.12589018924E+04  0.00000000000E+00 0. -1.
         25    2    1    2    0    0 -0.37493063583E+02 -0.41373557386E+02 -0.82775699574E+03  0.83901510140E+03  0.12508874974E+03 0.  0.
         23    2    1    2    0    0  0.37493063583E+02  0.41373557386E+02 -0.41902964312E+03  0.43200204449E+03  0.89007997169E+02 0.  0.
          5    1    3    3  502    0 -0.54035824685E+02 -0.78624284584E+02 -0.61140963907E+03  0.61882216155E+03  0.41800000000E+01 0.  1.
         -5    1    3    3    0  502  0.16542761102E+02  0.37250727198E+02 -0.21634735667E+03  0.22019293985E+03  0.41800000000E+01 0.  1.
        -11    1    4    4    0    0  0.58051484872E+02  0.30607284250E+02 -0.38656335160E+03  0.39209438347E+03  0.00000000000E+00 0. -1.
         11    1    4    4    0    0 -0.20558421289E+02  0.10766273136E+02 -0.32466291519E+02  0.39907661020E+02  0.00000000000E+00 0.  1.
</event>
<event>
 8    1  0.3541538E-009  0.1197778E+03  0.7561462E-02  0.1243464E+00
         -1   -1    0    0    0  501 -0.00000000000E+00  0.00000000000E+00  0.48694571282E+02  0.48694571282E+02  0.00000000000E+00 0.  1.
          1   -1    0    0  501    0  0.00000000000E+00 -0.00000000000E+00 -0.38564968622E+03  0.38564968622E+03  0.00000000000E+00 0. -1.
         25    2    1    2    0    0 -0.79718492986E+02  0.24733485492E+02 -0.14710423497E+03  0.21037167409E+03  0.12509916821E+03 0.  0.
         23    2    1    2    0    0  0.79718492986E+02 -0.24733485492E+02 -0.18985087997E+03  0.22397258341E+03  0.84578827521E+02 0.  0.
          5    1    3    3  502    0  0.10630922321E+02  0.31962646579E+02  0.39392463384E+01  0.34170416260E+02  0.41800000000E+01 0.  1.
         -5    1    3    3    0  502 -0.90349415307E+02 -0.72291610862E+01 -0.15104348131E+03  0.17620125783E+03  0.41800000000E+01 0.  1.
        -11    1    4    4    0    0  0.49661767231E+02 -0.53694414829E+02 -0.14679369940E+03  0.16400540080E+03  0.00000000000E+00 0. -1.
         11    1    4    4    0    0  0.30056725755E+02  0.28960929337E+02 -0.43057180563E+02  0.59967182602E+02  0.00000000000E+00 0.  1.
</event>
<event>
 8    1  0.3541538E-009  0.6734438E+02  0.7561462E-02  0.1369364E+00
          1   -1    0    0  501    0  0.00000000000E+00  0.00000000000E+00  0.23392486999E+03  0.23392486999E+03  0.00000000000E+00 0. -1.
         -1   -1    0    0    0  501 -0.00000000000E+00 -0.00000000000E+00 -0.73116823001E+02  0.73116823001E+02  0.00000000000E+00 0.  1.
         25    2    1    2    0    0  0.62699935169E-01  0.92296980664E+00  0.39266577580E+01  0.12516014083E+03  0.12509510944E+03 0.  0.
         23    2    1    2    0    0 -0.62699935169E-01 -0.92296980664E+00  0.15688138924E+03  0.18188155217E+03  0.92023219491E+02 0.  0.
          5    1    3    3  502    0 -0.26428159805E+02 -0.25961157721E+02  0.51946447582E+02  0.63940090376E+02  0.41800000000E+01 0. -1.
         -5    1    3    3    0  502  0.26490859741E+02  0.26884127528E+02 -0.48019789824E+02  0.61220050453E+02  0.41800000000E+01 0. -1.
        -11    1    4    4    0    0  0.16770389457E+02  0.24048505124E+02  0.85726675196E+01  0.30546148524E+02  0.00000000000E+00 0.  1.
         11    1    4    4    0    0 -0.16833089393E+02 -0.24971474931E+02  0.14830872172E+03  0.15133540364E+03  0.00000000000E+00 0. -1.
</event>
<event>
 8    1  0.3541538E-009  0.2016089E+03  0.7561462E-02  0.1148389E+00
          2   -1    0    0  501    0  0.00000000000E+00  0.00000000000E+00  0.59394344739E+03  0.59394344739E+03  0.00000000000E+00 0. -1.
         -2   -1    0    0    0  501 -0.00000000000E+00 -0.00000000000E+00 -0.91273627265E+02  0.91273627265E+02  0.00000000000E+00 0.  1.
         25    2    1    2    0    0 -0.17902541752E+03  0.30052400908E+02  0.40186871035E+03  0.45836575097E+03  0.12508978531E+03 0.  0.
         23    2    1    2    0    0  0.17902541752E+03 -0.30052400908E+02  0.10080110978E+03  0.22685132368E+03  0.91364174619E+02 0.  0.
          5    1    3    3  502    0  0.26411499448E+01  0.20928130706E+02  0.12652244623E+03  0.12833691647E+03  0.41800000000E+01 0. -1.
         -5    1    3    3    0  502 -0.18166656747E+03  0.91242702020E+01  0.27534626412E+03  0.33002883451E+03  0.41800000000E+01 0. -1.
        -11    1    4    4    0    0  0.10048904637E+03 -0.58456524880E+02  0.37826043197E+02  0.12225392953E+03  0.00000000000E+00 0.  1.
         11    1    4    4    0    0  0.78536371155E+02  0.28404123972E+02  0.62975066581E+02  0.10459739415E+03  0.00000000000E+00 0. -1.
</event>
<event>
 8    1  0.3541538E-009  0.1984285E+03  0.7561462E-02  0.1151072E+00
          2   -1    0    0  501    0  0.00000000000E+00  0.00000000000E+00  0.83514206938E+03  0.83514206938E+03  0.00000000000E+00 0. -1.
         -2   -1    0    0    0  501 -0.00000000000E+00 -0.00000000000E+00 -0.56162418699E+02  0.56162418699E+02  0.00000000000E+00 0.  1.
         25    2    1    2    0    0 -0.20679713962E+01 -0.18466085499E+03  0.46711391159E+03  0.51763846141E+03  0.12510100901E+03 0.  0.
         23    2    1    2    0    0  0.20679713962E+01  0.18466085499E+03  0.31186573909E+03  0.37366602667E+03  0.90896382777E+02 0.  0.
          5    1    3    3  502    0  0.39302554737E+02 -0.72338928522E+02  0.90389655214E+02  0.12233304361E+03  0.41800000000E+01 0. -1.
         -5    1    3    3    0  502 -0.41370526133E+02 -0.11232192646E+03  0.37672425638E+03  0.39530541780E+03  0.41800000000E+01 0. -1.
        -11    1    4    4    0    0 -0.25351854299E+02  0.13976993517E+03  0.16532190973E+03  0.21796716526E+03  0.00000000000E+00 0. -1.
         11    1    4    4    0    0  0.27419825695E+02  0.44890919819E+02  0.14654382936E+03  0.15569886141E+03  0.00000000000E+00 0.  1.
</event>
<event>
 8    1  0.3541538E-009  0.1409424E+03  0.7561462E-02  0.1212066E+00
         -3   -1    0    0    0  501 -0.00000000000E+00  0.00000000000E+00  0.10883844243E+03  0.10883844243E+03  0.00000000000E+00 0.  1.
          3   -1    0    0  501    0  0.00000000000E+00 -0.00000000000E+00 -0.22694065822E+03  0.22694065822E+03  0.00000000000E+00 0. -1.
         25    2    1    2    0    0 -0.87136461471E+02 -0.71865686869E+02 -0.77324262079E+02  0.18543441135E+03  0.12509771997E+03 0.  0.
         23    2    1    2    0    0  0.87136461471E+02  0.71865686869E+02 -0.40777953704E+02  0.15034468930E+03  0.90461285779E+02 0.  0.
          5    1    3    3  502    0 -0.73819373748E+02 -0.10895332793E+02 -0.94585890404E+02  0.12054862621E+03  0.41800000000E+01 0. -1.
         -5    1    3    3    0  502 -0.13317087724E+02 -0.60970354076E+02  0.17261628325E+02  0.64885785146E+02  0.41800000000E+01 0. -1.
        -11    1    4    4    0    0 -0.19137032238E+02  0.12704555496E+02 -0.86201374015E+01  0.24534435026E+02  0.00000000000E+00 0. -1.
         11    1    4    4    0    0  0.10627349371E+03  0.59161131374E+02 -0.32157816302E+02  0.12581025427E+03  0.00000000000E+00 0.  1.
</event>
<event>
 8    1  0.3541538E-009  0.1605329E+03  0.7561462E-02  0.1188096E+00
         -2   -1    0    0    0  501 -0.00000000000E+00  0.00000000000E+00  0.63500992151E+02  0.63500992151E+02  0.00000000000E+00 0.  1.
          2   -1    0    0  501    0  0.00000000000E+00 -0.00000000000E+00 -0.44256244612E+03  0.44256244612E+03  0.00000000000E+00 0. -1.
         25    2    1    2    0    0  0.16334483252E+02 -0.11847222239E+03 -0.13174676094E+03  0.21750255502E+03  0.12509064554E+03 0.  0.
         23    2    1    2    0    0 -0.16334483252E+02  0.11847222239E+03 -0.24731469303E+03  0.28856088325E+03  0.88319551253E+02 0.  0.
          5    1    3    3  502    0  0.67064950940E+02 -0.96477872218E+02 -0.87379108003E+02  0.14648641025E+03  0.41800000000E+01 0. -1.
         -5    1    3    3    0  502 -0.50730467689E+02 -0.21994350168E+02 -0.44367652937E+02  0.71016144773E+02  0.41800000000E+01 0. -1.
        -11    1    4    4    0    0 -0.52037532956E+02  0.81084182715E+02 -0.17326630112E+03  0.19825176071E+03  0.00000000000E+00 0. -1.
         11    1    4    4    0    0  0.35703049705E+02  0.37388039672E+02 -0.74048391912E+02  0.90309122537E+02  0.00000000000E+00 0.  1.
</event>
<event>
 8    1  0.3541538E-009  0.1200039E+03  0.7561462E-02  0.1243091E+00
          1   -1    0    0  501    0  0.00000000000E+00  0.00000000000E+00  0.16117345790E+03  0.16117345790E+03  0.00000000000E+00 0. -1.
         -1   -1    0    0    0  501 -0.00000000000E+00 -0.00000000000E+00 -0.13499255157E+03  0.13499255157E+03  0.00000000000E+00 0.  1.
         25    2    1    2    0    0 -0.75240066142E+02 -0.65505368792E+02  0.90770954777E+01  0.16025196389E+03  0.12508508054E+03 0.  0.
         23    2    1    2    0    0  0.75240066142E+02  0.65505368792E+02  0.17103810854E+02  0.13591404558E+03  0.90708690585E+02 0.  0.
          5    1    3    3  502    0 -0.26028725699E+02 -0.81558470681E+02  0.45287921428E+02  0.96941977124E+02  0.41800000000E+01 0.  1.
         -5    1    3    3    0  502 -0.49211340443E+02  0.16053101889E+02 -0.36210825950E+02  0.63309986767E+02  0.41800000000E+01 0.  1.
        -11    1    4    4    0    0  0.49057720305E+02  0.27584786043E+02  0.53148442463E+02  0.77410188469E+02  0.00000000000E+00 0. -1.
         11    1    4    4    0    0  0.26182345837E+02  0.37920582749E+02 -0.36044631609E+02  0.58503857115E+02  0.00000000000E+00 0.  1.
</event>
<event>
 8    1  0.3541538E-009  0.7281769E+02  0.7561462E-02  0.1350765E+00
          1   -1    0    0  501    0  0.00000000000E+00  0.00000000000E+00  0.52415995341E+03  0.52415995341E+03  0.00000000000E+00 0. -1.
         -1   -1    0    0    0  501 -0.00000000000E+00 -0.00000000000E+00 -0.28691285902E+02  0.28691285902E+02  0.00000000000E+00 0.  1.
         25    2    1    2    0    0  0.58657526532E+01  0.48293390328E+02  0.33083825778E+03  0.35702736951E+03  0.12509169104E+03 0.  0.
         23    2    1    2    0    0 -0.58657526532E+01 -0.48293390328E+02  0.16463040973E+03  0.19582386980E+03  0.94218668914E+02 0.  0.
          5    1    3    3  502    0 -0.26730234983E+02  0.54380288025E+01  0.28459233545E+03  0.28592717153E+03  0.41800000000E+01 0.  1.
         -5    1    3    3    0  502  0.32595987636E+02  0.42855361526E+02  0.46245922325E+02  0.71100197983E+02  0.41800000000E+01 0.  1.
        -11    1    4    4    0    0  0.15844871992E+02 -0.35398089699E+02  0.16606318887E+03  0.17053171969E+03  0.00000000000E+00 0. -1.
         11    1    4    4    0    0 -0.21710624645E+02 -0.12895300629E+02 -0.14327791464E+01  0.25292150104E+02  0.00000000000E+00 0.  1.
</event>
<event>
 8    1  0.3541538E-009  0.1277145E+03  0.7561462E-02  0.1230887E+00
         -1   -1    0    0    0  501 -0.00000000000E+00  0.00000000000E+00  0.26317317261E+02  0.26317317261E+02  0.00000000000E+00 0.  1.
          1   -1    0    0  501    0  0.00000000000E+00 -0.00000000000E+00 -0.82438511808E+03  0.82438511808E+03  0.00000000000E+00 0. -1.
         25    2    1    2    0    0 -0.89690003759E+02  0.20581088226E+02 -0.32007398476E+03  0.35575581516E+03  0.12508783447E+03 0.  0.
         23    2    1    2    0    0  0.89690003759E+02 -0.20581088226E+02 -0.47799381606E+03  0.49494662018E+03  0.89589009783E+02 0.  0.
          5    1    3    3  502    0 -0.11253675641E+03 -0.31599252419E+01 -0.28936278566E+03  0.31052020997E+03  0.41800000000E+01 0. -1.
         -5    1    3    3    0  502  0.22846752649E+02  0.23741013468E+02 -0.30711199095E+02  0.45235605190E+02  0.41800000000E+01 0. -1.
        -11    1    4    4    0    0  0.80352201993E+02 -0.38690915555E+02 -0.45726427545E+03  0.46587989967E+03  0.00000000000E+00 0. -1.
         11    1    4    4    0    0  0.93378017658E+01  0.18109827329E+02 -0.20729540609E+02  0.29066720516E+02  0.00000000000E+00 0.  1.
</event>
<event>
 8    1  0.3541538E-009  0.1946802E+03  0.7561462E-02  0.1154307E+00
          1   -1    0    0  501    0  0.00000000000E+00  0.00000000000E+00  0.80818784661E+03  0.80818784661E+03  0.00000000000E+00 0. -1.
         -1   -1    0    0    0  501 -0.00000000000E+00 -0.00000000000E+00 -0.66353867452E+02  0.66353867452E+02  0.00000000000E+00 0.  1.
         25    2    1    2    0    0  0.17153306804E+03  0.42338764254E+02  0.58052311148E+03  0.61957326700E+03  0.12509111011E+03 0.  0.
         23    2    1    2    0    0 -0.17153306804E+03 -0.42338764254E+02  0.16131086767E+03  0.25496844706E+03  0.88156387047E+02 0.  0.
          5    1    3    3  502    0  0.17380107426E+02  0.33608485166E+02  0.32035925960E+02  0.49753104038E+02  0.41800000000E+01 0. -1.
         -5    1    3    3    0  502  0.15415296061E+03  0.87302790881E+01  0.54848718552E+03  0.56982016297E+03  0.41800000000E+01 0. -1.
        -11    1    4    4    0    0 -0.15971044073E+03 -0.64082481732E+02  0.14734993270E+03  0.22655240455E+03  0.00000000000E+00 0. -1.
         11    1    4    4    0    0 -0.11822627305E+02  0.21743717479E+02  0.13960934979E+02  0.28416042505E+02  0.00000000000E+00 0.  1.
</event>
<event>
 8    1  0.3541538E-009  0.1092483E+03  0.7561462E-02  0.1261968E+00
          2   -1    0    0  501    0  0.00000000000E+00  0.00000000000E+00  0.86546099358E+03  0.86546099358E+03  0.00000000000E+00 0. -1.
         -2   -1    0    0    0  501 -0.00000000000E+00 -0.00000000000E+00 -0.24115142558E+02  0.24115142558E+02  0.00000000000E+00 0.  1.
         25    2    1    2    0    0 -0.43499261002E+01  0.72038362797E+02  0.64930642372E+03  0.66517273654E+03  0.12508992755E+03 0.  0.
         23    2    1    2    0    0  0.43499261002E+01 -0.72038362797E+02  0.19203942730E+03  0.22440339960E+03  0.90935672554E+02 0.  0.
          5    1    3    3  502    0 -0.34370239661E+02  0.92207869445E+02  0.56222113984E+03  0.57078339766E+03  0.41800000000E+01 0.  1.
         -5    1    3    3    0  502  0.30020313561E+02 -0.20169506648E+02  0.87085283879E+02  0.94389338874E+02  0.41800000000E+01 0.  1.
        -11    1    4    4    0    0  0.22056155240E+02 -0.25021802720E+02  0.16299311524E+03  0.16637103177E+03  0.00000000000E+00 0. -1.
         11    1    4    4    0    0 -0.17706229140E+02 -0.47016560077E+02  0.29046312055E+02  0.58032367829E+02  0.00000000000E+00 0.  1.
</event>
<event>
 8    1  0.3541538E-009  0.9590240E+02  0.7561462E-02  0.1289156E+00
          3   -1    0    0  501    0  0.00000000000E+00  0.00000000000E+00  0.22287664955E+02  0.22287664955E+02  0.00000000000E+00 0. -1.
         -3   -1    0    0    0  501 -0.00000000000E+00 -0.00000000000E+00 -0.56934383051E+03  0.56934383051E+03  0.00000000000E+00 0.  1.
         25    2    1    2    0    0  0.76829915522E+01 -0.19367070929E+02 -0.36854363977E+03  0.38975029874E+03  0.12508704633E+03 0.  0.
         23    2    1    2    0    0 -0.76829915522E+01  0.19367070929E+02 -0.17851252579E+03  0.20188119673E+03  0.91952074111E+02 0.  0.
          5    1    3    3  502    0  0.28972256164E+01 -0.60372525248E+02 -0.32090335639E+03  0.32657261407E+03  0.41800000000E+01 0. -1.
         -5    1    3    3    0  502  0.47857659358E+01  0.41005454319E+02 -0.47640283385E+02  0.63177684672E+02  0.41800000000E+01 0. -1.
        -11    1    4    4    0    0 -0.21925759572E+02  0.50736917867E+02 -0.77768287074E+02  0.95409015517E+02  0.00000000000E+00 0.  1.
         11    1    4    4    0    0  0.14242768020E+02 -0.31369846938E+02 -0.10074423871E+03  0.10647218121E+03  0.00000000000E+00 0. -1.
</event>
<event>
 8    1  0.3541538E-009  0.1032850E+03  0.7561462E-02  0.1273536E+00
          3   -1    0    0  501    0  0.00000000000E+00  0.00000000000E+00  0.11701159057E+03  0.11701159057E+03  0.00000000000E+00 0. -1.
         -3   -1    0    0    0  501 -0.00000000000E+00 -0.00000000000E+00 -0.18382166654E+03  0.18382166654E+03  0.00000000000E+00 0.  1.
         25    2    1    2    0    0 -0.26952231990E+02  0.81798677716E+02  0.13458772552E+02  0.15246716223E+03  0.12509056925E+03 0.  0.
         23    2    1    2    0    0  0.26952231990E+02 -0.81798677716E+02 -0.80268848526E+02  0.14836609488E+03  0.90288225044E+02 0.  0.
          5    1    3    3  502    0 -0.61382336967E+01  0.10537072365E+02 -0.51894952877E+02  0.53472108066E+02  0.41800000000E+01 0. -1.
         -5    1    3    3    0  502 -0.20813998293E+02  0.71261605351E+02  0.65353725429E+02  0.98995054168E+02  0.41800000000E+01 0. -1.
        -11    1    4    4    0    0  0.10036860683E+02 -0.96433694036E+02 -0.80468490605E+02  0.12599751544E+03  0.00000000000E+00 0.  1.
         11    1    4    4    0    0  0.16915371307E+02  0.14635016320E+02  0.19964207938E+00  0.22368579438E+02  0.00000000000E+00 0. -1.
</event>
<event>
 8    1  0.3541538E-009  0.1094550E+03  0.7561462E-02  0.1261583E+00
          1   -1    0    0  501    0  0.00000000000E+00  0.00000000000E+00  0.14321125304E+03  0.14321125304E+03  0.00000000000E+00 0. -1.
         -1   -1    0    0    0  501 -0.00000000000E+00 -0.00000000000E+00 -0.97909868228E+02  0.97909868228E+02  0.00000000000E+00 0.  1.
         25    2    1    2    0    0 -0.39268029930E+02 -0.56566390890E+00  0.25400212361E+02  0.13354520373E+03  0.12508737947E+03 0.  0.
         23    2    1    2    0    0  0.39268029930E+02  0.56566390890E+00  0.19901172449E+02  0.10757591753E+03  0.98154078966E+02 0.  0.
          5    1    3    3  502    0 -0.74976055762E+02  0.16411759406E+02 -0.13362206638E+02  0.78017791244E+02  0.41800000000E+01 0. -1.
         -5    1    3    3    0  502  0.35708025832E+02 -0.16977423315E+02  0.38762418999E+02  0.55527412490E+02  0.41800000000E+01 0. -1.
        -11    1    4    4    0    0 -0.17310339590E+02  0.32859409785E+02 -0.57098547291E+01  0.37576470153E+02  0.00000000000E+00 0. -1.
         11    1    4    4    0    0  0.56578369519E+02 -0.32293745876E+02  0.25611027178E+02  0.69999447379E+02  0.00000000000E+00 0.  1.
</event>
<event>
 8    1  0.3541538E-009  0.1108511E+03  0.7561462E-02  0.1259002E+00
          2   -1    0    0  501    0  0.00000000000E+00  0.00000000000E+00  0.95269237856E+02  0.95269237856E+02  0.00000000000E+00 0. -1.
         -2   -1    0    0    0  501 -0.00000000000E+00 -0.00000000000E+00 -0.18296214861E+03  0.18296214861E+03  0.00000000000E+00 0.  1.
         25    2    1    2    0    0  0.41081144658E+02  0.44884168973E+02 -0.29246648715E+01  0.13912969195E+03  0.12508504486E+03 0.  0.
         23    2    1    2    0    0 -0.41081144658E+02 -0.44884168973E+02 -0.84768245880E+02  0.13910169451E+03  0.91985742568E+02 0.  0.
          5    1    3    3  502    0  0.42915968831E+02 -0.31389628611E+02 -0.25968101490E+02  0.59320349460E+02  0.41800000000E+01 0.  1.
         -5    1    3    3    0  502 -0.18348241724E+01  0.76273797585E+02  0.23043436618E+02  0.79809342491E+02  0.41800000000E+01 0.  1.
        -11    1    4    4    0    0  0.63677153895E+01 -0.44043204753E+02 -0.30529899579E+01  0.44605744382E+02  0.00000000000E+00 0. -1.
         11    1    4    4    0    0 -0.47448860048E+02 -0.84096422054E+00 -0.81715255922E+02  0.94495950131E+02  0.00000000000E+00 0.  1.
</event>
<event>
 8    1  0.3541538E-009  0.8930167E+02  0.7561462E-02  0.1304552E+00
          3   -1    0    0  501    0  0.00000000000E+00  0.00000000000E+00  0.15117293640E+03  0.15117293640E+03  0.00000000000E+00 0. -1.
         -3   -1    0    0    0  501 -0.00000000000E+00 -0.00000000000E+00 -0.97492207826E+02  0.97492207826E+02  0.00000000000E+00 0.  1.
         25    2    1    2    0    0  0.43842313281E+02  0.29125127933E+02  0.11642810535E+02  0.13619935474E+03  0.12507712694E+03 0.  0.
         23    2    1    2    0    0 -0.43842313281E+02 -0.29125127933E+02  0.42037918037E+02  0.11246578948E+03  0.90060789138E+02 0.  0.
          5    1    3    3  502    0 -0.10424237687E+02  0.42089043685E+02 -0.40675077179E+02  0.59599384504E+02  0.41800000000E+01 0.  1.
         -5    1    3    3    0  502  0.54266550969E+02 -0.12963915751E+02  0.52317887715E+02  0.76599970239E+02  0.41800000000E+01 0.  1.
        -11    1    4    4    0    0 -0.35165613957E+02 -0.47307040928E+02 -0.70873026419E+01  0.59370079881E+02  0.00000000000E+00 0.  1.
         11    1    4    4    0    0 -0.86766993241E+01  0.18181912995E+02  0.49125220679E+02  0.53095709602E+02  0.00000000000E+00 0. -1.
</event>
<event>
 8    1  0.3541538E-009  0.1924314E+03  0.7561462E-02  0.1156286E+00
          1   -1    0    0  501    0  0.00000000000E+00  0.00000000000E+00  0.67573873523E+03  0.67573873523E+03  0.00000000000E+00 0. -1.
         -1   -1    0    0    0  501 -0.00000000000E+00 -0.00000000000E+00 -0.71629956143E+02  0.71629956143E+02  0.00000000000E+00 0.  1.
         25    2    1    2    0    0 -0.88153217410E+02  0.16546518053E+03  0.37793381930E+03  0.44003678095E+03  0.12509468857E+03 0.  0.
         23    2    1    2    0    0  0.88153217410E+02 -0.16546518053E+03  0.22617495979E+03  0.30733191043E+03  0.90266688332E+02 0.  0.
          5    1    3    3  502    0 -0.96170890758E+02  0.13817955310E+03  0.37507999464E+03  0.41115070704E+03  0.41800000000E+01 0.  1.
         -5    1    3    3    0  502  0.80176733485E+01  0.27285627433E+02  0.28538246580E+01  0.28886073903E+02  0.41800000000E+01 0.  1.
        -11    1    4    4    0    0  0.12598496181E+02 -0.17354014328E+02  0.89692536354E+02  0.92220577947E+02  0.00000000000E+00 0. -1.
         11    1    4    4    0    0  0.75554721229E+02 -0.14811116620E+03  0.13648242344E+03  0.21511133248E+03  0.00000000000E+00 0.  1.
</event>
<event>
 8    1  0.3541538E-009  0.1502318E+03  0.7561462E-02  0.1200188E+00
         -2   -1    0    0    0  501 -0.00000000000E+00  0.00000000000E+00  0.60336537550E+02  0.60336537550E+02  0.00000000000E+00 0.  1.
          2   -1    0    0  501    0  0.00000000000E+00 -0.00000000000E+00 -0.51071164464E+03  0.51071164464E+03  0.00000000000E+00 0. -1.
         25    2    1    2    0    0 -0.13399404670E+03 -0.19081630827E+02 -0.28367071631E+03  0.33828106855E+03  0.12508594191E+03 0.  0.
         23    2    1    2    0    0  0.13399404670E+03  0.19081630827E+02 -0.16670439078E+03  0.23276711364E+03  0.89842429285E+02 0.  0.
          5    1    3    3  502    0 -0.72646557194E+02  0.35736855673E+02 -0.21908698033E+03  0.23360484258E+03  0.41800000000E+01 0. -1.
         -5    1    3    3    0  502 -0.61347489506E+02 -0.54818486500E+02 -0.64583735974E+02  0.10467622597E+03  0.41800000000E+01 0. -1.
        -11    1    4    4    0    0  0.94860279979E+02  0.35873205780E+01 -0.47094941341E+02  0.10596827396E+03  0.00000000000E+00 0.  1.
         11    1    4    4    0    0  0.39133766721E+02  0.15494310249E+02 -0.11960944944E+03  0.12679883968E+03  0.00000000000E+00 0. -1.
</event>
<event>
 8    1  0.3541538E-009  0.1479690E+03  0.7561462E-02  0.1202991E+00
          2   -1    0    0  501    0  0.00000000000E+00  0.00000000000E+00  0.42872752540E+03  0.42872752540E+03  0.00000000000E+00 0. -1.
         -2   -1    0    0    0  501 -0.00000000000E+00 -0.00000000000E+00 -0.67470029828E+02  0.67470029828E+02  0.00000000000E+00 0.  1.
         25    2    1    2    0    0 -0.85659087515E+02 -0.75411087497E+02  0.10135308701E+03  0.19734507792E+03  0.12509324579E+03 0.  0.
         23    2    1    2    0    0  0.85659087515E+02  0.75411087497E+02  0.25990440856E+03  0.29885247730E+03  0.93478287370E+02 0.  0.
          5    1    3    3  502    0 -0.95925690575E+02 -0.17171560065E+02  0.25027525278E+02  0.10069980143E+03  0.41800000000E+01 0. -1.
         -5    1    3    3    0  502  0.10266603060E+02 -0.58239527432E+02  0.76325561734E+02  0.96645276490E+02  0.41800000000E+01 0. -1.
        -11    1    4    4    0    0  0.17531190532E+02  0.68416499359E+02  0.82009174341E+02  0.10822968494E+03  0.00000000000E+00 0.  1.
         11    1    4    4    0    0  0.68127896983E+02  0.69945881378E+01  0.17789523422E+03  0.19062279236E+03  0.00000000000E+00 0. -1.
</event>
<event>
 8    1  0.3541538E-009  0.1371209E+03  0.7561462E-02  0.1217256E+00
          2   -1    0    0  501    0  0.00000000000E+00  0.00000000000E+00  0.17449625945E+03  0.17449625945E+03  0.00000000000E+00 0. -1.
         -2   -1    0    0    0  501 -0.00000000000E+00 -0.00000000000E+00 -0.18820804993E+03  0.18820804993E+03  0.00000000000E+00 0.  1.
         25    2    1    2    0    0  0.91658274040E+02  0.34611328269E+02  0.97270247485E+02  0.18629170417E+03  0.12507563613E+03 0.  0.
         23    2    1    2    0    0 -0.91658274040E+02 -0.34611328269E+02 -0.11098203797E+03  0.17641260520E+03  0.95943792288E+02 0.  0.
          5    1    3    3  502    0 -0.16109409238E+02 -0.28345986445E+02  0.11628705690E+02  0.34866993125E+02  0.41800000000E+01 0.  1.
         -5    1    3    3    0  502  0.10776768328E+03  0.62957314715E+02  0.85641541795E+02  0.15142471105E+03  0.41800000000E+01 0.  1.
        -11    1    4    4    0    0 -0.53218487177E+01 -0.29529682232E+02  0.63307017562E+01  0.30665974487E+02  0.00000000000E+00 0. -1.
         11    1    4    4    0    0 -0.86336425323E+02 -0.50816460376E+01 -0.11731273972E+03  0.14574663072E+03  0.00000000000E+00 0.  1.
</event>
<event>
 8    1  0.3541538E-009  0.9168427E+02  0.7561462E-02  0.1298823E+00
         -1   -1    0    0    0  501 -0.00000000000E+00  0.00000000000E+00  0.13911063620E+02  0.13911063620E+02  0.00000000000E+00 0.  1.
          1   -1    0    0  501    0  0.00000000000E+00 -0.00000000000E+00 -0.10527649365E+04  0.10527649365E+04  0.00000000000E+00 0. -1.
         25    2    1    2    0    0  0.81735562837E+01  0.25580854083E+01 -0.82674596677E+03  0.83619929896E+03  0.12508806172E+03 0.  0.
         23    2    1    2    0    0 -0.81735562837E+01 -0.25580854083E+01 -0.21210790609E+03  0.23047670114E+03  0.89757423760E+02 0.  0.
          5    1    3    3  502    0 -0.44390711881E+02  0.25688156580E+02 -0.18966375827E+03  0.19652030504E+03  0.41800000000E+01 0.  1.
         -5    1    3    3    0  502  0.52564268165E+02 -0.23130071171E+02 -0.63708220850E+03  0.63967899392E+03  0.41800000000E+01 0.  1.
        -11    1    4    4    0    0 -0.28403275932E+02  0.26552231016E+02 -0.44200902660E+02  0.58868385841E+02  0.00000000000E+00 0.  1.
         11    1    4    4    0    0  0.20229719648E+02 -0.29110316424E+02 -0.16790700343E+03  0.17160831530E+03  0.00000000000E+00 0. -1.
</event>
<event>
 8    1  0.3541538E-009  0.1088920E+03  0.7561462E-02  0.1262636E+00
         -2   -1    0    0    0  501 -0.00000000000E+00  0.00000000000E+00  0.10110253211E+04  0.10110253211E+04  0.00000000000E+00 0.  1.
          2   -1    0    0  501    0  0.00000000000E+00 -0.00000000000E+00 -0.16815959171E+02  0.16815959171E+02  0.00000000000E+00 0. -1.
         25    2    1    2    0    0  0.14494579454E+02  0.65672083542E+02  0.62945057527E+03  0.64527348637E+03  0.12508768969E+03 0.  0.
         23    2    1    2    0    0 -0.14494579454E+02 -0.65672083542E+02  0.36475878665E+03  0.38256779390E+03  0.93734887299E+02 0.  0.
          5    1    3    3  502    0  0.20042810779E+02  0.91381491485E+02  0.59175743202E+03  0.59912154193E+03  0.41800000000E+01 0. -1.
         -5    1    3    3    0  502 -0.55482313252E+01 -0.25709407943E+02  0.37693143249E+02  0.46151944440E+02  0.41800000000E+01 0. -1.
        -11    1    4    4    0    0 -0.42712535345E+02 -0.30864846481E+02  0.29491513441E+03  0.29958627460E+03  0.00000000000E+00 0.  1.
         11    1    4    4    0    0  0.28217955891E+02 -0.34807237061E+02  0.69843652242E+02  0.82981519297E+02  0.00000000000E+00 0. -1.
</event>
<event>
 8    1  0.3541538E-009  0.7427285E+02  0.7561462E-02  0.1346138E+00
          4   -1    0    0  501    0  0.00000000000E+00  0.00000000000E+00  0.64574718680E+02  0.64574718680E+02  0.00000000000E+00 0. -1.
         -4   -1    0    0    0  501 -0.00000000000E+00 -0.00000000000E+00 -0.25026873036E+03  0.25026873036E+03  0.00000000000E+00 0.  1.
         25    2    1    2    0    0 -0.28386110118E+02  0.54806202941E+02 -0.13279348893E+03  0.19259019485E+03  0.12508949326E+03 0.  0.
         23    2    1    2    0    0  0.28386110118E+02 -0.54806202941E+02 -0.52900522750E+02  0.12225325418E+03  0.91312111588E+02 0.  0.
          5    1    3    3  502    0 -0.19617666479E+02  0.31264372229E+02  0.16854659527E+02  0.40790510621E+02  0.41800000000E+01 0. -1.
         -5    1    3    3    0  502 -0.87684436387E+01  0.23541830712E+02 -0.14964814846E+03  0.15179968423E+03  0.41800000000E+01 0. -1.
        -11    1    4    4    0    0 -0.20021004056E+01 -0.55500832759E+02  0.61122650669E+01  0.55872270646E+02  0.00000000000E+00 0. -1.
         11    1    4    4    0    0  0.30388210524E+02  0.69462981717E+00 -0.59012787816E+02  0.66380983537E+02  0.00000000000E+00 0.  1.
</event>
<event>
 8    1  0.3541538E-009  0.8147826E+02  0.7561462E-02  0.1324908E+00
         -1   -1    0    0    0  501 -0.00000000000E+00  0.00000000000E+00  0.15553562523E+03  0.15553562523E+03  0.00000000000E+00 0.  1.
          1   -1    0    0  501    0  0.00000000000E+00 -0.00000000000E+00 -0.10271338863E+03  0.10271338863E+03  0.00000000000E+00 0. -1.
         25    2    1    2    0    0 -0.21258429101E+02  0.18347008657E+02  0.85637082340E+02  0.15417002257E+03  0.12508458119E+03 0.  0.
         23    2    1    2    0    0  0.21258429101E+02 -0.18347008657E+02 -0.32814845738E+02  0.10407899129E+03  0.94694713645E+02 0.  0.
          5    1    3    3  502    0 -0.49485277921E+02  0.40431141846E+01 -0.12166445377E+02  0.51289709459E+02  0.41800000000E+01 0. -1.
         -5    1    3    3    0  502  0.28226848821E+02  0.14303894472E+02  0.97803527717E+02  0.10288031311E+03  0.41800000000E+01 0. -1.
        -11    1    4    4    0    0  0.46416136981E+02  0.52588534468E+01 -0.47467341161E+02  0.66597761139E+02  0.00000000000E+00 0. -1.
         11    1    4    4    0    0 -0.25157707880E+02 -0.23605862104E+02  0.14652495423E+02  0.37481230150E+02  0.00000000000E+00 0.  1.
</event>
<event>
 8    1  0.3541538E-009  0.8612210E+02  0.7561462E-02  0.1312524E+00
         -1   -1    0    0    0  501 -0.00000000000E+00  0.00000000000E+00  0.61310220792E+02  0.61310220792E+02  0.00000000000E+00 0.  1.
          1   -1    0    0  501    0  0.00000000000E+00 -0.00000000000E+00 -0.23276518613E+03  0.23276518613E+03  0.00000000000E+00 0. -1.
         25    2    1    2    0    0  0.13698174499E+02 -0.40808188400E+02 -0.69628332052E+02  0.14949057452E+03  0.12508548685E+03 0.  0.
         23    2    1    2    0    0 -0.13698174499E+02  0.40808188400E+02 -0.10182663329E+03  0.14458483241E+03  0.93183487221E+02 0.  0.
          5    1    3    3  502    0 -0.19453118982E+02 -0.75764881828E+02 -0.63315516858E+02  0.10072272947E+03  0.41800000000E+01 0.  1.
         -5    1    3    3    0  502  0.33151293481E+02  0.34956693428E+02 -0.63128151939E+01  0.48767845047E+02  0.41800000000E+01 0.  1.
        -11    1    4    4    0    0  0.50533264207E+00  0.21890965775E+02  0.14247982186E+02  0.26124217500E+02  0.00000000000E+00 0.  1.
         11    1    4    4    0    0 -0.14203507141E+02  0.18917222625E+02 -0.11607461548E+03  0.11846061491E+03  0.00000000000E+00 0. -1.
</event>
<event>
 8    1  0.3541538E-009  0.1645976E+03  0.7561462E-02  0.1183602E+00
          2   -1    0    0  501    0  0.00000000000E+00  0.00000000000E+00  0.40606565675E+03  0.40606565675E+03  0.00000000000E+00 0. -1.
         -2   -1    0    0    0  501 -0.00000000000E+00 -0.00000000000E+00 -0.74020583090E+02  0.74020583090E+02  0.00000000000E+00 0.  1.
         25    2    1    2    0    0  0.36290713904E+02  0.12866757723E+03  0.15014199164E+03  0.23677808260E+03  0.12509548914E+03 0.  0.
         23    2    1    2    0    0 -0.36290713904E+02 -0.12866757723E+03  0.18190308202E+03  0.24330815723E+03  0.90762144003E+02 0.  0.
          5    1    3    3  502    0  0.61155743369E+02  0.12874251893E+03  0.15552269915E+03  0.21099631153E+03  0.41800000000E+01 0.  1.
         -5    1    3    3    0  502 -0.24865029466E+02 -0.74941703796E-01 -0.53807075074E+01  0.25781771077E+02  0.41800000000E+01 0.  1.
        -11    1    4    4    0    0 -0.42778526901E+02 -0.14105912324E+03  0.16257680003E+03  0.21945134887E+03  0.00000000000E+00 0.  1.
         11    1    4    4    0    0  0.64878129972E+01  0.12391546009E+02  0.19326281985E+02  0.23856808364E+02  0.00000000000E+00 0. -1.
</event>
<event>
 8    1  0.3541538E-009  0.1304322E+03  0.7561462E-02  0.1226816E+00
         -1   -1    0    0    0  501 -0.00000000000E+00  0.00000000000E+00  0.41876405721E+02  0.41876405721E+02  0.00000000000E+00 0.  1.
          1   -1    0    0  501    0  0.00000000000E+00 -0.00000000000E+00 -0.53427101184E+03  0.53427101184E+03  0.00000000000E+00 0. -1.
         25    2    1    2    0    0  0.50583532051E+02 -0.83642719685E+02 -0.20717072823E+03  0.26100177388E+03  0.12508963610E+03 0.  0.
         23    2    1    2    0    0 -0.50583532051E+02  0.83642719685E+02 -0.28522387788E+03  0.31514564368E+03  0.91702333368E+02 0.  0.
          5    1    3    3  502    0  0.39167862898E+01 -0.10641332491E+03 -0.14325690008E+03  0.17854732917E+03  0.41800000000E+01 0. -1.
         -5    1    3    3    0  502  0.46666745761E+02  0.22770605227E+02 -0.63913828153E+02  0.82454444705E+02  0.41800000000E+01 0. -1.
        -11    1    4    4    0    0 -0.51905586341E+02  0.63489457313E+02 -0.28321565523E+03  0.29484946744E+03  0.00000000000E+00 0. -1.
         11    1    4    4    0    0  0.13220542900E+01  0.20153262373E+02 -0.20082226561E+01  0.20296176242E+02  0.00000000000E+00 0.  1.
</event>
<event>
 8    1  0.3541538E-009  0.7031223E+02  0.7561462E-02  0.1359035E+00
         -2   -1    0    0    0  501 -0.00000000000E+00  0.00000000000E+00  0.50043818198E+02  0.50043818198E+02  0.00000000000E+00 0.  1.
          2   -1    0    0  501    0  0.00000000000E+00 -0.00000000000E+00 -0.28902290587E+03  0.28902290587E+03  0.00000000000E+00 0. -1.
         25    2    1    2    0    0 -0.17591213260E+02 -0.28519316418E+02 -0.18874365875E+03  0.22889575576E+03  0.12508515538E+03 0.  0.
         23    2    1    2    0    0  0.17591213260E+02  0.28519316418E+02 -0.50235428922E+02  0.11017096830E+03  0.92147934023E+02 0.  0.
          5    1    3    3  502    0  0.48165458640E+00 -0.26131725115E+02  0.10720275510E+02  0.28556886309E+02  0.41800000000E+01 0.  1.
         -5    1    3    3    0  502 -0.18072867847E+02 -0.23875913032E+01 -0.19946393426E+03  0.20033886945E+03  0.41800000000E+01 0.  1.
        -11    1    4    4    0    0 -0.32300673312E+02  0.31963864896E+02 -0.36561461764E+02  0.58324631519E+02  0.00000000000E+00 0. -1.
         11    1    4    4    0    0  0.49891886573E+02 -0.34445484781E+01 -0.13673967158E+02  0.51846336783E+02  0.00000000000E+00 0.  1.
</event>
<event>
 8    1  0.3541538E-009  0.7576306E+02  0.7561462E-02  0.1341524E+00
          1   -1    0    0  501    0  0.00000000000E+00  0.00000000000E+00  0.45937301635E+02  0.45937301635E+02  0.00000000000E+00 0. -1.
         -1   -1    0    0    0  501 -0.00000000000E+00 -0.00000000000E+00 -0.27897860543E+03  0.27897860543E+03  0.00000000000E+00 0.  1.
         25    2    1    2    0    0 -0.34964759229E+01  0.17007891499E+02 -0.16757259976E+03  0.20983099706E+03  0.12508787880E+03 0.  0.
         23    2    1    2    0    0  0.34964759229E+01 -0.17007891499E+02 -0.65468704039E+02  0.11508491000E+03  0.93042418197E+02 0.  0.
          5    1    3    3  502    0  0.30863326558E+02  0.44384564016E+02 -0.15460001053E+03  0.16383275040E+03  0.41800000000E+01 0.  1.
         -5    1    3    3    0  502 -0.34359802480E+02 -0.27376672518E+02 -0.12972589225E+02  0.45998246660E+02  0.41800000000E+01 0.  1.
        -11    1    4    4    0    0  0.24801188752E+02 -0.19734649300E+02  0.12606051940E+02  0.34109645147E+02  0.00000000000E+00 0. -1.
         11    1    4    4    0    0 -0.21304712830E+02  0.27267578013E+01 -0.78074755979E+02  0.80975264853E+02  0.00000000000E+00 0.  1.
</event>
<event>
 8    1  0.3541538E-009  0.1161308E+03  0.7561462E-02  0.1249620E+00
         -1   -1    0    0    0  501 -0.00000000000E+00  0.00000000000E+00  0.13339921464E+04  0.13339921464E+04  0.00000000000E+00 0.  1.
          1   -1    0    0  501    0  0.00000000000E+00 -0.00000000000E+00 -0.17775399344E+02  0.17775399344E+02  0.00000000000E+00 0. -1.
         25    2    1    2    0    0 -0.41481307361E+02 -0.50776740138E+02  0.10897274148E+04  0.10988412331E+04  0.12508893100E+03 0.  0.
         23    2    1    2    0    0  0.41481307361E+02  0.50776740138E+02  0.22648933224E+03  0.25292631269E+03  0.91516806288E+02 0.  0.
          5    1    3    3  502    0 -0.57893255659E+01 -0.86952263525E+02  0.79054736593E+03  0.79534698252E+03  0.41800000000E+01 0. -1.
         -5    1    3    3    0  502 -0.35691981795E+02  0.36175523387E+02  0.29918004889E+03  0.30349425053E+03  0.41800000000E+01 0. -1.
        -11    1    4    4    0    0  0.23264574987E+02  0.66192459350E+02  0.88743871817E+02  0.11312893931E+03  0.00000000000E+00 0. -1.
         11    1    4    4    0    0  0.18216732374E+02 -0.15415719211E+02  0.13774546042E+03  0.13979737338E+03  0.00000000000E+00 0.  1.
</event>
<event>
 8    1  0.3541538E-009  0.1423453E+03  0.7561462E-02  0.1210208E+00
         -1   -1    0    0    0  501 -0.00000000000E+00  0.00000000000E+00  0.63443570646E+02  0.63443570646E+02  0.00000000000E+00 0.  1.
          1   -1    0    0  501    0  0.00000000000E+00 -0.00000000000E+00 -0.42744697901E+03  0.42744697901E+03  0.00000000000E+00 0. -1.
         25    2    1    2    0    0 -0.98036915079E+02 -0.22999066729E+02 -0.29942250132E+03  0.33976736440E+03  0.12509130197E+03 0.  0.
         23    2    1    2    0    0  0.98036915079E+02  0.22999066729E+02 -0.64580907041E+02  0.15112318525E+03  0.92343542154E+02 0.  0.
          5    1    3    3  502    0  0.21705868288E+02  0.12481715337E+02 -0.15963780390E+02  0.29987541083E+02  0.41800000000E+01 0. -1.
         -5    1    3    3    0  502 -0.11974278337E+03 -0.35480782066E+02 -0.28345872093E+03  0.30977982332E+03  0.41800000000E+01 0. -1.
        -11    1    4    4    0    0  0.13580740569E+02  0.45055587984E+02 -0.36085394533E+02  0.59300912486E+02  0.00000000000E+00 0.  1.
         11    1    4    4    0    0  0.84456174510E+02 -0.22056521255E+02 -0.28495512507E+02  0.91822272765E+02  0.00000000000E+00 0. -1.
</event>
<event>
 8    1  0.3541538E-009  0.9490978E+02  0.7561462E-02  0.1291379E+00
         -1   -1    0    0    0  501 -0.00000000000E+00  0.00000000000E+00  0.10022121749E+03  0.10022121749E+03  0.00000000000E+00 0.  1.
          1   -1    0    0  501    0  0.00000000000E+00 -0.00000000000E+00 -0.24311568738E+03  0.24311568738E+03  0.00000000000E+00 0. -1.
         25    2    1    2    0    0  0.46290273186E+02  0.55594696746E+02  0.18684343410E+02  0.14570462313E+03  0.12508865982E+03 0.  0.
         23    2    1    2    0    0 -0.46290273186E+02 -0.55594696746E+02 -0.16157881330E+03  0.19763228175E+03  0.87847858156E+02 0.  0.
          5    1    3    3  502    0 -0.15203975136E+01 -0.10702136084E+02  0.54968709825E+02  0.56177208770E+02  0.41800000000E+01 0.  1.
         -5    1    3    3    0  502  0.47810670700E+02  0.66296832831E+02 -0.36284366415E+02  0.89527414361E+02  0.41800000000E+01 0.  1.
        -11    1    4    4    0    0  0.12986704938E+02  0.26799653202E+01  0.26888762561E+01  0.13530217100E+02  0.00000000000E+00 0.  1.
         11    1    4    4    0    0 -0.59276978124E+02 -0.58274662066E+02 -0.16426768956E+03  0.18410206465E+03  0.00000000000E+00 0. -1.
</event>
<event>
 8    1  0.3541538E-009  0.1041094E+03  0.7561462E-02  0.1271884E+00
         -2   -1    0    0    0  501 -0.00000000000E+00  0.00000000000E+00  0.92939251717E+02  0.92939251717E+02  0.00000000000E+00 0.  1.
          2   -1    0    0  501    0  0.00000000000E+00 -0.00000000000E+00 -0.22700343766E+03  0.22700343766E+03  0.00000000000E+00 0. -1.
         25    2    1    2    0    0  0.63181651863E+02 -0.20571220025E+02  0.52291220145E+00  0.14164435385E+03  0.12509098015E+03 0.  0.
         23    2    1    2    0    0 -0.63181651863E+02  0.20571220025E+02 -0.13458709815E+03  0.17829833553E+03  0.96236756182E+02 0.  0.
          5    1    3    3  502    0  0.39155095076E+02  0.44842472494E+02  0.28873208857E+02  0.66295576017E+02  0.41800000000E+01 0.  1.
         -5    1    3    3    0  502  0.24026556787E+02 -0.65413692519E+02 -0.28350296655E+02  0.75348777830E+02  0.41800000000E+01 0.  1.
        -11    1    4    4    0    0 -0.26097665518E+02  0.30693321924E+02 -0.20956337838E+01  0.40343027119E+02  0.00000000000E+00 0.  1.
         11    1    4    4    0    0 -0.37083986345E+02 -0.10122101899E+02 -0.13249146436E+03  0.13795530841E+03  0.00000000000E+00 0. -1.
</event>
<event>
 8    1  0.3541538E-009  0.1660271E+03  0.7561462E-02  0.1182055E+00
          2   -1    0    0  501    0  0.00000000000E+00  0.00000000000E+00  0.34907861120E+03  0.34907861120E+03  0.00000000000E+00 0. -1.
         -2   -1    0    0    0  501 -0.00000000000E+00 -0.00000000000E+00 -0.79133001789E+02  0.79133001789E+02  0.00000000000E+00 0.  1.
         25    2    1    2    0    0 -0.45090931857E+02 -0.12021289862E+03  0.13808404160E+03  0.22626610078E+03  0.12507922565E+03 0.  0.
         23    2    1    2    0    0  0.45090931857E+02  0.12021289862E+03  0.13186156781E+03  0.20194551221E+03  0.83127514727E+02 0.  0.
          5    1    3    3  502    0 -0.75842241575E+01 -0.13737807748E+03  0.10234620520E+03  0.17152980717E+03  0.41800000000E+01 0.  1.
         -5    1    3    3    0  502 -0.37506707700E+02  0.17165178868E+02  0.35737836399E+02  0.54736293613E+02  0.41800000000E+01 0.  1.
        -11    1    4    4    0    0 -0.20218470463E+02  0.62842963527E+02  0.55864332635E+02  0.86480334606E+02  0.00000000000E+00 0. -1.
         11    1    4    4    0    0  0.65309402321E+02  0.57369935088E+02  0.75997235179E+02  0.11546517760E+03  0.00000000000E+00 0.  1.
</event>
<event>
 8    1  0.3541538E-009  0.1401373E+03  0.7561462E-02  0.1213144E+00
         -2   -1    0    0    0  501 -0.00000000000E+00  0.00000000000E+00  0.43623853487E+02  0.43623853487E+02  0.00000000000E+00 0.  1.
          2   -1    0    0  501    0  0.00000000000E+00 -0.00000000000E+00 -0.50649954814E+03  0.50649954814E+03  0.00000000000E+00 0. -1.
         25    2    1    2    0    0  0.23140168424E+02  0.84480173977E+02 -0.15967513192E+03  0.22093787055E+03  0.12508008514E+03 0.  0.
         23    2    1    2    0    0 -0.23140168424E+02 -0.84480173977E+02 -0.30320056273E+03  0.32918553107E+03  0.93595755450E+02 0.  0.
          5    1    3    3  502    0  0.69771515187E+02  0.78961477818E+02 -0.11407760188E+03  0.15535170087E+03  0.41800000000E+01 0.  1.
         -5    1    3    3    0  502 -0.46631346763E+02  0.55186961592E+01 -0.45597530035E+02  0.65586169682E+02  0.41800000000E+01 0.  1.
        -11    1    4    4    0    0 -0.59194298319E+02 -0.46170128955E+02 -0.16360702387E+03  0.18000806655E+03  0.00000000000E+00 0.  1.
         11    1    4    4    0    0  0.36054129894E+02 -0.38310045023E+02 -0.13959353886E+03  0.14917746453E+03  0.00000000000E+00 0. -1.
</event>
<event>
 8    1  0.3541538E-009  0.2029807E+03  0.7561462E-02  0.1147248E+00
         -2   -1    0    0    0  501 -0.00000000000E+00  0.00000000000E+00  0.25922072168E+02  0.25922072168E+02  0.00000000000E+00 0.  1.
          2   -1    0    0  501    0  0.00000000000E+00 -0.00000000000E+00 -0.18211042978E+04  0.18211042978E+04  0.00000000000E+00 0. -1.
         25    2    1    2    0    0  0.17405316568E+03  0.67400853852E+02 -0.98914146872E+03  0.10143397507E+04  0.12508758982E+03 0.  0.
         23    2    1    2    0    0 -0.17405316568E+03 -0.67400853852E+02 -0.80604075686E+03  0.83268661922E+03  0.93957035499E+02 0.  0.
          5    1    3    3  502    0  0.69922716966E+01 -0.13441962429E+02 -0.30661214707E+03  0.30701475428E+03  0.41800000000E+01 0. -1.
         -5    1    3    3    0  502  0.16706089398E+03  0.80842816281E+02 -0.68252932165E+03  0.70732499641E+03  0.41800000000E+01 0. -1.
        -11    1    4    4    0    0 -0.13474492514E+03 -0.10109943888E+02 -0.44666876165E+03  0.46665982091E+03  0.00000000000E+00 0. -1.
         11    1    4    4    0    0 -0.39308240543E+02 -0.57290909965E+02 -0.35937199521E+03  0.36602679831E+03  0.00000000000E+00 0.  1.
</event>
<event>
 8    1  0.3541538E-009  0.8358644E+02  0.7561462E-02  0.1319171E+00
         -2   -1    0    0    0  501 -0.00000000000E+00  0.00000000000E+00  0.18862936009E+02  0.18862936009E+02  0.00000000000E+00 0.  1.
          2   -1    0    0  501    0  0.00000000000E+00 -0.00000000000E+00 -0.71629317371E+03  0.71629317371E+03  0.00000000000E+00 0. -1.
         25    2    1    2    0    0 -0.22041472275E+02  0.87333070775E+01 -0.28826742346E+03  0.31513260054E+03  0.12509337048E+03 0.  0.
         23    2    1    2    0    0  0.22041472275E+02 -0.87333070775E+01 -0.40916281423E+03  0.42002350918E+03  0.91888206844E+02 0.  0.
          5    1    3    3  502    0  0.76491239542E+01 -0.26568418232E+02 -0.25864810101E+03  0.26015515083E+03  0.41800000000E+01 0. -1.
         -5    1    3    3    0  502 -0.29690596229E+02  0.35301725310E+02 -0.29619322452E+02  0.54977449712E+02  0.41800000000E+01 0. -1.
        -11    1    4    4    0    0 -0.22005458957E+02 -0.35196521550E+02 -0.22642739566E+03  0.23020078379E+03  0.00000000000E+00 0.  1.
         11    1    4    4    0    0  0.44046931232E+02  0.26463214473E+02 -0.18273541857E+03  0.18982272538E+03  0.00000000000E+00 0. -1.
</event>
<event>
 8    1  0.3541538E-009  0.1226144E+03  0.7561462E-02  0.1238845E+00
          1   -1    0    0  501    0  0.00000000000E+00  0.00000000000E+00  0.32296827952E+02  0.32296827952E+02  0.00000000000E+00 0. -1.
         -1   -1    0    0    0  501 -0.00000000000E+00 -0.00000000000E+00 -0.55104396442E+03  0.55104396442E+03  0.00000000000E+00 0.  1.
         25    2    1    2    0    0 -0.19273238048E+02 -0.67740670029E+02 -0.32267289238E+03  0.35316484177E+03  0.12508938366E+03 0.  0.
         23    2    1    2    0    0  0.19273238048E+02  0.67740670029E+02 -0.19607424408E+03  0.23017595060E+03  0.97855009889E+02 0.  0.
          5    1    3    3  502    0 -0.59891303312E+02 -0.67846255557E+02 -0.27916389343E+03  0.29349622553E+03  0.41800000000E+01 0. -1.
         -5    1    3    3    0  502  0.40618065265E+02  0.10558552894E+00 -0.43508998950E+02  0.59668616238E+02  0.41800000000E+01 0. -1.
        -11    1    4    4    0    0 -0.35868320250E+02  0.21360876474E+02 -0.11156337826E+03  0.11911847384E+03  0.00000000000E+00 0.  1.
         11    1    4    4    0    0  0.55141558297E+02  0.46379793555E+02 -0.84510865822E+02  0.11105747676E+03  0.00000000000E+00 0. -1.
</event>
<event>
 8    1  0.3541538E-009  0.1116271E+03  0.7561462E-02  0.1257586E+00
         -1   -1    0    0    0  501 -0.00000000000E+00  0.00000000000E+00  0.15668478476E+03  0.15668478476E+03  0.00000000000E+00 0.  1.
          1   -1    0    0  501    0  0.00000000000E+00 -0.00000000000E+00 -0.10259705095E+03  0.10259705095E+03  0.00000000000E+00 0. -1.
         25    2    1    2    0    0  0.29211364204E+02  0.45021044566E+02 -0.92728248158E+01  0.13643417447E+03  0.12509236759E+03 0.  0.
         23    2    1    2    0    0 -0.29211364204E+02 -0.45021044566E+02  0.63360558623E+02  0.12284766124E+03  0.90536121134E+02 0.  0.
          5    1    3    3  502    0  0.38539419723E+02 -0.36916337273E+02 -0.26541688445E+01  0.53596826795E+02  0.41800000000E+01 0.  1.
         -5    1    3    3    0  502 -0.93280555194E+01  0.81937381838E+02 -0.66186559713E+01  0.82837347671E+02  0.41800000000E+01 0.  1.
        -11    1    4    4    0    0  0.55512968153E+01 -0.51492449365E+02  0.69790391202E+02  0.86907927958E+02  0.00000000000E+00 0.  1.
         11    1    4    4    0    0 -0.34762661019E+02  0.64714047988E+01 -0.64298325786E+01  0.35939733279E+02  0.00000000000E+00 0. -1.
</event>
<event>
 8    1  0.3541538E-009  0.1481161E+03  0.7561462E-02  0.1202807E+00
         -1   -1    0    0    0  501 -0.00000000000E+00  0.00000000000E+00  0.39245826726E+03  0.39245826726E+03  0.00000000000E+00 0.  1.
          1   -1    0    0  501    0  0.00000000000E+00 -0.00000000000E+00 -0.92586200633E+02  0.92586200633E+02  0.00000000000E+00 0. -1.
         25    2    1    2    0    0  0.14086817088E+03  0.86855120104E+01  0.72106819919E+02  0.20190488104E+03  0.12508760060E+03 0.  0.
         23    2    1    2    0    0 -0.14086817088E+03 -0.86855120104E+01  0.22776524671E+03  0.28313958685E+03  0.91497204044E+02 0.  0.
          5    1    3    3  502    0  0.85913994641E+02  0.17049686272E+02 -0.23900374618E+02  0.90887879192E+02  0.41800000000E+01 0.  1.
         -5    1    3    3    0  502  0.54954176238E+02 -0.83641742612E+01  0.96007194537E+02  0.11101700185E+03  0.41800000000E+01 0.  1.
        -11    1    4    4    0    0 -0.13385443573E+03  0.86144963477E+01  0.22793367700E+03  0.26447113382E+03  0.00000000000E+00 0.  1.
         11    1    4    4    0    0 -0.70137351490E+01 -0.17300008358E+02 -0.16843028993E+00  0.18668453034E+02  0.00000000000E+00 0. -1.
</event>
<event>
 8    1  0.3541538E-009  0.9683862E+02  0.7561462E-02  0.1287088E+00
         -1   -1    0    0    0  501 -0.00000000000E+00  0.00000000000E+00  0.13753674940E+03  0.13753674940E+03  0.00000000000E+00 0.  1.
          1   -1    0    0  501    0  0.00000000000E+00 -0.00000000000E+00 -0.90752863530E+02  0.90752863530E+02  0.00000000000E+00 0. -1.
         25    2    1    2    0    0 -0.12243020620E+02 -0.11144258353E+02  0.29120847023E+02  0.12949304086E+03  0.12508532229E+03 0.  0.
         23    2    1    2    0    0  0.12243020620E+02  0.11144258353E+02  0.17663038849E+02  0.98796572074E+02  0.95784621229E+02 0.  0.
          5    1    3    3  502    0  0.15020277322E+02 -0.57397028466E+02  0.43579099975E+02  0.73733560623E+02  0.41800000000E+01 0. -1.
         -5    1    3    3    0  502 -0.27263297942E+02  0.46252770112E+02 -0.14458252952E+02  0.55759480236E+02  0.41800000000E+01 0. -1.
        -11    1    4    4    0    0  0.45732085829E+02  0.10145909247E+02  0.37372298835E+02  0.59925385847E+02  0.00000000000E+00 0.  1.
         11    1    4    4    0    0 -0.33489065209E+02  0.99834910654E+00 -0.19709259986E+02  0.38871186227E+02  0.00000000000E+00 0. -1.
</event>
<event>
 8    1  0.3541538E-009  0.1400723E+03  0.7561462E-02  0.1213232E+00
         -1   -1    0    0    0  501 -0.00000000000E+00  0.00000000000E+00  0.18116309035E+03  0.18116309035E+03  0.00000000000E+00 0.  1.
          1   -1    0    0  501    0  0.00000000000E+00 -0.00000000000E+00 -0.12107967717E+03  0.12107967717E+03  0.00000000000E+00 0. -1.
         25    2    1    2    0    0  0.21608042356E+02  0.93714316115E+02  0.34197280853E+01  0.15783638383E+03  0.12510535153E+03 0.  0.
         23    2    1    2    0    0 -0.21608042356E+02 -0.93714316115E+02  0.56663685099E+02  0.14440638369E+03  0.91614135932E+02 0.  0.
          5    1    3    3  502    0  0.24479228476E+00  0.11606067271E+03 -0.21250064885E+02  0.11806429321E+03  0.41800000000E+01 0. -1.
         -5    1    3    3    0  502  0.21363250071E+02 -0.22346356600E+02  0.24669792970E+02  0.39772090617E+02  0.41800000000E+01 0. -1.
        -11    1    4    4    0    0 -0.54982701269E+02 -0.79207910272E+02  0.42033628643E+02  0.10518467771E+03  0.00000000000E+00 0. -1.
         11    1    4    4    0    0  0.33374658913E+02 -0.14506405843E+02  0.14630056455E+02  0.39221705979E+02  0.00000000000E+00 0.  1.
</event>
<event>
 8    1  0.3541538E-009  0.8993203E+02  0.7561462E-02  0.1303016E+00
         -2   -1    0    0    0  501 -0.00000000000E+00  0.00000000000E+00  0.52947767696E+02  0.52947767696E+02  0.00000000000E+00 0.  1.
          2   -1    0    0  501    0  0.00000000000E+00 -0.00000000000E+00 -0.42549253085E+03  0.42549253085E+03  0.00000000000E+00 0. -1.
         25    2    1    2    0    0  0.82669235932E+02  0.86229956214E+01 -0.29765406643E+03  0.33339951259E+03  0.12509489641E+03 0.  0.
         23    2    1    2    0    0 -0.82669235932E+02 -0.86229956214E+01 -0.74890696718E+02  0.14504078595E+03  0.92301974585E+02 0.  0.
          5    1    3    3  502    0  0.30917260628E+01  0.14010044214E+02  0.83676645219E+01  0.17126888757E+02  0.41800000000E+01 0.  1.
         -5    1    3    3    0  502  0.79577509869E+02 -0.53870485927E+01 -0.30602173095E+03  0.31627262383E+03  0.41800000000E+01 0.  1.
        -11    1    4    4    0    0 -0.65903933795E+02  0.62013897673E+00 -0.96061950961E+02  0.11649725956E+03  0.00000000000E+00 0. -1.
         11    1    4    4    0    0 -0.16765302137E+02 -0.92431345981E+01  0.21171254243E+02  0.28543526397E+02  0.00000000000E+00 0.  1.
</event>
<event>
 8    1  0.3541538E-009  0.3317084E+03  0.7561462E-02  0.1070383E+00
         -1   -1    0    0    0  501 -0.00000000000E+00  0.00000000000E+00  0.15792383234E+03  0.15792383234E+03  0.00000000000E+00 0.  1.
          1   -1    0    0  501    0  0.00000000000E+00 -0.00000000000E+00 -0.71505189453E+03  0.71505189453E+03  0.00000000000E+00 0. -1.
         25    2    1    2    0    0 -0.18707654928E+03 -0.25334777883E+03 -0.24897249687E+03  0.42049637970E+03  0.12508864382E+03 0.  0.
         23    2    1    2    0    0  0.18707654928E+03  0.25334777883E+03 -0.30815556532E+03  0.45247934716E+03  0.10293189419E+03 0.  0.
          5    1    3    3  502    0 -0.15647683002E+03 -0.26178977007E+03 -0.21130770987E+03  0.37106239731E+03  0.41800000000E+01 0. -1.
         -5    1    3    3    0  502 -0.30599719265E+02  0.84419912414E+01 -0.37664787002E+02  0.49433982392E+02  0.41800000000E+01 0. -1.
        -11    1    4    4    0    0  0.15960829784E+03  0.14854133633E+03 -0.16757666960E+03  0.27499323179E+03  0.00000000000E+00 0.  1.
         11    1    4    4    0    0  0.27468251441E+02  0.10480644250E+03 -0.14057889572E+03  0.17748611537E+03  0.00000000000E+00 0. -1.
</event>
<event>
 8    1  0.3541538E-009  0.1622945E+03  0.7561462E-02  0.1186130E+00
          2   -1    0    0  501    0  0.00000000000E+00  0.00000000000E+00  0.10154540783E+03  0.10154540783E+03  0.00000000000E+00 0. -1.
         -2   -1    0    0    0  501 -0.00000000000E+00 -0.00000000000E+00 -0.27472909651E+03  0.27472909651E+03  0.00000000000E+00 0.  1.
         25    2    1    2    0    0 -0.85599855226E+02 -0.92989400036E+02 -0.98054824149E+02  0.20306890242E+03  0.12509143398E+03 0.  0.
         23    2    1    2    0    0  0.85599855226E+02  0.92989400036E+02 -0.75128864527E+02  0.17320560192E+03  0.91550371481E+02 0.  0.
          5    1    3    3  502    0 -0.89610913770E+02 -0.58958254824E+01 -0.41150566990E+02  0.98872231634E+02  0.41800000000E+01 0. -1.
         -5    1    3    3    0  502  0.40110585439E+01 -0.87093574553E+02 -0.56904257159E+02  0.10419667078E+03  0.41800000000E+01 0. -1.
        -11    1    4    4    0    0 -0.40510890692E+01  0.46007465881E+02 -0.51678020435E+02  0.69308845291E+02  0.00000000000E+00 0. -1.
         11    1    4    4    0    0  0.89650944295E+02  0.46981934154E+02 -0.23450844092E+02  0.10389675663E+03  0.00000000000E+00 0.  1.
</event>
<event>
 8    1  0.3541538E-009  0.1004106E+03  0.7561462E-02  0.1279435E+00
         -2   -1    0    0    0  501 -0.00000000000E+00  0.00000000000E+00  0.42940184218E+02  0.42940184218E+02  0.00000000000E+00 0.  1.
          2   -1    0    0  501    0  0.00000000000E+00 -0.00000000000E+00 -0.45841047561E+03  0.45841047561E+03  0.00000000000E+00 0. -1.
         25    2    1    2    0    0 -0.30599945818E+02 -0.60526741594E+02 -0.32812242704E+03  0.35764793069E+03  0.12509145481E+03 0.  0.
         23    2    1    2    0    0  0.30599945818E+02  0.60526741594E+02 -0.87347864346E+02  0.14370272913E+03  0.91765907736E+02 0.  0.
          5    1    3    3  502    0 -0.36783259028E+02 -0.89377952391E+02 -0.30486373571E+03  0.31984495662E+03  0.41800000000E+01 0. -1.
         -5    1    3    3    0  502  0.61833132105E+01  0.28851210797E+02 -0.23258691330E+02  0.37802974077E+02  0.41800000000E+01 0. -1.
        -11    1    4    4    0    0  0.26527402393E+02  0.19187191409E+02 -0.95862914902E+02  0.10129930822E+03  0.00000000000E+00 0. -1.
         11    1    4    4    0    0  0.40725434248E+01  0.41339550185E+02  0.85150505557E+01  0.42403420916E+02  0.00000000000E+00 0.  1.
</event>
<event>
 8    1  0.3541538E-009  0.7372736E+02  0.7561462E-02  0.1347858E+00
         -1   -1    0    0    0  501 -0.00000000000E+00  0.00000000000E+00  0.14215969470E+03  0.14215969470E+03  0.00000000000E+00 0.  1.
          1   -1    0    0  501    0  0.00000000000E+00 -0.00000000000E+00 -0.89083534806E+02  0.89083534806E+02  0.00000000000E+00 0. -1.
         25    2    1    2    0    0 -0.62100730852E+01 -0.27177317772E+02  0.11264339757E+02  0.12866143867E+03  0.12509879633E+03 0.  0.
         23    2    1    2    0    0  0.62100730852E+01  0.27177317772E+02  0.41811820139E+02  0.10258179084E+03  0.89429435303E+02 0.  0.
          5    1    3    3  502    0 -0.17623163633E+02  0.33082068313E+02  0.44859421169E+02  0.58607501294E+02  0.41800000000E+01 0. -1.
         -5    1    3    3    0  502  0.11413090548E+02 -0.60259386085E+02 -0.33595081412E+02  0.70053937379E+02  0.41800000000E+01 0. -1.
        -11    1    4    4    0    0  0.11264602970E+02  0.36206534044E+02  0.66087378204E+02  0.76192820826E+02  0.00000000000E+00 0.  1.
         11    1    4    4    0    0 -0.50545298844E+01 -0.90292162719E+01 -0.24275558064E+02  0.26388970010E+02  0.00000000000E+00 0. -1.
</event>
<event>
 8    1  0.3541538E-009  0.9399354E+02  0.7561462E-02  0.1293459E+00
         -2   -1    0    0    0  501 -0.00000000000E+00  0.00000000000E+00  0.51266157696E+02  0.51266157696E+02  0.00000000000E+00 0. -1.
          2   -1    0    0  501    0  0.00000000000E+00 -0.00000000000E+00 -0.28704704068E+03  0.28704704068E+03  0.00000000000E+00 0.  1.
         25    2    1    2    0    0  0.48500404969E+02 -0.84186996348E+01 -0.10536517321E+03  0.17079974182E+03  0.12509024060E+03 0.  0.
         23    2    1    2    0    0 -0.48500404969E+02  0.84186996348E+01 -0.13041570977E+03  0.16751345656E+03  0.92894224729E+02 0.  0.
          5    1    3    3  502    0 -0.25172991043E+02  0.21761993511E+02  0.57657819320E+01  0.34029112256E+02  0.41800000000E+01 0.  1.
         -5    1    3    3    0  502  0.73673396012E+02 -0.30180693146E+02 -0.11113095515E+03  0.13677062956E+03  0.41800000000E+01 0.  1.
        -11    1    4    4    0    0 -0.54419296851E+02 -0.10042280630E+02 -0.13642141689E+03  0.14721790060E+03  0.00000000000E+00 0.  1.
         11    1    4    4    0    0  0.59188918825E+01  0.18460980265E+02  0.60057071274E+01  0.20295555956E+02  0.00000000000E+00 0. -1.
</event>
<event>
 8    1  0.3541538E-009  0.2228938E+03  0.7561462E-02  0.1131744E+00
          2   -1    0    0  501    0  0.00000000000E+00  0.00000000000E+00  0.98264662480E+03  0.98264662480E+03  0.00000000000E+00 0. -1.
         -2   -1    0    0    0  501 -0.00000000000E+00 -0.00000000000E+00 -0.88193576295E+02  0.88193576295E+02  0.00000000000E+00 0.  1.
         25    2    1    2    0    0 -0.19974581359E+03  0.13848834207E+02  0.11810986854E+03  0.26398709913E+03  0.12509623177E+03 0.  0.
         23    2    1    2    0    0  0.19974581359E+03 -0.13848834207E+02  0.77634317996E+03  0.80685310196E+03  0.90625685262E+02 0.  0.
          5    1    3    3  502    0 -0.21022411597E+03 -0.72851352061E+01  0.95521690573E+02  0.23106085324E+03  0.41800000000E+01 0. -1.
         -5    1    3    3    0  502  0.10478302382E+02  0.21133969413E+02  0.22588177971E+02  0.32926245884E+02  0.41800000000E+01 0. -1.
        -11    1    4    4    0    0  0.17152732345E+03  0.13609249032E+02  0.70139396203E+03  0.72219133498E+03  0.00000000000E+00 0. -1.
         11    1    4    4    0    0  0.28218490144E+02 -0.27458083239E+02  0.74949217924E+02  0.84661766983E+02  0.00000000000E+00 0.  1.
</event>
<event>
 8    1  0.3541538E-009  0.1334755E+03  0.7561462E-02  0.1222388E+00
          2   -1    0    0  501    0  0.00000000000E+00  0.00000000000E+00  0.72160226815E+03  0.72160226815E+03  0.00000000000E+00 0. -1.
         -2   -1    0    0    0  501 -0.00000000000E+00 -0.00000000000E+00 -0.34184798486E+02  0.34184798486E+02  0.00000000000E+00 0.  1.
         25    2    1    2    0    0 -0.10899068882E+03 -0.82831104093E+01  0.30567871918E+03  0.34790043491E+03  0.12509057952E+03 0.  0.
         23    2    1    2    0    0  0.10899068882E+03  0.82831104093E+01  0.38173875048E+03  0.40788663172E+03  0.93270845126E+02 0.  0.
          5    1    3    3  502    0 -0.22846590582E+02  0.22969862070E+02  0.43940465432E+01  0.32959995597E+02  0.41800000000E+01 0.  1.
         -5    1    3    3    0  502 -0.86144098238E+02 -0.31252972479E+02  0.30128467264E+03  0.31494043931E+03  0.41800000000E+01 0.  1.
        -11    1    4    4    0    0 -0.84266366626E+01  0.22736869959E+02  0.86297191620E+02  0.89639158533E+02  0.00000000000E+00 0.  1.
         11    1    4    4    0    0  0.11741732548E+03 -0.14453759549E+02  0.29544155886E+03  0.31824747319E+03  0.00000000000E+00 0. -1.
</event>
<event>
 8    1  0.3541538E-009  0.1553426E+03  0.7561462E-02  0.1194058E+00
         -1   -1    0    0    0  501 -0.00000000000E+00  0.00000000000E+00  0.14281954450E+03  0.14281954450E+03  0.00000000000E+00 0.  1.
          1   -1    0    0  501    0  0.00000000000E+00 -0.00000000000E+00 -0.27869114487E+03  0.27869114487E+03  0.00000000000E+00 0. -1.
         25    2    1    2    0    0 -0.90683552153E+02  0.11488908914E+03  0.13245983302E+02  0.19299051411E+03  0.12508746152E+03 0.  0.
         23    2    1    2    0    0  0.90683552153E+02 -0.11488908914E+03 -0.14911758367E+03  0.22852017526E+03  0.92533276744E+02 0.  0.
          5    1    3    3  502    0 -0.63577989875E+02  0.79227709378E+02 -0.51641488603E+02  0.11403291838E+03  0.41800000000E+01 0. -1.
         -5    1    3    3    0  502 -0.27105562278E+02  0.35661379761E+02  0.64887471905E+02  0.78957595728E+02  0.41800000000E+01 0. -1.
        -11    1    4    4    0    0  0.93684639415E+02 -0.64946073278E+02 -0.66614354609E+02  0.13203134604E+03  0.00000000000E+00 0.  1.
         11    1    4    4    0    0 -0.30010872628E+01 -0.49943015861E+02 -0.82503229066E+02  0.96488829220E+02  0.00000000000E+00 0. -1.
</event>
<event>
 8    1  0.3541538E-009  0.2703114E+03  0.7561462E-02  0.1101101E+00
         -2   -1    0    0    0  501 -0.00000000000E+00  0.00000000000E+00  0.82273555479E+02  0.82273555479E+02  0.00000000000E+00 0.  1.
          2   -1    0    0  501    0  0.00000000000E+00 -0.00000000000E+00 -0.10663075478E+04  0.10663075478E+04  0.00000000000E+00 0. -1.
         25    2    1    2    0    0  0.26492663137E+02 -0.25467542758E+03 -0.30689791439E+03  0.41880320228E+03  0.12509339619E+03 0.  0.
         23    2    1    2    0    0 -0.26492663137E+02  0.25467542758E+03 -0.67713607791E+03  0.72977790098E+03  0.92201313065E+02 0.  0.
          5    1    3    3  502    0  0.41456305616E+02 -0.26126272174E+03 -0.30142468402E+03  0.40106252329E+03  0.41800000000E+01 0. -1.
         -5    1    3    3    0  502 -0.14963642479E+02  0.65872941580E+01 -0.54732303661E+01  0.17740678995E+02  0.41800000000E+01 0. -1.
        -11    1    4    4    0    0 -0.35334868432E+02  0.14874353474E+03 -0.28413628465E+03  0.32265557535E+03  0.00000000000E+00 0.  1.
         11    1    4    4    0    0  0.88422052946E+01  0.10593189285E+03 -0.39299979326E+03  0.40712232562E+03  0.00000000000E+00 0. -1.
</event>
<event>
 8    1  0.3541538E-009  0.1059292E+03  0.7561462E-02  0.1268300E+00
          2   -1    0    0  501    0  0.00000000000E+00  0.00000000000E+00  0.49728660065E+03  0.49728660065E+03  0.00000000000E+00 0. -1.
         -2   -1    0    0    0  501 -0.00000000000E+00 -0.00000000000E+00 -0.32494853260E+02  0.32494853260E+02  0.00000000000E+00 0.  1.
         25    2    1    2    0    0 -0.20929058013E+02 -0.36261286009E+02  0.35921953502E+03  0.38267424774E+03  0.12509196301E+03 0.  0.
         23    2    1    2    0    0  0.20929058013E+02  0.36261286009E+02  0.10557221237E+03  0.14710720618E+03  0.93499367652E+02 0.  0.
          5    1    3    3  502    0 -0.62464888871E+02 -0.25376684190E+01  0.10037779209E+03  0.11832783125E+03  0.41800000000E+01 0. -1.
         -5    1    3    3    0  502  0.41535830858E+02 -0.33723617590E+02  0.25884174293E+03  0.26434641649E+03  0.41800000000E+01 0. -1.
        -11    1    4    4    0    0 -0.38045405499E+01 -0.27179913052E+02  0.57627772825E+02  0.63829322439E+02  0.00000000000E+00 0. -1.
         11    1    4    4    0    0  0.24733598563E+02  0.63441199060E+02  0.47944439547E+02  0.83277883736E+02  0.00000000000E+00 0.  1.
</event>
<event>
 8    1  0.3541538E-009  0.1125155E+03  0.7561462E-02  0.1255981E+00
         -2   -1    0    0    0  501 -0.00000000000E+00  0.00000000000E+00  0.24907821819E+02  0.24907821819E+02  0.00000000000E+00 0.  1.
          2   -1    0    0  501    0  0.00000000000E+00 -0.00000000000E+00 -0.13245766836E+04  0.13245766836E+04  0.00000000000E+00 0. -1.
         25    2    1    2    0    0 -0.30101170156E+02  0.84601130763E+02 -0.11075801294E+04  0.11182332501E+04  0.12509367191E+03 0.  0.
         23    2    1    2    0    0  0.30101170156E+02 -0.84601130763E+02 -0.19208873240E+03  0.23125125536E+03  0.92280172421E+02 0.  0.
          5    1    3    3  502    0 -0.50452069977E+02  0.10192260903E+02 -0.77832197562E+03  0.78003324524E+03  0.41800000000E+01 0.  1.
         -5    1    3    3    0  502  0.20350899822E+02  0.74408869860E+02 -0.32925815379E+03  0.33820000484E+03  0.41800000000E+01 0.  1.
        -11    1    4    4    0    0  0.34222608468E+01 -0.59197885034E+02 -0.32811621555E+02  0.67769491446E+02  0.00000000000E+00 0.  1.
         11    1    4    4    0    0  0.26678909309E+02 -0.25403245729E+02 -0.15927711084E+03  0.16348176392E+03  0.00000000000E+00 0. -1.
</event>
<event>
 8    1  0.3541538E-009  0.1570679E+03  0.7561462E-02  0.1192047E+00
          1   -1    0    0  501    0  0.00000000000E+00  0.00000000000E+00  0.49234046661E+03  0.49234046661E+03  0.00000000000E+00 0. -1.
         -1   -1    0    0    0  501 -0.00000000000E+00 -0.00000000000E+00 -0.68003059475E+02  0.68003059475E+02  0.00000000000E+00 0.  1.
         25    2    1    2    0    0 -0.11958430263E+03  0.73925765505E+02  0.28634853430E+03  0.34264917565E+03  0.12509016841E+03 0.  0.
         23    2    1    2    0    0  0.11958430263E+03 -0.73925765505E+02  0.13798887284E+03  0.21769435044E+03  0.92652452463E+02 0.  0.
          5    1    3    3  502    0 -0.93875032467E+02  0.36716539943E+02  0.73020461553E+02  0.12453949667E+03  0.41800000000E+01 0.  1.
         -5    1    3    3    0  502 -0.25709270160E+02  0.37209225562E+02  0.21332807275E+03  0.21810967897E+03  0.41800000000E+01 0.  1.
        -11    1    4    4    0    0  0.88297143883E+02 -0.81008072584E+00  0.63839581115E+02  0.10896115806E+03  0.00000000000E+00 0.  1.
         11    1    4    4    0    0  0.31287158744E+02 -0.73115684779E+02  0.74149291720E+02  0.10873319238E+03  0.00000000000E+00 0. -1.
</event>
<event>
 8    1  0.3541538E-009  0.9339031E+02  0.7561462E-02  0.1294843E+00
          2   -1    0    0  501    0  0.00000000000E+00  0.00000000000E+00  0.27397406263E+02  0.27397406263E+02  0.00000000000E+00 0. -1.
         -2   -1    0    0    0  501 -0.00000000000E+00 -0.00000000000E+00 -0.53371181901E+03  0.53371181901E+03  0.00000000000E+00 0.  1.
         25    2    1    2    0    0  0.42629382022E+02  0.19936808174E+02 -0.33239187278E+03  0.35825481729E+03  0.12508963381E+03 0.  0.
         23    2    1    2    0    0 -0.42629382022E+02 -0.19936808174E+02 -0.17392253997E+03  0.20285440799E+03  0.93199358364E+02 0.  0.
          5    1    3    3  502    0 -0.27849495035E+02  0.98761257051E+00 -0.23394030140E+03  0.23563129412E+03  0.41800000000E+01 0.  1.
         -5    1    3    3    0  502  0.70478877057E+02  0.18949195603E+02 -0.98451571383E+02  0.12262352316E+03  0.41800000000E+01 0.  1.
        -11    1    4    4    0    0  0.27194816770E+00  0.24052876174E+02 -0.11580699853E+03  0.11827880502E+03  0.00000000000E+00 0.  1.
         11    1    4    4    0    0 -0.42901330190E+02 -0.43989684348E+02 -0.58115541439E+02  0.84575602971E+02  0.00000000000E+00 0. -1.
</event>
<event>
 8    1  0.3541538E-009  0.9337997E+02  0.7561462E-02  0.1294867E+00
          1   -1    0    0  501    0  0.00000000000E+00  0.00000000000E+00  0.83149919791E+02  0.83149919791E+02  0.00000000000E+00 0. -1.
         -1   -1    0    0    0  501 -0.00000000000E+00 -0.00000000000E+00 -0.18451166537E+03  0.18451166537E+03  0.00000000000E+00 0.  1.
         25    2    1    2    0    0  0.30390125982E+02 -0.41532524408E+02 -0.24625638604E+02  0.13749736873E+03  0.12510233407E+03 0.  0.
         23    2    1    2    0    0 -0.30390125982E+02  0.41532524408E+02 -0.76736106974E+02  0.13016421643E+03  0.91683056145E+02 0.  0.
          5    1    3    3  502    0  0.69729485657E+02  0.96682461034E+01 -0.10977233899E+02  0.71369799053E+02  0.41800000000E+01 0.  1.
         -5    1    3    3    0  502 -0.39339359675E+02 -0.51200770511E+02 -0.13648404706E+02  0.66127569679E+02  0.41800000000E+01 0.  1.
        -11    1    4    4    0    0 -0.19518915270E+02  0.24423778058E+02 -0.96751195018E+02  0.10167744453E+03  0.00000000000E+00 0.  1.
         11    1    4    4    0    0 -0.10871210712E+02  0.17108746350E+02  0.20015088044E+02  0.28486771902E+02  0.00000000000E+00 0. -1.
</event>
<event>
 8    1  0.3541538E-009  0.2113532E+03  0.7561462E-02  0.1140499E+00
         -1   -1    0    0    0  501 -0.00000000000E+00  0.00000000000E+00  0.34264030915E+02  0.34264030915E+02  0.00000000000E+00 0.  1.
          1   -1    0    0  501    0  0.00000000000E+00 -0.00000000000E+00 -0.14734218565E+04  0.14734218565E+04  0.00000000000E+00 0. -1.
         25    2    1    2    0    0  0.13529711103E+03  0.13098059054E+03 -0.57618741454E+03  0.61895327015E+03  0.12509992246E+03 0.  0.
         23    2    1    2    0    0 -0.13529711103E+03 -0.13098059054E+03 -0.86297041104E+03  0.88873261726E+03  0.98318417958E+02 0.  0.
          5    1    3    3  502    0  0.40791423812E+01 -0.15171274904E+02 -0.87346901919E+01  0.18454652463E+02  0.41800000000E+01 0.  1.
         -5    1    3    3    0  502  0.13121796864E+03  0.14615186545E+03 -0.56745272435E+03  0.60049861768E+03  0.41800000000E+01 0.  1.
        -11    1    4    4    0    0 -0.10747127808E+03 -0.39709870659E+02 -0.53685280667E+03  0.54894251564E+03  0.00000000000E+00 0. -1.
         11    1    4    4    0    0 -0.27825832944E+02 -0.91270719882E+02 -0.32611760436E+03  0.33979010163E+03  0.00000000000E+00 0.  1.
</event>
<event>
 8    1  0.3541538E-009  0.1728590E+03  0.7561462E-02  0.1174899E+00
          2   -1    0    0  501    0  0.00000000000E+00  0.00000000000E+00  0.80720828770E+03  0.80720828770E+03  0.00000000000E+00 0. -1.
         -2   -1    0    0    0  501 -0.00000000000E+00 -0.00000000000E+00 -0.44623485209E+02  0.44623485209E+02  0.00000000000E+00 0.  1.
         25    2    1    2    0    0 -0.11188181785E+03 -0.75570652605E+02  0.22704585407E+03  0.29227542444E+03  0.12508652677E+03 0.  0.
         23    2    1    2    0    0  0.11188181785E+03  0.75570652605E+02  0.53553894843E+03  0.55955634848E+03  0.89849191068E+02 0.  0.
          5    1    3    3  502    0 -0.11124957607E+03 -0.34995615803E+01  0.14787138508E+03  0.18512734545E+03  0.41800000000E+01 0. -1.
         -5    1    3    3    0  502 -0.63224177833E+00 -0.72071091025E+02  0.79174468982E+02  0.10714807898E+03  0.41800000000E+01 0. -1.
        -11    1    4    4    0    0  0.83812547083E+02  0.24849205730E+01  0.28291571965E+03  0.29507968806E+03  0.00000000000E+00 0.  1.
         11    1    4    4    0    0  0.28069270769E+02  0.73085732032E+02  0.25262322878E+03  0.26447666042E+03  0.00000000000E+00 0. -1.
</event>
<event>
 8    1  0.3541538E-009  0.1146186E+03  0.7561462E-02  0.1252248E+00
         -2   -1    0    0    0  501 -0.00000000000E+00  0.00000000000E+00  0.44860441107E+02  0.44860441107E+02  0.00000000000E+00 0.  1.
          2   -1    0    0  501    0  0.00000000000E+00 -0.00000000000E+00 -0.29764643733E+03  0.29764643733E+03  0.00000000000E+00 0. -1.
         25    2    1    2    0    0 -0.32534921436E+02  0.10061441699E+02 -0.12616715636E+03  0.18089699276E+03  0.12508323997E+03 0.  0.
         23    2    1    2    0    0  0.32534921436E+02 -0.10061441699E+02 -0.12661883986E+03  0.16160988568E+03  0.94475768430E+02 0.  0.
          5    1    3    3  502    0 -0.24496961910E+02 -0.56783314325E+02 -0.65406572582E+02  0.90110698952E+02  0.41800000000E+01 0.  1.
         -5    1    3    3    0  502 -0.80379595253E+01  0.66844756025E+02 -0.60760583780E+02  0.90786293804E+02  0.41800000000E+01 0.  1.
        -11    1    4    4    0    0  0.56940187989E+02  0.20651156018E+02 -0.85496705198E+02  0.10477758278E+03  0.00000000000E+00 0. -1.
         11    1    4    4    0    0 -0.24405266553E+02 -0.30712597717E+02 -0.41122134660E+02  0.56832302901E+02  0.00000000000E+00 0.  1.
</event>
<event>
 8    1  0.3541538E-009  0.1133630E+03  0.7561462E-02  0.1254466E+00
          2   -1    0    0  501    0  0.00000000000E+00  0.00000000000E+00  0.45964072276E+03  0.45964072276E+03  0.00000000000E+00 0. -1.
         -2   -1    0    0    0  501 -0.00000000000E+00 -0.00000000000E+00 -0.32927976397E+02  0.32927976397E+02  0.00000000000E+00 0.  1.
         25    2    1    2    0    0 -0.46031625178E+02 -0.35441974114E+02  0.25464623113E+03  0.28959917963E+03  0.12509171741E+03 0.  0.
         23    2    1    2    0    0  0.46031625178E+02  0.35441974114E+02  0.17206651523E+03  0.20296951953E+03  0.90634960963E+02 0.  0.
          5    1    3    3  502    0 -0.37143056300E+02  0.33147059645E+02  0.39852852080E+02  0.63906622610E+02  0.41800000000E+01 0. -1.
         -5    1    3    3    0  502 -0.88885688782E+01 -0.68589033759E+02  0.21479337905E+03  0.22569255702E+03  0.41800000000E+01 0. -1.
        -11    1    4    4    0    0  0.20286237890E+02 -0.30533528704E+02  0.64286408933E+02  0.74003852578E+02  0.00000000000E+00 0.  1.
         11    1    4    4    0    0  0.25745387288E+02  0.65975502818E+02  0.10778010630E+03  0.12896566695E+03  0.00000000000E+00 0. -1.
</event>
<event>
 8    1  0.3541538E-009  0.9675177E+02  0.7561462E-02  0.1287279E+00
         -1   -1    0    0    0  501 -0.00000000000E+00  0.00000000000E+00  0.12020429065E+03  0.12020429065E+03  0.00000000000E+00 0.  1.
          1   -1    0    0  501    0  0.00000000000E+00 -0.00000000000E+00 -0.21909041153E+03  0.21909041153E+03  0.00000000000E+00 0. -1.
         25    2    1    2    0    0 -0.13923020193E+02 -0.64916144922E+02 -0.15804051527E+03  0.21220675617E+03  0.12508775533E+03 0.  0.
         23    2    1    2    0    0  0.13923020193E+02  0.64916144922E+02  0.59154394390E+02  0.12708794602E+03  0.90797286773E+02 0.  0.
          5    1    3    3  502    0  0.29555255221E+02 -0.14944265223E+01 -0.12480462345E+03  0.12833321027E+03  0.41800000000E+01 0.  1.
         -5    1    3    3    0  502 -0.43478275414E+02 -0.63421718399E+02 -0.33235891817E+02  0.83873545904E+02  0.41800000000E+01 0.  1.
        -11    1    4    4    0    0  0.34656272651E+02  0.50917969879E+02 -0.13584978758E+01  0.61607973568E+02  0.00000000000E+00 0. -1.
         11    1    4    4    0    0 -0.20733252459E+02  0.13998175043E+02  0.60512892266E+02  0.65479972453E+02  0.00000000000E+00 0.  1.
</event>
<event>
 8    1  0.3541538E-009  0.6949828E+02  0.7561462E-02  0.1361808E+00
         -2   -1    0    0    0  501 -0.00000000000E+00  0.00000000000E+00  0.89283930161E+02  0.89283930161E+02  0.00000000000E+00 0.  1.
          2   -1    0    0  501    0  0.00000000000E+00 -0.00000000000E+00 -0.15169562299E+03  0.15169562299E+03  0.00000000000E+00 0. -1.
         25    2    1    2    0    0  0.78875824356E+01  0.28900800633E+02 -0.17178635667E+02  0.12977259637E+03  0.12509336917E+03 0.  0.
         23    2    1    2    0    0 -0.78875824356E+01 -0.28900800633E+02 -0.45233057164E+02  0.11120695678E+03  0.97074649331E+02 0.  0.
          5    1    3    3  502    0  0.13832915861E+02  0.54896474201E+02 -0.57791386701E+02  0.81007957743E+02  0.41800000000E+01 0. -1.
         -5    1    3    3    0  502 -0.59453334258E+01 -0.25995673568E+02  0.40612751034E+02  0.48764638626E+02  0.41800000000E+01 0. -1.
        -11    1    4    4    0    0 -0.17584251158E+02 -0.38043186433E+02 -0.70857425739E+02  0.82324144120E+02  0.00000000000E+00 0. -1.
         11    1    4    4    0    0  0.96966687224E+01  0.91423857996E+01  0.25624368576E+02  0.28882812663E+02  0.00000000000E+00 0.  1.
</event>
<event>
 8    1  0.3541538E-009  0.1375290E+03  0.7561462E-02  0.1216693E+00
          1   -1    0    0  501    0  0.00000000000E+00  0.00000000000E+00  0.40942436568E+03  0.40942436568E+03  0.00000000000E+00 0. -1.
         -1   -1    0    0    0  501 -0.00000000000E+00 -0.00000000000E+00 -0.50886578350E+02  0.50886578350E+02  0.00000000000E+00 0.  1.
         25    2    1    2    0    0 -0.83720065885E+02  0.13555208725E+02  0.26026088098E+03  0.30095691996E+03  0.12508616385E+03 0.  0.
         23    2    1    2    0    0  0.83720065885E+02 -0.13555208725E+02  0.98276906350E+02  0.15935402407E+03  0.92425978767E+02 0.  0.
          5    1    3    3  502    0 -0.26163441890E+02  0.66580563448E+02  0.14247965635E+03  0.15948486446E+03  0.41800000000E+01 0. -1.
         -5    1    3    3    0  502 -0.57556623995E+02 -0.53025354723E+02  0.11778122463E+03  0.14147205549E+03  0.41800000000E+01 0. -1.
        -11    1    4    4    0    0  0.41810323279E+02 -0.52979442467E+02  0.59454486198E+02  0.89943095265E+02  0.00000000000E+00 0.  1.
         11    1    4    4    0    0  0.41909742606E+02  0.39424233742E+02  0.38822420153E+02  0.69410928808E+02  0.00000000000E+00 0. -1.
</event>
<event>
 8    1  0.3541538E-009  0.1570756E+03  0.7561462E-02  0.1192038E+00
          2   -1    0    0  501    0  0.00000000000E+00  0.00000000000E+00  0.91076834391E+02  0.91076834391E+02  0.00000000000E+00 0. -1.
         -2   -1    0    0    0  501 -0.00000000000E+00 -0.00000000000E+00 -0.29489785188E+03  0.29489785188E+03  0.00000000000E+00 0.  1.
         25    2    1    2    0    0 -0.78548203092E+02 -0.89629273957E+02 -0.14571421572E+03  0.22601627326E+03  0.12508995226E+03 0.  0.
         23    2    1    2    0    0  0.78548203092E+02  0.89629273957E+02 -0.58106801769E+02  0.15995841301E+03  0.89482213435E+02 0.  0.
          5    1    3    3  502    0 -0.63773441219E+02 -0.12062054190E+03 -0.10271802531E+03  0.17083568730E+03  0.41800000000E+01 0. -1.
         -5    1    3    3    0  502 -0.14774761873E+02  0.30991267940E+02 -0.42996190409E+02  0.55180585958E+02  0.41800000000E+01 0. -1.
        -11    1    4    4    0    0  0.55301250666E+02  0.52661548101E+01 -0.44966411274E+02  0.71469845771E+02  0.00000000000E+00 0.  1.
         11    1    4    4    0    0  0.23246952425E+02  0.84363119147E+02 -0.13140390495E+02  0.88488567237E+02  0.00000000000E+00 0. -1.
</event>
<event>
 8    1  0.3541538E-009  0.1395636E+03  0.7561462E-02  0.1213917E+00
          1   -1    0    0  501    0  0.00000000000E+00  0.00000000000E+00  0.65891248476E+03  0.65891248476E+03  0.00000000000E+00 0. -1.
         -1   -1    0    0    0  501 -0.00000000000E+00 -0.00000000000E+00 -0.41658726956E+02  0.41658726956E+02  0.00000000000E+00 0.  1.
         25    2    1    2    0    0 -0.84637226976E+02  0.83728371342E+02  0.39758041568E+03  0.43346277871E+03  0.12508354502E+03 0.  0.
         23    2    1    2    0    0  0.84637226976E+02 -0.83728371342E+02  0.21967334213E+03  0.26710843301E+03  0.94427948124E+02 0.  0.
          5    1    3    3  502    0 -0.91235720282E+02  0.52446249405E+02  0.38450817446E+03  0.39867101018E+03  0.41800000000E+01 0.  1.
         -5    1    3    3    0  502  0.65984933054E+01  0.31282121936E+02  0.13072241221E+02  0.34791768528E+02  0.41800000000E+01 0.  1.
        -11    1    4    4    0    0 -0.91244255841E+01 -0.34460530256E+02  0.19482364117E+02  0.40624448296E+02  0.00000000000E+00 0.  1.
         11    1    4    4    0    0  0.93761652561E+02 -0.49267841086E+02  0.20019097801E+03  0.22648398472E+03  0.00000000000E+00 0. -1.
</event>
<event>
 8    1  0.3541538E-009  0.3165888E+03  0.7561462E-02  0.1077230E+00
         -2   -1    0    0    0  501 -0.00000000000E+00  0.00000000000E+00  0.85997383079E+02  0.85997383079E+02  0.00000000000E+00 0.  1.
          2   -1    0    0  501    0  0.00000000000E+00 -0.00000000000E+00 -0.13241075842E+04  0.13241075842E+04  0.00000000000E+00 0. -1.
         25    2    1    2    0    0  0.16227583565E+03  0.26343320764E+03 -0.79558517082E+03  0.86274755324E+03  0.12508826829E+03 0.  0.
         23    2    1    2    0    0 -0.16227583565E+03 -0.26343320764E+03 -0.44252503029E+03  0.54735741404E+03  0.89672930904E+02 0.  0.
          5    1    3    3  502    0  0.16262106041E+03  0.19773750759E+03 -0.52286668708E+03  0.58219650983E+03  0.41800000000E+01 0. -1.
         -5    1    3    3    0  502 -0.34522475949E+00  0.65695700056E+02 -0.27271848374E+03  0.28055104341E+03  0.41800000000E+01 0. -1.
        -11    1    4    4    0    0 -0.64739491489E+02 -0.74710791825E+02 -0.79993486334E+02  0.12716863619E+03  0.00000000000E+00 0.  1.
         11    1    4    4    0    0 -0.97536344163E+02 -0.18872241582E+03 -0.36253154396E+03  0.42018877785E+03  0.00000000000E+00 0. -1.
</event>
<event>
 8    1  0.3541538E-009  0.1487345E+03  0.7561462E-02  0.1202037E+00
          1   -1    0    0  501    0  0.00000000000E+00  0.00000000000E+00  0.15814580997E+04  0.15814580997E+04  0.00000000000E+00 0. -1.
         -1   -1    0    0    0  501 -0.00000000000E+00 -0.00000000000E+00 -0.20454640595E+02  0.20454640595E+02  0.00000000000E+00 0.  1.
         25    2    1    2    0    0 -0.69396772062E+02 -0.82838703026E+02  0.12507357088E+04  0.12616121048E+04  0.12508847689E+03 0.  0.
         23    2    1    2    0    0  0.69396772062E+02  0.82838703026E+02  0.31026775034E+03  0.34030063551E+03  0.88658236727E+02 0.  0.
          5    1    3    3  502    0 -0.66884931815E+02 -0.11095012498E+03  0.11364856288E+04  0.11438533914E+04  0.41800000000E+01 0.  1.
         -5    1    3    3    0  502 -0.25118402469E+01  0.28111421949E+02  0.11425008001E+03  0.11775871334E+03  0.41800000000E+01 0.  1.
        -11    1    4    4    0    0 -0.14134609851E+02  0.45823028301E+02  0.93987272961E+02  0.10551371758E+03  0.00000000000E+00 0.  1.
         11    1    4    4    0    0  0.83531381913E+02  0.37015674725E+02  0.21628047738E+03  0.23478691794E+03  0.00000000000E+00 0. -1.
</event>
<event>
 8    1  0.3541538E-009  0.1431435E+03  0.7561462E-02  0.1209161E+00
          3   -1    0    0  501    0  0.00000000000E+00  0.00000000000E+00  0.81668681839E+03  0.81668681839E+03  0.00000000000E+00 0. -1.
         -3   -1    0    0    0  501 -0.00000000000E+00 -0.00000000000E+00 -0.36182369330E+02  0.36182369330E+02  0.00000000000E+00 0.  1.
         25    2    1    2    0    0  0.93958899923E+02 -0.75040774270E+02  0.55323614626E+03  0.57980767179E+03  0.12508920840E+03 0.  0.
         23    2    1    2    0    0 -0.93958899923E+02  0.75040774270E+02  0.22726830280E+03  0.27306151593E+03  0.91936485403E+02 0.  0.
          5    1    3    3  502    0  0.10606934417E+03 -0.24015657020E+02  0.46052029274E+03  0.47320594880E+03  0.41800000000E+01 0. -1.
         -5    1    3    3    0  502 -0.12110444244E+02 -0.51025117250E+02  0.92715853520E+02  0.10660172299E+03  0.41800000000E+01 0. -1.
        -11    1    4    4    0    0 -0.26312021422E+02  0.41993993784E+02  0.21623489384E+02  0.54068412945E+02  0.00000000000E+00 0. -1.
         11    1    4    4    0    0 -0.67646878500E+02  0.33046780487E+02  0.20564481342E+03  0.21899310299E+03  0.00000000000E+00 0.  1.
</event>
<event>
 8    1  0.3541538E-009  0.1718680E+03  0.7561462E-02  0.1175914E+00
          2   -1    0    0  501    0  0.00000000000E+00  0.00000000000E+00  0.11538291601E+03  0.11538291601E+03  0.00000000000E+00 0. -1.
         -2   -1    0    0    0  501 -0.00000000000E+00 -0.00000000000E+00 -0.44464450108E+03  0.44464450108E+03  0.00000000000E+00 0.  1.
         25    2    1    2    0    0 -0.42732722700E+02  0.14668816670E+03 -0.13736471167E+02  0.19793966681E+03  0.12509163528E+03 0.  0.
         23    2    1    2    0    0  0.42732722700E+02 -0.14668816670E+03 -0.31552511390E+03  0.36208775028E+03  0.90597668637E+02 0.  0.
          5    1    3    3  502    0 -0.72165720829E+02  0.13348676189E+03  0.17542355981E+02  0.15281300179E+03  0.41800000000E+01 0.  1.
         -5    1    3    3    0  502  0.29432998130E+02  0.13201404808E+02 -0.31278827148E+02  0.45126665017E+02  0.41800000000E+01 0.  1.
        -11    1    4    4    0    0  0.30348997534E+02 -0.32194627455E+02 -0.17446958933E+03  0.17999220341E+03  0.00000000000E+00 0.  1.
         11    1    4    4    0    0  0.12383725166E+02 -0.11449353924E+03 -0.14105552457E+03  0.18209554687E+03  0.00000000000E+00 0. -1.
</event>
<event>
 8    1  0.3541538E-009  0.2998243E+03  0.7561462E-02  0.1085328E+00
          1   -1    0    0  501    0  0.00000000000E+00  0.00000000000E+00  0.32349390471E+03  0.32349390471E+03  0.00000000000E+00 0. -1.
         -1   -1    0    0    0  501 -0.00000000000E+00 -0.00000000000E+00 -0.40985107193E+03  0.40985107193E+03  0.00000000000E+00 0.  1.
         25    2    1    2    0    0  0.17327572156E+03 -0.22722154442E+03 -0.24274648790E+03  0.39525698850E+03  0.12509246034E+03 0.  0.
         23    2    1    2    0    0 -0.17327572156E+03  0.22722154442E+03  0.15638932068E+03  0.33808798815E+03  0.90508354178E+02 0.  0.
          5    1    3    3  502    0  0.17299554405E+03 -0.23680149416E+03 -0.20956816271E+03  0.36047010018E+03  0.41800000000E+01 0. -1.
         -5    1    3    3    0  502  0.28017751703E+00  0.95799497454E+01 -0.33178325190E+02  0.34786888320E+02  0.41800000000E+01 0. -1.
        -11    1    4    4    0    0 -0.13040593647E+03  0.21476876444E+03  0.15094903914E+03  0.29311592052E+03  0.00000000000E+00 0. -1.
         11    1    4    4    0    0 -0.42869785099E+02  0.12452779978E+02  0.54402815413E+01  0.44972067630E+02  0.00000000000E+00 0.  1.
</event>
<event>
 8    1  0.3541538E-009  0.1046066E+03  0.7561462E-02  0.1270897E+00
         -3   -1    0    0    0  501 -0.00000000000E+00  0.00000000000E+00  0.36482470032E+03  0.36482470032E+03  0.00000000000E+00 0.  1.
          3   -1    0    0  501    0  0.00000000000E+00 -0.00000000000E+00 -0.61623897183E+02  0.61623897183E+02  0.00000000000E+00 0. -1.
         25    2    1    2    0    0 -0.62873420191E+02  0.46867181506E+02  0.68254122948E+02  0.16265277863E+03  0.12509077275E+03 0.  0.
         23    2    1    2    0    0  0.62873420191E+02 -0.46867181506E+02  0.23494668019E+03  0.26379581888E+03  0.90767239988E+02 0.  0.
          5    1    3    3  502    0 -0.12629361503E+02  0.35411906853E+02 -0.32198005893E+02  0.49675828150E+02  0.41800000000E+01 0.  1.
         -5    1    3    3    0  502 -0.50244058688E+02  0.11455274653E+02  0.10045212884E+03  0.11297695048E+03  0.41800000000E+01 0.  1.
        -11    1    4    4    0    0  0.85695023047E+02 -0.28253384867E+02  0.18447556966E+03  0.20536096643E+03  0.00000000000E+00 0.  1.
         11    1    4    4    0    0 -0.22821602856E+02 -0.18613796639E+02  0.50471110529E+02  0.58434852445E+02  0.00000000000E+00 0. -1.
</event>
<event>
 8    1  0.3541538E-009  0.1326981E+03  0.7561462E-02  0.1223506E+00
          2   -1    0    0  501    0  0.00000000000E+00  0.00000000000E+00  0.24687881628E+03  0.24687881628E+03  0.00000000000E+00 0. -1.
         -2   -1    0    0    0  501 -0.00000000000E+00 -0.00000000000E+00 -0.84001728677E+02  0.84001728677E+02  0.00000000000E+00 0.  1.
         25    2    1    2    0    0  0.78262282029E+02 -0.20940504532E+02  0.14527489583E+03  0.20812441364E+03  0.12508991436E+03 0.  0.
         23    2    1    2    0    0 -0.78262282029E+02  0.20940504532E+02  0.17602191770E+02  0.12275613132E+03  0.90530332500E+02 0.  0.
          5    1    3    3  502    0 -0.12450847945E+01  0.42318479004E+02  0.20687687154E+02  0.47305990119E+02  0.41800000000E+01 0.  1.
         -5    1    3    3    0  502  0.79507366823E+02 -0.63258983536E+02  0.12458720868E+03  0.16081842352E+03  0.41800000000E+01 0.  1.
        -11    1    4    4    0    0 -0.96903062284E+02  0.28564135286E+02  0.17981439636E+02  0.10261308628E+03  0.00000000000E+00 0.  1.
         11    1    4    4    0    0  0.18640780256E+02 -0.76236307543E+01 -0.37924786607E+00  0.20143045037E+02  0.00000000000E+00 0. -1.
</event>
<event>
 8    1  0.3541538E-009  0.1473560E+03  0.7561462E-02  0.1203760E+00
         -2   -1    0    0    0  501 -0.00000000000E+00  0.00000000000E+00  0.28282709471E+03  0.28282709471E+03  0.00000000000E+00 0.  1.
          2   -1    0    0  501    0  0.00000000000E+00 -0.00000000000E+00 -0.93044916563E+02  0.93044916563E+02  0.00000000000E+00 0. -1.
         25    2    1    2    0    0 -0.93954489004E+02  0.70723927508E+02  0.13236151170E+03  0.21678487262E+03  0.12508713479E+03 0.  0.
         23    2    1    2    0    0  0.93954489004E+02 -0.70723927508E+02  0.57420666443E+02  0.15908713865E+03  0.90455872249E+02 0.  0.
          5    1    3    3  502    0 -0.40956830888E+02  0.93455942734E+02  0.44022470438E+02  0.11120667935E+03  0.41800000000E+01 0. -1.
         -5    1    3    3    0  502 -0.52997658116E+02 -0.22732015226E+02  0.88339041263E+02  0.10557819327E+03  0.41800000000E+01 0. -1.
        -11    1    4    4    0    0  0.24202494368E+02 -0.59354070213E+02  0.60781188766E+02  0.88334700386E+02  0.00000000000E+00 0.  1.
         11    1    4    4    0    0  0.69751994635E+02 -0.11369857294E+02 -0.33605223234E+01  0.70752438268E+02  0.00000000000E+00 0. -1.
</event>
<event>
 8    1  0.3541538E-009  0.8522862E+02  0.7561462E-02  0.1314836E+00
         -2   -1    0    0    0  501 -0.00000000000E+00  0.00000000000E+00  0.38302453608E+03  0.38302453608E+03  0.00000000000E+00 0.  1.
          2   -1    0    0  501    0  0.00000000000E+00 -0.00000000000E+00 -0.33418041284E+02  0.33418041284E+02  0.00000000000E+00 0. -1.
         25    2    1    2    0    0 -0.30473365419E+01 -0.83600805058E+01  0.26286340104E+03  0.29124304884E+03  0.12508464607E+03 0.  0.
         23    2    1    2    0    0  0.30473365419E+01  0.83600805058E+01  0.86743093750E+02  0.12519952852E+03  0.89840861656E+02 0.  0.
          5    1    3    3  502    0 -0.41738265954E+02 -0.20413071130E+02  0.24006963708E+03  0.24456017535E+03  0.41800000000E+01 0. -1.
         -5    1    3    3    0  502  0.38690929412E+02  0.12052990624E+02  0.22793763960E+02  0.46682873489E+02  0.41800000000E+01 0. -1.
        -11    1    4    4    0    0 -0.36784919336E+02  0.19598074493E+02  0.68019953807E+02  0.79774237259E+02  0.00000000000E+00 0.  1.
         11    1    4    4    0    0  0.39832255877E+02 -0.11237993987E+02  0.18723139943E+02  0.45425291265E+02  0.00000000000E+00 0. -1.
</event>
<event>
 8    1  0.3541538E-009  0.1666256E+03  0.7561462E-02  0.1181413E+00
         -4   -1    0    0    0  501 -0.00000000000E+00  0.00000000000E+00  0.79179913902E+02  0.79179913902E+02  0.00000000000E+00 0.  1.
          4   -1    0    0  501    0  0.00000000000E+00 -0.00000000000E+00 -0.46162828783E+03  0.46162828783E+03  0.00000000000E+00 0. -1.
         25    2    1    2    0    0  0.13052189788E+03  0.50657432886E+02 -0.99559665405E+02  0.21251186549E+03  0.12508806764E+03 0.  0.
         23    2    1    2    0    0 -0.13052189788E+03 -0.50657432886E+02 -0.28288870853E+03  0.32829633624E+03  0.90279131839E+02 0.  0.
          5    1    3    3  502    0  0.72847212745E+02 -0.36602339710E+02 -0.30707927304E+02  0.87217526199E+02  0.41800000000E+01 0. -1.
         -5    1    3    3    0  502  0.57674685138E+02  0.87259772596E+02 -0.68851738101E+02  0.12529433929E+03  0.41800000000E+01 0. -1.
        -11    1    4    4    0    0 -0.69782434104E+02 -0.31991029933E+01 -0.21330690726E+03  0.22445413575E+03  0.00000000000E+00 0. -1.
         11    1    4    4    0    0 -0.60739463779E+02 -0.47458329893E+02 -0.69581801266E+02  0.10384220050E+03  0.00000000000E+00 0.  1.
</event>
<event>
 8    1  0.3541538E-009  0.1136667E+03  0.7561462E-02  0.1253926E+00
          2   -1    0    0  501    0  0.00000000000E+00  0.00000000000E+00  0.25699260809E+03  0.25699260809E+03  0.00000000000E+00 0. -1.
         -2   -1    0    0    0  501 -0.00000000000E+00 -0.00000000000E+00 -0.59486526741E+02  0.59486526741E+02  0.00000000000E+00 0.  1.
         25    2    1    2    0    0  0.15799167447E+02  0.55112359625E+02  0.89809038969E+02  0.16431259316E+03  0.12508388751E+03 0.  0.
         23    2    1    2    0    0 -0.15799167447E+02 -0.55112359625E+02  0.10769704238E+03  0.15216654167E+03  0.90934138758E+02 0.  0.
          5    1    3    3  502    0 -0.52498374686E+02  0.19581894727E+02  0.58457174695E+02  0.81081709523E+02  0.41800000000E+01 0. -1.
         -5    1    3    3    0  502  0.68297542134E+02  0.35530464898E+02  0.31351864274E+02  0.83230883636E+02  0.41800000000E+01 0. -1.
        -11    1    4    4    0    0 -0.44494989118E+02 -0.45854088127E+02  0.33644139460E+02  0.72210314877E+02  0.00000000000E+00 0.  1.
         11    1    4    4    0    0  0.28695821670E+02 -0.92582714981E+01  0.74052902923E+02  0.79956226798E+02  0.00000000000E+00 0. -1.
</event>
<event>
 8    1  0.3541538E-009  0.1218983E+03  0.7561462E-02  0.1239998E+00
          2   -1    0    0  501    0  0.00000000000E+00  0.00000000000E+00  0.22012866675E+02  0.22012866675E+02  0.00000000000E+00 0. -1.
         -2   -1    0    0    0  501 -0.00000000000E+00 -0.00000000000E+00 -0.69785993174E+03  0.69785993174E+03  0.00000000000E+00 0.  1.
         25    2    1    2    0    0  0.13563029563E+02  0.57958729948E+02 -0.36646244434E+03  0.39177227586E+03  0.12509045876E+03 0.  0.
         23    2    1    2    0    0 -0.13563029563E+02 -0.57958729948E+02 -0.30938462073E+03  0.32810052256E+03  0.91585693270E+02 0.  0.
          5    1    3    3  502    0 -0.12255453010E+02 -0.35368009729E+02 -0.65131530188E+02  0.75237496405E+02  0.41800000000E+01 0.  1.
         -5    1    3    3    0  502  0.25818482573E+02  0.93326739677E+02 -0.30133091415E+03  0.31653477945E+03  0.41800000000E+01 0.  1.
        -11    1    4    4    0    0 -0.50423602292E+02 -0.15004836606E+02 -0.15211624289E+03  0.16095662814E+03  0.00000000000E+00 0.  1.
         11    1    4    4    0    0  0.36860572728E+02 -0.42953893342E+02 -0.15726837784E+03  0.16714389442E+03  0.00000000000E+00 0. -1.
</event>
<event>
 8    1  0.3541538E-009  0.8922726E+02  0.7561462E-02  0.1304734E+00
          3   -1    0    0  501    0  0.00000000000E+00  0.00000000000E+00  0.44275070319E+03  0.44275070319E+03  0.00000000000E+00 0. -1.
         -3   -1    0    0    0  501 -0.00000000000E+00 -0.00000000000E+00 -0.40941397475E+02  0.40941397475E+02  0.00000000000E+00 0.  1.
         25    2    1    2    0    0 -0.19613905551E+02 -0.75838135931E+02  0.20289448440E+03  0.25089575053E+03  0.12508548151E+03 0.  0.
         23    2    1    2    0    0  0.19613905551E+02  0.75838135931E+02  0.19891482132E+03  0.23279635013E+03  0.92146114092E+02 0.  0.
          5    1    3    3  502    0 -0.19102894648E+02 -0.10216237676E+02  0.17987962505E+03  0.18122760276E+03  0.41800000000E+01 0. -1.
         -5    1    3    3    0  502 -0.51101090334E+00 -0.65621898255E+02  0.23014859348E+02  0.69668147769E+02  0.41800000000E+01 0. -1.
        -11    1    4    4    0    0 -0.83644547582E+01  0.55296180532E+02  0.36658668075E+02  0.66869197916E+02  0.00000000000E+00 0.  1.
         11    1    4    4    0    0  0.27978360310E+02  0.20541955398E+02  0.16225615324E+03  0.16592715222E+03  0.00000000000E+00 0. -1.
</event>
<event>
 8    1  0.3541538E-009  0.8721290E+02  0.7561462E-02  0.1309745E+00
         -2   -1    0    0    0  501 -0.00000000000E+00  0.00000000000E+00  0.16791288126E+02  0.16791288126E+02  0.00000000000E+00 0. -1.
          2   -1    0    0  501    0  0.00000000000E+00 -0.00000000000E+00 -0.77133247843E+03  0.77133247843E+03  0.00000000000E+00 0.  1.
         25    2    1    2    0    0  0.84274546258E+00 -0.33619672982E+02 -0.40192108397E+03  0.42228060177E+03  0.12509738712E+03 0.  0.
         23    2    1    2    0    0 -0.84274546258E+00  0.33619672982E+02 -0.35262010634E+03  0.36584316478E+03  0.91483819303E+02 0.  0.
          5    1    3    3  502    0 -0.28050259049E+02  0.47412153882E+01 -0.35094447497E+03  0.35212042410E+03  0.41800000000E+01 0. -1.
         -5    1    3    3    0  502  0.28893004512E+02 -0.38360888371E+02 -0.50976609001E+02  0.70160177676E+02  0.41800000000E+01 0. -1.
        -11    1    4    4    0    0  0.41991259090E+02  0.34917679320E+02 -0.19607171339E+03  0.20353532116E+03  0.00000000000E+00 0.  1.
         11    1    4    4    0    0 -0.42834004553E+02 -0.12980063375E+01 -0.15654839295E+03  0.16230784362E+03  0.00000000000E+00 0. -1.
</event>
<event>
 8    1  0.3541538E-009  0.8920968E+02  0.7561462E-02  0.1304777E+00
         -2   -1    0    0    0  501 -0.00000000000E+00  0.00000000000E+00  0.31426254070E+02  0.31426254070E+02  0.00000000000E+00 0. -1.
          2   -1    0    0  501    0  0.00000000000E+00 -0.00000000000E+00 -0.42138050692E+03  0.42138050692E+03  0.00000000000E+00 0.  1.
         25    2    1    2    0    0  0.13010793884E+01  0.74653184788E+01 -0.29653881243E+03  0.32193504833E+03  0.12509789878E+03 0.  0.
         23    2    1    2    0    0 -0.13010793884E+01 -0.74653184788E+01 -0.93415440418E+02  0.13087171266E+03  0.91342962933E+02 0.  0.
          5    1    3    3  502    0  0.12839580107E+02  0.45191103451E+02 -0.38553918894E+02  0.60917712618E+02  0.41800000000E+01 0.  1.
         -5    1    3    3    0  502 -0.11538500718E+02 -0.37725784972E+02 -0.25798489353E+03  0.26101733571E+03  0.41800000000E+01 0.  1.
        -11    1    4    4    0    0  0.64309668853E+01  0.41507604770E+02 -0.40223445251E+02  0.58156376578E+02  0.00000000000E+00 0.  1.
         11    1    4    4    0    0 -0.77320462736E+01 -0.48972923249E+02 -0.53191995167E+02  0.72715336078E+02  0.00000000000E+00 0. -1.
</event>
<event>
 8    1  0.3541538E-009  0.9205644E+02  0.7561462E-02  0.1297947E+00
          1   -1    0    0  501    0  0.00000000000E+00  0.00000000000E+00  0.11840811845E+03  0.11840811845E+03  0.00000000000E+00 0. -1.
         -1   -1    0    0    0  501 -0.00000000000E+00 -0.00000000000E+00 -0.15144245336E+03  0.15144245336E+03  0.00000000000E+00 0.  1.
         25    2    1    2    0    0  0.33767078516E+01  0.69873279257E+02  0.14204283941E+02  0.14402388327E+03  0.12508972763E+03 0.  0.
         23    2    1    2    0    0 -0.33767078516E+01 -0.69873279257E+02 -0.47238618853E+02  0.12582668854E+03  0.93312331060E+02 0.  0.
          5    1    3    3  502    0  0.11203004811E+02  0.35734891684E+02  0.69138392909E+02  0.78740584037E+02  0.41800000000E+01 0.  1.
         -5    1    3    3    0  502 -0.78262969599E+01  0.34138387573E+02 -0.54934108968E+02  0.65283299230E+02  0.41800000000E+01 0.  1.
        -11    1    4    4    0    0 -0.44171671201E+02 -0.26029856951E+02 -0.29750869468E+01  0.51356996913E+02  0.00000000000E+00 0.  1.
         11    1    4    4    0    0  0.40794963350E+02 -0.43843422306E+02 -0.44263531906E+02  0.74469691627E+02  0.00000000000E+00 0. -1.
</event>
<event>
 8    1  0.3541538E-009  0.1026184E+03  0.7561462E-02  0.1274884E+00
          1   -1    0    0  501    0  0.00000000000E+00  0.00000000000E+00  0.11823352639E+03  0.11823352639E+03  0.00000000000E+00 0.  1.
         -1   -1    0    0    0  501 -0.00000000000E+00 -0.00000000000E+00 -0.15130059742E+03  0.15130059742E+03  0.00000000000E+00 0. -1.
         25    2    1    2    0    0  0.54167088003E+02 -0.22749726947E+02 -0.72913041771E+02  0.15625330733E+03  0.12508861216E+03 0.  0.
         23    2    1    2    0    0 -0.54167088003E+02  0.22749726947E+02  0.39845970744E+02  0.11328081648E+03  0.88279207627E+02 0.  0.
          5    1    3    3  502    0  0.29988092187E+02  0.32783921756E+02  0.17005589952E+02  0.47757027633E+02  0.41800000000E+01 0.  1.
         -5    1    3    3    0  502  0.24178995816E+02 -0.55533648703E+02 -0.89918631724E+02  0.10849627970E+03  0.41800000000E+01 0.  1.
        -11    1    4    4    0    0  0.13997805045E+02  0.28232423932E+02  0.31211653798E+02  0.44352853798E+02  0.00000000000E+00 0.  1.
         11    1    4    4    0    0 -0.68164893049E+02 -0.54826969852E+01  0.86343169452E+01  0.68927962683E+02  0.00000000000E+00 0. -1.
</event>
<event>
 8    1  0.3541538E-009  0.1717342E+03  0.7561462E-02  0.1176051E+00
         -4   -1    0    0    0  501 -0.00000000000E+00  0.00000000000E+00  0.60368561419E+03  0.60368561419E+03  0.00000000000E+00 0.  1.
          4   -1    0    0  501    0  0.00000000000E+00 -0.00000000000E+00 -0.97992520638E+02  0.97992520638E+02  0.00000000000E+00 0. -1.
         25    2    1    2    0    0  0.11030792053E+03  0.10521093909E+03  0.37165226236E+02  0.20065878078E+03  0.12508202600E+03 0.  0.
         23    2    1    2    0    0 -0.11030792053E+03 -0.10521093909E+03  0.46852786731E+03  0.50101935404E+03  0.90911229463E+02 0.  0.
          5    1    3    3  502    0  0.12827880059E+03  0.66920579828E+02  0.54623101543E+02  0.15470930905E+03  0.41800000000E+01 0.  1.
         -5    1    3    3    0  502 -0.17970880060E+02  0.38290359258E+02 -0.17457875307E+02  0.45949471732E+02  0.41800000000E+01 0.  1.
        -11    1    4    4    0    0 -0.62363060787E+02 -0.81807634299E+02  0.17759913511E+03  0.20523911219E+03  0.00000000000E+00 0. -1.
         11    1    4    4    0    0 -0.47944859740E+02 -0.23403304787E+02  0.29092873220E+03  0.29578024185E+03  0.00000000000E+00 0.  1.
</event>
<event>
 8    1  0.3541538E-009  0.9231878E+02  0.7561462E-02  0.1297332E+00
          2   -1    0    0  501    0  0.00000000000E+00  0.00000000000E+00  0.34916164715E+03  0.34916164715E+03  0.00000000000E+00 0. -1.
         -2   -1    0    0    0  501 -0.00000000000E+00 -0.00000000000E+00 -0.46014773704E+02  0.46014773704E+02  0.00000000000E+00 0.  1.
         25    2    1    2    0    0 -0.43220235905E+02 -0.32356437777E+02  0.11190488646E+03  0.17631432235E+03  0.12509639800E+03 0.  0.
         23    2    1    2    0    0  0.43220235905E+02  0.32356437777E+02  0.19124198698E+03  0.21886209851E+03  0.91718006526E+02 0.  0.
          5    1    3    3  502    0 -0.43187697954E+02 -0.69669581982E+02  0.32122057657E+02  0.88138112620E+02  0.41800000000E+01 0.  1.
         -5    1    3    3    0  502 -0.32537950723E-01  0.37313144205E+02  0.79782828808E+02  0.88176209727E+02  0.41800000000E+01 0.  1.
        -11    1    4    4    0    0  0.18267233713E+02  0.35441141665E+02  0.18951063052E+03  0.19365961229E+03  0.00000000000E+00 0. -1.
         11    1    4    4    0    0  0.24953002192E+02 -0.30847038883E+01  0.17313564587E+01  0.25202486220E+02  0.00000000000E+00 0.  1.
</event>
<event>
 8    1  0.3541538E-009  0.1125436E+03  0.7561462E-02  0.1255931E+00
         -1   -1    0    0    0  501 -0.00000000000E+00  0.00000000000E+00  0.43325029443E+02  0.43325029443E+02  0.00000000000E+00 0.  1.
          1   -1    0    0  501    0  0.00000000000E+00 -0.00000000000E+00 -0.36777962987E+03  0.36777962987E+03  0.00000000000E+00 0. -1.
         25    2    1    2    0    0  0.63311982737E+02 -0.20867037437E+02 -0.15828506461E+03  0.21248037998E+03  0.12509959946E+03 0.  0.
         23    2    1    2    0    0 -0.63311982737E+02  0.20867037437E+02 -0.16616953581E+03  0.19862427933E+03  0.85996798196E+02 0.  0.
          5    1    3    3  502    0  0.49003185687E+01 -0.63635873909E+02 -0.45882560506E+02  0.78716067793E+02  0.41800000000E+01 0. -1.
         -5    1    3    3    0  502  0.58411664169E+02  0.42768836472E+02 -0.11240250411E+03  0.13376431218E+03  0.41800000000E+01 0. -1.
        -11    1    4    4    0    0 -0.21018576232E+02 -0.20563944683E+02 -0.91219379723E+01  0.30787434452E+02  0.00000000000E+00 0.  1.
         11    1    4    4    0    0 -0.42293406505E+02  0.41430982120E+02 -0.15704759784E+03  0.16783684488E+03  0.00000000000E+00 0. -1.
</event>
<event>
 8    1  0.3541538E-009  0.1372130E+03  0.7561462E-02  0.1217129E+00
          2   -1    0    0  501    0  0.00000000000E+00  0.00000000000E+00  0.32914787105E+02  0.32914787105E+02  0.00000000000E+00 0.  1.
         -2   -1    0    0    0  501 -0.00000000000E+00 -0.00000000000E+00 -0.79413953973E+03  0.79413953973E+03  0.00000000000E+00 0. -1.
         25    2    1    2    0    0  0.38012834429E+02 -0.10848765715E+03 -0.49570972496E+03  0.52401421102E+03  0.12509282392E+03 0.  0.
         23    2    1    2    0    0 -0.38012834429E+02  0.10848765715E+03 -0.26551502766E+03  0.30304011581E+03  0.90114008582E+02 0.  0.
          5    1    3    3  502    0 -0.13384911708E+02 -0.76767764318E+02 -0.41943326455E+03  0.42663120059E+03  0.41800000000E+01 0.  1.
         -5    1    3    3    0  502  0.51397746137E+02 -0.31719892828E+02 -0.76276460407E+02  0.97383010434E+02  0.41800000000E+01 0.  1.
        -11    1    4    4    0    0 -0.55163933621E+02  0.48494152410E+02 -0.86580123827E+02  0.11353792420E+03  0.00000000000E+00 0. -1.
         11    1    4    4    0    0  0.17151099192E+02  0.59993504736E+02 -0.17893490384E+03  0.18950219161E+03  0.00000000000E+00 0.  1.
</event>
<event>
 8    1  0.3541538E-009  0.1404678E+03  0.7561462E-02  0.1212701E+00
          2   -1    0    0  501    0  0.00000000000E+00  0.00000000000E+00  0.51650957660E+03  0.51650957660E+03  0.00000000000E+00 0.  1.
         -2   -1    0    0    0  501 -0.00000000000E+00 -0.00000000000E+00 -0.49480036964E+02  0.49480036964E+02  0.00000000000E+00 0. -1.
         25    2    1    2    0    0  0.10814114165E+03 -0.31001146407E+02  0.30724412373E+03  0.35028847899E+03  0.12508992505E+03 0.  0.
         23    2    1    2    0    0 -0.10814114165E+03  0.31001146407E+02  0.15978541591E+03  0.21570113458E+03  0.91323724876E+02 0.  0.
          5    1    3    3  502    0  0.74193871274E+02 -0.78351019600E+02  0.22306345976E+03  0.24782734370E+03  0.41800000000E+01 0.  1.
         -5    1    3    3    0  502  0.33947270376E+02  0.47349873193E+02  0.84180663969E+02  0.10246113528E+03  0.41800000000E+01 0.  1.
        -11    1    4    4    0    0 -0.47779115395E+02  0.26591758500E+01  0.61865797732E+01  0.48251309344E+02  0.00000000000E+00 0. -1.
         11    1    4    4    0    0 -0.60362026256E+02  0.28341970557E+02  0.15359883614E+03  0.16744982524E+03  0.00000000000E+00 0.  1.
</event>
<event>
 8    1  0.3541538E-009  0.1801277E+03  0.7561462E-02  0.1167680E+00
         -1   -1    0    0    0  501 -0.00000000000E+00  0.00000000000E+00  0.13906359333E+03  0.13906359333E+03  0.00000000000E+00 0.  1.
          1   -1    0    0  501    0  0.00000000000E+00 -0.00000000000E+00 -0.27330862681E+03  0.27330862681E+03  0.00000000000E+00 0. -1.
         25    2    1    2    0    0 -0.94507095548E+02 -0.12314967206E+03 -0.23106823273E+02  0.20070417266E+03  0.12510318463E+03 0.  0.
         23    2    1    2    0    0  0.94507095548E+02  0.12314967206E+03 -0.11113821021E+03  0.21166804749E+03  0.91401464552E+02 0.  0.
          5    1    3    3  502    0 -0.10489076797E+03 -0.60106448425E+02  0.21243258583E+02  0.12281533610E+03  0.41800000000E+01 0.  1.
         -5    1    3    3    0  502  0.10383672420E+02 -0.63043223634E+02 -0.44350081856E+02  0.77888836554E+02  0.41800000000E+01 0.  1.
        -11    1    4    4    0    0  0.44594630728E+02  0.24644385754E+01 -0.51285080700E+02  0.68006720621E+02  0.00000000000E+00 0. -1.
         11    1    4    4    0    0  0.49912464820E+02  0.12068523348E+03 -0.59853129509E+02  0.14366132687E+03  0.00000000000E+00 0.  1.
</event>
<event>
 8    1  0.3541538E-009  0.1042508E+03  0.7561462E-02  0.1271603E+00
         -2   -1    0    0    0  501 -0.00000000000E+00  0.00000000000E+00  0.12003325313E+03  0.12003325313E+03  0.00000000000E+00 0.  1.
          2   -1    0    0  501    0  0.00000000000E+00 -0.00000000000E+00 -0.10022198528E+03  0.10022198528E+03  0.00000000000E+00 0. -1.
         25    2    1    2    0    0 -0.98830446385E+01 -0.19944050211E+02  0.12360296553E+02  0.12765641831E+03  0.12509174432E+03 0.  0.
         23    2    1    2    0    0  0.98830446385E+01  0.19944050211E+02  0.74509712986E+01  0.92598820097E+02  0.89574465111E+02 0.  0.
          5    1    3    3  502    0 -0.56664189517E+02  0.19669671484E+02 -0.12435704488E+02  0.61399067550E+02  0.41800000000E+01 0.  1.
         -5    1    3    3    0  502  0.46781144878E+02 -0.39613721696E+02  0.24796001041E+02  0.66257350764E+02  0.41800000000E+01 0.  1.
        -11    1    4    4    0    0  0.39746031225E+02 -0.13612120093E+02  0.19163927886E+02  0.46176757612E+02  0.00000000000E+00 0.  1.
         11    1    4    4    0    0 -0.29862986587E+02  0.33556170304E+02 -0.11712956587E+02  0.46422062485E+02  0.00000000000E+00 0. -1.
</event>
<event>
 8    1  0.3541538E-009  0.9173869E+02  0.7561462E-02  0.1298695E+00
         -2   -1    0    0    0  501 -0.00000000000E+00  0.00000000000E+00  0.22856079587E+02  0.22856079587E+02  0.00000000000E+00 0.  1.
          2   -1    0    0  501    0  0.00000000000E+00 -0.00000000000E+00 -0.68846663024E+03  0.68846663024E+03  0.00000000000E+00 0. -1.
         25    2    1    2    0    0 -0.30008007048E+02 -0.55784862573E+02 -0.36011783946E+03  0.38645110451E+03  0.12508863459E+03 0.  0.
         23    2    1    2    0    0  0.30008007048E+02  0.55784862573E+02 -0.30549271119E+03  0.32487160531E+03  0.90572247220E+02 0.  0.
          5    1    3    3  502    0 -0.35691866689E+01  0.64564047965E+01  0.82939086645E+01  0.11861095114E+02  0.41800000000E+01 0.  1.
         -5    1    3    3    0  502 -0.26438820379E+02 -0.62241267370E+02 -0.36841174812E+03  0.37459000940E+03  0.41800000000E+01 0.  1.
        -11    1    4    4    0    0  0.58885486630E+02  0.22147702553E+02 -0.13894475896E+03  0.15252431710E+03  0.00000000000E+00 0.  1.
         11    1    4    4    0    0 -0.28877479582E+02  0.33637160020E+02 -0.16654795224E+03  0.17234728822E+03  0.00000000000E+00 0. -1.
</event>
<event>
 8    1  0.3541538E-009  0.1118669E+03  0.7561462E-02  0.1257151E+00
          2   -1    0    0  501    0  0.00000000000E+00  0.00000000000E+00  0.54641297642E+03  0.54641297642E+03  0.00000000000E+00 0.  1.
         -2   -1    0    0    0  501 -0.00000000000E+00 -0.00000000000E+00 -0.25418874067E+02  0.25418874067E+02  0.00000000000E+00 0. -1.
         25    2    1    2    0    0  0.44597333885E+02  0.84531963559E+01  0.25264145546E+03  0.28554531695E+03  0.12509214322E+03 0.  0.
         23    2    1    2    0    0 -0.44597333885E+02 -0.84531963559E+01  0.26835264688E+03  0.28628653353E+03  0.88805728833E+02 0.  0.
          5    1    3    3  502    0  0.77603335125E+02  0.35973888839E+02  0.13138310828E+03  0.15682918045E+03  0.41800000000E+01 0.  1.
         -5    1    3    3    0  502 -0.33006001240E+02 -0.27520692483E+02  0.12125834719E+03  0.12871613650E+03  0.41800000000E+01 0.  1.
        -11    1    4    4    0    0 -0.35872792593E+02 -0.44883822108E+02  0.11673259548E+03  0.13010731564E+03  0.00000000000E+00 0. -1.
         11    1    4    4    0    0 -0.87245412917E+01  0.36430625753E+02  0.15162005140E+03  0.15617921789E+03  0.00000000000E+00 0.  1.
</event>
<event>
 8    1  0.3541538E-009  0.1456661E+03  0.7561462E-02  0.1205902E+00
         -1   -1    0    0    0  501 -0.00000000000E+00  0.00000000000E+00  0.69870287881E+02  0.69870287881E+02  0.00000000000E+00 0.  1.
          1   -1    0    0  501    0  0.00000000000E+00 -0.00000000000E+00 -0.41730628468E+03  0.41730628468E+03  0.00000000000E+00 0. -1.
         25    2    1    2    0    0 -0.84406700504E+02 -0.75784743832E+02 -0.27882330044E+03  0.32597104738E+03  0.12508745889E+03 0.  0.
         23    2    1    2    0    0  0.84406700504E+02  0.75784743832E+02 -0.68612696359E+02  0.16120552518E+03  0.91715324566E+02 0.  0.
          5    1    3    3  502    0 -0.11189672789E+03 -0.57679103294E+02 -0.25714263810E+03  0.28633470869E+03  0.41800000000E+01 0.  1.
         -5    1    3    3    0  502  0.27490027391E+02 -0.18105640538E+02 -0.21680662339E+02  0.39636338690E+02  0.41800000000E+01 0.  1.
        -11    1    4    4    0    0  0.79483992359E+02  0.28174570407E+02 -0.90792968607E+01  0.84817127341E+02  0.00000000000E+00 0.  1.
         11    1    4    4    0    0  0.49227081451E+01  0.47610173425E+02 -0.59533399498E+02  0.76388397842E+02  0.00000000000E+00 0. -1.
</event>
<event>
 8    1  0.3541538E-009  0.2011956E+03  0.7561462E-02  0.1148734E+00
          1   -1    0    0  501    0  0.00000000000E+00  0.00000000000E+00  0.41195304305E+03  0.41195304305E+03  0.00000000000E+00 0. -1.
         -1   -1    0    0    0  501 -0.00000000000E+00 -0.00000000000E+00 -0.10219258427E+03  0.10219258427E+03  0.00000000000E+00 0.  1.
         25    2    1    2    0    0  0.94896620216E+02  0.13974146086E+03  0.20944184536E+03  0.29672629273E+03  0.12509021463E+03 0.  0.
         23    2    1    2    0    0 -0.94896620216E+02 -0.13974146086E+03  0.10031861342E+03  0.21741933460E+03  0.93135913831E+02 0.  0.
          5    1    3    3  502    0  0.27067684581E+02 -0.21756420284E+02  0.34776571154E+02  0.49324270632E+02  0.41800000000E+01 0.  1.
         -5    1    3    3    0  502  0.67828935635E+02  0.16149788115E+03  0.17466527420E+03  0.24740202209E+03  0.41800000000E+01 0.  1.
        -11    1    4    4    0    0  0.15166925722E+02 -0.43234846647E+02  0.31957529098E+02  0.55862073597E+02  0.00000000000E+00 0. -1.
         11    1    4    4    0    0 -0.11006354594E+03 -0.96506614214E+02  0.68361084324E+02  0.16155726100E+03  0.00000000000E+00 0.  1.
</event>
<event>
 8    1  0.3541538E-009  0.1441382E+03  0.7561462E-02  0.1207867E+00
         -1   -1    0    0    0  501 -0.00000000000E+00  0.00000000000E+00  0.80771810773E+02  0.80771810773E+02  0.00000000000E+00 0.  1.
          1   -1    0    0  501    0  0.00000000000E+00 -0.00000000000E+00 -0.97731918671E+03  0.97731918671E+03  0.00000000000E+00 0. -1.
         25    2    1    2    0    0  0.10737039136E+02 -0.11232847305E+03 -0.89732028476E+03  0.91299741756E+03  0.12509045191E+03 0.  0.
         23    2    1    2    0    0 -0.10737039136E+02  0.11232847305E+03  0.77290882674E+00  0.14509357992E+03  0.91206248026E+02 0.  0.
          5    1    3    3  502    0  0.60091523086E+02 -0.29780372908E+02 -0.48228258470E+03  0.48694129591E+03  0.41800000000E+01 0.  1.
         -5    1    3    3    0  502 -0.49354483950E+02 -0.82548100143E+02 -0.41503770007E+03  0.42605612166E+03  0.41800000000E+01 0.  1.
        -11    1    4    4    0    0  0.13029180430E+02  0.36012027579E+01  0.27493055607E+02  0.30636519231E+02  0.00000000000E+00 0.  1.
         11    1    4    4    0    0 -0.23766219566E+02  0.10872727029E+03 -0.26720146781E+02  0.11445706069E+03  0.00000000000E+00 0. -1.
</event>
<event>
 8    1  0.3541538E-009  0.2011798E+03  0.7561462E-02  0.1148747E+00
         -4   -1    0    0    0  501 -0.00000000000E+00  0.00000000000E+00  0.37287408555E+03  0.37287408555E+03  0.00000000000E+00 0.  1.
          4   -1    0    0  501    0  0.00000000000E+00 -0.00000000000E+00 -0.11155191382E+03  0.11155191382E+03  0.00000000000E+00 0. -1.
         25    2    1    2    0    0 -0.11766348523E+03  0.12377681969E+03  0.16427865781E+03  0.26795639152E+03  0.12509098088E+03 0.  0.
         23    2    1    2    0    0  0.11766348523E+03 -0.12377681969E+03  0.97043513921E+02  0.21646960785E+03  0.90973901087E+02 0.  0.
          5    1    3    3  502    0 -0.63402881863E+02  0.14085439750E+03  0.12411214912E+03  0.19819481498E+03  0.41800000000E+01 0.  1.
         -5    1    3    3    0  502 -0.54260603370E+02 -0.17077577816E+02  0.40166508684E+02  0.69761576545E+02  0.41800000000E+01 0.  1.
        -11    1    4    4    0    0  0.10696604535E+03 -0.13698585209E+03  0.97850126516E+02  0.19945301650E+03  0.00000000000E+00 0. -1.
         11    1    4    4    0    0  0.10697439888E+02  0.13209032408E+02 -0.80661259506E+00  0.17016591351E+02  0.00000000000E+00 0.  1.
</event>
<event>
 8    1  0.3541538E-009  0.1044762E+03  0.7561462E-02  0.1271155E+00
         -1   -1    0    0    0  501 -0.00000000000E+00  0.00000000000E+00  0.26448350983E+02  0.26448350983E+02  0.00000000000E+00 0.  1.
          1   -1    0    0  501    0  0.00000000000E+00 -0.00000000000E+00 -0.88664239486E+03  0.88664239486E+03  0.00000000000E+00 0. -1.
         25    2    1    2    0    0  0.65079507766E+02  0.46300589520E+02 -0.25016731508E+03  0.29087874769E+03  0.12509066073E+03 0.  0.
         23    2    1    2    0    0 -0.65079507766E+02 -0.46300589520E+02 -0.61002672879E+03  0.62221199815E+03  0.92930478741E+02 0.  0.
          5    1    3    3  502    0 -0.17243639919E+01  0.11836036654E+02 -0.20001792591E+03  0.20041883214E+03  0.41800000000E+01 0. -1.
         -5    1    3    3    0  502  0.66803871758E+02  0.34464552866E+02 -0.50149389180E+02  0.90459915550E+02  0.41800000000E+01 0. -1.
        -11    1    4    4    0    0 -0.55625985358E+02  0.16079539161E+02 -0.24312618424E+03  0.24992627571E+03  0.00000000000E+00 0.  1.
         11    1    4    4    0    0 -0.94535224074E+01 -0.62380128680E+02 -0.36690054455E+03  0.37228572244E+03  0.00000000000E+00 0. -1.
</event>
<event>
 8    1  0.3541538E-009  0.1399408E+03  0.7561462E-02  0.1213409E+00
          1   -1    0    0  501    0  0.00000000000E+00  0.00000000000E+00  0.64670957270E+03  0.64670957270E+03  0.00000000000E+00 0. -1.
         -1   -1    0    0    0  501 -0.00000000000E+00 -0.00000000000E+00 -0.37247108831E+02  0.37247108831E+02  0.00000000000E+00 0.  1.
         25    2    1    2    0    0  0.10751463499E+02  0.97397392015E+02  0.44222912798E+03  0.46991086794E+03  0.12509107177E+03 0.  0.
         23    2    1    2    0    0 -0.10751463499E+02 -0.97397392015E+02  0.16723333589E+03  0.21404581359E+03  0.90811759947E+02 0.  0.
          5    1    3    3  502    0  0.58750612575E+02  0.31627684325E+02  0.28574727758E+03  0.29346366715E+03  0.41800000000E+01 0. -1.
         -5    1    3    3    0  502 -0.47999149076E+02  0.65769707690E+02  0.15648185040E+03  0.17644720079E+03  0.41800000000E+01 0. -1.
        -11    1    4    4    0    0  0.34560587679E+02 -0.71234622399E+02  0.81643107118E+02  0.11372951503E+03  0.00000000000E+00 0. -1.
         11    1    4    4    0    0 -0.45312051178E+02 -0.26162769616E+02  0.85590228773E+02  0.10031629856E+03  0.00000000000E+00 0.  1.
</event>
<event>
 8    1  0.3541538E-009  0.9795234E+02  0.7561462E-02  0.1284662E+00
          2   -1    0    0  501    0  0.00000000000E+00  0.00000000000E+00  0.22240157179E+03  0.22240157179E+03  0.00000000000E+00 0. -1.
         -2   -1    0    0    0  501 -0.00000000000E+00 -0.00000000000E+00 -0.61385305181E+02  0.61385305181E+02  0.00000000000E+00 0.  1.
         25    2    1    2    0    0  0.25548036808E+02  0.93763159767E+01  0.12995892774E+03  0.18242093403E+03  0.12508979490E+03 0.  0.
         23    2    1    2    0    0 -0.25548036808E+02 -0.93763159767E+01  0.31057338878E+02  0.10136594295E+03  0.92573638827E+02 0.  0.
          5    1    3    3  502    0  0.73262352617E+02  0.13660507170E+01  0.49784397940E+02  0.88685946372E+02  0.41800000000E+01 0.  1.
         -5    1    3    3    0  502 -0.47714315810E+02  0.80102652597E+01  0.80174529796E+02  0.93734987655E+02  0.41800000000E+01 0.  1.
        -11    1    4    4    0    0 -0.43062104184E+02  0.13507914129E+02 -0.14548955941E+02  0.47418147157E+02  0.00000000000E+00 0.  1.
         11    1    4    4    0    0  0.17514067376E+02 -0.22884230106E+02  0.45606294819E+02  0.53947795791E+02  0.00000000000E+00 0. -1.
</event>
<event>
 8    1  0.3541538E-009  0.1358220E+03  0.7561462E-02  0.1219064E+00
          1   -1    0    0  501    0  0.00000000000E+00  0.00000000000E+00  0.14368637113E+03  0.14368637113E+03  0.00000000000E+00 0. -1.
         -1   -1    0    0    0  501 -0.00000000000E+00 -0.00000000000E+00 -0.22540886826E+03  0.22540886826E+03  0.00000000000E+00 0.  1.
         25    2    1    2    0    0  0.10076637264E+03 -0.20972729977E+02  0.58660875862E+02  0.17228782594E+03  0.12509308274E+03 0.  0.
         23    2    1    2    0    0 -0.10076637264E+03  0.20972729977E+02 -0.14038337299E+03  0.19680741346E+03  0.91825646316E+02 0.  0.
          5    1    3    3  502    0  0.92522467045E+02  0.21152673544E+02 -0.52953253705E+01  0.95149121788E+02  0.41800000000E+01 0.  1.
         -5    1    3    3    0  502  0.82439055995E+01 -0.42125403521E+02  0.63956201233E+02  0.77138704147E+02  0.41800000000E+01 0.  1.
        -11    1    4    4    0    0  0.12662585798E+02  0.15415945016E+02 -0.42224898170E+02  0.46700476071E+02  0.00000000000E+00 0.  1.
         11    1    4    4    0    0 -0.11342895844E+03  0.55567849607E+01 -0.98158474817E+02  0.15010693738E+03  0.00000000000E+00 0. -1.
</event>
<event>
 8    1  0.3541538E-009  0.6851128E+02  0.7561462E-02  0.1365230E+00
         -2   -1    0    0    0  501 -0.00000000000E+00  0.00000000000E+00  0.51911792287E+02  0.51911792287E+02  0.00000000000E+00 0. -1.
          2   -1    0    0  501    0  0.00000000000E+00 -0.00000000000E+00 -0.28392628761E+03  0.28392628761E+03  0.00000000000E+00 0.  1.
         25    2    1    2    0    0 -0.24414111474E+02 -0.25964104262E+02 -0.75383447898E+02  0.15033526204E+03  0.12509133961E+03 0.  0.
         23    2    1    2    0    0  0.24414111474E+02  0.25964104262E+02 -0.15663104742E+03  0.18550281785E+03  0.92778374990E+02 0.  0.
          5    1    3    3  502    0 -0.45915715388E+02 -0.43366348677E+01 -0.10046772356E+03  0.11062682857E+03  0.41800000000E+01 0.  1.
         -5    1    3    3    0  502  0.21501603914E+02 -0.21627469394E+02  0.25084275663E+02  0.39708433472E+02  0.41800000000E+01 0.  1.
        -11    1    4    4    0    0  0.30249811244E+02  0.36792065142E+02 -0.16426147430E+03  0.17102788977E+03  0.00000000000E+00 0.  1.
         11    1    4    4    0    0 -0.58356997704E+01 -0.10827960880E+02  0.76304268835E+01  0.14474928085E+02  0.00000000000E+00 0. -1.
</event>
<event>
 8    1  0.3541538E-009  0.8959479E+02  0.7561462E-02  0.1303836E+00
         -2   -1    0    0    0  501 -0.00000000000E+00  0.00000000000E+00  0.32404132626E+03  0.32404132626E+03  0.00000000000E+00 0.  1.
          2   -1    0    0  501    0  0.00000000000E+00 -0.00000000000E+00 -0.63197102546E+02  0.63197102546E+02  0.00000000000E+00 0. -1.
         25    2    1    2    0    0 -0.20968900079E+02  0.46330835058E+02  0.37238721765E+02  0.14007207382E+03  0.12508885809E+03 0.  0.
         23    2    1    2    0    0  0.20968900079E+02 -0.46330835058E+02  0.22360550195E+03  0.24716635498E+03  0.92225514293E+02 0.  0.
          5    1    3    3  502    0 -0.35985156467E+01  0.74439206911E+02  0.63230189849E+02  0.97824711340E+02  0.41800000000E+01 0. -1.
         -5    1    3    3    0  502 -0.17370384432E+02 -0.28108371853E+02 -0.25991468084E+02  0.42247362482E+02  0.41800000000E+01 0. -1.
        -11    1    4    4    0    0  0.25546605449E+02 -0.55441609741E+02  0.22802421586E+03  0.23605390096E+03  0.00000000000E+00 0.  1.
         11    1    4    4    0    0 -0.45777053702E+01  0.91107746837E+01 -0.44187139103E+01  0.11112454023E+02  0.00000000000E+00 0. -1.
</event>
<event>
 8    1  0.3541538E-009  0.1047032E+03  0.7561462E-02  0.1270705E+00
          4   -1    0    0  501    0  0.00000000000E+00  0.00000000000E+00  0.24996757714E+03  0.24996757714E+03  0.00000000000E+00 0. -1.
         -4   -1    0    0    0  501 -0.00000000000E+00 -0.00000000000E+00 -0.65951200254E+02  0.65951200254E+02  0.00000000000E+00 0.  1.
         25    2    1    2    0    0 -0.27585037010E+02  0.48310764841E+02  0.52702589302E+02  0.14669601784E+03  0.12508914607E+03 0.  0.
         23    2    1    2    0    0  0.27585037010E+02 -0.48310764841E+02  0.13131378758E+03  0.16922275955E+03  0.91094276850E+02 0.  0.
          5    1    3    3  502    0 -0.53830662703E+02  0.20401643098E-01  0.70475857209E+02  0.88780963684E+02  0.41800000000E+01 0. -1.
         -5    1    3    3    0  502  0.26245625693E+02  0.48290363197E+02 -0.17773267908E+02  0.57915054156E+02  0.41800000000E+01 0. -1.
        -11    1    4    4    0    0 -0.75311477640E+00  0.23282969820E+02  0.95937860507E+01  0.25193344285E+02  0.00000000000E+00 0.  1.
         11    1    4    4    0    0  0.28338151787E+02 -0.71593734660E+02  0.12172000153E+03  0.14402941526E+03  0.00000000000E+00 0. -1.
</event>
<event>
 8    1  0.3541538E-009  0.1298838E+03  0.7561462E-02  0.1227628E+00
          1   -1    0    0  501    0  0.00000000000E+00  0.00000000000E+00  0.90915435744E+03  0.90915435744E+03  0.00000000000E+00 0. -1.
         -1   -1    0    0    0  501 -0.00000000000E+00 -0.00000000000E+00 -0.29628128868E+02  0.29628128868E+02  0.00000000000E+00 0.  1.
         25    2    1    2    0    0  0.79210731405E+02 -0.90392896674E+02  0.50298440803E+03  0.53205860056E+03  0.12509126253E+03 0.  0.
         23    2    1    2    0    0 -0.79210731405E+02  0.90392896674E+02  0.37654182054E+03  0.40672388575E+03  0.95892444373E+02 0.  0.
          5    1    3    3  502    0  0.58482169361E+02 -0.34507244124E+02  0.80623059284E+02  0.10549153577E+03  0.41800000000E+01 0. -1.
         -5    1    3    3    0  502  0.20728562044E+02 -0.55885652550E+02  0.42236134875E+03  0.42656706479E+03  0.41800000000E+01 0. -1.
        -11    1    4    4    0    0 -0.48598495183E+02  0.15395975295E+02  0.25902471258E+03  0.26399365810E+03  0.00000000000E+00 0. -1.
         11    1    4    4    0    0 -0.30612236223E+02  0.74996921380E+02  0.11751710796E+03  0.14273022765E+03  0.00000000000E+00 0.  1.
</event>
<event>
 8    1  0.3541538E-009  0.1509173E+03  0.7561462E-02  0.1199350E+00
          1   -1    0    0  501    0  0.00000000000E+00  0.00000000000E+00  0.10263113477E+04  0.10263113477E+04  0.00000000000E+00 0. -1.
         -1   -1    0    0    0  501 -0.00000000000E+00 -0.00000000000E+00 -0.24462391880E+02  0.24462391880E+02  0.00000000000E+00 0.  1.
         25    2    1    2    0    0  0.10257080767E+03  0.36764856629E+02  0.66200704987E+03  0.68247558505E+03  0.12508862795E+03 0.  0.
         23    2    1    2    0    0 -0.10257080767E+03 -0.36764856629E+02  0.33984190597E+03  0.36829815455E+03  0.90986726073E+02 0.  0.
          5    1    3    3  502    0  0.13197216124E+03  0.29145946190E+02  0.53609299902E+03  0.55288273035E+03  0.41800000000E+01 0. -1.
         -5    1    3    3    0  502 -0.29401353565E+02  0.76189104394E+01  0.12591405084E+03  0.12959285469E+03  0.41800000000E+01 0. -1.
        -11    1    4    4    0    0 -0.38807553417E-01 -0.33370700319E+02  0.44335483880E+02  0.55490902648E+02  0.00000000000E+00 0.  1.
         11    1    4    4    0    0 -0.10253200012E+03 -0.33941563101E+01  0.29550642209E+03  0.31280725190E+03  0.00000000000E+00 0. -1.
</event>
<event>
 8    1  0.3541538E-009  0.9172722E+02  0.7561462E-02  0.1298722E+00
          1   -1    0    0  501    0  0.00000000000E+00  0.00000000000E+00  0.32388766987E+03  0.32388766987E+03  0.00000000000E+00 0. -1.
         -1   -1    0    0    0  501 -0.00000000000E+00 -0.00000000000E+00 -0.56790228337E+02  0.56790228337E+02  0.00000000000E+00 0.  1.
         25    2    1    2    0    0  0.51032767884E+02 -0.32108495864E+02  0.22584631383E+03  0.26512314414E+03  0.12509366564E+03 0.  0.
         23    2    1    2    0    0 -0.51032767884E+02  0.32108495864E+02  0.41251127698E+02  0.11555475406E+03  0.89531819740E+02 0.  0.
          5    1    3    3  502    0 -0.13475335341E+02 -0.22446756490E+02 -0.34105362695E+01  0.26730987582E+02  0.41800000000E+01 0.  1.
         -5    1    3    3    0  502  0.64508103226E+02 -0.96617393743E+01  0.22925685010E+03  0.23839215656E+03  0.41800000000E+01 0.  1.
        -11    1    4    4    0    0 -0.63617742771E+02  0.76524874498E+01  0.55327669945E+02  0.84657715661E+02  0.00000000000E+00 0. -1.
         11    1    4    4    0    0  0.12584974887E+02  0.24456008414E+02 -0.14076542247E+02  0.30897038403E+02  0.00000000000E+00 0.  1.
</event>
<event>
 8    1  0.3541538E-009  0.1221541E+03  0.7561462E-02  0.1239585E+00
         -1   -1    0    0    0  501 -0.00000000000E+00  0.00000000000E+00  0.63251868636E+02  0.63251868636E+02  0.00000000000E+00 0.  1.
          1   -1    0    0  501    0  0.00000000000E+00 -0.00000000000E+00 -0.33491452340E+03  0.33491452340E+03  0.00000000000E+00 0. -1.
         25    2    1    2    0    0 -0.59098149428E+02  0.19899639148E+02 -0.25091734355E+03  0.28722059671E+03  0.12509025132E+03 0.  0.
         23    2    1    2    0    0  0.59098149428E+02 -0.19899639148E+02 -0.20745311215E+02  0.11094579533E+03  0.89386881920E+02 0.  0.
          5    1    3    3  502    0 -0.32063150954E+02 -0.51643829933E+02 -0.86147723368E+02  0.10551792957E+03  0.41800000000E+01 0.  1.
         -5    1    3    3    0  502 -0.27034998474E+02  0.71543469081E+02 -0.16476962018E+03  0.18170266714E+03  0.41800000000E+01 0.  1.
        -11    1    4    4    0    0  0.80000365807E+02 -0.32626219134E+01 -0.56619764401E+01  0.80266812620E+02  0.00000000000E+00 0.  1.
         11    1    4    4    0    0 -0.20902216379E+02 -0.16637017234E+02 -0.15083334775E+02  0.30678982707E+02  0.00000000000E+00 0. -1.
</event>
<event>
 8    1  0.3541538E-009  0.1384186E+03  0.7561462E-02  0.1215473E+00
         -3   -1    0    0    0  501 -0.00000000000E+00  0.00000000000E+00  0.40542985543E+03  0.40542985543E+03  0.00000000000E+00 0.  1.
          3   -1    0    0  501    0  0.00000000000E+00 -0.00000000000E+00 -0.62289000457E+02  0.62289000457E+02  0.00000000000E+00 0. -1.
         25    2    1    2    0    0 -0.49335845604E+00 -0.10834482083E+03  0.24438659965E+03  0.29514415000E+03  0.12508563301E+03 0.  0.
         23    2    1    2    0    0  0.49335845604E+00  0.10834482083E+03  0.98754255322E+02  0.17257470589E+03  0.91053734484E+02 0.  0.
          5    1    3    3  502    0  0.34199829432E+02  0.21994227231E+01  0.14046179134E+02  0.37272420659E+02  0.41800000000E+01 0.  1.
         -5    1    3    3    0  502 -0.34693187888E+02 -0.11054424356E+03  0.23034042052E+03  0.25787172934E+03  0.41800000000E+01 0.  1.
        -11    1    4    4    0    0 -0.22320772109E+02  0.83802294590E+01 -0.74225625772E+01  0.24970773888E+02  0.00000000000E+00 0. -1.
         11    1    4    4    0    0  0.22814130565E+02  0.99964591375E+02  0.10617681790E+03  0.14760393200E+03  0.00000000000E+00 0.  1.
</event>
<event>
 8    1  0.3541538E-009  0.7726774E+02  0.7561462E-02  0.1336989E+00
          1   -1    0    0  501    0  0.00000000000E+00  0.00000000000E+00  0.55312898920E+03  0.55312898920E+03  0.00000000000E+00 0. -1.
         -1   -1    0    0    0  501 -0.00000000000E+00 -0.00000000000E+00 -0.23582631052E+02  0.23582631052E+02  0.00000000000E+00 0.  1.
         25    2    1    2    0    0  0.17610292122E+01  0.34346234056E+02  0.35923733261E+03  0.38194455060E+03  0.12508962218E+03 0.  0.
         23    2    1    2    0    0 -0.17610292122E+01 -0.34346234056E+02  0.17030902554E+03  0.19476706966E+03  0.88012966219E+02 0.  0.
          5    1    3    3  502    0  0.23289465116E+02  0.42797562305E+02  0.43852417306E+02  0.65685138564E+02  0.41800000000E+01 0. -1.
         -5    1    3    3    0  502 -0.21528435904E+02 -0.84513282491E+01  0.31538491530E+03  0.31625941203E+03  0.41800000000E+01 0. -1.
        -11    1    4    4    0    0 -0.15914933846E+02  0.20234773154E+02  0.15596411984E+02  0.30099488878E+02  0.00000000000E+00 0.  1.
         11    1    4    4    0    0  0.14153904634E+02 -0.54581007210E+02  0.15471261356E+03  0.16466758078E+03  0.00000000000E+00 0. -1.
</event>
<event>
 8    1  0.3541538E-009  0.8361359E+02  0.7561462E-02  0.1319098E+00
         -2   -1    0    0    0  501 -0.00000000000E+00  0.00000000000E+00  0.98272501167E+02  0.98272501167E+02  0.00000000000E+00 0. -1.
          2   -1    0    0  501    0  0.00000000000E+00 -0.00000000000E+00 -0.13452316657E+03  0.13452316657E+03  0.00000000000E+00 0.  1.
         25    2    1    2    0    0  0.24282112769E+02  0.15483222225E+02  0.51168019501E+01  0.12846758858E+03  0.12509351895E+03 0.  0.
         23    2    1    2    0    0 -0.24282112769E+02 -0.15483222225E+02 -0.41367467356E+02  0.10432807916E+03  0.91344017728E+02 0.  0.
          5    1    3    3  502    0  0.54448258952E+02  0.33570547600E+01  0.49167946816E+02  0.73558426530E+02  0.41800000000E+01 0.  1.
         -5    1    3    3    0  502 -0.30166146183E+02  0.12126167465E+02 -0.44051144866E+02  0.54909162049E+02  0.41800000000E+01 0.  1.
        -11    1    4    4    0    0  0.23080221232E+02 -0.22050305107E+02 -0.46323608400E+02  0.56256459741E+02  0.00000000000E+00 0.  1.
         11    1    4    4    0    0 -0.47362334000E+02  0.65670828823E+01  0.49561410436E+01  0.48071619419E+02  0.00000000000E+00 0. -1.
</event>
<event>
 8    1  0.3541538E-009  0.9763824E+02  0.7561462E-02  0.1285342E+00
          1   -1    0    0  501    0  0.00000000000E+00  0.00000000000E+00  0.77068519167E+02  0.77068519167E+02  0.00000000000E+00 0.  1.
         -1   -1    0    0    0  501 -0.00000000000E+00 -0.00000000000E+00 -0.19788466615E+03  0.19788466615E+03  0.00000000000E+00 0. -1.
         25    2    1    2    0    0 -0.33930106888E+02 -0.29076467423E+02 -0.10410443283E+03  0.16876540068E+03  0.12508930578E+03 0.  0.
         23    2    1    2    0    0  0.33930106888E+02  0.29076467423E+02 -0.16711714154E+02  0.10618778464E+03  0.94867650471E+02 0.  0.
          5    1    3    3  502    0  0.61157273693E+01  0.24187337333E+02 -0.98573036824E+02  0.10176711354E+03  0.41800000000E+01 0.  1.
         -5    1    3    3    0  502 -0.40045834258E+02 -0.53263804756E+02 -0.55313960081E+01  0.66998287144E+02  0.41800000000E+01 0.  1.
        -11    1    4    4    0    0  0.26732883728E+02 -0.32008231114E+02  0.24206430991E+01  0.41773597457E+02  0.00000000000E+00 0.  1.
         11    1    4    4    0    0  0.71972231602E+01  0.61084698537E+02 -0.19132357253E+02  0.64414187184E+02  0.00000000000E+00 0. -1.
</event>
<event>
 8    1  0.3541538E-009  0.1156160E+03  0.7561462E-02  0.1250510E+00
          2   -1    0    0  501    0  0.00000000000E+00  0.00000000000E+00  0.26735732418E+03  0.26735732418E+03  0.00000000000E+00 0. -1.
         -2   -1    0    0    0  501 -0.00000000000E+00 -0.00000000000E+00 -0.86722500340E+02  0.86722500340E+02  0.00000000000E+00 0.  1.
         25    2    1    2    0    0 -0.49130439535E+02 -0.31356509337E+02  0.20053619275E+03  0.24343298420E+03  0.12509125639E+03 0.  0.
         23    2    1    2    0    0  0.49130439535E+02  0.31356509337E+02 -0.19901368911E+02  0.11064684033E+03  0.91921858242E+02 0.  0.
          5    1    3    3  502    0 -0.73352964991E+02  0.10657974176E+02  0.62435295888E+02  0.97004579578E+02  0.41800000000E+01 0. -1.
         -5    1    3    3    0  502  0.24222525456E+02 -0.42014483513E+02  0.13810089686E+03  0.14642840462E+03  0.41800000000E+01 0. -1.
        -11    1    4    4    0    0  0.76213381546E+02  0.19001567462E+02 -0.95229784328E+01  0.79121591307E+02  0.00000000000E+00 0. -1.
         11    1    4    4    0    0 -0.27082942011E+02  0.12354941875E+02 -0.10378390478E+02  0.31525249018E+02  0.00000000000E+00 0.  1.
</event>
<event>
 8    1  0.3541538E-009  0.8673650E+02  0.7561462E-02  0.1310953E+00
         -2   -1    0    0    0  501 -0.00000000000E+00  0.00000000000E+00  0.13267563366E+03  0.13267563366E+03  0.00000000000E+00 0. -1.
          2   -1    0    0  501    0  0.00000000000E+00 -0.00000000000E+00 -0.13879546052E+03  0.13879546052E+03  0.00000000000E+00 0.  1.
         25    2    1    2    0    0 -0.54804515109E+02 -0.45373836215E+02 -0.44212735984E+02  0.15055151600E+03  0.12509465639E+03 0.  0.
         23    2    1    2    0    0  0.54804515109E+02  0.45373836215E+02  0.38092909126E+02  0.12091957818E+03  0.90045292898E+02 0.  0.
          5    1    3    3  502    0 -0.37314126527E+02 -0.51007036965E+02 -0.84776942038E+02  0.10582374100E+03  0.41800000000E+01 0. -1.
         -5    1    3    3    0  502 -0.17490388582E+02  0.56332007503E+01  0.40564206054E+02  0.44727774998E+02  0.41800000000E+01 0. -1.
        -11    1    4    4    0    0 -0.11384597872E+02  0.63800978455E+00 -0.19393445992E+02  0.22497152545E+02  0.00000000000E+00 0.  1.
         11    1    4    4    0    0  0.66189112981E+02  0.44735826430E+02  0.57486355118E+02  0.98422425638E+02  0.00000000000E+00 0. -1.
</event>
<event>
 8    1  0.3541538E-009  0.1473579E+03  0.7561462E-02  0.1203758E+00
         -1   -1    0    0    0  501 -0.00000000000E+00  0.00000000000E+00  0.72612084741E+03  0.72612084741E+03  0.00000000000E+00 0.  1.
          1   -1    0    0  501    0  0.00000000000E+00 -0.00000000000E+00 -0.46802944931E+02  0.46802944931E+02  0.00000000000E+00 0. -1.
         25    2    1    2    0    0  0.91697980623E+02  0.78062798925E+02  0.55464431654E+03  0.58118791290E+03  0.12508697777E+03 0.  0.
         23    2    1    2    0    0 -0.91697980623E+02 -0.78062798925E+02  0.12467358594E+03  0.19173587944E+03  0.81956233488E+02 0.  0.
          5    1    3    3  502    0  0.85064100252E+02  0.13346129837E+02  0.44783100244E+03  0.45605273761E+03  0.41800000000E+01 0.  1.
         -5    1    3    3    0  502  0.66338803710E+01  0.64716669087E+02  0.10681331409E+03  0.12513517529E+03  0.41800000000E+01 0.  1.
        -11    1    4    4    0    0  0.13660443547E+02 -0.16009255134E+02  0.32043309432E+02  0.38336374987E+02  0.00000000000E+00 0.  1.
         11    1    4    4    0    0 -0.10535842417E+03 -0.62053543791E+02  0.92630276509E+02  0.15339950445E+03  0.00000000000E+00 0. -1.
</event>
<event>
 8    1  0.3541538E-009  0.1038609E+03  0.7561462E-02  0.1272380E+00
         -1   -1    0    0    0  501 -0.00000000000E+00  0.00000000000E+00  0.22679100015E+03  0.22679100015E+03  0.00000000000E+00 0.  1.
          1   -1    0    0  501    0  0.00000000000E+00 -0.00000000000E+00 -0.58356278038E+02  0.58356278038E+02  0.00000000000E+00 0. -1.
         25    2    1    2    0    0 -0.52022592855E+01 -0.23395796598E+02  0.54764918275E+02  0.13863770382E+03  0.12508712902E+03 0.  0.
         23    2    1    2    0    0  0.52022592855E+01  0.23395796598E+02  0.11366980384E+03  0.14650957437E+03  0.89273760288E+02 0.  0.
          5    1    3    3  502    0  0.54282338931E+02 -0.37250998195E+02  0.32037244618E+02  0.73335302748E+02  0.41800000000E+01 0.  1.
         -5    1    3    3    0  502 -0.59484598217E+02  0.13855201598E+02  0.22727673658E+02  0.65302401075E+02  0.41800000000E+01 0.  1.
        -11    1    4    4    0    0 -0.17164400453E+02  0.45779491408E+02  0.30751109228E+02  0.57758195914E+02  0.00000000000E+00 0. -1.
         11    1    4    4    0    0  0.22366659738E+02 -0.22383694811E+02  0.82918694609E+02  0.88751378451E+02  0.00000000000E+00 0.  1.
</event>
<event>
 8    1  0.3541538E-009  0.1197013E+03  0.7561462E-02  0.1243591E+00
          4   -1    0    0  501    0  0.00000000000E+00  0.00000000000E+00  0.89029659803E+03  0.89029659803E+03  0.00000000000E+00 0. -1.
         -4   -1    0    0    0  501 -0.00000000000E+00 -0.00000000000E+00 -0.16823077396E+02  0.16823077396E+02  0.00000000000E+00 0.  1.
         25    2    1    2    0    0  0.27406843915E+01 -0.50670698211E+02  0.39932192839E+03  0.42152135497E+03  0.12508884521E+03 0.  0.
         23    2    1    2    0    0 -0.27406843915E+01  0.50670698211E+02  0.47415159224E+03  0.48559832045E+03  0.91711315507E+02 0.  0.
          5    1    3    3  502    0 -0.61115766548E+01 -0.92009466002E+02  0.28392652197E+03  0.29855457705E+03  0.41800000000E+01 0.  1.
         -5    1    3    3    0  502  0.88522610464E+01  0.41338767791E+02  0.11539540642E+03  0.12296677792E+03  0.41800000000E+01 0.  1.
        -11    1    4    4    0    0  0.42002399380E+02  0.79447099602E+01  0.17915354271E+03  0.18418282177E+03  0.00000000000E+00 0.  1.
         11    1    4    4    0    0 -0.44743083771E+02  0.42725988250E+02  0.29499804953E+03  0.30141549867E+03  0.00000000000E+00 0. -1.
</event>
<event>
 8    1  0.3541538E-009  0.8233944E+02  0.7561462E-02  0.1322541E+00
         -2   -1    0    0    0  501 -0.00000000000E+00  0.00000000000E+00  0.11076260937E+03  0.11076260937E+03  0.00000000000E+00 0.  1.
          2   -1    0    0  501    0  0.00000000000E+00 -0.00000000000E+00 -0.11377828743E+03  0.11377828743E+03  0.00000000000E+00 0. -1.
         25    2    1    2    0    0  0.19930390155E+02 -0.12710515645E+02 -0.21090409529E+02  0.12903058211E+03  0.12508120597E+03 0.  0.
         23    2    1    2    0    0 -0.19930390155E+02  0.12710515645E+02  0.18074731478E+02  0.95510314689E+02  0.90756523921E+02 0.  0.
          5    1    3    3  502    0  0.36596536243E+02  0.14091098590E+02 -0.64256646880E+02  0.75393995734E+02  0.41800000000E+01 0.  1.
         -5    1    3    3    0  502 -0.16666146088E+02 -0.26801614235E+02  0.43166237351E+02  0.53636586376E+02  0.41800000000E+01 0.  1.
        -11    1    4    4    0    0 -0.53092501782E+02  0.24147224878E+02  0.15427932769E+02  0.60331777069E+02  0.00000000000E+00 0.  1.
         11    1    4    4    0    0  0.33162111627E+02 -0.11436709233E+02  0.26467987093E+01  0.35178537620E+02  0.00000000000E+00 0. -1.
</event>
<event>
 8    1  0.3541538E-009  0.9749628E+02  0.7561462E-02  0.1285651E+00
          2   -1    0    0  501    0  0.00000000000E+00  0.00000000000E+00  0.52572551978E+03  0.52572551978E+03  0.00000000000E+00 0. -1.
         -2   -1    0    0    0  501 -0.00000000000E+00 -0.00000000000E+00 -0.37235352545E+02  0.37235352545E+02  0.00000000000E+00 0.  1.
         25    2    1    2    0    0  0.58916842554E+02  0.20048335807E+02  0.36757701153E+03  0.39323907935E+03  0.12510389291E+03 0.  0.
         23    2    1    2    0    0 -0.58916842554E+02 -0.20048335807E+02  0.12091315571E+03  0.16972179297E+03  0.10154981872E+03 0.  0.
          5    1    3    3  502    0  0.48302992801E+02 -0.33031618642E+02  0.30411715504E+03  0.30972404385E+03  0.41800000000E+01 0.  1.
         -5    1    3    3    0  502  0.10613849753E+02  0.53079954449E+02  0.63459856484E+02  0.83515035508E+02  0.41800000000E+01 0.  1.
        -11    1    4    4    0    0 -0.15209493327E+02 -0.33093904689E+02  0.11858229215E+03  0.12404956762E+03  0.00000000000E+00 0. -1.
         11    1    4    4    0    0 -0.43707349227E+02  0.13045568882E+02  0.23308635583E+01  0.45672225355E+02  0.00000000000E+00 0.  1.
</event>
<event>
 8    1  0.3541538E-009  0.1362922E+03  0.7561462E-02  0.1218407E+00
         -1   -1    0    0    0  501 -0.00000000000E+00  0.00000000000E+00  0.62569487945E+02  0.62569487945E+02  0.00000000000E+00 0.  1.
          1   -1    0    0  501    0  0.00000000000E+00 -0.00000000000E+00 -0.33198009755E+03  0.33198009755E+03  0.00000000000E+00 0. -1.
         25    2    1    2    0    0 -0.74096376275E+02  0.41591107582E+02 -0.20243425078E+03  0.25268075505E+03  0.12509134612E+03 0.  0.
         23    2    1    2    0    0  0.74096376275E+02 -0.41591107582E+02 -0.66976358828E+02  0.14186883045E+03  0.91765130661E+02 0.  0.
          5    1    3    3  502    0 -0.10668395404E+03  0.12913936898E+02 -0.14742024501E+03  0.18247859287E+03  0.41800000000E+01 0.  1.
         -5    1    3    3    0  502  0.32587577769E+02  0.28677170685E+02 -0.55014005770E+02  0.70202162176E+02  0.41800000000E+01 0.  1.
        -11    1    4    4    0    0  0.47504706337E+02 -0.68655883465E+02 -0.61137112857E+02  0.10347982425E+03  0.00000000000E+00 0. -1.
         11    1    4    4    0    0  0.26591669938E+02  0.27064775883E+02 -0.58392459718E+01  0.38389006202E+02  0.00000000000E+00 0.  1.
</event>
<event>
 8    1  0.3541538E-009  0.1481338E+03  0.7561462E-02  0.1202785E+00
         -1   -1    0    0    0  501 -0.00000000000E+00  0.00000000000E+00  0.21163182936E+02  0.21163182936E+02  0.00000000000E+00 0.  1.
          1   -1    0    0  501    0  0.00000000000E+00 -0.00000000000E+00 -0.16018571707E+04  0.16018571707E+04  0.00000000000E+00 0. -1.
         25    2    1    2    0    0 -0.11498171592E+03  0.19171066645E+02 -0.12107973155E+04  0.12228103847E+04  0.12508706148E+03 0.  0.
         23    2    1    2    0    0  0.11498171592E+03 -0.19171066645E+02 -0.36989667225E+03  0.40020996891E+03  0.98773206280E+02 0.  0.
          5    1    3    3  502    0 -0.12811672012E+03  0.30051433727E+02 -0.11802838961E+04  0.11876045346E+04  0.41800000000E+01 0. -1.
         -5    1    3    3    0  502  0.13135004201E+02 -0.10880367082E+02 -0.30513419342E+02  0.35205850126E+02  0.41800000000E+01 0. -1.
        -11    1    4    4    0    0  0.99504992395E+02 -0.50882461823E+02 -0.22699076385E+03  0.25301200625E+03  0.00000000000E+00 0.  1.
         11    1    4    4    0    0  0.15476723523E+02  0.31711395178E+02 -0.14290590840E+03  0.14719796266E+03  0.00000000000E+00 0. -1.
</event>
<event>
 8    1  0.3541538E-009  0.9637151E+02  0.7561462E-02  0.1288117E+00
         -2   -1    0    0    0  501 -0.00000000000E+00  0.00000000000E+00  0.28620108904E+02  0.28620108904E+02  0.00000000000E+00 0.  1.
          2   -1    0    0  501    0  0.00000000000E+00 -0.00000000000E+00 -0.43768646171E+03  0.43768646171E+03  0.00000000000E+00 0. -1.
         25    2    1    2    0    0  0.24093121844E+02  0.48154420082E-01 -0.26136733903E+03  0.29076144743E+03  0.12509537385E+03 0.  0.
         23    2    1    2    0    0 -0.24093121844E+02 -0.48154420082E-01 -0.14769901377E+03  0.17554512318E+03  0.91763885952E+02 0.  0.
          5    1    3    3  502    0 -0.31301424973E+02 -0.32643790122E+02 -0.41091865000E+02  0.61248755155E+02  0.41800000000E+01 0.  1.
         -5    1    3    3    0  502  0.55394546817E+02  0.32691944542E+02 -0.22027547403E+03  0.22951269228E+03  0.41800000000E+01 0.  1.
        -11    1    4    4    0    0 -0.41920249454E+02 -0.27499098416E+02 -0.12769610086E+03  0.13718528312E+03  0.00000000000E+00 0. -1.
         11    1    4    4    0    0  0.17827127609E+02  0.27450943996E+02 -0.20002912906E+02  0.38359840064E+02  0.00000000000E+00 0.  1.
</event>
<event>
 8    1  0.3541538E-009  0.2061019E+03  0.7561462E-02  0.1144691E+00
          1   -1    0    0  501    0  0.00000000000E+00  0.00000000000E+00  0.11591045517E+04  0.11591045517E+04  0.00000000000E+00 0. -1.
         -1   -1    0    0    0  501 -0.00000000000E+00 -0.00000000000E+00 -0.39926800409E+02  0.39926800409E+02  0.00000000000E+00 0.  1.
         25    2    1    2    0    0  0.35935199143E+02 -0.18038356931E+03  0.64469465495E+03  0.68198887213E+03  0.12509217792E+03 0.  0.
         23    2    1    2    0    0 -0.35935199143E+02  0.18038356931E+03  0.47448309639E+03  0.51704248002E+03  0.91483040932E+02 0.  0.
          5    1    3    3  502    0  0.76966412153E+02 -0.15543174102E+03  0.52623292428E+03  0.55409513417E+03  0.41800000000E+01 0.  1.
         -5    1    3    3    0  502 -0.41031213010E+02 -0.24951828291E+02  0.11846173067E+03  0.12789373796E+03  0.41800000000E+01 0.  1.
        -11    1    4    4    0    0  0.12039223327E+02  0.53924714232E+02  0.24064143158E+03  0.24690305040E+03  0.00000000000E+00 0. -1.
         11    1    4    4    0    0 -0.47974422470E+02  0.12645885508E+03  0.23384166481E+03  0.27013942963E+03  0.00000000000E+00 0.  1.
</event>
<event>
 8    1  0.3541538E-009  0.1614791E+03  0.7561462E-02  0.1187037E+00
          2   -1    0    0  501    0  0.00000000000E+00  0.00000000000E+00  0.82433558712E+02  0.82433558712E+02  0.00000000000E+00 0. -1.
         -2   -1    0    0    0  501 -0.00000000000E+00 -0.00000000000E+00 -0.50091580775E+03  0.50091580775E+03  0.00000000000E+00 0.  1.
         25    2    1    2    0    0  0.79561399287E+02  0.12630862897E+03 -0.33778311146E+03  0.38990809762E+03  0.12508800179E+03 0.  0.
         23    2    1    2    0    0 -0.79561399287E+02 -0.12630862897E+03 -0.80699137573E+02  0.19344126884E+03  0.92861658803E+02 0.  0.
          5    1    3    3  502    0 -0.23320241820E+01  0.45568775602E+02 -0.16603962679E+02  0.48735157979E+02  0.41800000000E+01 0. -1.
         -5    1    3    3    0  502  0.81893423469E+02  0.80739853371E+02 -0.32117914878E+03  0.34117293964E+03  0.41800000000E+01 0. -1.
        -11    1    4    4    0    0 -0.11454828562E+02  0.62358479344E+01  0.12182116578E+02  0.17846648457E+02  0.00000000000E+00 0. -1.
         11    1    4    4    0    0 -0.68106570725E+02 -0.13254447691E+03 -0.92881254151E+02  0.17559462038E+03  0.00000000000E+00 0.  1.
</event>
<event>
 8    1  0.3541538E-009  0.1120514E+03  0.7561462E-02  0.1256818E+00
          1   -1    0    0  501    0  0.00000000000E+00  0.00000000000E+00  0.55753828574E+03  0.55753828574E+03  0.00000000000E+00 0. -1.
         -1   -1    0    0    0  501 -0.00000000000E+00 -0.00000000000E+00 -0.35868072612E+02  0.35868072612E+02  0.00000000000E+00 0.  1.
         25    2    1    2    0    0  0.42042331515E-02  0.87173650131E+02  0.23217575530E+03  0.27776249515E+03  0.12508867682E+03 0.  0.
         23    2    1    2    0    0 -0.42042331515E-02 -0.87173650131E+02  0.28949445784E+03  0.31564386321E+03  0.90690473415E+02 0.  0.
          5    1    3    3  502    0  0.13863298786E+02  0.83062439464E+02  0.56617975691E+02  0.10156095448E+03  0.41800000000E+01 0. -1.
         -5    1    3    3    0  502 -0.13859094553E+02  0.41112106669E+01  0.17555777960E+03  0.17620154067E+03  0.41800000000E+01 0. -1.
        -11    1    4    4    0    0 -0.44054225931E+02 -0.33744200804E+02  0.14931885291E+03  0.15929709899E+03  0.00000000000E+00 0.  1.
         11    1    4    4    0    0  0.44050021698E+02 -0.53429449327E+02  0.14017560492E+03  0.15634676422E+03  0.00000000000E+00 0. -1.
</event>
<event>
 8    1  0.3541538E-009  0.2842097E+03  0.7561462E-02  0.1093412E+00
         -1   -1    0    0    0  501 -0.00000000000E+00  0.00000000000E+00  0.38248208707E+03  0.38248208707E+03  0.00000000000E+00 0.  1.
          1   -1    0    0  501    0  0.00000000000E+00 -0.00000000000E+00 -0.24559245743E+03  0.24559245743E+03  0.00000000000E+00 0. -1.
         25    2    1    2    0    0 -0.19252392220E+03 -0.19253199191E+03 -0.21387589834E+02  0.30039853516E+03  0.12509125629E+03 0.  0.
         23    2    1    2    0    0  0.19252392220E+03  0.19253199191E+03  0.15827721948E+03  0.32767600933E+03  0.90475744582E+02 0.  0.
          5    1    3    3  502    0 -0.80469626157E+02 -0.27492528015E+02 -0.50144012714E+02  0.98808371313E+02  0.41800000000E+01 0. -1.
         -5    1    3    3    0  502 -0.11205429605E+03 -0.16503946389E+03  0.28756422880E+02  0.20159016385E+03  0.41800000000E+01 0. -1.
        -11    1    4    4    0    0  0.40879508661E+02  0.29562103989E+01  0.68491542202E+01  0.41554594473E+02  0.00000000000E+00 0. -1.
         11    1    4    4    0    0  0.15164441354E+03  0.18957578151E+03  0.15142806526E+03  0.28612141486E+03  0.00000000000E+00 0.  1.
</event>
<event>
 8    1  0.3541538E-009  0.1204276E+03  0.7561462E-02  0.1242393E+00
         -1   -1    0    0    0  501 -0.00000000000E+00  0.00000000000E+00  0.26423190617E+03  0.26423190617E+03  0.00000000000E+00 0.  1.
          1   -1    0    0  501    0  0.00000000000E+00 -0.00000000000E+00 -0.67432599762E+02  0.67432599762E+02  0.00000000000E+00 0. -1.
         25    2    1    2    0    0  0.80773636950E+01  0.71506231026E+02  0.14186243687E+03  0.20235821888E+03  0.12508202459E+03 0.  0.
         23    2    1    2    0    0 -0.80773636950E+01 -0.71506231026E+02  0.54936869543E+02  0.12930628705E+03  0.92323731277E+02 0.  0.
          5    1    3    3  502    0 -0.51751820248E+02  0.59646127097E+02  0.10323317320E+03  0.13004027002E+03  0.41800000000E+01 0. -1.
         -5    1    3    3    0  502  0.59829183943E+02  0.11860103929E+02  0.38629263666E+02  0.72317948864E+02  0.41800000000E+01 0. -1.
        -11    1    4    4    0    0  0.31363839345E+02 -0.30673632661E+02  0.57682174198E+02  0.72469271966E+02  0.00000000000E+00 0.  1.
         11    1    4    4    0    0 -0.39441203040E+02 -0.40832598365E+02 -0.27453046548E+01  0.56837015088E+02  0.00000000000E+00 0. -1.
</event>
<event>
 8    1  0.3541538E-009  0.1090218E+03  0.7561462E-02  0.1262392E+00
         -1   -1    0    0    0  501 -0.00000000000E+00  0.00000000000E+00  0.18136286095E+03  0.18136286095E+03  0.00000000000E+00 0.  1.
          1   -1    0    0  501    0  0.00000000000E+00 -0.00000000000E+00 -0.15920436142E+03  0.15920436142E+03  0.00000000000E+00 0. -1.
         25    2    1    2    0    0 -0.22324313891E+02  0.87349193830E+02  0.10602723180E+03  0.18713275154E+03  0.12509450892E+03 0.  0.
         23    2    1    2    0    0  0.22324313891E+02 -0.87349193830E+02 -0.83868732270E+02  0.15343447083E+03  0.91541880752E+02 0.  0.
          5    1    3    3  502    0 -0.82999447414E+01  0.42420014824E+02  0.12789438440E+03  0.13506588282E+03  0.41800000000E+01 0.  1.
         -5    1    3    3    0  502 -0.14024369150E+02  0.44929179006E+02 -0.21867152596E+02  0.52066868726E+02  0.41800000000E+01 0.  1.
        -11    1    4    4    0    0 -0.31490385121E+02 -0.98136409776E+01 -0.13195572303E+02  0.35525695387E+02  0.00000000000E+00 0.  1.
         11    1    4    4    0    0  0.53814699012E+02 -0.77535552852E+02 -0.70673159967E+02  0.11790877544E+03  0.00000000000E+00 0. -1.
</event>
<event>
 8    1  0.3541538E-009  0.1865883E+03  0.7561462E-02  0.1161575E+00
          2   -1    0    0  501    0  0.00000000000E+00  0.00000000000E+00  0.13417215296E+04  0.13417215296E+04  0.00000000000E+00 0. -1.
         -2   -1    0    0    0  501 -0.00000000000E+00 -0.00000000000E+00 -0.31661462465E+02  0.31661462465E+02  0.00000000000E+00 0.  1.
         25    2    1    2    0    0 -0.16514686502E+03 -0.54149535241E+02  0.73618263527E+03  0.76669317856E+03  0.12509156000E+03 0.  0.
         23    2    1    2    0    0  0.16514686502E+03  0.54149535241E+02  0.57387743187E+03  0.60668981352E+03  0.92366464779E+02 0.  0.
          5    1    3    3  502    0 -0.10619500136E+03 -0.13630486185E+02  0.21101973120E+03  0.23666425126E+03  0.41800000000E+01 0. -1.
         -5    1    3    3    0  502 -0.58951863658E+02 -0.40519049056E+02  0.52516290407E+03  0.53002892730E+03  0.41800000000E+01 0. -1.
        -11    1    4    4    0    0  0.71891674207E+02 -0.20680150861E+02  0.26891093543E+03  0.27912214648E+03  0.00000000000E+00 0. -1.
         11    1    4    4    0    0  0.93255190811E+02  0.74829686102E+02  0.30496649644E+03  0.32756766704E+03  0.00000000000E+00 0.  1.
</event>
<event>
 8    1  0.3541538E-009  0.1264777E+03  0.7561462E-02  0.1232778E+00
         -2   -1    0    0    0  501 -0.00000000000E+00  0.00000000000E+00  0.12329756079E+03  0.12329756079E+03  0.00000000000E+00 0.  1.
          2   -1    0    0  501    0  0.00000000000E+00 -0.00000000000E+00 -0.21286125779E+03  0.21286125779E+03  0.00000000000E+00 0. -1.
         25    2    1    2    0    0 -0.10468793642E+03 -0.70270294373E+00 -0.10845561664E+03  0.19588334221E+03  0.12509038792E+03 0.  0.
         23    2    1    2    0    0  0.10468793642E+03  0.70270294373E+00  0.18891919644E+02  0.14027547637E+03  0.91434385323E+02 0.  0.
          5    1    3    3  502    0 -0.24320660481E+02  0.46338461481E+02  0.48918037943E+00  0.52501992687E+02  0.41800000000E+01 0. -1.
         -5    1    3    3    0  502 -0.80367275943E+02 -0.47041164425E+02 -0.10894479702E+03  0.14338134952E+03  0.41800000000E+01 0. -1.
        -11    1    4    4    0    0  0.74176327623E+02 -0.10123936851E+02  0.54159705306E+02  0.92400732442E+02  0.00000000000E+00 0.  1.
         11    1    4    4    0    0  0.30511608801E+02  0.10826639795E+02 -0.35267785662E+02  0.47874743930E+02  0.00000000000E+00 0. -1.
</event>
<event>
 8    1  0.3541538E-009  0.1089140E+03  0.7561462E-02  0.1262594E+00
         -2   -1    0    0    0  501 -0.00000000000E+00  0.00000000000E+00  0.62004030260E+02  0.62004030260E+02  0.00000000000E+00 0.  1.
          2   -1    0    0  501    0  0.00000000000E+00 -0.00000000000E+00 -0.20319432051E+03  0.20319432051E+03  0.00000000000E+00 0. -1.
         25    2    1    2    0    0 -0.86277040947E+01  0.24043674971E+02 -0.59697488656E+02  0.14093916256E+03  0.12509005479E+03 0.  0.
         23    2    1    2    0    0  0.86277040947E+01 -0.24043674971E+02 -0.81492801597E+02  0.12425918821E+03  0.90259257466E+02 0.  0.
          5    1    3    3  502    0 -0.38617635984E+02  0.65144726204E+02 -0.43215660575E+02  0.87293887988E+02  0.41800000000E+01 0. -1.
         -5    1    3    3    0  502  0.29989931889E+02 -0.41101051234E+02 -0.16481828082E+02  0.53645274574E+02  0.41800000000E+01 0. -1.
        -11    1    4    4    0    0  0.30041171862E+02  0.23922410171E+02 -0.19713390305E+02  0.43166786683E+02  0.00000000000E+00 0.  1.
         11    1    4    4    0    0 -0.21413467767E+02 -0.47966085142E+02 -0.61779411293E+02  0.81092401527E+02  0.00000000000E+00 0. -1.
</event>
<event>
 8    1  0.3541538E-009  0.1611711E+03  0.7561462E-02  0.1187381E+00
          1   -1    0    0  501    0  0.00000000000E+00  0.00000000000E+00  0.13865644674E+03  0.13865644674E+03  0.00000000000E+00 0. -1.
         -1   -1    0    0    0  501 -0.00000000000E+00 -0.00000000000E+00 -0.30023150942E+03  0.30023150942E+03  0.00000000000E+00 0.  1.
         25    2    1    2    0    0  0.37544542830E+02  0.13264896771E+03 -0.19703715657E+03  0.27106514928E+03  0.12508929912E+03 0.  0.
         23    2    1    2    0    0 -0.37544542830E+02 -0.13264896771E+03  0.35462093901E+02  0.16782280688E+03  0.88890905457E+02 0.  0.
          5    1    3    3  502    0  0.21548236488E+02 -0.14336257850E+02 -0.74533915551E+02  0.79010326871E+02  0.41800000000E+01 0.  1.
         -5    1    3    3    0  502  0.15996306342E+02  0.14698522556E+03 -0.12250324102E+03  0.19205482241E+03  0.41800000000E+01 0.  1.
        -11    1    4    4    0    0  0.11696799321E+00 -0.94864673335E+02 -0.12997243348E+02  0.95750970037E+02  0.00000000000E+00 0.  1.
         11    1    4    4    0    0 -0.37661510823E+02 -0.37784294380E+02  0.48459337248E+02  0.72071836842E+02  0.00000000000E+00 0. -1.
</event>
<event>
 8    1  0.3541538E-009  0.1292208E+03  0.7561462E-02  0.1228617E+00
          2   -1    0    0  501    0  0.00000000000E+00  0.00000000000E+00  0.41201654108E+02  0.41201654108E+02  0.00000000000E+00 0. -1.
         -2   -1    0    0    0  501 -0.00000000000E+00 -0.00000000000E+00 -0.50833424329E+03  0.50833424329E+03  0.00000000000E+00 0.  1.
         25    2    1    2    0    0  0.85754847002E+02  0.12924646453E+02 -0.17102820251E+03  0.22895029107E+03  0.12508656785E+03 0.  0.
         23    2    1    2    0    0 -0.85754847002E+02 -0.12924646453E+02 -0.29610438667E+03  0.32058560633E+03  0.87042420169E+02 0.  0.
          5    1    3    3  502    0 -0.14620710641E+02 -0.33636411731E+02 -0.20948015150E+02  0.42443669876E+02  0.41800000000E+01 0. -1.
         -5    1    3    3    0  502  0.10037555764E+03  0.46561058184E+02 -0.15008018736E+03  0.18650662120E+03  0.41800000000E+01 0. -1.
        -11    1    4    4    0    0 -0.84880005143E+02 -0.32732384297E+02 -0.28184572629E+03  0.29616386965E+03  0.00000000000E+00 0.  1.
         11    1    4    4    0    0 -0.87484185846E+00  0.19807737844E+02 -0.14258660380E+02  0.24421736683E+02  0.00000000000E+00 0. -1.
</event>
<event>
 8    1  0.3541538E-009  0.1207343E+03  0.7561462E-02  0.1241891E+00
          1   -1    0    0  501    0  0.00000000000E+00  0.00000000000E+00  0.32558659247E+03  0.32558659247E+03  0.00000000000E+00 0. -1.
         -1   -1    0    0    0  501 -0.00000000000E+00 -0.00000000000E+00 -0.75744692947E+02  0.75744692947E+02  0.00000000000E+00 0.  1.
         25    2    1    2    0    0 -0.80799775763E+02  0.37448276812E+02  0.22407836627E+03  0.27164387063E+03  0.12509316936E+03 0.  0.
         23    2    1    2    0    0  0.80799775763E+02 -0.37448276812E+02  0.25763533245E+02  0.12968741478E+03  0.90686761478E+02 0.  0.
          5    1    3    3  502    0 -0.87494497408E+02 -0.20118790220E+01  0.21236880064E+03  0.22973313784E+03  0.41800000000E+01 0. -1.
         -5    1    3    3    0  502  0.66947216447E+01  0.39460155834E+02  0.11709565632E+02  0.41910732798E+02  0.41800000000E+01 0. -1.
        -11    1    4    4    0    0 -0.12926091107E+02 -0.86717220278E+01  0.27532040837E+02  0.31627454322E+02  0.00000000000E+00 0. -1.
         11    1    4    4    0    0  0.93725866870E+02 -0.28776554784E+02 -0.17685075917E+01  0.98059960458E+02  0.00000000000E+00 0.  1.
</event>
<event>
 8    1  0.3541538E-009  0.9354658E+02  0.7561462E-02  0.1294484E+00
          1   -1    0    0  501    0  0.00000000000E+00  0.00000000000E+00  0.54846494403E+03  0.54846494403E+03  0.00000000000E+00 0. -1.
         -1   -1    0    0    0  501 -0.00000000000E+00 -0.00000000000E+00 -0.32432176902E+02  0.32432176902E+02  0.00000000000E+00 0.  1.
         25    2    1    2    0    0 -0.26129567695E+02 -0.37025578534E+02  0.14859829451E+03  0.19945641742E+03  0.12509101305E+03 0.  0.
         23    2    1    2    0    0  0.26129567695E+02  0.37025578534E+02  0.36743447262E+03  0.38144070351E+03  0.91843730627E+02 0.  0.
          5    1    3    3  502    0 -0.46899984545E+02  0.68700555144E+01  0.50414510873E+01  0.47850755921E+02  0.41800000000E+01 0.  1.
         -5    1    3    3    0  502  0.20770416851E+02 -0.43895634049E+02  0.14355684343E+03  0.15160566150E+03  0.41800000000E+01 0.  1.
        -11    1    4    4    0    0 -0.15373978390E+02 -0.16817024009E+02  0.32592865577E+02  0.39767655130E+02  0.00000000000E+00 0.  1.
         11    1    4    4    0    0  0.41503546084E+02  0.53842602543E+02  0.33484160704E+03  0.34167304838E+03  0.00000000000E+00 0. -1.
</event>
<event>
 8    1  0.3541538E-009  0.1489604E+03  0.7561462E-02  0.1201756E+00
         -1   -1    0    0    0  501 -0.00000000000E+00  0.00000000000E+00  0.21346162281E+02  0.21346162281E+02  0.00000000000E+00 0.  1.
          1   -1    0    0  501    0  0.00000000000E+00 -0.00000000000E+00 -0.11349301757E+04  0.11349301757E+04  0.00000000000E+00 0. -1.
         25    2    1    2    0    0  0.10487354474E+03  0.11601570371E+02 -0.74243558157E+03  0.76025721618E+03  0.12508950857E+03 0.  0.
         23    2    1    2    0    0 -0.10487354474E+03 -0.11601570371E+02 -0.37114843181E+03  0.39601912176E+03  0.89145552570E+02 0.  0.
          5    1    3    3  502    0  0.32466982517E+02  0.63766126401E+02 -0.39929742864E+03  0.40567984020E+03  0.41800000000E+01 0. -1.
         -5    1    3    3    0  502  0.72406562223E+02 -0.52164556030E+02 -0.34313815293E+03  0.35457737598E+03  0.41800000000E+01 0. -1.
        -11    1    4    4    0    0 -0.33342421347E+02 -0.46576780471E+02 -0.18179361862E+03  0.19060438954E+03  0.00000000000E+00 0. -1.
         11    1    4    4    0    0 -0.71531123393E+02  0.34975210100E+02 -0.18935481319E+03  0.20541473222E+03  0.00000000000E+00 0.  1.
</event>
<event>
 8    1  0.3541538E-009  0.7225736E+02  0.7561462E-02  0.1352581E+00
          1   -1    0    0  501    0  0.00000000000E+00  0.00000000000E+00  0.73832960985E+02  0.73832960985E+02  0.00000000000E+00 0.  1.
         -1   -1    0    0    0  501 -0.00000000000E+00 -0.00000000000E+00 -0.17062852282E+03  0.17062852282E+03  0.00000000000E+00 0. -1.
         25    2    1    2    0    0 -0.24928461481E+02 -0.87866523481E+01 -0.68283485477E+02  0.14494459022E+03  0.12509063272E+03 0.  0.
         23    2    1    2    0    0  0.24928461481E+02  0.87866523481E+01 -0.28512076356E+02  0.99516893578E+02  0.91608079109E+02 0.  0.
          5    1    3    3  502    0 -0.26723505930E+02 -0.22228244388E+02  0.29717135267E+02  0.45921902685E+02  0.41800000000E+01 0. -1.
         -5    1    3    3    0  502  0.17950444487E+01  0.13441592040E+02 -0.98000620744E+02  0.99022687539E+02  0.41800000000E+01 0. -1.
        -11    1    4    4    0    0 -0.27736893231E+02 -0.21017247579E+02 -0.11634409986E+02  0.36693588508E+02  0.00000000000E+00 0. -1.
         11    1    4    4    0    0  0.52665354713E+02  0.29803899927E+02 -0.16877666370E+02  0.62823305070E+02  0.00000000000E+00 0.  1.
</event>
<event>
 8    1  0.3541538E-009  0.5951517E+02  0.7561462E-02  0.1399878E+00
         -1   -1    0    0    0  501 -0.00000000000E+00  0.00000000000E+00  0.58440256232E+02  0.58440256232E+02  0.00000000000E+00 0.  1.
          1   -1    0    0  501    0  0.00000000000E+00 -0.00000000000E+00 -0.24426331175E+03  0.24426331175E+03  0.00000000000E+00 0. -1.
         25    2    1    2    0    0  0.39088654023E+02  0.17806249171E+02 -0.81384962428E+02  0.15528776122E+03  0.12508313752E+03 0.  0.
         23    2    1    2    0    0 -0.39088654023E+02 -0.17806249171E+02 -0.10443809309E+03  0.14741580676E+03  0.94758215540E+02 0.  0.
          5    1    3    3  502    0 -0.22023033010E+01 -0.95320709267E+01  0.30801203716E+02  0.32586762134E+02  0.41800000000E+01 0. -1.
         -5    1    3    3    0  502  0.41290957323E+02  0.27338320098E+02 -0.11218616614E+03  0.12270099909E+03  0.41800000000E+01 0. -1.
        -11    1    4    4    0    0 -0.22084269098E+02 -0.30371106412E+02 -0.11696178678E+03  0.12284208812E+03  0.00000000000E+00 0. -1.
         11    1    4    4    0    0 -0.17004384924E+02  0.12564857241E+02  0.12523693694E+02  0.24573718641E+02  0.00000000000E+00 0.  1.
</event>
<event>
 8    1  0.3541538E-009  0.1127519E+03  0.7561462E-02  0.1255557E+00
          1   -1    0    0  501    0  0.00000000000E+00  0.00000000000E+00  0.85208536217E+02  0.85208536217E+02  0.00000000000E+00 0. -1.
         -1   -1    0    0    0  501 -0.00000000000E+00 -0.00000000000E+00 -0.19072713003E+03  0.19072713003E+03  0.00000000000E+00 0.  1.
         25    2    1    2    0    0  0.11455712452E+02  0.61576604117E+02 -0.68985929584E+02  0.15598114611E+03  0.12509255749E+03 0.  0.
         23    2    1    2    0    0 -0.11455712452E+02 -0.61576604117E+02 -0.36532664230E+02  0.11995452014E+03  0.95559090743E+02 0.  0.
          5    1    3    3  502    0  0.11130559386E+01 -0.35267162693E+02  0.16913665836E+01  0.35571685072E+02  0.41800000000E+01 0. -1.
         -5    1    3    3    0  502  0.10342656513E+02  0.96843766810E+02 -0.70677296168E+02  0.12040946104E+03  0.41800000000E+01 0. -1.
        -11    1    4    4    0    0  0.16079492787E+02 -0.62898460048E+02 -0.56380673826E+02  0.85985735711E+02  0.00000000000E+00 0. -1.
         11    1    4    4    0    0 -0.27535205239E+02  0.13218559307E+01  0.19848009596E+02  0.33968784428E+02  0.00000000000E+00 0.  1.
</event>
<event>
 8    1  0.3541538E-009  0.9765426E+02  0.7561462E-02  0.1285307E+00
          1   -1    0    0  501    0  0.00000000000E+00  0.00000000000E+00  0.30140810170E+03  0.30140810170E+03  0.00000000000E+00 0. -1.
         -1   -1    0    0    0  501 -0.00000000000E+00 -0.00000000000E+00 -0.56165043527E+02  0.56165043527E+02  0.00000000000E+00 0.  1.
         25    2    1    2    0    0 -0.37817528540E+02 -0.27536814107E+02  0.63485140742E+02  0.14787194884E+03  0.12508920243E+03 0.  0.
         23    2    1    2    0    0  0.37817528540E+02  0.27536814107E+02  0.18175791743E+03  0.20970119638E+03  0.93542555125E+02 0.  0.
          5    1    3    3  502    0  0.40459604478E+02  0.16087972471E+02  0.23503066304E+02  0.49655503002E+02  0.41800000000E+01 0. -1.
         -5    1    3    3    0  502 -0.78277133017E+02 -0.43624786578E+02  0.39982074438E+02  0.98216445841E+02  0.41800000000E+01 0. -1.
        -11    1    4    4    0    0  0.27378235090E+02  0.38158673616E+02  0.18783406976E+03  0.19361634717E+03  0.00000000000E+00 0. -1.
         11    1    4    4    0    0  0.10439293450E+02 -0.10621859509E+02 -0.60761523268E+01  0.16084849215E+02  0.00000000000E+00 0.  1.
</event>
<event>
 8    1  0.3541538E-009  0.1163114E+03  0.7561462E-02  0.1249309E+00
          1   -1    0    0  501    0  0.00000000000E+00  0.00000000000E+00  0.10319940646E+03  0.10319940646E+03  0.00000000000E+00 0. -1.
         -1   -1    0    0    0  501 -0.00000000000E+00 -0.00000000000E+00 -0.20008961794E+03  0.20008961794E+03  0.00000000000E+00 0.  1.
         25    2    1    2    0    0 -0.81403837201E+02  0.27932367710E+01 -0.99911542313E+02  0.17961933903E+03  0.12508558584E+03 0.  0.
         23    2    1    2    0    0  0.81403837201E+02 -0.27932367710E+01  0.30213308363E+01  0.12366968537E+03  0.93009009003E+02 0.  0.
          5    1    3    3  502    0 -0.98016615265E+02  0.41818607932E+02 -0.71070662961E+02  0.12815835662E+03  0.41800000000E+01 0.  1.
         -5    1    3    3    0  502  0.16612778064E+02 -0.39025371161E+02 -0.28840879352E+02  0.51460982414E+02  0.41800000000E+01 0.  1.
        -11    1    4    4    0    0  0.33962232323E+02 -0.99224876488E+01 -0.44022216068E+02  0.56478708316E+02  0.00000000000E+00 0.  1.
         11    1    4    4    0    0  0.47441604878E+02  0.71292508777E+01  0.47043546905E+02  0.67190977050E+02  0.00000000000E+00 0. -1.
</event>
<event>
 8    1  0.3541538E-009  0.9251967E+02  0.7561462E-02  0.1296862E+00
         -2   -1    0    0    0  501 -0.00000000000E+00  0.00000000000E+00  0.69637428439E+02  0.69637428439E+02  0.00000000000E+00 0. -1.
          2   -1    0    0  501    0  0.00000000000E+00 -0.00000000000E+00 -0.21223899180E+03  0.21223899180E+03  0.00000000000E+00 0.  1.
         25    2    1    2    0    0 -0.43675631439E+02 -0.23382564991E+02 -0.92693478740E+02  0.16338676239E+03  0.12509535561E+03 0.  0.
         23    2    1    2    0    0  0.43675631439E+02  0.23382564991E+02 -0.49908084620E+02  0.11848965785E+03  0.95366015853E+02 0.  0.
          5    1    3    3  502    0 -0.23447183452E+02 -0.64923093217E+02 -0.11827320233E+02  0.70157938600E+02  0.41800000000E+01 0. -1.
         -5    1    3    3    0  502 -0.20228447988E+02  0.41540528226E+02 -0.80866158508E+02  0.93228823789E+02  0.41800000000E+01 0. -1.
        -11    1    4    4    0    0  0.20180513154E+01  0.27553220231E+02  0.21976796174E+02  0.35302011930E+02  0.00000000000E+00 0. -1.
         11    1    4    4    0    0  0.41657580124E+02 -0.41706552398E+01 -0.71884880794E+02  0.83187645920E+02  0.00000000000E+00 0.  1.
</event>
<event>
 8    1  0.3541538E-009  0.9238887E+02  0.7561462E-02  0.1297168E+00
          1   -1    0    0  501    0  0.00000000000E+00  0.00000000000E+00  0.38429601420E+02  0.38429601420E+02  0.00000000000E+00 0. -1.
         -1   -1    0    0    0  501 -0.00000000000E+00 -0.00000000000E+00 -0.30871282785E+03  0.30871282785E+03  0.00000000000E+00 0.  1.
         25    2    1    2    0    0  0.12196385240E+02  0.24671261761E+01 -0.14404778205E+03  0.19118543625E+03  0.12508904428E+03 0.  0.
         23    2    1    2    0    0 -0.12196385240E+02 -0.24671261761E+01 -0.12623544438E+03  0.15595699302E+03  0.90732341134E+02 0.  0.
          5    1    3    3  502    0  0.23212714871E+02  0.55106905302E+02 -0.34713303963E+02  0.69268225151E+02  0.41800000000E+01 0. -1.
         -5    1    3    3    0  502 -0.11016329632E+02 -0.52639779125E+02 -0.10933447808E+03  0.12191721110E+03  0.41800000000E+01 0. -1.
        -11    1    4    4    0    0 -0.35188556664E+02 -0.21334257945E+02 -0.11818518658E+03  0.12514441022E+03  0.00000000000E+00 0.  1.
         11    1    4    4    0    0  0.22992171424E+02  0.18867131769E+02 -0.80502578040E+01  0.30812582798E+02  0.00000000000E+00 0. -1.
</event>
<event>
 8    1  0.3541538E-009  0.1157864E+03  0.7561462E-02  0.1250215E+00
          1   -1    0    0  501    0  0.00000000000E+00  0.00000000000E+00  0.23859742508E+03  0.23859742508E+03  0.00000000000E+00 0. -1.
         -1   -1    0    0    0  501 -0.00000000000E+00 -0.00000000000E+00 -0.67595221063E+02  0.67595221063E+02  0.00000000000E+00 0.  1.
         25    2    1    2    0    0  0.28384297694E+02  0.59380049151E+02  0.10209568608E+03  0.17436296473E+03  0.12508899137E+03 0.  0.
         23    2    1    2    0    0 -0.28384297694E+02 -0.59380049151E+02  0.68906517941E+02  0.13182968142E+03  0.91100483504E+02 0.  0.
          5    1    3    3  502    0 -0.39991719911E+02  0.59678146194E+02  0.42566250817E+02  0.83607277812E+02  0.41800000000E+01 0.  1.
         -5    1    3    3    0  502  0.68376017605E+02 -0.29809704312E+00  0.59529435263E+02  0.90755686919E+02  0.41800000000E+01 0.  1.
        -11    1    4    4    0    0 -0.64455981500E+01  0.13520358018E+02 -0.13124763726E+02  0.19914950146E+02  0.00000000000E+00 0.  1.
         11    1    4    4    0    0 -0.21938699544E+02 -0.72900407170E+02  0.82031281667E+02  0.11191473127E+03  0.00000000000E+00 0. -1.
</event>
<event>
 8    1  0.3541538E-009  0.7287409E+02  0.7561462E-02  0.1350584E+00
         -2   -1    0    0    0  501 -0.00000000000E+00  0.00000000000E+00  0.34973261056E+02  0.34973261056E+02  0.00000000000E+00 0.  1.
          2   -1    0    0  501    0  0.00000000000E+00 -0.00000000000E+00 -0.36308682769E+03  0.36308682769E+03  0.00000000000E+00 0. -1.
         25    2    1    2    0    0 -0.95006210736E+01 -0.10328393520E+02 -0.23641336427E+03  0.26783639109E+03  0.12509243011E+03 0.  0.
         23    2    1    2    0    0  0.95006210736E+01  0.10328393520E+02 -0.91700202358E+02  0.13022369766E+03  0.91391174658E+02 0.  0.
          5    1    3    3  502    0  0.15061155543E+02  0.12099845772E+02  0.78611307212E+01  0.21272387037E+02  0.41800000000E+01 0. -1.
         -5    1    3    3    0  502 -0.24561776617E+02 -0.22428239292E+02 -0.24427449500E+03  0.24656400405E+03  0.41800000000E+01 0. -1.
        -11    1    4    4    0    0 -0.37520472637E+02 -0.13334223752E+02 -0.38928918055E+02  0.55687054608E+02  0.00000000000E+00 0.  1.
         11    1    4    4    0    0  0.47021093711E+02  0.23662617272E+02 -0.52771284303E+02  0.74536643049E+02  0.00000000000E+00 0. -1.
</event>
<event>
 8    1  0.3541538E-009  0.1365807E+03  0.7561462E-02  0.1218005E+00
          1   -1    0    0  501    0  0.00000000000E+00  0.00000000000E+00  0.12790015745E+03  0.12790015745E+03  0.00000000000E+00 0. -1.
         -1   -1    0    0    0  501 -0.00000000000E+00 -0.00000000000E+00 -0.16796411222E+03  0.16796411222E+03  0.00000000000E+00 0.  1.
         25    2    1    2    0    0  0.86800201023E+02  0.29738981668E+02 -0.43206496947E+02  0.16103883863E+03  0.12509206305E+03 0.  0.
         23    2    1    2    0    0 -0.86800201023E+02 -0.29738981668E+02  0.31425421741E+01  0.13482543104E+03  0.98738742934E+02 0.  0.
          5    1    3    3  502    0  0.11146597692E+03  0.30337451598E+02 -0.54276992931E+01  0.11572362464E+03  0.41800000000E+01 0.  1.
         -5    1    3    3    0  502 -0.24665775893E+02 -0.59846992985E+00 -0.37778797654E+02  0.45315213989E+02  0.41800000000E+01 0.  1.
        -11    1    4    4    0    0 -0.68033825390E+02 -0.64045422630E+02 -0.90269377716E+01  0.93871737826E+02  0.00000000000E+00 0.  1.
         11    1    4    4    0    0 -0.18766375633E+02  0.34306440962E+02  0.12169479946E+02  0.40953693216E+02  0.00000000000E+00 0. -1.
</event>
<event>
 8    1  0.3541538E-009  0.1931923E+03  0.7561462E-02  0.1155613E+00
          2   -1    0    0  501    0  0.00000000000E+00  0.00000000000E+00  0.82828131402E+03  0.82828131402E+03  0.00000000000E+00 0. -1.
         -2   -1    0    0    0  501 -0.00000000000E+00 -0.00000000000E+00 -0.54528152656E+02  0.54528152656E+02  0.00000000000E+00 0.  1.
         25    2    1    2    0    0 -0.16607374084E+03 -0.65980408317E+02  0.49570103016E+03  0.54157277966E+03  0.12509061789E+03 0.  0.
         23    2    1    2    0    0  0.16607374084E+03  0.65980408317E+02  0.27805213120E+03  0.34123668701E+03  0.84826807214E+02 0.  0.
          5    1    3    3  502    0 -0.11055595621E+03  0.79748878737E+01  0.36449074761E+03  0.38099500756E+03  0.41800000000E+01 0. -1.
         -5    1    3    3    0  502 -0.55517784636E+02 -0.73955296191E+02  0.13121028255E+03  0.16057777210E+03  0.41800000000E+01 0. -1.
        -11    1    4    4    0    0  0.10370683627E+03  0.20522908902E+02  0.93251239767E+02  0.14096840567E+03  0.00000000000E+00 0.  1.
         11    1    4    4    0    0  0.62366904570E+02  0.45457499415E+02  0.18480089143E+03  0.20026828134E+03  0.00000000000E+00 0. -1.
</event>
<event>
 8    1  0.3541538E-009  0.1253692E+03  0.7561462E-02  0.1234493E+00
          1   -1    0    0  501    0  0.00000000000E+00  0.00000000000E+00  0.42366462244E+03  0.42366462244E+03  0.00000000000E+00 0. -1.
         -1   -1    0    0    0  501 -0.00000000000E+00 -0.00000000000E+00 -0.70887955118E+02  0.70887955118E+02  0.00000000000E+00 0.  1.
         25    2    1    2    0    0 -0.90056231069E+02 -0.39195772923E+02  0.56258257661E+02  0.16869498219E+03  0.12508625861E+03 0.  0.
         23    2    1    2    0    0  0.90056231069E+02  0.39195772923E+02  0.29651840966E+03  0.32585759537E+03  0.92809330463E+02 0.  0.
          5    1    3    3  502    0 -0.18864745127E+02 -0.41099145135E+02  0.81269670032E+02  0.93098066611E+02  0.41800000000E+01 0.  1.
         -5    1    3    3    0  502 -0.71191485942E+02  0.19033722118E+01 -0.25011412371E+02  0.75596915580E+02  0.41800000000E+01 0.  1.
        -11    1    4    4    0    0  0.18914411847E+02  0.57495267204E+02  0.11312049918E+03  0.12829539376E+03  0.00000000000E+00 0. -1.
         11    1    4    4    0    0  0.71141819222E+02 -0.18299494281E+02  0.18339791049E+03  0.19756220161E+03  0.00000000000E+00 0.  1.
</event>
<event>
 8    1  0.3541538E-009  0.1160301E+03  0.7561462E-02  0.1249794E+00
         -4   -1    0    0    0  501 -0.00000000000E+00  0.00000000000E+00  0.54996269401E+03  0.54996269401E+03  0.00000000000E+00 0.  1.
          4   -1    0    0  501    0  0.00000000000E+00 -0.00000000000E+00 -0.43386076975E+02  0.43386076975E+02  0.00000000000E+00 0. -1.
         25    2    1    2    0    0  0.91289628519E+02 -0.41490323730E+02  0.36173437044E+03  0.39566931142E+03  0.12508879249E+03 0.  0.
         23    2    1    2    0    0 -0.91289628519E+02  0.41490323730E+02  0.14484224660E+03  0.19767945957E+03  0.89680817880E+02 0.  0.
          5    1    3    3  502    0  0.28172419744E+02 -0.95544031603E+01  0.32125564961E+01  0.30211997174E+02  0.41800000000E+01 0. -1.
         -5    1    3    3    0  502  0.63117208775E+02 -0.31935920569E+02  0.35852181394E+03  0.36545731425E+03  0.41800000000E+01 0. -1.
        -11    1    4    4    0    0 -0.66678454061E+02 -0.16044513827E+02  0.97531946661E+02  0.11923054675E+03  0.00000000000E+00 0.  1.
         11    1    4    4    0    0 -0.24611174459E+02  0.57534837557E+02  0.47310299938E+02  0.78448912811E+02  0.00000000000E+00 0. -1.
</event>
<event>
 8    1  0.3541538E-009  0.1283825E+03  0.7561462E-02  0.1229876E+00
          2   -1    0    0  501    0  0.00000000000E+00  0.00000000000E+00  0.50551119392E+03  0.50551119392E+03  0.00000000000E+00 0. -1.
         -2   -1    0    0    0  501 -0.00000000000E+00 -0.00000000000E+00 -0.50787192817E+02  0.50787192817E+02  0.00000000000E+00 0.  1.
         25    2    1    2    0    0  0.91164984878E+02 -0.40940670574E+02  0.35212452108E+03  0.38681488715E+03  0.12508751175E+03 0.  0.
         23    2    1    2    0    0 -0.91164984878E+02  0.40940670574E+02  0.10259948002E+03  0.16948349959E+03  0.90613521938E+02 0.  0.
          5    1    3    3  502    0 -0.21934979766E+01  0.28681931108E+02  0.21219003895E+02  0.35988652820E+02  0.41800000000E+01 0.  1.
         -5    1    3    3    0  502  0.93358482854E+02 -0.69622601682E+02  0.33090551719E+03  0.35082623433E+03  0.41800000000E+01 0.  1.
        -11    1    4    4    0    0 -0.13976168468E+02  0.30137154968E+02 -0.80094818975E+01  0.34172111361E+02  0.00000000000E+00 0.  1.
         11    1    4    4    0    0 -0.77188816410E+02  0.10803515606E+02  0.11060896191E+03  0.13531138823E+03  0.00000000000E+00 0. -1.
</event>
<event>
 8    1  0.3541538E-009  0.9928349E+02  0.7561462E-02  0.1281810E+00
          3   -1    0    0  501    0  0.00000000000E+00  0.00000000000E+00  0.49754615228E+03  0.49754615228E+03  0.00000000000E+00 0. -1.
         -3   -1    0    0    0  501 -0.00000000000E+00 -0.00000000000E+00 -0.38027387428E+02  0.38027387428E+02  0.00000000000E+00 0.  1.
         25    2    1    2    0    0  0.44126756445E+02 -0.20529992055E+02  0.36640787556E+03  0.39021976842E+03  0.12509230668E+03 0.  0.
         23    2    1    2    0    0 -0.44126756445E+02  0.20529992055E+02  0.93110889299E+02  0.14535377129E+03  0.10044615430E+03 0.  0.
          5    1    3    3  502    0 -0.36030847103E+01 -0.38963566277E+02  0.28885936875E+02  0.48816098427E+02  0.41800000000E+01 0. -1.
         -5    1    3    3    0  502  0.47729841156E+02  0.18433574223E+02  0.33752193868E+03  0.34140367000E+03  0.41800000000E+01 0. -1.
        -11    1    4    4    0    0 -0.25459866395E+02 -0.38393859101E+02  0.58672598116E+02  0.74597365792E+02  0.00000000000E+00 0.  1.
         11    1    4    4    0    0 -0.18666890051E+02  0.58923851155E+02  0.34438291184E+02  0.70756405497E+02  0.00000000000E+00 0. -1.
</event>
<event>
 8    1  0.3541538E-009  0.1240750E+03  0.7561462E-02  0.1236522E+00
          1   -1    0    0  501    0  0.00000000000E+00  0.00000000000E+00  0.24970832708E+03  0.24970832708E+03  0.00000000000E+00 0. -1.
         -1   -1    0    0    0  501 -0.00000000000E+00 -0.00000000000E+00 -0.86950011315E+02  0.86950011315E+02  0.00000000000E+00 0.  1.
         25    2    1    2    0    0 -0.72083160999E+01 -0.93066047252E+02  0.50105848643E+02  0.16392509467E+03  0.12509033385E+03 0.  0.
         23    2    1    2    0    0  0.72083160999E+01  0.93066047252E+02  0.11265246712E+03  0.17273324372E+03  0.91831074070E+02 0.  0.
          5    1    3    3  502    0 -0.56854135681E+02 -0.87787365061E+02  0.43652347508E+02  0.11341081982E+03  0.41800000000E+01 0. -1.
         -5    1    3    3    0  502  0.49645819581E+02 -0.52786821908E+01  0.64535011354E+01  0.50514274858E+02  0.41800000000E+01 0. -1.
        -11    1    4    4    0    0  0.14434058354E+01  0.33751819543E+02 -0.10951268873E+02  0.35513364144E+02  0.00000000000E+00 0.  1.
         11    1    4    4    0    0  0.57649102645E+01  0.59314227709E+02  0.12360373599E+03  0.13721987957E+03  0.00000000000E+00 0. -1.
</event>
<event>
 8    1  0.3541538E-009  0.1308429E+03  0.7561462E-02  0.1226210E+00
          1   -1    0    0  501    0  0.00000000000E+00  0.00000000000E+00  0.30133311704E+02  0.30133311704E+02  0.00000000000E+00 0. -1.
         -1   -1    0    0    0  501 -0.00000000000E+00 -0.00000000000E+00 -0.84121827257E+03  0.84121827257E+03  0.00000000000E+00 0.  1.
         25    2    1    2    0    0  0.73137922943E+02 -0.12355861402E+01 -0.18805424092E+03  0.23740770659E+03  0.12508932478E+03 0.  0.
         23    2    1    2    0    0 -0.73137922943E+02  0.12355861402E+01 -0.62303071994E+03  0.63394387768E+03  0.91470648928E+02 0.  0.
          5    1    3    3  502    0  0.64829656682E+02 -0.58092438461E+02 -0.10798329122E+03  0.13876411415E+03  0.41800000000E+01 0. -1.
         -5    1    3    3    0  502  0.83082662612E+01  0.56856852321E+02 -0.80070949701E+02  0.98643592444E+02  0.41800000000E+01 0. -1.
        -11    1    4    4    0    0 -0.27115467479E+02  0.45565618364E+02 -0.30100622509E+03  0.30564067416E+03  0.00000000000E+00 0.  1.
         11    1    4    4    0    0 -0.46022455465E+02 -0.44330032224E+02 -0.32202449485E+03  0.32830320353E+03  0.00000000000E+00 0. -1.
</event>
<event>
 8    1  0.3541538E-009  0.9487731E+02  0.7561462E-02  0.1291453E+00
          1   -1    0    0  501    0  0.00000000000E+00  0.00000000000E+00  0.25863128659E+03  0.25863128659E+03  0.00000000000E+00 0. -1.
         -1   -1    0    0    0  501 -0.00000000000E+00 -0.00000000000E+00 -0.60948917912E+02  0.60948917912E+02  0.00000000000E+00 0.  1.
         25    2    1    2    0    0  0.15044174115E+02  0.58205258813E+02  0.12158005139E+03  0.18450671043E+03  0.12508732138E+03 0.  0.
         23    2    1    2    0    0 -0.15044174115E+02 -0.58205258813E+02  0.76102317291E+02  0.13507349408E+03  0.94016523954E+02 0.  0.
          5    1    3    3  502    0 -0.18576435839E+02  0.55782229218E+02  0.70141657900E+00  0.58946632221E+02  0.41800000000E+01 0. -1.
         -5    1    3    3    0  502  0.33620609954E+02  0.24230295954E+01  0.12087863481E+03  0.12556007821E+03  0.41800000000E+01 0. -1.
        -11    1    4    4    0    0 -0.31801147689E+02  0.43392076282E+01 -0.36980966396E+01  0.32308166706E+02  0.00000000000E+00 0.  1.
         11    1    4    4    0    0  0.16756973574E+02 -0.62544466441E+02  0.79800413931E+02  0.10276532737E+03  0.00000000000E+00 0. -1.
</event>
<event>
 8    1  0.3541538E-009  0.9246037E+02  0.7561462E-02  0.1297001E+00
         -1   -1    0    0    0  501 -0.00000000000E+00  0.00000000000E+00  0.86767290013E+02  0.86767290013E+02  0.00000000000E+00 0.  1.
          1   -1    0    0  501    0  0.00000000000E+00 -0.00000000000E+00 -0.19138305423E+03  0.19138305423E+03  0.00000000000E+00 0. -1.
         25    2    1    2    0    0  0.60030589949E+01 -0.17856367233E+02  0.13595706624E+02  0.12722522378E+03  0.12508608140E+03 0.  0.
         23    2    1    2    0    0 -0.60030589949E+01  0.17856367233E+02 -0.11821147084E+03  0.15092512046E+03  0.91921453319E+02 0.  0.
          5    1    3    3  502    0  0.54804869846E+02 -0.30774926203E+02  0.35193459197E+02  0.72157617836E+02  0.41800000000E+01 0. -1.
         -5    1    3    3    0  502 -0.48801810851E+02  0.12918558970E+02 -0.21597752574E+02  0.55067605944E+02  0.41800000000E+01 0. -1.
        -11    1    4    4    0    0  0.24327101271E+02  0.29980185849E+02 -0.11093426458E+03  0.11746076135E+03  0.00000000000E+00 0. -1.
         11    1    4    4    0    0 -0.30330160266E+02 -0.12123818616E+02 -0.72772062602E+01  0.33464359109E+02  0.00000000000E+00 0.  1.
</event>
<event>
 8    1  0.3541538E-009  0.1271322E+03  0.7561462E-02  0.1231774E+00
          2   -1    0    0  501    0  0.00000000000E+00  0.00000000000E+00  0.89364400325E+03  0.89364400325E+03  0.00000000000E+00 0. -1.
         -2   -1    0    0    0  501 -0.00000000000E+00 -0.00000000000E+00 -0.26362213006E+02  0.26362213006E+02  0.00000000000E+00 0.  1.
         25    2    1    2    0    0 -0.19063073975E+02  0.81841522104E+02  0.68011388501E+03  0.69660800078E+03  0.12508546936E+03 0.  0.
         23    2    1    2    0    0  0.19063073975E+02 -0.81841522104E+02  0.18716790523E+03  0.22339821547E+03  0.88394017876E+02 0.  0.
          5    1    3    3  502    0 -0.44946988037E+02  0.10509728885E+03  0.47933259076E+03  0.49279090578E+03  0.41800000000E+01 0. -1.
         -5    1    3    3    0  502  0.25883914062E+02 -0.23255766748E+02  0.20078129425E+03  0.20381709500E+03  0.41800000000E+01 0. -1.
        -11    1    4    4    0    0 -0.11129741828E+02 -0.72328867897E+02  0.67302434242E+02  0.99423105661E+02  0.00000000000E+00 0.  1.
         11    1    4    4    0    0  0.30192815803E+02 -0.95126542067E+01  0.11986547099E+03  0.12397510981E+03  0.00000000000E+00 0. -1.
</event>
<event>
 8    1  0.3541538E-009  0.1760900E+03  0.7561462E-02  0.1171642E+00
          2   -1    0    0  501    0  0.00000000000E+00  0.00000000000E+00  0.81796408817E+03  0.81796408817E+03  0.00000000000E+00 0.  1.
         -2   -1    0    0    0  501 -0.00000000000E+00 -0.00000000000E+00 -0.43326113330E+02  0.43326113330E+02  0.00000000000E+00 0. -1.
         25    2    1    2    0    0  0.14445521567E+03  0.43264942761E+02  0.34448219259E+03  0.39630134374E+03  0.12509040504E+03 0.  0.
         23    2    1    2    0    0 -0.14445521567E+03 -0.43264942761E+02  0.43015578225E+03  0.46498885776E+03  0.91877506657E+02 0.  0.
          5    1    3    3  502    0  0.94032567654E+02  0.71904953977E+02  0.13835534315E+03  0.18213214863E+03  0.41800000000E+01 0.  1.
         -5    1    3    3    0  502  0.50422648016E+02 -0.28640011215E+02  0.20612684944E+03  0.21416919512E+03  0.41800000000E+01 0.  1.
        -11    1    4    4    0    0 -0.15731051154E+03 -0.40576604656E+02  0.40904806567E+03  0.44012881969E+03  0.00000000000E+00 0.  1.
         11    1    4    4    0    0  0.12855295875E+02 -0.26883381056E+01  0.21107716575E+02  0.24860038070E+02  0.00000000000E+00 0. -1.
</event>
<event>
 8    1  0.3541538E-009  0.1262923E+03  0.7561462E-02  0.1233063E+00
          1   -1    0    0  501    0  0.00000000000E+00  0.00000000000E+00  0.43014060205E+03  0.43014060205E+03  0.00000000000E+00 0. -1.
         -1   -1    0    0    0  501 -0.00000000000E+00 -0.00000000000E+00 -0.60059211132E+02  0.60059211132E+02  0.00000000000E+00 0.  1.
         25    2    1    2    0    0  0.15891308461E+02  0.95411170081E+02  0.30191386227E+03  0.34081580437E+03  0.12509039617E+03 0.  0.
         23    2    1    2    0    0 -0.15891308461E+02 -0.95411170081E+02  0.68167528653E+02  0.14938400882E+03  0.91175353398E+02 0.  0.
          5    1    3    3  502    0 -0.35152587520E+02  0.27036757792E+01  0.22576788479E+02  0.42073721610E+02  0.41800000000E+01 0. -1.
         -5    1    3    3    0  502  0.51043895981E+02  0.92707494302E+02  0.27933707379E+03  0.29874208276E+03  0.41800000000E+01 0. -1.
        -11    1    4    4    0    0 -0.30080713094E+02 -0.91690835052E+02  0.19362800864E+02  0.98422439464E+02  0.00000000000E+00 0.  1.
         11    1    4    4    0    0  0.14189404633E+02 -0.37203350291E+01  0.48804727789E+02  0.50961569355E+02  0.00000000000E+00 0. -1.
</event>
<event>
 8    1  0.3541538E-009  0.1088194E+03  0.7561462E-02  0.1262772E+00
         -2   -1    0    0    0  501 -0.00000000000E+00  0.00000000000E+00  0.10591324350E+02  0.10591324350E+02  0.00000000000E+00 0.  1.
          2   -1    0    0  501    0  0.00000000000E+00 -0.00000000000E+00 -0.12630165022E+04  0.12630165022E+04  0.00000000000E+00 0. -1.
         25    2    1    2    0    0 -0.47614769881E+01 -0.37254334676E+02 -0.80078400945E+03  0.81136460122E+03  0.12508768605E+03 0.  0.
         23    2    1    2    0    0  0.47614769881E+01  0.37254334676E+02 -0.45164116839E+03  0.46224322532E+03  0.90986247625E+02 0.  0.
          5    1    3    3  502    0  0.53884529100E+02 -0.12431005915E+02 -0.54188972561E+03  0.54472012953E+03  0.41800000000E+01 0.  1.
         -5    1    3    3    0  502 -0.58646006088E+02 -0.24823328762E+02 -0.25889428383E+03  0.26664447169E+03  0.41800000000E+01 0.  1.
        -11    1    4    4    0    0 -0.40817523976E+02  0.22286372841E+01 -0.19647432240E+03  0.20068182890E+03  0.00000000000E+00 0.  1.
         11    1    4    4    0    0  0.45579000964E+02  0.35025697392E+02 -0.25516684598E+03  0.26156139642E+03  0.00000000000E+00 0. -1.
</event>
<event>
 8    1  0.3541538E-009  0.1147327E+03  0.7561462E-02  0.1252048E+00
          1   -1    0    0  501    0  0.00000000000E+00  0.00000000000E+00  0.13033715915E+03  0.13033715915E+03  0.00000000000E+00 0. -1.
         -1   -1    0    0    0  501 -0.00000000000E+00 -0.00000000000E+00 -0.10720343109E+03  0.10720343109E+03  0.00000000000E+00 0.  1.
         25    2    1    2    0    0 -0.26349846451E+02  0.36086122780E+02 -0.45413318769E+01  0.13290919136E+03  0.12509079417E+03 0.  0.
         23    2    1    2    0    0  0.26349846451E+02 -0.36086122780E+02  0.27675059933E+02  0.10463139888E+03  0.90472636879E+02 0.  0.
          5    1    3    3  502    0 -0.30746199874E+02 -0.41894698355E+02 -0.14368310172E+02  0.54077863254E+02  0.41800000000E+01 0. -1.
         -5    1    3    3    0  502  0.43963534231E+01  0.77980821135E+02  0.98269782955E+01  0.78831328105E+02  0.41800000000E+01 0. -1.
        -11    1    4    4    0    0  0.12253727421E+02  0.29545849177E+02  0.18300525219E+02  0.36851326470E+02  0.00000000000E+00 0.  1.
         11    1    4    4    0    0  0.14096119030E+02 -0.65631971957E+02  0.93745347139E+01  0.67780072409E+02  0.00000000000E+00 0. -1.
</event>
<event>
 8    1  0.3541538E-009  0.8450247E+02  0.7561462E-02  0.1316739E+00
          1   -1    0    0  501    0  0.00000000000E+00  0.00000000000E+00  0.39215283761E+03  0.39215283761E+03  0.00000000000E+00 0. -1.
         -1   -1    0    0    0  501 -0.00000000000E+00 -0.00000000000E+00 -0.43321270696E+02  0.43321270696E+02  0.00000000000E+00 0.  1.
         25    2    1    2    0    0  0.43128273291E+02 -0.40748859874E+02  0.12422924903E+03  0.18601338265E+03  0.12509018616E+03 0.  0.
         23    2    1    2    0    0 -0.43128273291E+02  0.40748859874E+02  0.22460231788E+03  0.24946072565E+03  0.90906187392E+02 0.  0.
          5    1    3    3  502    0  0.59752807937E+02 -0.37832095871E+02  0.11285694704E+02  0.71739144400E+02  0.41800000000E+01 0.  1.
         -5    1    3    3    0  502 -0.16624534646E+02 -0.29167640021E+01  0.11294355432E+03  0.11427423825E+03  0.41800000000E+01 0.  1.
        -11    1    4    4    0    0 -0.14794981699E+01 -0.12826193778E+02 -0.18648600108E+01  0.13045223821E+02  0.00000000000E+00 0.  1.
         11    1    4    4    0    0 -0.41648775121E+02  0.53575053652E+02  0.22646717789E+03  0.23641550183E+03  0.00000000000E+00 0. -1.
</event>
<event>
 8    1  0.3541538E-009  0.8695944E+02  0.7561462E-02  0.1310386E+00
         -2   -1    0    0    0  501 -0.00000000000E+00  0.00000000000E+00  0.10725116509E+03  0.10725116509E+03  0.00000000000E+00 0.  1.
          2   -1    0    0  501    0  0.00000000000E+00 -0.00000000000E+00 -0.15144851823E+03  0.15144851823E+03  0.00000000000E+00 0. -1.
         25    2    1    2    0    0  0.24961883815E+02 -0.29098362342E+02  0.31153457117E+02  0.13447666465E+03  0.12507447825E+03 0.  0.
         23    2    1    2    0    0 -0.24961883815E+02  0.29098362342E+02 -0.75350810255E+02  0.12422301868E+03  0.91015402151E+02 0.  0.
          5    1    3    3  502    0  0.35584803488E+02 -0.49595889778E+02  0.67571072758E+02  0.91155651476E+02  0.41800000000E+01 0.  1.
         -5    1    3    3    0  502 -0.10622919674E+02  0.20497527436E+02 -0.36417615642E+02  0.43321013174E+02  0.41800000000E+01 0.  1.
        -11    1    4    4    0    0 -0.49829872123E+02  0.38204228427E+02 -0.25491971609E+02  0.67767395125E+02  0.00000000000E+00 0. -1.
         11    1    4    4    0    0  0.24867988308E+02 -0.91058660848E+01 -0.49858838646E+02  0.56455623553E+02  0.00000000000E+00 0.  1.
</event>
<event>
 8    1  0.3541538E-009  0.8991688E+02  0.7561462E-02  0.1303053E+00
          2   -1    0    0  501    0  0.00000000000E+00  0.00000000000E+00  0.40657647588E+03  0.40657647588E+03  0.00000000000E+00 0. -1.
         -2   -1    0    0    0  501 -0.00000000000E+00 -0.00000000000E+00 -0.40924709307E+02  0.40924709307E+02  0.00000000000E+00 0.  1.
         25    2    1    2    0    0 -0.34007920581E+02 -0.57926209614E+02  0.18322753504E+03  0.23179959935E+03  0.12508693073E+03 0.  0.
         23    2    1    2    0    0  0.34007920581E+02  0.57926209614E+02  0.18242423153E+03  0.21570158584E+03  0.93469724837E+02 0.  0.
          5    1    3    3  502    0 -0.20621721085E+02 -0.32428417756E+02  0.19617642492E+03  0.19994879283E+03  0.41800000000E+01 0. -1.
         -5    1    3    3    0  502 -0.13386199496E+02 -0.25497791858E+02 -0.12948889883E+02  0.31850806517E+02  0.41800000000E+01 0. -1.
        -11    1    4    4    0    0  0.64725966138E+02  0.33814786965E+02  0.93959379210E+02  0.11900107332E+03  0.00000000000E+00 0. -1.
         11    1    4    4    0    0 -0.30718045557E+02  0.24111422650E+02  0.88464852323E+02  0.96700512520E+02  0.00000000000E+00 0.  1.
</event>
<event>
 8    1  0.3541538E-009  0.9159527E+02  0.7561462E-02  0.1299034E+00
         -1   -1    0    0    0  501 -0.00000000000E+00  0.00000000000E+00  0.41325652824E+02  0.41325652824E+02  0.00000000000E+00 0.  1.
          1   -1    0    0  501    0  0.00000000000E+00 -0.00000000000E+00 -0.37875177695E+03  0.37875177695E+03  0.00000000000E+00 0. -1.
         25    2    1    2    0    0  0.49324559191E+02 -0.14438777169E+02 -0.27710810218E+03  0.30834660961E+03  0.12508933184E+03 0.  0.
         23    2    1    2    0    0 -0.49324559191E+02  0.14438777169E+02 -0.60318021942E+02  0.11173082016E+03  0.78766248970E+02 0.  0.
          5    1    3    3  502    0  0.70080706333E+02  0.33118741858E+02 -0.20661085591E+03  0.22071174559E+03  0.41800000000E+01 0. -1.
         -5    1    3    3    0  502 -0.20756147142E+02 -0.47557519027E+02 -0.70497246276E+02  0.87634864025E+02  0.41800000000E+01 0. -1.
        -11    1    4    4    0    0 -0.12570135054E+02  0.10802267040E+02 -0.71298256516E+02  0.73199307720E+02  0.00000000000E+00 0. -1.
         11    1    4    4    0    0 -0.36754424136E+02  0.36365101290E+01  0.10980234573E+02  0.38531512438E+02  0.00000000000E+00 0.  1.
</event>
<event>
 8    1  0.3541538E-009  0.1027879E+03  0.7561462E-02  0.1274540E+00
          2   -1    0    0  501    0  0.00000000000E+00  0.00000000000E+00  0.36872815819E+03  0.36872815819E+03  0.00000000000E+00 0.  1.
         -2   -1    0    0    0  501 -0.00000000000E+00 -0.00000000000E+00 -0.70939715340E+02  0.70939715340E+02  0.00000000000E+00 0. -1.
         25    2    1    2    0    0 -0.53573445275E+02  0.48290339909E+02  0.28861029544E+03  0.32271613294E+03  0.12509088239E+03 0.  0.
         23    2    1    2    0    0  0.53573445275E+02 -0.48290339909E+02  0.91781474065E+01  0.11695174059E+03  0.91604586509E+02 0.  0.
          5    1    3    3  502    0  0.54697717606E+00  0.72940712300E+02  0.22004358185E+03  0.23185619899E+03  0.41800000000E+01 0. -1.
         -5    1    3    3    0  502 -0.54120422451E+02 -0.24650372391E+02  0.68566713588E+02  0.90859933951E+02  0.41800000000E+01 0. -1.
        -11    1    4    4    0    0  0.34995944572E+02 -0.24534134997E+02 -0.40471502698E+02  0.58860703760E+02  0.00000000000E+00 0. -1.
         11    1    4    4    0    0  0.18577500703E+02 -0.23756204912E+02  0.49649650105E+02  0.58091036827E+02  0.00000000000E+00 0.  1.
</event>
<event>
 8    1  0.3541538E-009  0.9006278E+02  0.7561462E-02  0.1302700E+00
         -1   -1    0    0    0  501 -0.00000000000E+00  0.00000000000E+00  0.33412920769E+03  0.33412920769E+03  0.00000000000E+00 0.  1.
          1   -1    0    0  501    0  0.00000000000E+00 -0.00000000000E+00 -0.67037634359E+02  0.67037634359E+02  0.00000000000E+00 0. -1.
         25    2    1    2    0    0 -0.16259729078E+01 -0.34628078854E+01  0.29005218795E+03  0.31589833689E+03  0.12508738022E+03 0.  0.
         23    2    1    2    0    0  0.16259729078E+01  0.34628078854E+01 -0.22960614621E+02  0.85268505155E+02  0.82029831899E+02 0.  0.
          5    1    3    3  502    0 -0.44189017530E+02 -0.28803977626E+02  0.23843348474E+03  0.24423418565E+03  0.41800000000E+01 0. -1.
         -5    1    3    3    0  502  0.42563044623E+02  0.25341169741E+02  0.51618703213E+02  0.71664151239E+02  0.41800000000E+01 0. -1.
        -11    1    4    4    0    0 -0.32174424680E+02 -0.18574112431E+02  0.30273334638E+01  0.37274066105E+02  0.00000000000E+00 0.  1.
         11    1    4    4    0    0  0.33800397588E+02  0.22036920316E+02 -0.25987948085E+02  0.47994439051E+02  0.00000000000E+00 0. -1.
</event>
<event>
 8    1  0.3541538E-009  0.9592542E+02  0.7561462E-02  0.1289105E+00
         -2   -1    0    0    0  501 -0.00000000000E+00  0.00000000000E+00  0.81828339152E+02  0.81828339152E+02  0.00000000000E+00 0.  1.
          2   -1    0    0  501    0  0.00000000000E+00 -0.00000000000E+00 -0.14987721150E+03  0.14987721150E+03  0.00000000000E+00 0. -1.
         25    2    1    2    0    0  0.21439163450E+02  0.15374355026E+02 -0.41408058775E+02  0.13437898216E+03  0.12508826880E+03 0.  0.
         23    2    1    2    0    0 -0.21439163450E+02 -0.15374355026E+02 -0.26640813575E+02  0.97326568499E+02  0.89814917836E+02 0.  0.
          5    1    3    3  502    0  0.68678834871E+02  0.26711231137E+02 -0.43317292073E+02  0.85581145240E+02  0.41800000000E+01 0.  1.
         -5    1    3    3    0  502 -0.47239671421E+02 -0.11336876111E+02  0.19092332981E+01  0.48797836916E+02  0.41800000000E+01 0.  1.
        -11    1    4    4    0    0  0.22314093286E+02 -0.12155231972E+02 -0.43458601976E+02  0.50342015347E+02  0.00000000000E+00 0. -1.
         11    1    4    4    0    0 -0.43753256736E+02 -0.32191230545E+01  0.16817788400E+02  0.46984553152E+02  0.00000000000E+00 0.  1.
</event>
<event>
 8    1  0.3541538E-009  0.2185700E+03  0.7561462E-02  0.1134954E+00
          1   -1    0    0  501    0  0.00000000000E+00  0.00000000000E+00  0.23945033313E+03  0.23945033313E+03  0.00000000000E+00 0. -1.
         -1   -1    0    0    0  501 -0.00000000000E+00 -0.00000000000E+00 -0.23715328373E+03  0.23715328373E+03  0.00000000000E+00 0.  1.
         25    2    1    2    0    0  0.20746246414E+03  0.20481126400E+02 -0.37070693734E+02  0.24593091526E+03  0.12509047998E+03 0.  0.
         23    2    1    2    0    0 -0.20746246414E+03 -0.20481126400E+02  0.39367743133E+02  0.23067270160E+03  0.90553440012E+02 0.  0.
          5    1    3    3  502    0  0.72392225702E+02  0.26013568582E+02 -0.72852348944E+02  0.10602960548E+03  0.41800000000E+01 0. -1.
         -5    1    3    3    0  502  0.13507023844E+03 -0.55324421820E+01  0.35781655210E+02  0.13990130978E+03  0.41800000000E+01 0. -1.
        -11    1    4    4    0    0 -0.49264366169E+02  0.31336074892E+02 -0.43859290786E+01  0.58550522948E+02  0.00000000000E+00 0. -1.
         11    1    4    4    0    0 -0.15819809797E+03 -0.51817201292E+02  0.43753672212E+02  0.17212217865E+03  0.00000000000E+00 0.  1.
</event>
<event>
 8    1  0.3541538E-009  0.8381720E+02  0.7561462E-02  0.1318555E+00
          1   -1    0    0  501    0  0.00000000000E+00  0.00000000000E+00  0.15506937241E+03  0.15506937241E+03  0.00000000000E+00 0.  1.
         -1   -1    0    0    0  501 -0.00000000000E+00 -0.00000000000E+00 -0.91090942107E+02  0.91090942107E+02  0.00000000000E+00 0. -1.
         25    2    1    2    0    0 -0.21847697458E+02 -0.32019665995E+02  0.10102367394E+02  0.13135402193E+03  0.12509692384E+03 0.  0.
         23    2    1    2    0    0  0.21847697458E+02  0.32019665995E+02  0.53876062910E+02  0.11480629259E+03  0.93676431236E+02 0.  0.
          5    1    3    3  502    0 -0.36230808174E+02 -0.67270147858E+02 -0.23870399510E+02  0.80157424027E+02  0.41800000000E+01 0.  1.
         -5    1    3    3    0  502  0.14383110716E+02  0.35250481863E+02  0.33972766904E+02  0.51196597900E+02  0.41800000000E+01 0.  1.
        -11    1    4    4    0    0  0.31765749120E+02  0.21515504753E+02  0.77864521291E+02  0.86803591157E+02  0.00000000000E+00 0.  1.
         11    1    4    4    0    0 -0.99180516614E+01  0.10504161243E+02 -0.23988458380E+02  0.28002701434E+02  0.00000000000E+00 0. -1.
</event>
<event>
 8    1  0.3541538E-009  0.1079317E+03  0.7561462E-02  0.1264449E+00
         -1   -1    0    0    0  501 -0.00000000000E+00  0.00000000000E+00  0.35887074428E+02  0.35887074428E+02  0.00000000000E+00 0.  1.
          1   -1    0    0  501    0  0.00000000000E+00 -0.00000000000E+00 -0.45889489381E+03  0.45889489381E+03  0.00000000000E+00 0. -1.
         25    2    1    2    0    0 -0.25826209435E+02  0.63864532882E+02 -0.24181208678E+03  0.28083000274E+03  0.12508690369E+03 0.  0.
         23    2    1    2    0    0  0.25826209435E+02 -0.63864532882E+02 -0.18119573261E+03  0.21395196550E+03  0.90542135887E+02 0.  0.
          5    1    3    3  502    0 -0.70283844896E+02  0.41616725254E+02 -0.92846808179E+02  0.12373266692E+03  0.41800000000E+01 0. -1.
         -5    1    3    3    0  502  0.44457635461E+02  0.22247807628E+02 -0.14896527860E+03  0.15709733582E+03  0.41800000000E+01 0. -1.
        -11    1    4    4    0    0  0.34069466213E+02 -0.19899369321E+02 -0.15610307431E+02  0.42431063214E+02  0.00000000000E+00 0.  1.
         11    1    4    4    0    0 -0.82432567780E+01 -0.43965163562E+02 -0.16558542518E+03  0.17152090228E+03  0.00000000000E+00 0. -1.
</event>
<event>
 8    1  0.3541538E-009  0.1265431E+03  0.7561462E-02  0.1232677E+00
          2   -1    0    0  501    0  0.00000000000E+00  0.00000000000E+00  0.68561586040E+03  0.68561586040E+03  0.00000000000E+00 0. -1.
         -2   -1    0    0    0  501 -0.00000000000E+00 -0.00000000000E+00 -0.33209755411E+02  0.33209755411E+02  0.00000000000E+00 0.  1.
         25    2    1    2    0    0  0.68135585361E+02 -0.18363471090E+02  0.16707944846E+03  0.22032375394E+03  0.12508932565E+03 0.  0.
         23    2    1    2    0    0 -0.68135585361E+02  0.18363471090E+02  0.48532665653E+03  0.49850186187E+03  0.89344656725E+02 0.  0.
          5    1    3    3  502    0 -0.35871918534E+02 -0.13481156375E+02  0.34833906273E+02  0.51955842238E+02  0.41800000000E+01 0. -1.
         -5    1    3    3    0  502  0.10400750389E+03 -0.48823147158E+01  0.13224554219E+03  0.16836791170E+03  0.41800000000E+01 0. -1.
        -11    1    4    4    0    0 -0.27947399982E+02 -0.34198951530E+02  0.13688363339E+03  0.14383238349E+03  0.00000000000E+00 0.  1.
         11    1    4    4    0    0 -0.40188185379E+02  0.52562422621E+02  0.34844302314E+03  0.35466947837E+03  0.00000000000E+00 0. -1.
</event>
<event>
 8    1  0.3541538E-009  0.9221295E+02  0.7561462E-02  0.1297580E+00
         -2   -1    0    0    0  501 -0.00000000000E+00  0.00000000000E+00  0.52219188948E+02  0.52219188948E+02  0.00000000000E+00 0.  1.
          2   -1    0    0  501    0  0.00000000000E+00 -0.00000000000E+00 -0.28431366450E+03  0.28431366450E+03  0.00000000000E+00 0. -1.
         25    2    1    2    0    0  0.42445257693E+01 -0.28071812910E+02 -0.63333760031E+02  0.14305335158E+03  0.12508818313E+03 0.  0.
         23    2    1    2    0    0 -0.42445257693E+01  0.28071812910E+02 -0.16876071552E+03  0.19347950186E+03  0.90266803758E+02 0.  0.
          5    1    3    3  502    0 -0.40866680294E+02 -0.50469492135E+02 -0.65682300789E+02  0.92460219725E+02  0.41800000000E+01 0.  1.
         -5    1    3    3    0  502  0.45111206063E+02  0.22397679225E+02  0.23485407585E+01  0.50593131855E+02  0.41800000000E+01 0.  1.
        -11    1    4    4    0    0  0.28313420237E+02  0.46206105961E+01 -0.14288175816E+03  0.14573330650E+03  0.00000000000E+00 0. -1.
         11    1    4    4    0    0 -0.32557946006E+02  0.23451202314E+02 -0.25878957358E+02  0.47746195367E+02  0.00000000000E+00 0.  1.
</event>
<event>
 8    1  0.3541538E-009  0.1493969E+03  0.7561462E-02  0.1201216E+00
          2   -1    0    0  501    0  0.00000000000E+00  0.00000000000E+00  0.14664677674E+04  0.14664677674E+04  0.00000000000E+00 0. -1.
         -2   -1    0    0    0  501 -0.00000000000E+00 -0.00000000000E+00 -0.17481414593E+02  0.17481414593E+02  0.00000000000E+00 0.  1.
         25    2    1    2    0    0 -0.47191702463E+02  0.94384849464E+02  0.10181484623E+04  0.10312171739E+04  0.12508801688E+03 0.  0.
         23    2    1    2    0    0  0.47191702463E+02 -0.94384849464E+02  0.43083789055E+03  0.45273200809E+03  0.90605886267E+02 0.  0.
          5    1    3    3  502    0 -0.86663998057E+02  0.80142583653E+02  0.83264136396E+03  0.84097716714E+03  0.41800000000E+01 0. -1.
         -5    1    3    3    0  502  0.39472295593E+02  0.14242265811E+02  0.18550709831E+03  0.19024000677E+03  0.41800000000E+01 0. -1.
        -11    1    4    4    0    0 -0.26415617774E+02 -0.15550275431E+02  0.79203085583E+02  0.84927761623E+02  0.00000000000E+00 0.  1.
         11    1    4    4    0    0  0.73607320237E+02 -0.78834574033E+02  0.35163480497E+03  0.36780424647E+03  0.00000000000E+00 0. -1.
</event>
<event>
 8    1  0.3541538E-009  0.1835272E+03  0.7561462E-02  0.1164432E+00
          2   -1    0    0  501    0  0.00000000000E+00  0.00000000000E+00  0.47145244592E+03  0.47145244592E+03  0.00000000000E+00 0. -1.
         -2   -1    0    0    0  501 -0.00000000000E+00 -0.00000000000E+00 -0.10170256868E+03  0.10170256868E+03  0.00000000000E+00 0.  1.
         25    2    1    2    0    0  0.14857199080E+03 -0.74376793766E+02  0.31426414015E+03  0.37684779021E+03  0.12508702291E+03 0.  0.
         23    2    1    2    0    0 -0.14857199080E+03  0.74376793766E+02  0.55485737096E+02  0.19630722439E+03  0.88613291478E+02 0.  0.
          5    1    3    3  502    0 -0.23147329716E+01 -0.20225120950E+02  0.13389437967E+03  0.13549756755E+03  0.41800000000E+01 0. -1.
         -5    1    3    3    0  502  0.15088672377E+03 -0.54151672815E+02  0.18036976048E+03  0.24135022265E+03  0.41800000000E+01 0. -1.
        -11    1    4    4    0    0 -0.15947534323E+03  0.69896864823E+02  0.59262198654E+02  0.18392923911E+03  0.00000000000E+00 0. -1.
         11    1    4    4    0    0  0.10903352434E+02  0.44799289425E+01 -0.37764615589E+01  0.12377985278E+02  0.00000000000E+00 0.  1.
</event>
<event>
 8    1  0.3541538E-009  0.1226240E+03  0.7561462E-02  0.1238830E+00
         -2   -1    0    0    0  501 -0.00000000000E+00  0.00000000000E+00  0.44467566691E+02  0.44467566691E+02  0.00000000000E+00 0.  1.
          2   -1    0    0  501    0  0.00000000000E+00 -0.00000000000E+00 -0.52764170216E+03  0.52764170216E+03  0.00000000000E+00 0. -1.
         25    2    1    2    0    0  0.76135367746E+02 -0.76395742456E+02 -0.24248878234E+03  0.29339648206E+03  0.12509109655E+03 0.  0.
         23    2    1    2    0    0 -0.76135367746E+02  0.76395742456E+02 -0.24068535313E+03  0.27871278679E+03  0.90102578334E+02 0.  0.
          5    1    3    3  502    0  0.25134032301E+02 -0.62291423498E+02 -0.22892160258E+03  0.23860954204E+03  0.41800000000E+01 0. -1.
         -5    1    3    3    0  502  0.51001335445E+02 -0.14104318959E+02 -0.13567179754E+02  0.54786940022E+02  0.41800000000E+01 0. -1.
        -11    1    4    4    0    0  0.10597131290E+02  0.15948249761E+02 -0.10485924278E+03  0.10659318299E+03  0.00000000000E+00 0.  1.
         11    1    4    4    0    0 -0.86732499036E+02  0.60447492696E+02 -0.13582611034E+03  0.17211960380E+03  0.00000000000E+00 0. -1.
</event>
<event>
 8    1  0.3541538E-009  0.8106663E+02  0.7561462E-02  0.1326051E+00
          2   -1    0    0  501    0  0.00000000000E+00  0.00000000000E+00  0.21783446154E+03  0.21783446154E+03  0.00000000000E+00 0. -1.
         -2   -1    0    0    0  501 -0.00000000000E+00 -0.00000000000E+00 -0.60935244616E+02  0.60935244616E+02  0.00000000000E+00 0.  1.
         25    2    1    2    0    0  0.11385138826E+02 -0.37270664811E+02  0.75607445400E+02  0.15126938508E+03  0.12508883732E+03 0.  0.
         23    2    1    2    0    0 -0.11385138826E+02  0.37270664811E+02  0.81291771521E+02  0.12750032107E+03  0.90162386362E+02 0.  0.
          5    1    3    3  502    0 -0.14151455479E+02 -0.38755025106E+02 -0.24293411719E+02  0.48060981222E+02  0.41800000000E+01 0. -1.
         -5    1    3    3    0  502  0.25536594305E+02  0.14843602941E+01  0.99900857119E+02  0.10320840386E+03  0.41800000000E+01 0. -1.
        -11    1    4    4    0    0  0.33902532801E+02  0.35984073317E+02  0.59097189053E+02  0.77050068247E+02  0.00000000000E+00 0. -1.
         11    1    4    4    0    0 -0.45287671628E+02  0.12865914945E+01  0.22194582468E+02  0.50450252824E+02  0.00000000000E+00 0.  1.
</event>
<event>
 8    1  0.3541538E-009  0.9851890E+02  0.7561462E-02  0.1283442E+00
         -4   -1    0    0    0  501 -0.00000000000E+00  0.00000000000E+00  0.86059407346E+02  0.86059407346E+02  0.00000000000E+00 0.  1.
          4   -1    0    0  501    0  0.00000000000E+00 -0.00000000000E+00 -0.13872271554E+03  0.13872271554E+03  0.00000000000E+00 0. -1.
         25    2    1    2    0    0  0.12474895354E+02 -0.91891685319E+01 -0.37248241310E+02  0.13142446067E+03  0.12507954889E+03 0.  0.
         23    2    1    2    0    0 -0.12474895354E+02  0.91891685319E+01 -0.15415066879E+02  0.93357662207E+02  0.90763235803E+02 0.  0.
          5    1    3    3  502    0 -0.52331973157E+02  0.17332108333E+02 -0.10070542795E+02  0.56195423532E+02  0.41800000000E+01 0.  1.
         -5    1    3    3    0  502  0.64806868511E+02 -0.26521276865E+02 -0.27177698515E+02  0.75229037142E+02  0.41800000000E+01 0.  1.
        -11    1    4    4    0    0 -0.20252057738E+02  0.37296565502E+02 -0.37611514553E+02  0.56708074098E+02  0.00000000000E+00 0. -1.
         11    1    4    4    0    0  0.77771623847E+01 -0.28107396970E+02  0.22196447675E+02  0.36649588109E+02  0.00000000000E+00 0.  1.
</event>
<event>
 8    1  0.3541538E-009  0.1458941E+03  0.7561462E-02  0.1205611E+00
         -2   -1    0    0    0  501 -0.00000000000E+00  0.00000000000E+00  0.30876415449E+02  0.30876415449E+02  0.00000000000E+00 0. -1.
          2   -1    0    0  501    0  0.00000000000E+00 -0.00000000000E+00 -0.74848745193E+03  0.74848745193E+03  0.00000000000E+00 0.  1.
         25    2    1    2    0    0 -0.76393427529E+02  0.72735425657E+02 -0.37736456033E+03  0.41131268448E+03  0.12509082745E+03 0.  0.
         23    2    1    2    0    0  0.76393427529E+02 -0.72735425657E+02 -0.34024647616E+03  0.36805118290E+03  0.92561389247E+02 0.  0.
          5    1    3    3  502    0 -0.10472756407E+03  0.69670500351E+02 -0.24039086601E+03  0.27134310781E+03  0.41800000000E+01 0.  1.
         -5    1    3    3    0  502  0.28334136536E+02  0.30649253067E+01 -0.13697369432E+03  0.13996957668E+03  0.41800000000E+01 0.  1.
        -11    1    4    4    0    0 -0.17684930919E+02 -0.27610504148E+02 -0.51720107421E+02  0.61237784354E+02  0.00000000000E+00 0.  1.
         11    1    4    4    0    0  0.94078358448E+02 -0.45124921509E+02 -0.28852636874E+03  0.30681339855E+03  0.00000000000E+00 0. -1.
</event>
<event>
 8    1  0.3541538E-009  0.1510762E+03  0.7561462E-02  0.1199157E+00
         -1   -1    0    0    0  501 -0.00000000000E+00  0.00000000000E+00  0.98814190544E+02  0.98814190544E+02  0.00000000000E+00 0.  1.
          1   -1    0    0  501    0  0.00000000000E+00 -0.00000000000E+00 -0.34184751443E+03  0.34184751443E+03  0.00000000000E+00 0. -1.
         25    2    1    2    0    0 -0.23998539766E+02 -0.13871269812E+03 -0.17862442144E+03  0.25956029605E+03  0.12509085028E+03 0.  0.
         23    2    1    2    0    0  0.23998539766E+02  0.13871269812E+03 -0.64408902449E+02  0.18110140892E+03  0.93979099112E+02 0.  0.
          5    1    3    3  502    0 -0.42498223964E+02 -0.13228288295E+03 -0.83081109486E+02  0.16194074014E+03  0.41800000000E+01 0.  1.
         -5    1    3    3    0  502  0.18499684199E+02 -0.64298151649E+01 -0.95543311954E+02  0.97619555918E+02  0.41800000000E+01 0.  1.
        -11    1    4    4    0    0  0.22514042359E+02  0.55464148531E+02  0.19438593739E+02  0.62936577618E+02  0.00000000000E+00 0.  1.
         11    1    4    4    0    0  0.14844974064E+01  0.83248549585E+02 -0.83847496189E+02  0.11816483131E+03  0.00000000000E+00 0. -1.
</event>
<event>
 8    1  0.3541538E-009  0.8247053E+02  0.7561462E-02  0.1322183E+00
         -2   -1    0    0    0  501 -0.00000000000E+00  0.00000000000E+00  0.66017934170E+02  0.66017934170E+02  0.00000000000E+00 0.  1.
          2   -1    0    0  501    0  0.00000000000E+00 -0.00000000000E+00 -0.32976648827E+03  0.32976648827E+03  0.00000000000E+00 0. -1.
         25    2    1    2    0    0  0.41711424912E+02  0.18983479535E+02 -0.20910439154E+02  0.13485070151E+03  0.12508896742E+03 0.  0.
         23    2    1    2    0    0 -0.41711424912E+02 -0.18983479535E+02 -0.24283811495E+03  0.26093372093E+03  0.83760618335E+02 0.  0.
          5    1    3    3  502    0  0.24612139156E+02 -0.26417906843E+02 -0.61513218618E+02  0.71449364312E+02  0.41800000000E+01 0. -1.
         -5    1    3    3    0  502  0.17099285757E+02  0.45401386379E+02  0.40602779464E+02  0.63401337200E+02  0.41800000000E+01 0. -1.
        -11    1    4    4    0    0 -0.10844153616E+02 -0.40724758239E+02 -0.54739641851E+02  0.69083500138E+02  0.00000000000E+00 0.  1.
         11    1    4    4    0    0 -0.30867271296E+02  0.21741278704E+02 -0.18809847310E+03  0.19185022079E+03  0.00000000000E+00 0. -1.
</event>
<event>
 8    1  0.3541538E-009  0.8726557E+02  0.7561462E-02  0.1309612E+00
         -2   -1    0    0    0  501 -0.00000000000E+00  0.00000000000E+00  0.66763729713E+02  0.66763729713E+02  0.00000000000E+00 0.  1.
          2   -1    0    0  501    0  0.00000000000E+00 -0.00000000000E+00 -0.32117262503E+03  0.32117262503E+03  0.00000000000E+00 0. -1.
         25    2    1    2    0    0 -0.69888954733E+02 -0.14692253024E+02 -0.47325589470E+02  0.15161410897E+03  0.12508716292E+03 0.  0.
         23    2    1    2    0    0  0.69888954733E+02  0.14692253024E+02 -0.20708330584E+03  0.23632224577E+03  0.88681339598E+02 0.  0.
          5    1    3    3  502    0 -0.17423984035E+02  0.13606508657E+02  0.39944950814E+02  0.45845433721E+02  0.41800000000E+01 0. -1.
         -5    1    3    3    0  502 -0.52464970698E+02 -0.28298761681E+02 -0.87270540284E+02  0.10576867525E+03  0.41800000000E+01 0. -1.
        -11    1    4    4    0    0  0.41622041194E+01  0.25350675368E+02 -0.87967273045E+01  0.27154430505E+02  0.00000000000E+00 0.  1.
         11    1    4    4    0    0  0.65726750614E+02 -0.10658422344E+02 -0.19828657854E+03  0.20916781526E+03  0.00000000000E+00 0. -1.
</event>
<event>
 8    1  0.3541538E-009  0.1735840E+03  0.7561462E-02  0.1174161E+00
          1   -1    0    0  501    0  0.00000000000E+00  0.00000000000E+00  0.41278633959E+02  0.41278633959E+02  0.00000000000E+00 0. -1.
         -1   -1    0    0    0  501 -0.00000000000E+00 -0.00000000000E+00 -0.85958006821E+03  0.85958006821E+03  0.00000000000E+00 0.  1.
         25    2    1    2    0    0  0.16072165029E+02  0.14970191734E+03 -0.38108747845E+03  0.42842283849E+03  0.12509789673E+03 0.  0.
         23    2    1    2    0    0 -0.16072165029E+02 -0.14970191734E+03 -0.43721395580E+03  0.47243586368E+03  0.96801981370E+02 0.  0.
          5    1    3    3  502    0 -0.12075067207E+02 -0.28251865051E+01  0.36422223624E+01  0.13584075625E+02  0.41800000000E+01 0. -1.
         -5    1    3    3    0  502  0.28147232236E+02  0.15252710385E+03 -0.38472970081E+03  0.41483876287E+03  0.41800000000E+01 0. -1.
        -11    1    4    4    0    0 -0.56646149674E+02 -0.75970513028E+02 -0.23831796511E+03  0.25646784909E+03  0.00000000000E+00 0. -1.
         11    1    4    4    0    0  0.40573984645E+02 -0.73731404312E+02 -0.19889599069E+03  0.21596801459E+03  0.00000000000E+00 0.  1.
</event>
<event>
 8    1  0.3541538E-009  0.7703762E+02  0.7561462E-02  0.1337675E+00
         -2   -1    0    0    0  501 -0.00000000000E+00  0.00000000000E+00  0.11015479133E+03  0.11015479133E+03  0.00000000000E+00 0.  1.
          2   -1    0    0  501    0  0.00000000000E+00 -0.00000000000E+00 -0.17883446912E+03  0.17883446912E+03  0.00000000000E+00 0. -1.
         25    2    1    2    0    0 -0.12177421834E+02  0.57900650544E+02 -0.10331244308E+03  0.17269225801E+03  0.12509348563E+03 0.  0.
         23    2    1    2    0    0  0.12177421834E+02 -0.57900650544E+02  0.34632765281E+02  0.11629700244E+03  0.93940350272E+02 0.  0.
          5    1    3    3  502    0  0.20641846003E+02  0.22339330025E+02 -0.11801591998E+03  0.12194409064E+03  0.41800000000E+01 0. -1.
         -5    1    3    3    0  502 -0.32819267837E+02  0.35561320519E+02  0.14703476905E+02  0.50748167371E+02  0.41800000000E+01 0. -1.
        -11    1    4    4    0    0  0.28438612877E+02 -0.47916634223E+02  0.61727941759E+02  0.83157064231E+02  0.00000000000E+00 0.  1.
         11    1    4    4    0    0 -0.16261191043E+02 -0.99840163208E+01 -0.27095176478E+02  0.33139938208E+02  0.00000000000E+00 0. -1.
</event>
<event>
 8    1  0.3541538E-009  0.7868557E+02  0.7561462E-02  0.1332824E+00
          1   -1    0    0  501    0  0.00000000000E+00  0.00000000000E+00  0.26796239423E+02  0.26796239423E+02  0.00000000000E+00 0. -1.
         -1   -1    0    0    0  501 -0.00000000000E+00 -0.00000000000E+00 -0.53630030452E+03  0.53630030452E+03  0.00000000000E+00 0.  1.
         25    2    1    2    0    0 -0.23251456796E+01 -0.97561239707E+01 -0.39296186347E+03  0.41251284318E+03  0.12508889394E+03 0.  0.
         23    2    1    2    0    0  0.23251456796E+01  0.97561239707E+01 -0.11654220163E+03  0.15058370077E+03  0.94830258457E+02 0.  0.
          5    1    3    3  502    0  0.47878009887E+02 -0.84251307158E+01 -0.32083981986E+03  0.32452881084E+03  0.41800000000E+01 0.  1.
         -5    1    3    3    0  502 -0.50203155566E+02 -0.13309932549E+01 -0.72122043614E+02  0.87984032340E+02  0.41800000000E+01 0.  1.
        -11    1    4    4    0    0 -0.18705343974E+02  0.25704326545E+02 -0.11983999956E+03  0.12398478854E+03  0.00000000000E+00 0.  1.
         11    1    4    4    0    0  0.21030489654E+02 -0.15948202574E+02  0.32977979258E+01  0.26598912226E+02  0.00000000000E+00 0. -1.
</event>
<event>
 8    1  0.3541538E-009  0.9843089E+02  0.7561462E-02  0.1283631E+00
         -2   -1    0    0    0  501 -0.00000000000E+00  0.00000000000E+00  0.40627051926E+02  0.40627051926E+02  0.00000000000E+00 0.  1.
          2   -1    0    0  501    0  0.00000000000E+00 -0.00000000000E+00 -0.50607565276E+03  0.50607565276E+03  0.00000000000E+00 0. -1.
         25    2    1    2    0    0  0.34463323507E+02  0.12690491386E+02 -0.42080368304E+03  0.44053614470E+03  0.12509031093E+03 0.  0.
         23    2    1    2    0    0 -0.34463323507E+02 -0.12690491386E+02 -0.44644917793E+02  0.10616655999E+03  0.89047181514E+02 0.  0.
          5    1    3    3  502    0 -0.20552304550E+02 -0.26227546676E+02 -0.30220145414E+03  0.30406162650E+03  0.41800000000E+01 0.  1.
         -5    1    3    3    0  502  0.55015628057E+02  0.38918038061E+02 -0.11860222890E+03  0.13647451820E+03  0.41800000000E+01 0.  1.
        -11    1    4    4    0    0  0.14984963141E+02 -0.37539614777E+02 -0.13225825931E+02  0.42528746390E+02  0.00000000000E+00 0.  1.
         11    1    4    4    0    0 -0.49448286648E+02  0.24849123392E+02 -0.31419091862E+02  0.63637813595E+02  0.00000000000E+00 0. -1.
</event>
<event>
 8    1  0.3541538E-009  0.1054201E+03  0.7561462E-02  0.1269294E+00
         -1   -1    0    0    0  501 -0.00000000000E+00  0.00000000000E+00  0.14242462069E+03  0.14242462069E+03  0.00000000000E+00 0.  1.
          1   -1    0    0  501    0  0.00000000000E+00 -0.00000000000E+00 -0.17409169718E+03  0.17409169718E+03  0.00000000000E+00 0. -1.
         25    2    1    2    0    0 -0.30249227988E+02  0.72129561755E+02 -0.10012142907E+03  0.17829497905E+03  0.12508840683E+03 0.  0.
         23    2    1    2    0    0  0.30249227988E+02 -0.72129561755E+02  0.68454352577E+02  0.13822133882E+03  0.91112296899E+02 0.  0.
          5    1    3    3  502    0  0.69418558853E+01  0.43075641320E+02  0.20731383598E+02  0.48486729154E+02  0.41800000000E+01 0.  1.
         -5    1    3    3    0  502 -0.37191083873E+02  0.29053920436E+02 -0.12085281267E+03  0.12980824990E+03  0.41800000000E+01 0.  1.
        -11    1    4    4    0    0 -0.32478065194E+02 -0.28631253194E+02  0.30591184051E+02  0.53013148556E+02  0.00000000000E+00 0.  1.
         11    1    4    4    0    0  0.62727293182E+02 -0.43498308561E+02  0.37863168527E+02  0.85208190266E+02  0.00000000000E+00 0. -1.
</event>
<event>
 8    1  0.3541538E-009  0.1075230E+03  0.7561462E-02  0.1265227E+00
         -1   -1    0    0    0  501 -0.00000000000E+00  0.00000000000E+00  0.66273811298E+03  0.66273811298E+03  0.00000000000E+00 0.  1.
          1   -1    0    0  501    0  0.00000000000E+00 -0.00000000000E+00 -0.33968377523E+02  0.33968377523E+02  0.00000000000E+00 0. -1.
         25    2    1    2    0    0 -0.54906553452E+02 -0.45109195671E+02  0.52777988569E+03  0.54703604601E+03  0.12508900334E+03 0.  0.
         23    2    1    2    0    0  0.54906553452E+02  0.45109195671E+02  0.10098984977E+03  0.14967044449E+03  0.84573772829E+02 0.  0.
          5    1    3    3  502    0 -0.74109658313E+02 -0.51163101977E+01  0.45961424384E+03  0.46559761987E+03  0.41800000000E+01 0. -1.
         -5    1    3    3    0  502  0.19203104861E+02 -0.39992885474E+02  0.68165641848E+02  0.81438426148E+02  0.41800000000E+01 0. -1.
        -11    1    4    4    0    0  0.23620999219E+02  0.57707491395E+02  0.26214822224E+02  0.67641134463E+02  0.00000000000E+00 0. -1.
         11    1    4    4    0    0  0.31285554232E+02 -0.12598295723E+02  0.74775027544E+02  0.82029310024E+02  0.00000000000E+00 0.  1.
</event>
<event>
 8    1  0.3541538E-009  0.1096190E+03  0.7561462E-02  0.1261277E+00
          2   -1    0    0  501    0  0.00000000000E+00  0.00000000000E+00  0.85357816029E+03  0.85357816029E+03  0.00000000000E+00 0.  1.
         -2   -1    0    0    0  501 -0.00000000000E+00 -0.00000000000E+00 -0.28646408488E+02  0.28646408488E+02  0.00000000000E+00 0. -1.
         25    2    1    2    0    0  0.18911440841E+02 -0.10214449707E+03  0.32196711259E+03  0.36069625957E+03  0.12509128349E+03 0.  0.
         23    2    1    2    0    0 -0.18911440841E+02  0.10214449707E+03  0.50296463921E+03  0.52152830920E+03  0.90703958718E+02 0.  0.
          5    1    3    3  502    0  0.31788180764E+02 -0.91848599038E+02  0.32840414358E+03  0.34251044875E+03  0.41800000000E+01 0.  1.
         -5    1    3    3    0  502 -0.12876739924E+02 -0.10295898029E+02 -0.64370309924E+01  0.18185810823E+02  0.41800000000E+01 0.  1.
        -11    1    4    4    0    0 -0.21196991530E+02  0.82944987689E+02  0.49181143925E+03  0.49920704643E+03  0.00000000000E+00 0.  1.
         11    1    4    4    0    0  0.22855506895E+01  0.19199509379E+02  0.11153199968E+02  0.22321262775E+02  0.00000000000E+00 0. -1.
</event>
<event>
 8    1  0.3541538E-009  0.2206547E+03  0.7561462E-02  0.1133396E+00
         -2   -1    0    0    0  501 -0.00000000000E+00  0.00000000000E+00  0.69654906846E+02  0.69654906846E+02  0.00000000000E+00 0.  1.
          2   -1    0    0  501    0  0.00000000000E+00 -0.00000000000E+00 -0.95804727548E+03  0.95804727548E+03  0.00000000000E+00 0. -1.
         25    2    1    2    0    0  0.20982764246E+03 -0.32935810967E+02 -0.65533124235E+03  0.70015643551E+03  0.12509032655E+03 0.  0.
         23    2    1    2    0    0 -0.20982764246E+03  0.32935810967E+02 -0.23306112628E+03  0.32754574682E+03  0.88635887133E+02 0.  0.
          5    1    3    3  502    0  0.50016743720E+01  0.16240148299E+02 -0.77042087630E+01  0.19120313700E+02  0.41800000000E+01 0. -1.
         -5    1    3    3    0  502  0.20482596809E+03 -0.49175959266E+02 -0.64762703359E+03  0.68103612181E+03  0.41800000000E+01 0. -1.
        -11    1    4    4    0    0 -0.12553463550E+03  0.28400048843E+02 -0.76631618338E+02  0.14979289841E+03  0.00000000000E+00 0.  1.
         11    1    4    4    0    0 -0.84293006959E+02  0.45357621240E+01 -0.15642950795E+03  0.17775284841E+03  0.00000000000E+00 0. -1.
</event>
<event>
 8    1  0.3541538E-009  0.1756210E+03  0.7561462E-02  0.1172110E+00
          1   -1    0    0  501    0  0.00000000000E+00  0.00000000000E+00  0.10259355822E+04  0.10259355822E+04  0.00000000000E+00 0. -1.
         -1   -1    0    0    0  501 -0.00000000000E+00 -0.00000000000E+00 -0.44382651856E+02  0.44382651856E+02  0.00000000000E+00 0.  1.
         25    2    1    2    0    0  0.12129350036E+02 -0.15470621381E+03  0.26528380559E+03  0.33182368034E+03  0.12510125340E+03 0.  0.
         23    2    1    2    0    0 -0.12129350036E+02  0.15470621381E+03  0.71626912473E+03  0.73849455369E+03  0.90838389835E+02 0.  0.
          5    1    3    3  502    0 -0.31174949722E+02 -0.89956102255E+02  0.22429981709E+03  0.24370444840E+03  0.41800000000E+01 0.  1.
         -5    1    3    3    0  502  0.43304299757E+02 -0.64750111558E+02  0.40983988498E+02  0.88119231938E+02  0.41800000000E+01 0.  1.
        -11    1    4    4    0    0 -0.43568552912E+02  0.13241100579E+03  0.60095255333E+03  0.61690750086E+03  0.00000000000E+00 0. -1.
         11    1    4    4    0    0  0.31439202877E+02  0.22295208018E+02  0.11531657140E+03  0.12158705284E+03  0.00000000000E+00 0.  1.
</event>
<event>
 8    1  0.3541538E-009  0.2189124E+03  0.7561462E-02  0.1134696E+00
          1   -1    0    0  501    0  0.00000000000E+00  0.00000000000E+00  0.66825555405E+03  0.66825555405E+03  0.00000000000E+00 0. -1.
         -1   -1    0    0    0  501 -0.00000000000E+00 -0.00000000000E+00 -0.78326817028E+02  0.78326817028E+02  0.00000000000E+00 0.  1.
         25    2    1    2    0    0 -0.16217453407E+03 -0.11736688278E+03  0.33671016198E+03  0.41121332292E+03  0.12508836512E+03 0.  0.
         23    2    1    2    0    0  0.16217453407E+03  0.11736688278E+03  0.25321857504E+03  0.33536904816E+03  0.90979047268E+02 0.  0.
          5    1    3    3  502    0 -0.17059046837E+03 -0.94452901634E+02  0.33335731024E+03  0.38622147431E+03  0.41800000000E+01 0.  1.
         -5    1    3    3    0  502  0.84159342972E+01 -0.22913981149E+02  0.33528517423E+01  0.24991848611E+02  0.41800000000E+01 0.  1.
        -11    1    4    4    0    0  0.10533719104E+03  0.12177495579E+03  0.20521996684E+03  0.26084535354E+03  0.00000000000E+00 0. -1.
         11    1    4    4    0    0  0.56837343031E+02 -0.44080730057E+01  0.47998608199E+02  0.74523694618E+02  0.00000000000E+00 0.  1.
</event>
<event>
 8    1  0.3541538E-009  0.1265054E+03  0.7561462E-02  0.1232735E+00
          2   -1    0    0  501    0  0.00000000000E+00  0.00000000000E+00  0.16575449734E+04  0.16575449734E+04  0.00000000000E+00 0.  1.
         -2   -1    0    0    0  501 -0.00000000000E+00 -0.00000000000E+00 -0.12436060459E+02  0.12436060459E+02  0.00000000000E+00 0. -1.
         25    2    1    2    0    0 -0.60375344621E+02  0.33728340975E+02  0.12594937338E+04  0.12675781679E+04  0.12508862155E+03 0.  0.
         23    2    1    2    0    0  0.60375344621E+02 -0.33728340975E+02  0.38561517917E+03  0.40240286591E+03  0.91903301679E+02 0.  0.
          5    1    3    3  502    0 -0.60839501321E+01  0.74073747940E+02  0.72257153126E+03  0.72639591462E+03  0.41800000000E+01 0.  1.
         -5    1    3    3    0  502 -0.54291394489E+02 -0.40345406964E+02  0.53692220250E+03  0.54118225333E+03  0.41800000000E+01 0.  1.
        -11    1    4    4    0    0  0.62729419669E+02  0.12958533621E+02  0.16738823577E+03  0.17922534742E+03  0.00000000000E+00 0. -1.
         11    1    4    4    0    0 -0.23540750487E+01 -0.46686874596E+02  0.21822694340E+03  0.22317751848E+03  0.00000000000E+00 0.  1.
</event>
<event>
 8    1  0.3541538E-009  0.9892947E+02  0.7561462E-02  0.1282563E+00
          4   -1    0    0  501    0  0.00000000000E+00  0.00000000000E+00  0.11433763422E+03  0.11433763422E+03  0.00000000000E+00 0. -1.
         -4   -1    0    0    0  501 -0.00000000000E+00 -0.00000000000E+00 -0.12425718799E+03  0.12425718799E+03  0.00000000000E+00 0.  1.
         25    2    1    2    0    0  0.38039804169E+02  0.32342231182E+02 -0.12181038021E+02  0.13523725621E+03  0.12509073172E+03 0.  0.
         23    2    1    2    0    0 -0.38039804169E+02 -0.32342231182E+02  0.22614842553E+01  0.10335756600E+03  0.90468920179E+02 0.  0.
          5    1    3    3  502    0  0.28357567647E+02  0.69318468197E+02 -0.42550811661E+02  0.86239466888E+02  0.41800000000E+01 0.  1.
         -5    1    3    3    0  502  0.96822365219E+01 -0.36976237015E+02  0.30369773640E+02  0.48997789325E+02  0.41800000000E+01 0.  1.
        -11    1    4    4    0    0 -0.26915492764E+02  0.18299989947E+02 -0.28335187460E+02  0.43153403472E+02  0.00000000000E+00 0.  1.
         11    1    4    4    0    0 -0.11124311405E+02 -0.50642221130E+02  0.30596671715E+02  0.60204162524E+02  0.00000000000E+00 0. -1.
</event>
<event>
 8    1  0.3541538E-009  0.1126625E+03  0.7561462E-02  0.1255717E+00
         -1   -1    0    0    0  501 -0.00000000000E+00  0.00000000000E+00  0.22912765047E+02  0.22912765047E+02  0.00000000000E+00 0.  1.
          1   -1    0    0  501    0  0.00000000000E+00 -0.00000000000E+00 -0.80795289645E+03  0.80795289645E+03  0.00000000000E+00 0. -1.
         25    2    1    2    0    0  0.29746207412E+02 -0.52938163150E+02 -0.58795034136E+03  0.60416900200E+03  0.12508914061E+03 0.  0.
         23    2    1    2    0    0 -0.29746207412E+02  0.52938163150E+02 -0.19708979005E+03  0.22669665950E+03  0.94126001267E+02 0.  0.
          5    1    3    3  502    0  0.44076846886E+02  0.15546655188E+02 -0.91859389022E+02  0.10315079578E+03  0.41800000000E+01 0. -1.
         -5    1    3    3    0  502 -0.14330639473E+02 -0.68484818339E+02 -0.49609095234E+03  0.50101820622E+03  0.41800000000E+01 0. -1.
        -11    1    4    4    0    0  0.30197359003E+02  0.31079864134E+01 -0.84234477695E+02  0.89537630653E+02  0.00000000000E+00 0. -1.
         11    1    4    4    0    0 -0.59943566416E+02  0.49830176737E+02 -0.11285531235E+03  0.13715902885E+03  0.00000000000E+00 0.  1.
</event>
<event>
 8    1  0.3541538E-009  0.1110051E+03  0.7561462E-02  0.1258720E+00
          2   -1    0    0  501    0  0.00000000000E+00  0.00000000000E+00  0.61598042087E+03  0.61598042087E+03  0.00000000000E+00 0. -1.
         -2   -1    0    0    0  501 -0.00000000000E+00 -0.00000000000E+00 -0.21461351194E+02  0.21461351194E+02  0.00000000000E+00 0.  1.
         25    2    1    2    0    0  0.25739462076E+02  0.13731774377E+02  0.41167820352E+03  0.43124896904E+03  0.12508256676E+03 0.  0.
         23    2    1    2    0    0 -0.25739462076E+02 -0.13731774377E+02  0.18284086616E+03  0.20619280303E+03  0.90739231584E+02 0.  0.
          5    1    3    3  502    0 -0.41344747505E+02  0.38141651287E+02  0.16240984355E+03  0.17192615680E+03  0.41800000000E+01 0.  1.
         -5    1    3    3    0  502  0.67084209581E+02 -0.24409876910E+02  0.24926835997E+03  0.25932281224E+03  0.41800000000E+01 0.  1.
        -11    1    4    4    0    0  0.16473549957E+02 -0.40764794350E+02  0.10198958346E+03  0.11106314168E+03  0.00000000000E+00 0.  1.
         11    1    4    4    0    0 -0.42213012033E+02  0.27033019973E+02  0.80851282704E+02  0.95129661350E+02  0.00000000000E+00 0. -1.
</event>
<event>
 8    1  0.3541538E-009  0.1138825E+03  0.7561462E-02  0.1253544E+00
          1   -1    0    0  501    0  0.00000000000E+00  0.00000000000E+00  0.39064228914E+03  0.39064228914E+03  0.00000000000E+00 0. -1.
         -1   -1    0    0    0  501 -0.00000000000E+00 -0.00000000000E+00 -0.48274696319E+02  0.48274696319E+02  0.00000000000E+00 0.  1.
         25    2    1    2    0    0  0.31930403998E+02  0.62358584805E+02  0.25740197288E+03  0.29463743407E+03  0.12508916064E+03 0.  0.
         23    2    1    2    0    0 -0.31930403998E+02 -0.62358584805E+02  0.84965619932E+02  0.14427955139E+03  0.93216353607E+02 0.  0.
          5    1    3    3  502    0 -0.99279003934E+01 -0.19930142081E+02  0.16674988880E+01  0.22716221563E+02  0.41800000000E+01 0.  1.
         -5    1    3    3    0  502  0.41858304391E+02  0.82288726886E+02  0.25573447400E+03  0.27192121250E+03  0.41800000000E+01 0.  1.
        -11    1    4    4    0    0 -0.62740435514E+02 -0.46096092936E+02  0.74858068646E+02  0.10800436322E+03  0.00000000000E+00 0. -1.
         11    1    4    4    0    0  0.30810031516E+02 -0.16262491869E+02  0.10107551286E+02  0.36275188171E+02  0.00000000000E+00 0.  1.
</event>
<event>
 8    1  0.3541538E-009  0.2035358E+03  0.7561462E-02  0.1146790E+00
          2   -1    0    0  501    0  0.00000000000E+00  0.00000000000E+00  0.35165130640E+03  0.35165130640E+03  0.00000000000E+00 0. -1.
         -2   -1    0    0    0  501 -0.00000000000E+00 -0.00000000000E+00 -0.13051369404E+03  0.13051369404E+03  0.00000000000E+00 0.  1.
         25    2    1    2    0    0  0.16050353779E+03 -0.82471857823E+02  0.70901246809E+02  0.23073276026E+03  0.12509047479E+03 0.  0.
         23    2    1    2    0    0 -0.16050353779E+03  0.82471857823E+02  0.15023636555E+03  0.25143224018E+03  0.89912251064E+02 0.  0.
          5    1    3    3  502    0  0.17194496450E+03 -0.96553324355E+02  0.76078706412E+02  0.21140732539E+03  0.41800000000E+01 0.  1.
         -5    1    3    3    0  502 -0.11441426710E+02  0.14081466532E+02 -0.51774596034E+01  0.19325434867E+02  0.41800000000E+01 0.  1.
        -11    1    4    4    0    0 -0.10199021991E+03  0.16995202333E+02  0.12036657229E+03  0.15867877484E+03  0.00000000000E+00 0. -1.
         11    1    4    4    0    0 -0.58513317876E+02  0.65476655490E+02  0.29869793268E+02  0.92753465342E+02  0.00000000000E+00 0.  1.
</event>
<event>
 8    1  0.3541538E-009  0.7482491E+02  0.7561462E-02  0.1344414E+00
          1   -1    0    0  501    0  0.00000000000E+00  0.00000000000E+00  0.46275011589E+02  0.46275011589E+02  0.00000000000E+00 0. -1.
         -1   -1    0    0    0  501 -0.00000000000E+00 -0.00000000000E+00 -0.31629426437E+03  0.31629426437E+03  0.00000000000E+00 0.  1.
         25    2    1    2    0    0 -0.42459852611E+02  0.15238007203E+02 -0.10966731725E+03  0.17236423003E+03  0.12508985320E+03 0.  0.
         23    2    1    2    0    0  0.42459852611E+02 -0.15238007203E+02 -0.16035193553E+03  0.19020504593E+03  0.91816013433E+02 0.  0.
          5    1    3    3  502    0 -0.55153881159E+02  0.22057289428E+02 -0.13237243431E+03  0.14514960692E+03  0.41800000000E+01 0.  1.
         -5    1    3    3    0  502  0.12694028549E+02 -0.68192822246E+01  0.22705117052E+02  0.27214623113E+02  0.41800000000E+01 0.  1.
        -11    1    4    4    0    0 -0.14339570921E+02 -0.11126793279E+02  0.18999826255E+01  0.18249349491E+02  0.00000000000E+00 0. -1.
         11    1    4    4    0    0  0.56799423532E+02 -0.41112139244E+01 -0.16225191816E+03  0.17195569644E+03  0.00000000000E+00 0.  1.
</event>
<event>
 8    1  0.3541538E-009  0.1218512E+03  0.7561462E-02  0.1240074E+00
          2   -1    0    0  501    0  0.00000000000E+00  0.00000000000E+00  0.53318493728E+03  0.53318493728E+03  0.00000000000E+00 0. -1.
         -2   -1    0    0    0  501 -0.00000000000E+00 -0.00000000000E+00 -0.35105218779E+02  0.35105218779E+02  0.00000000000E+00 0.  1.
         25    2    1    2    0    0  0.43975851540E+02  0.41987698593E+02  0.15570720051E+03  0.20877871959E+03  0.12508788555E+03 0.  0.
         23    2    1    2    0    0 -0.43975851540E+02 -0.41987698593E+02  0.34237251799E+03  0.35951143647E+03  0.91283566569E+02 0.  0.
          5    1    3    3  502    0  0.85183972246E+02  0.45524029750E+02  0.98021686503E+02  0.13767523320E+03  0.41800000000E+01 0.  1.
         -5    1    3    3    0  502 -0.41208120706E+02 -0.35363311571E+01  0.57685514011E+02  0.71103486390E+02  0.41800000000E+01 0.  1.
        -11    1    4    4    0    0 -0.38217208740E+02 -0.68438334947E+02  0.20453612376E+03  0.21904197464E+03  0.00000000000E+00 0.  1.
         11    1    4    4    0    0 -0.57586428003E+01  0.26450636354E+02  0.13783639423E+03  0.14046946183E+03  0.00000000000E+00 0. -1.
</event>
<event>
 8    1  0.3541538E-009  0.1189930E+03  0.7561462E-02  0.1244768E+00
          1   -1    0    0  501    0  0.00000000000E+00  0.00000000000E+00  0.78219925140E+03  0.78219925140E+03  0.00000000000E+00 0. -1.
         -1   -1    0    0    0  501 -0.00000000000E+00 -0.00000000000E+00 -0.26096257150E+02  0.26096257150E+02  0.00000000000E+00 0.  1.
         25    2    1    2    0    0  0.42093395604E+02 -0.32448849392E+02  0.19689857711E+03  0.23925042622E+03  0.12508770922E+03 0.  0.
         23    2    1    2    0    0 -0.42093395604E+02  0.32448849392E+02  0.55920441713E+03  0.56904508233E+03  0.90983206126E+02 0.  0.
          5    1    3    3  502    0  0.15906809363E+02  0.46791641612E+02  0.97541177094E+02  0.10942686113E+03  0.41800000000E+01 0. -1.
         -5    1    3    3    0  502  0.26186586240E+02 -0.79240491004E+02  0.99357400020E+02  0.12982356509E+03  0.41800000000E+01 0. -1.
        -11    1    4    4    0    0 -0.11490886871E+02  0.61540648625E+02  0.30514172893E+03  0.31149761901E+03  0.00000000000E+00 0.  1.
         11    1    4    4    0    0 -0.30602508732E+02 -0.29091799233E+02  0.25406268820E+03  0.25754746331E+03  0.00000000000E+00 0. -1.
</event>
<event>
 8    1  0.3541538E-009  0.1572540E+03  0.7561462E-02  0.1191832E+00
         -2   -1    0    0    0  501 -0.00000000000E+00  0.00000000000E+00  0.32035325615E+02  0.32035325615E+02  0.00000000000E+00 0.  1.
          2   -1    0    0  501    0  0.00000000000E+00 -0.00000000000E+00 -0.91029586102E+03  0.91029586102E+03  0.00000000000E+00 0. -1.
         25    2    1    2    0    0  0.74448861833E+02 -0.10212247690E+03 -0.56482965461E+03  0.59216191061E+03  0.12510618022E+03 0.  0.
         23    2    1    2    0    0 -0.74448861833E+02  0.10212247690E+03 -0.31343088080E+03  0.35016927603E+03  0.91694991814E+02 0.  0.
          5    1    3    3  502    0  0.12382612035E+02 -0.98692774840E+02 -0.45618534097E+03  0.46692197486E+03  0.41800000000E+01 0.  1.
         -5    1    3    3    0  502  0.62066249798E+02 -0.34297020572E+01 -0.10864431364E+03  0.12523993575E+03  0.41800000000E+01 0.  1.
        -11    1    4    4    0    0 -0.90146773582E+02  0.61566935876E+02 -0.18777865960E+03  0.21720440461E+03  0.00000000000E+00 0.  1.
         11    1    4    4    0    0  0.15697911749E+02  0.40555541021E+02 -0.12565222120E+03  0.13296487142E+03  0.00000000000E+00 0. -1.
</event>
<event>
 8    1  0.3541538E-009  0.1081656E+03  0.7561462E-02  0.1264005E+00
          1   -1    0    0  501    0  0.00000000000E+00  0.00000000000E+00  0.17994487562E+03  0.17994487562E+03  0.00000000000E+00 0. -1.
         -1   -1    0    0    0  501 -0.00000000000E+00 -0.00000000000E+00 -0.10104545755E+03  0.10104545755E+03  0.00000000000E+00 0.  1.
         25    2    1    2    0    0 -0.55947429787E+02  0.50665853026E+02  0.11810599779E+02  0.14658359155E+03  0.12510042159E+03 0.  0.
         23    2    1    2    0    0  0.55947429787E+02 -0.50665853026E+02  0.67088818293E+02  0.13440674161E+03  0.88696781722E+02 0.  0.
          5    1    3    3  502    0 -0.47956921432E+02 -0.24328333990E+01 -0.46661780912E+02  0.67086356209E+02  0.41800000000E+01 0. -1.
         -5    1    3    3    0  502 -0.79905083546E+01  0.53098686425E+02  0.58472380690E+02  0.79497235345E+02  0.41800000000E+01 0. -1.
        -11    1    4    4    0    0  0.77127482598E+02 -0.52048855834E+02  0.43621426951E+02  0.10276458950E+03  0.00000000000E+00 0. -1.
         11    1    4    4    0    0 -0.21180052811E+02  0.13830028080E+01  0.23467391342E+02  0.31642152112E+02  0.00000000000E+00 0.  1.
</event>
<event>
 8    1  0.3541538E-009  0.1673755E+03  0.7561462E-02  0.1180613E+00
          1   -1    0    0  501    0  0.00000000000E+00  0.00000000000E+00  0.30857942539E+03  0.30857942539E+03  0.00000000000E+00 0. -1.
         -1   -1    0    0    0  501 -0.00000000000E+00 -0.00000000000E+00 -0.98104178841E+02  0.98104178841E+02  0.00000000000E+00 0.  1.
         25    2    1    2    0    0  0.10732233436E+03  0.82202335597E+02  0.10163027268E+03  0.21035120561E+03  0.12507441763E+03 0.  0.
         23    2    1    2    0    0 -0.10732233436E+03 -0.82202335597E+02  0.10884497386E+03  0.19633239862E+03  0.91781670195E+02 0.  0.
          5    1    3    3  502    0  0.17099806372E+02  0.91388120471E+02  0.45270192398E+02  0.10349422525E+03  0.41800000000E+01 0. -1.
         -5    1    3    3    0  502  0.90222527987E+02 -0.91857848740E+01  0.56360080284E+02  0.10685698035E+03  0.41800000000E+01 0. -1.
        -11    1    4    4    0    0 -0.87364095476E+02 -0.25838877554E+02  0.10101363541E+03  0.13602899438E+03  0.00000000000E+00 0.  1.
         11    1    4    4    0    0 -0.19958238883E+02 -0.56363458043E+02  0.78313384506E+01  0.60303404247E+02  0.00000000000E+00 0. -1.
</event>
<event>
 8    1  0.3541538E-009  0.2223623E+03  0.7561462E-02  0.1132134E+00
         -2   -1    0    0    0  501 -0.00000000000E+00  0.00000000000E+00  0.50154774916E+03  0.50154774916E+03  0.00000000000E+00 0. -1.
          2   -1    0    0  501    0  0.00000000000E+00 -0.00000000000E+00 -0.14243896573E+03  0.14243896573E+03  0.00000000000E+00 0.  1.
         25    2    1    2    0    0 -0.16251617233E+03 -0.13936360376E+03  0.32486582152E+03  0.40867961169E+03  0.12508997843E+03 0.  0.
         23    2    1    2    0    0  0.16251617233E+03  0.13936360376E+03  0.34242961911E+02  0.23530710320E+03  0.91450161575E+02 0.  0.
          5    1    3    3  502    0 -0.10633373567E+03 -0.52257973184E+02  0.80766976311E+02  0.14345220795E+03  0.41800000000E+01 0.  1.
         -5    1    3    3    0  502 -0.56182436660E+02 -0.87105630577E+02  0.24409884520E+03  0.26522740374E+03  0.41800000000E+01 0.  1.
        -11    1    4    4    0    0  0.11068166497E+03  0.55434937500E+02  0.53407453007E+02  0.13481772618E+03  0.00000000000E+00 0. -1.
         11    1    4    4    0    0  0.51834507357E+02  0.83928666261E+02 -0.19164491095E+02  0.10048937701E+03  0.00000000000E+00 0.  1.
</event>
<event>
 8    1  0.3541538E-009  0.1177116E+03  0.7561462E-02  0.1246921E+00
          2   -1    0    0  501    0  0.00000000000E+00  0.00000000000E+00  0.36150247835E+03  0.36150247835E+03  0.00000000000E+00 0.  1.
         -2   -1    0    0    0  501 -0.00000000000E+00 -0.00000000000E+00 -0.52509295898E+02  0.52509295898E+02  0.00000000000E+00 0. -1.
         25    2    1    2    0    0  0.32591972642E+02  0.51207467580E+02  0.25769382739E+03  0.29281021294E+03  0.12508905112E+03 0.  0.
         23    2    1    2    0    0 -0.32591972642E+02 -0.51207467580E+02  0.51299355058E+02  0.12120156131E+03  0.91508213932E+02 0.  0.
          5    1    3    3  502    0 -0.31891085510E+02  0.61180423420E+02  0.16927086428E+03  0.18283922840E+03  0.41800000000E+01 0.  1.
         -5    1    3    3    0  502  0.64483058152E+02 -0.99729558405E+01  0.88422963109E+02  0.10997098455E+03  0.41800000000E+01 0.  1.
        -11    1    4    4    0    0 -0.53109790045E+02 -0.88329210047E+01  0.32595858134E+01  0.53937882715E+02  0.00000000000E+00 0. -1.
         11    1    4    4    0    0  0.20517817403E+02 -0.42374546575E+02  0.48039769245E+02  0.67263678591E+02  0.00000000000E+00 0.  1.
</event>
<event>
 8    1  0.3541538E-009  0.2852740E+03  0.7561462E-02  0.1092843E+00
          1   -1    0    0  501    0  0.00000000000E+00  0.00000000000E+00  0.78257585904E+03  0.78257585904E+03  0.00000000000E+00 0. -1.
         -1   -1    0    0    0  501 -0.00000000000E+00 -0.00000000000E+00 -0.15092445154E+03  0.15092445154E+03  0.00000000000E+00 0.  1.
         25    2    1    2    0    0 -0.14070864741E+03  0.23318453773E+03  0.56378336172E+03  0.63849210428E+03  0.12508611505E+03 0.  0.
         23    2    1    2    0    0  0.14070864741E+03 -0.23318453773E+03  0.67868045774E+02  0.29500820630E+03  0.90828509046E+02 0.  0.
          5    1    3    3  502    0  0.19591280564E+02  0.14827960490E+02  0.82701957048E+02  0.86375765038E+02  0.41800000000E+01 0.  1.
         -5    1    3    3    0  502 -0.16029992797E+03  0.21835657724E+03  0.48108140468E+03  0.55211633924E+03  0.41800000000E+01 0.  1.
        -11    1    4    4    0    0  0.10212638525E+03 -0.13543068539E+03  0.82987544855E+02  0.18883379388E+03  0.00000000000E+00 0.  1.
         11    1    4    4    0    0  0.38582262159E+02 -0.97753852341E+02 -0.15119499082E+02  0.10617441242E+03  0.00000000000E+00 0. -1.
</event>
<event>
 8    1  0.3541538E-009  0.7209867E+02  0.7561462E-02  0.1353098E+00
          3   -1    0    0  501    0  0.00000000000E+00  0.00000000000E+00  0.12241271938E+03  0.12241271938E+03  0.00000000000E+00 0. -1.
         -3   -1    0    0    0  501 -0.00000000000E+00 -0.00000000000E+00 -0.11448228200E+03  0.11448228200E+03  0.00000000000E+00 0.  1.
         25    2    1    2    0    0 -0.12859149869E+02 -0.46253075129E+02 -0.46225355911E+01  0.13406331878E+03  0.12508757297E+03 0.  0.
         23    2    1    2    0    0  0.12859149869E+02  0.46253075129E+02  0.12552972969E+02  0.10283168260E+03  0.90067047920E+02 0.  0.
          5    1    3    3  502    0 -0.24190163652E+01 -0.61418936453E+01  0.58179090649E+02  0.58701392543E+02  0.41800000000E+01 0.  1.
         -5    1    3    3    0  502 -0.10440133504E+02 -0.40111181483E+02 -0.62801626240E+02  0.75361926236E+02  0.41800000000E+01 0.  1.
        -11    1    4    4    0    0  0.27154293416E+02  0.65410624289E+02  0.25953198219E+02  0.75428601462E+02  0.00000000000E+00 0.  1.
         11    1    4    4    0    0 -0.14295143547E+02 -0.19157549160E+02 -0.13400225250E+02  0.27403081133E+02  0.00000000000E+00 0. -1.
</event>
<event>
 8    1  0.3541538E-009  0.1078239E+03  0.7561462E-02  0.1264653E+00
         -2   -1    0    0    0  501 -0.00000000000E+00  0.00000000000E+00  0.17909555653E+02  0.17909555653E+02  0.00000000000E+00 0. -1.
          2   -1    0    0  501    0  0.00000000000E+00 -0.00000000000E+00 -0.17149088581E+04  0.17149088581E+04  0.00000000000E+00 0.  1.
         25    2    1    2    0    0 -0.48734069619E+02  0.29991493625E+02 -0.15104583553E+04  0.15167091757E+04  0.12509109221E+03 0.  0.
         23    2    1    2    0    0  0.48734069619E+02 -0.29991493625E+02 -0.18654094709E+03  0.21610923799E+03  0.92904136461E+02 0.  0.
          5    1    3    3  502    0 -0.11273716882E+02  0.75971298009E+02 -0.94885490473E+03  0.95196735103E+03  0.41800000000E+01 0.  1.
         -5    1    3    3    0  502 -0.37460352737E+02 -0.45979804384E+02 -0.56160345059E+03  0.56474182469E+03  0.41800000000E+01 0.  1.
        -11    1    4    4    0    0  0.18568697715E+02  0.15840818228E+02 -0.30583970114E+01  0.24598411519E+02  0.00000000000E+00 0. -1.
         11    1    4    4    0    0  0.30165371903E+02 -0.45832311853E+02 -0.18348255008E+03  0.19151082647E+03  0.00000000000E+00 0.  1.
</event>
<event>
 8    1  0.3541538E-009  0.1476422E+03  0.7561462E-02  0.1203401E+00
          2   -1    0    0  501    0  0.00000000000E+00  0.00000000000E+00  0.12614319205E+04  0.12614319205E+04  0.00000000000E+00 0.  1.
         -2   -1    0    0    0  501 -0.00000000000E+00 -0.00000000000E+00 -0.23937166373E+02  0.23937166373E+02  0.00000000000E+00 0. -1.
         25    2    1    2    0    0 -0.38493325870E+01  0.12147490170E+03  0.87934013740E+03  0.89646934185E+03  0.12508890650E+03 0.  0.
         23    2    1    2    0    0  0.38493325870E+01 -0.12147490170E+03  0.35815461678E+03  0.38889974507E+03  0.90539014213E+02 0.  0.
          5    1    3    3  502    0 -0.43613131882E+02  0.54448212773E+02  0.18506492591E+03  0.19782116254E+03  0.41800000000E+01 0.  1.
         -5    1    3    3    0  502  0.39763799295E+02  0.67026688927E+02  0.69427521149E+03  0.69864817931E+03  0.41800000000E+01 0.  1.
        -11    1    4    4    0    0 -0.39761559508E+02 -0.55913915116E+02  0.12207013466E+03  0.14003022993E+03  0.00000000000E+00 0. -1.
         11    1    4    4    0    0  0.43610892095E+02 -0.65560986584E+02  0.23608448212E+03  0.24886951515E+03  0.00000000000E+00 0.  1.
</event>
<event>
 8    1  0.3541538E-009  0.1064174E+03  0.7561462E-02  0.1267352E+00
         -1   -1    0    0    0  501 -0.00000000000E+00  0.00000000000E+00  0.10231365559E+02  0.10231365559E+02  0.00000000000E+00 0.  1.
          1   -1    0    0  501    0  0.00000000000E+00 -0.00000000000E+00 -0.14520729053E+04  0.14520729053E+04  0.00000000000E+00 0. -1.
         25    2    1    2    0    0  0.34789817699E+02  0.20385185529E+02 -0.10240947537E+04  0.10324940076E+04  0.12509166223E+03 0.  0.
         23    2    1    2    0    0 -0.34789817699E+02 -0.20385185529E+02 -0.41774678606E+03  0.42981026328E+03  0.92728625326E+02 0.  0.
          5    1    3    3  502    0  0.25063431301E+02  0.63032445499E+02 -0.32552600931E+03  0.33254461342E+03  0.41800000000E+01 0.  1.
         -5    1    3    3    0  502  0.97263863978E+01 -0.42647259970E+02 -0.69856874435E+03  0.69994939414E+03  0.41800000000E+01 0.  1.
        -11    1    4    4    0    0  0.13019906064E+02  0.29249430316E+02 -0.14486202808E+03  0.14835785893E+03  0.00000000000E+00 0.  1.
         11    1    4    4    0    0 -0.47809723763E+02 -0.49634615844E+02 -0.27288475798E+03  0.28145240435E+03  0.00000000000E+00 0. -1.
</event>
<event>
 8    1  0.3541538E-009  0.1192857E+03  0.7561462E-02  0.1244280E+00
          2   -1    0    0  501    0  0.00000000000E+00  0.00000000000E+00  0.58407172676E+03  0.58407172676E+03  0.00000000000E+00 0.  1.
         -2   -1    0    0    0  501 -0.00000000000E+00 -0.00000000000E+00 -0.37814515157E+02  0.37814515157E+02  0.00000000000E+00 0. -1.
         25    2    1    2    0    0 -0.20833169324E+02  0.46822625521E+02  0.11250155843E+03  0.17587269830E+03  0.12509287012E+03 0.  0.
         23    2    1    2    0    0  0.20833169324E+02 -0.46822625521E+02  0.43375565317E+03  0.44601354361E+03  0.90320181692E+02 0.  0.
          5    1    3    3  502    0 -0.54332113235E+02  0.73941562940E+02  0.78154640685E+02  0.12060246067E+03  0.41800000000E+01 0.  1.
         -5    1    3    3    0  502  0.33498943911E+02 -0.27118937418E+02  0.34346917745E+02  0.55270237636E+02  0.41800000000E+01 0.  1.
        -11    1    4    4    0    0 -0.33940245270E+02 -0.32062302619E+02  0.17583526650E+03  0.18192848167E+03  0.00000000000E+00 0. -1.
         11    1    4    4    0    0  0.54773414594E+02 -0.14760322903E+02  0.25792038667E+03  0.26408506194E+03  0.00000000000E+00 0.  1.
</event>
<event>
 8    1  0.3541538E-009  0.1797012E+03  0.7561462E-02  0.1168093E+00
          2   -1    0    0  501    0  0.00000000000E+00  0.00000000000E+00  0.60752895746E+03  0.60752895746E+03  0.00000000000E+00 0. -1.
         -2   -1    0    0    0  501 -0.00000000000E+00 -0.00000000000E+00 -0.69577244474E+02  0.69577244474E+02  0.00000000000E+00 0.  1.
         25    2    1    2    0    0  0.10667976591E+03  0.13063187272E+03  0.35587821561E+03  0.41321087268E+03  0.12509461353E+03 0.  0.
         23    2    1    2    0    0 -0.10667976591E+03 -0.13063187272E+03  0.18207349738E+03  0.26389532926E+03  0.89692406208E+02 0.  0.
          5    1    3    3  502    0  0.61224580053E+02  0.73600296703E+02  0.71398104475E+02  0.11950152551E+03  0.41800000000E+01 0.  1.
         -5    1    3    3    0  502  0.45455185856E+02  0.57031576013E+02  0.28448011113E+03  0.29370934717E+03  0.41800000000E+01 0.  1.
        -11    1    4    4    0    0 -0.97625591150E+02 -0.14424479961E+03  0.16069058928E+03  0.23697844575E+03  0.00000000000E+00 0.  1.
         11    1    4    4    0    0 -0.90541747587E+01  0.13612926899E+02  0.21382908099E+02  0.26916883514E+02  0.00000000000E+00 0. -1.
</event>
<event>
 8    1  0.3541538E-009  0.1377211E+03  0.7561462E-02  0.1216429E+00
         -2   -1    0    0    0  501 -0.00000000000E+00  0.00000000000E+00  0.22592530428E+02  0.22592530428E+02  0.00000000000E+00 0.  1.
          2   -1    0    0  501    0  0.00000000000E+00 -0.00000000000E+00 -0.12843033533E+04  0.12843033533E+04  0.00000000000E+00 0. -1.
         25    2    1    2    0    0  0.15831387654E+02  0.11990142653E+03 -0.85239335134E+03  0.86997000611E+03  0.12508557557E+03 0.  0.
         23    2    1    2    0    0 -0.15831387654E+02 -0.11990142653E+03 -0.40931747149E+03  0.43692587757E+03  0.93468952619E+02 0.  0.
          5    1    3    3  502    0 -0.24836792503E+02  0.17211071682E+02 -0.41108274795E+02  0.51190330209E+02  0.41800000000E+01 0. -1.
         -5    1    3    3    0  502  0.40668180158E+02  0.10269035484E+03 -0.81128507654E+03  0.81877967591E+03  0.41800000000E+01 0. -1.
        -11    1    4    4    0    0 -0.32661659268E+02 -0.35072690776E+02 -0.58596071980E+02  0.75699255451E+02  0.00000000000E+00 0.  1.
         11    1    4    4    0    0  0.16830271614E+02 -0.84828735751E+02 -0.35072139951E+03  0.36122662212E+03  0.00000000000E+00 0. -1.
</event>
<event>
 8    1  0.3541538E-009  0.2768140E+03  0.7561462E-02  0.1097442E+00
         -2   -1    0    0    0  501 -0.00000000000E+00  0.00000000000E+00  0.93256215034E+02  0.93256215034E+02  0.00000000000E+00 0.  1.
          2   -1    0    0  501    0  0.00000000000E+00 -0.00000000000E+00 -0.96322805128E+03  0.96322805128E+03  0.00000000000E+00 0. -1.
         25    2    1    2    0    0  0.14483951884E+03 -0.22428582363E+03 -0.58815850508E+03  0.65792151843E+03  0.12509068878E+03 0.  0.
         23    2    1    2    0    0 -0.14483951884E+03  0.22428582363E+03 -0.28181333116E+03  0.39856274788E+03  0.90282298795E+02 0.  0.
          5    1    3    3  502    0  0.54876072036E+01 -0.61034272145E+02 -0.52347829549E+02  0.80703555483E+02  0.41800000000E+01 0. -1.
         -5    1    3    3    0  502  0.13935191164E+03 -0.16325155149E+03 -0.53581067553E+03  0.57721796295E+03  0.41800000000E+01 0. -1.
        -11    1    4    4    0    0 -0.15390321187E+02  0.88858367606E+02 -0.12567962832E+03  0.15468691107E+03  0.00000000000E+00 0.  1.
         11    1    4    4    0    0 -0.12944919765E+03  0.13542745603E+03 -0.15613370284E+03  0.24387583681E+03  0.00000000000E+00 0. -1.
</event>
<event>
 8    1  0.3541538E-009  0.1234802E+03  0.7561462E-02  0.1237464E+00
          2   -1    0    0  501    0  0.00000000000E+00  0.00000000000E+00  0.65089534433E+03  0.65089534433E+03  0.00000000000E+00 0.  1.
         -2   -1    0    0    0  501 -0.00000000000E+00 -0.00000000000E+00 -0.37934465574E+02  0.37934465574E+02  0.00000000000E+00 0. -1.
         25    2    1    2    0    0 -0.95193711663E+02 -0.54705180414E+02  0.36061181912E+03  0.39716617110E+03  0.12508230840E+03 0.  0.
         23    2    1    2    0    0  0.95193711663E+02  0.54705180414E+02  0.25234905963E+03  0.29166363880E+03  0.96608130073E+02 0.  0.
          5    1    3    3  502    0 -0.29698604307E+02 -0.26129375651E+01  0.34435119744E+01  0.30301232900E+02  0.41800000000E+01 0.  1.
         -5    1    3    3    0  502 -0.65495107356E+02 -0.52092242849E+02  0.35716830715E+03  0.36686493820E+03  0.41800000000E+01 0.  1.
        -11    1    4    4    0    0  0.91373040359E+02  0.71386349052E+02  0.15917336928E+03  0.19692944123E+03  0.00000000000E+00 0. -1.
         11    1    4    4    0    0  0.38206713047E+01 -0.16681168639E+02  0.93175690355E+02  0.94734197571E+02  0.00000000000E+00 0.  1.
</event>
<event>
 8    1  0.3541538E-009  0.1425401E+03  0.7561462E-02  0.1209951E+00
         -1   -1    0    0    0  501 -0.00000000000E+00  0.00000000000E+00  0.93423328016E+02  0.93423328016E+02  0.00000000000E+00 0.  1.
          1   -1    0    0  501    0  0.00000000000E+00 -0.00000000000E+00 -0.32418139675E+03  0.32418139675E+03  0.00000000000E+00 0. -1.
         25    2    1    2    0    0 -0.29789896338E+02 -0.91297219087E+02 -0.50661024800E+01  0.15778433972E+03  0.12509041661E+03 0.  0.
         23    2    1    2    0    0  0.29789896338E+02  0.91297219087E+02 -0.22569196626E+03  0.25982038505E+03  0.85715510378E+02 0.  0.
          5    1    3    3  502    0 -0.78116421414E+02 -0.47343800359E+02 -0.10802610027E+02  0.92074858189E+02  0.41800000000E+01 0. -1.
         -5    1    3    3    0  502  0.48326525076E+02 -0.43953418728E+02  0.57365075466E+01  0.65709481528E+02  0.41800000000E+01 0. -1.
        -11    1    4    4    0    0 -0.29521590518E+02  0.40334097760E+02 -0.99822550066E+02  0.11163738285E+03  0.00000000000E+00 0.  1.
         11    1    4    4    0    0  0.59311486856E+02  0.50963121327E+02 -0.12586941619E+03  0.14818300220E+03  0.00000000000E+00 0. -1.
</event>
<event>
 8    1  0.3541538E-009  0.3060580E+03  0.7561462E-02  0.1082251E+00
         -1   -1    0    0    0  501 -0.00000000000E+00  0.00000000000E+00  0.77841838191E+02  0.77841838191E+02  0.00000000000E+00 0.  1.
          1   -1    0    0  501    0  0.00000000000E+00 -0.00000000000E+00 -0.12915511479E+04  0.12915511479E+04  0.00000000000E+00 0. -1.
         25    2    1    2    0    0 -0.28983285915E+03  0.48951351170E+02 -0.51505230308E+03  0.60607367446E+03  0.12508838053E+03 0.  0.
         23    2    1    2    0    0  0.28983285915E+03 -0.48951351170E+02 -0.69865700666E+03  0.76331931166E+03  0.90196660566E+02 0.  0.
          5    1    3    3  502    0 -0.21202665151E+02  0.36201732168E+02 -0.12783673960E+03  0.13460989122E+03  0.41800000000E+01 0.  1.
         -5    1    3    3    0  502 -0.26863019400E+03  0.12749619002E+02 -0.38721556348E+03  0.47146378324E+03  0.41800000000E+01 0.  1.
        -11    1    4    4    0    0  0.54993314230E+02 -0.36130499392E+02 -0.95903196986E+02  0.11630606514E+03  0.00000000000E+00 0.  1.
         11    1    4    4    0    0  0.23483954492E+03 -0.12820851778E+02 -0.60275380967E+03  0.64701324652E+03  0.00000000000E+00 0. -1.
</event>
<event>
 8    1  0.3541538E-009  0.9736345E+02  0.7561462E-02  0.1285940E+00
         -2   -1    0    0    0  501 -0.00000000000E+00  0.00000000000E+00  0.31301851384E+03  0.31301851384E+03  0.00000000000E+00 0. -1.
          2   -1    0    0  501    0  0.00000000000E+00 -0.00000000000E+00 -0.41549879954E+02  0.41549879954E+02  0.00000000000E+00 0.  1.
         25    2    1    2    0    0 -0.21035690832E+02 -0.21734163575E+02  0.12801004403E+03  0.18151727642E+03  0.12508827328E+03 0.  0.
         23    2    1    2    0    0  0.21035690832E+02  0.21734163575E+02  0.14345858986E+03  0.17305111738E+03  0.91931757652E+02 0.  0.
          5    1    3    3  502    0  0.20621453851E+02 -0.45646093790E+02  0.63621057271E+01  0.50663192028E+02  0.41800000000E+01 0. -1.
         -5    1    3    3    0  502 -0.41657144683E+02  0.23911930215E+02  0.12164793830E+03  0.13085408439E+03  0.41800000000E+01 0. -1.
        -11    1    4    4    0    0  0.55743219268E+02  0.86007619236E+00  0.74049439462E+02  0.92689620293E+02  0.00000000000E+00 0.  1.
         11    1    4    4    0    0 -0.34707528436E+02  0.20874087383E+02  0.69409150399E+02  0.80361497083E+02  0.00000000000E+00 0. -1.
</event>
<event>
 8    1  0.3541538E-009  0.8286825E+02  0.7561462E-02  0.1321103E+00
          3   -1    0    0  501    0  0.00000000000E+00  0.00000000000E+00  0.57212615753E+02  0.57212615753E+02  0.00000000000E+00 0. -1.
         -3   -1    0    0    0  501 -0.00000000000E+00 -0.00000000000E+00 -0.29311099786E+03  0.29311099786E+03  0.00000000000E+00 0.  1.
         25    2    1    2    0    0  0.21745510981E+02  0.55715672498E+02 -0.82870070152E+02  0.16153588213E+03  0.12509711939E+03 0.  0.
         23    2    1    2    0    0 -0.21745510981E+02 -0.55715672498E+02 -0.15302831196E+03  0.18878773148E+03  0.92984084058E+02 0.  0.
          5    1    3    3  502    0  0.38130773628E+02 -0.58422844229E+01  0.17515072588E+02  0.42571567419E+02  0.41800000000E+01 0.  1.
         -5    1    3    3    0  502 -0.16385262647E+02  0.61557956921E+02 -0.10038514274E+03  0.11896431471E+03  0.41800000000E+01 0.  1.
        -11    1    4    4    0    0 -0.23066676567E+00 -0.28044653436E+02  0.36087722668E+01  0.28276828514E+02  0.00000000000E+00 0. -1.
         11    1    4    4    0    0 -0.21514844215E+02 -0.27671019061E+02 -0.15663708423E+03  0.16051090297E+03  0.00000000000E+00 0.  1.
</event>
<event>
 8    1  0.3541538E-009  0.1910476E+03  0.7561462E-02  0.1157520E+00
          2   -1    0    0  501    0  0.00000000000E+00  0.00000000000E+00  0.59480182003E+02  0.59480182003E+02  0.00000000000E+00 0. -1.
         -2   -1    0    0    0  501 -0.00000000000E+00 -0.00000000000E+00 -0.74785052155E+03  0.74785052155E+03  0.00000000000E+00 0.  1.
         25    2    1    2    0    0 -0.16508424173E+03 -0.55093495713E+02 -0.26664752841E+03  0.34210342307E+03  0.12508296259E+03 0.  0.
         23    2    1    2    0    0  0.16508424173E+03  0.55093495713E+02 -0.42172281114E+03  0.46522728048E+03  0.91094417681E+02 0.  0.
          5    1    3    3  502    0 -0.11928535378E+03 -0.78053687636E+02 -0.25045226577E+03  0.28821031142E+03  0.41800000000E+01 0.  1.
         -5    1    3    3    0  502 -0.45798887956E+02  0.22960191923E+02 -0.16195262636E+02  0.53893111647E+02  0.41800000000E+01 0.  1.
        -11    1    4    4    0    0  0.12277968229E+03  0.55138670021E+01 -0.20603737847E+03  0.23990967975E+03  0.00000000000E+00 0. -1.
         11    1    4    4    0    0  0.42304559440E+02  0.49579628711E+02 -0.21568543267E+03  0.22531760073E+03  0.00000000000E+00 0.  1.
</event>
<event>
 8    1  0.3541538E-009  0.1077889E+03  0.7561462E-02  0.1264720E+00
          2   -1    0    0  501    0  0.00000000000E+00  0.00000000000E+00  0.90851504898E+03  0.90851504898E+03  0.00000000000E+00 0. -1.
         -2   -1    0    0    0  501 -0.00000000000E+00 -0.00000000000E+00 -0.24722576778E+02  0.24722576778E+02  0.00000000000E+00 0.  1.
         25    2    1    2    0    0 -0.43829598592E+02  0.51819099727E+02  0.71268156209E+03  0.72675096847E+03  0.12508280625E+03 0.  0.
         23    2    1    2    0    0  0.43829598592E+02 -0.51819099727E+02  0.17111091011E+03  0.20648665728E+03  0.93549683428E+02 0.  0.
          5    1    3    3  502    0 -0.52033135268E+02 -0.30460908965E+01  0.11319772520E+03  0.12469131175E+03  0.41800000000E+01 0.  1.
         -5    1    3    3    0  502  0.82035366759E+01  0.54865190623E+02  0.59948383689E+03  0.60205965672E+03  0.41800000000E+01 0.  1.
        -11    1    4    4    0    0 -0.24447927901E+02 -0.22929351781E+02  0.22382376095E+02  0.40304182306E+02  0.00000000000E+00 0.  1.
         11    1    4    4    0    0  0.68277526493E+02 -0.28889747946E+02  0.14872853401E+03  0.16618247498E+03  0.00000000000E+00 0. -1.
</event>
<event>
 8    1  0.3541538E-009  0.1126190E+03  0.7561462E-02  0.1255795E+00
         -2   -1    0    0    0  501 -0.00000000000E+00  0.00000000000E+00  0.83818146482E+02  0.83818146482E+02  0.00000000000E+00 0. -1.
          2   -1    0    0  501    0  0.00000000000E+00 -0.00000000000E+00 -0.23938127920E+03  0.23938127920E+03  0.00000000000E+00 0.  1.
         25    2    1    2    0    0  0.37654584561E+02 -0.77056832902E+02 -0.50886766033E+02  0.15997678505E+03  0.12508990991E+03 0.  0.
         23    2    1    2    0    0 -0.37654584561E+02  0.77056832902E+02 -0.10467636669E+03  0.16322264064E+03  0.91262617972E+02 0.  0.
          5    1    3    3  502    0  0.49134945531E+02  0.40403737093E+01 -0.59647861602E+02  0.77497788909E+02  0.41800000000E+01 0. -1.
         -5    1    3    3    0  502 -0.11480360971E+02 -0.81097206611E+02  0.87610955694E+01  0.82478996136E+02  0.41800000000E+01 0. -1.
        -11    1    4    4    0    0 -0.19418723498E+02  0.72355239333E+02 -0.21498342165E+02  0.77939375139E+02  0.00000000000E+00 0. -1.
         11    1    4    4    0    0 -0.18235861062E+02  0.47015935685E+01 -0.83178024524E+02  0.85283265501E+02  0.00000000000E+00 0.  1.
</event>
<event>
 8    1  0.3541538E-009  0.1039663E+03  0.7561462E-02  0.1272170E+00
         -1   -1    0    0    0  501 -0.00000000000E+00  0.00000000000E+00  0.31696325182E+03  0.31696325182E+03  0.00000000000E+00 0.  1.
          1   -1    0    0  501    0  0.00000000000E+00 -0.00000000000E+00 -0.73421900753E+02  0.73421900753E+02  0.00000000000E+00 0. -1.
         25    2    1    2    0    0 -0.83378276779E+02 -0.69749650130E+01  0.48449246180E+02  0.15809897716E+03  0.12508944779E+03 0.  0.
         23    2    1    2    0    0  0.83378276779E+02  0.69749650130E+01  0.19509210488E+03  0.23228617541E+03  0.94315166978E+02 0.  0.
          5    1    3    3  502    0  0.28670799330E+01 -0.21644693877E+02  0.65237080482E+02  0.68920693483E+02  0.41800000000E+01 0.  1.
         -5    1    3    3    0  502 -0.86245356712E+02  0.14669728864E+02 -0.16787834302E+02  0.89178283679E+02  0.41800000000E+01 0.  1.
        -11    1    4    4    0    0  0.20720009792E+02  0.25426536768E+02  0.14843409970E+03  0.15201483326E+03  0.00000000000E+00 0.  1.
         11    1    4    4    0    0  0.62658266987E+02 -0.18451571755E+02  0.46658005180E+02  0.80271342143E+02  0.00000000000E+00 0. -1.
</event>
<event>
 8    1  0.3541538E-009  0.1045422E+03  0.7561462E-02  0.1271024E+00
          2   -1    0    0  501    0  0.00000000000E+00  0.00000000000E+00  0.16037947321E+03  0.16037947321E+03  0.00000000000E+00 0.  1.
         -2   -1    0    0    0  501 -0.00000000000E+00 -0.00000000000E+00 -0.75907967196E+02  0.75907967196E+02  0.00000000000E+00 0. -1.
         25    2    1    2    0    0  0.13097106570E+02  0.10397644859E+02  0.33418135228E+02  0.13055190121E+03  0.12508949568E+03 0.  0.
         23    2    1    2    0    0 -0.13097106570E+02 -0.10397644859E+02  0.51053370783E+02  0.10573553919E+03  0.91070919400E+02 0.  0.
          5    1    3    3  502    0  0.65526883290E+02 -0.90164605841E+01  0.33990472580E+02  0.74484183699E+02  0.41800000000E+01 0.  1.
         -5    1    3    3    0  502 -0.52429776720E+02  0.19414105443E+02 -0.57233735218E+00  0.56067717513E+02  0.41800000000E+01 0.  1.
        -11    1    4    4    0    0  0.33029447421E+02 -0.21357043783E+02  0.50171176118E+01  0.39651471413E+02  0.00000000000E+00 0. -1.
         11    1    4    4    0    0 -0.46126553991E+02  0.10959398924E+02  0.46036253171E+02  0.66084067776E+02  0.00000000000E+00 0.  1.
</event>
<event>
 8    1  0.3541538E-009  0.9988396E+02  0.7561462E-02  0.1280540E+00
          2   -1    0    0  501    0  0.00000000000E+00  0.00000000000E+00  0.10092574129E+03  0.10092574129E+03  0.00000000000E+00 0. -1.
         -2   -1    0    0    0  501 -0.00000000000E+00 -0.00000000000E+00 -0.19655026737E+03  0.19655026737E+03  0.00000000000E+00 0.  1.
         25    2    1    2    0    0 -0.58288659526E+02  0.17303124550E+02 -0.12130659565E+03  0.18455234752E+03  0.12508921968E+03 0.  0.
         23    2    1    2    0    0  0.58288659526E+02 -0.17303124550E+02  0.25682069567E+02  0.11292366115E+03  0.91625425516E+02 0.  0.
          5    1    3    3  502    0  0.31833799682E+02  0.31902106372E+02 -0.24688016250E+02  0.51556820494E+02  0.41800000000E+01 0. -1.
         -5    1    3    3    0  502 -0.90122459209E+02 -0.14598981822E+02 -0.96618579398E+02  0.13299552703E+03  0.41800000000E+01 0. -1.
        -11    1    4    4    0    0  0.47526395128E+02 -0.20684550390E+02 -0.27418702632E+02  0.58637821521E+02  0.00000000000E+00 0.  1.
         11    1    4    4    0    0  0.10762264398E+02  0.33814258401E+01  0.53100772200E+02  0.54285839626E+02  0.00000000000E+00 0. -1.
</event>
<event>
 8    1  0.3541538E-009  0.1964238E+03  0.7561462E-02  0.1152792E+00
         -4   -1    0    0    0  501 -0.00000000000E+00  0.00000000000E+00  0.17051546171E+03  0.17051546171E+03  0.00000000000E+00 0. -1.
          4   -1    0    0  501    0  0.00000000000E+00 -0.00000000000E+00 -0.33229909453E+03  0.33229909453E+03  0.00000000000E+00 0.  1.
         25    2    1    2    0    0  0.14504677018E+03 -0.94593424539E+02  0.45206181843E+02  0.21835162482E+03  0.12508937476E+03 0.  0.
         23    2    1    2    0    0 -0.14504677018E+03  0.94593424539E+02 -0.20698981467E+03  0.28446293142E+03  0.89932721919E+02 0.  0.
          5    1    3    3  502    0  0.10888612911E+03  0.13410910329E+01  0.82332470090E+01  0.10928516090E+03  0.41800000000E+01 0.  1.
         -5    1    3    3    0  502  0.36160641069E+02 -0.95934515572E+02  0.36972934834E+02  0.10906646391E+03  0.41800000000E+01 0.  1.
        -11    1    4    4    0    0 -0.98520435625E+02  0.32640919228E+02 -0.16862856354E+03  0.19800832883E+03  0.00000000000E+00 0.  1.
         11    1    4    4    0    0 -0.46526334553E+02  0.61952505311E+02 -0.38361251124E+02  0.86454602590E+02  0.00000000000E+00 0. -1.
</event>
<event>
 8    1  0.3541538E-009  0.1664233E+03  0.7561462E-02  0.1181630E+00
         -1   -1    0    0    0  501 -0.00000000000E+00  0.00000000000E+00  0.55767613475E+03  0.55767613475E+03  0.00000000000E+00 0.  1.
          1   -1    0    0  501    0  0.00000000000E+00 -0.00000000000E+00 -0.88016136150E+02  0.88016136150E+02  0.00000000000E+00 0. -1.
         25    2    1    2    0    0 -0.62080286207E+02  0.13810420280E+03  0.42233250071E+03  0.46576695916E+03  0.12508951323E+03 0.  0.
         23    2    1    2    0    0  0.62080286207E+02 -0.13810420280E+03  0.47327497889E+02  0.17992531174E+03  0.84891065376E+02 0.  0.
          5    1    3    3  502    0 -0.87869187584E+02  0.10005508455E+03  0.38167294969E+03  0.40425700612E+03  0.41800000000E+01 0. -1.
         -5    1    3    3    0  502  0.25788901377E+02  0.38049118250E+02  0.40659551020E+02  0.61509953040E+02  0.41800000000E+01 0. -1.
        -11    1    4    4    0    0  0.44438098358E+02 -0.12095867326E+03  0.69845340214E+02  0.14657461162E+03  0.00000000000E+00 0.  1.
         11    1    4    4    0    0  0.17642187849E+02 -0.17145529546E+02 -0.22517842325E+02  0.33350700120E+02  0.00000000000E+00 0. -1.
</event>
<event>
 8    1  0.3541538E-009  0.8866557E+02  0.7561462E-02  0.1306116E+00
         -2   -1    0    0    0  501 -0.00000000000E+00  0.00000000000E+00  0.10527629992E+02  0.10527629992E+02  0.00000000000E+00 0.  1.
          2   -1    0    0  501    0  0.00000000000E+00 -0.00000000000E+00 -0.13832109196E+04  0.13832109196E+04  0.00000000000E+00 0. -1.
         25    2    1    2    0    0 -0.19862688522E+02  0.11298795297E+02 -0.10745496305E+04  0.10820475873E+04  0.12509150130E+03 0.  0.
         23    2    1    2    0    0  0.19862688522E+02 -0.11298795297E+02 -0.29813365912E+03  0.31169096227E+03  0.88007886491E+02 0.  0.
          5    1    3    3  502    0 -0.52514231142E+02  0.85922523010E+01 -0.98751553966E+03  0.98895701865E+03  0.41800000000E+01 0. -1.
         -5    1    3    3    0  502  0.32651542620E+02  0.27065429959E+01 -0.87034090807E+02  0.93090568658E+02  0.41800000000E+01 0. -1.
        -11    1    4    4    0    0 -0.24395223663E+01 -0.47955514873E+02 -0.15687348805E+03  0.16405783715E+03  0.00000000000E+00 0.  1.
         11    1    4    4    0    0  0.22302210888E+02  0.36656719576E+02 -0.14126017107E+03  0.14763312512E+03  0.00000000000E+00 0. -1.
</event>
<event>
 8    1  0.3541538E-009  0.1066793E+03  0.7561462E-02  0.1266846E+00
          3   -1    0    0  501    0  0.00000000000E+00  0.00000000000E+00  0.24240629453E+02  0.24240629453E+02  0.00000000000E+00 0. -1.
         -3   -1    0    0    0  501 -0.00000000000E+00 -0.00000000000E+00 -0.61971412416E+03  0.61971412416E+03  0.00000000000E+00 0.  1.
         25    2    1    2    0    0  0.41229875577E+02  0.33253937557E+02 -0.36005307736E+03  0.38482728492E+03  0.12509234071E+03 0.  0.
         23    2    1    2    0    0 -0.41229875577E+02 -0.33253937557E+02 -0.23542041735E+03  0.25912746869E+03  0.94438049117E+02 0.  0.
          5    1    3    3  502    0 -0.28561637913E+02  0.40221614111E+02 -0.66049024154E+02  0.82543875568E+02  0.41800000000E+01 0. -1.
         -5    1    3    3    0  502  0.69791513490E+02 -0.69676765541E+01 -0.29400405320E+03  0.30228340935E+03  0.41800000000E+01 0. -1.
        -11    1    4    4    0    0 -0.49465871001E+02 -0.52815853756E+02 -0.22319698930E+03  0.23463435988E+03  0.00000000000E+00 0.  1.
         11    1    4    4    0    0  0.82359954238E+01  0.19561916199E+02 -0.12223428048E+02  0.24493108811E+02  0.00000000000E+00 0. -1.
</event>
<event>
 8    1  0.3541538E-009  0.7632815E+02  0.7561462E-02  0.1339807E+00
         -3   -1    0    0    0  501 -0.00000000000E+00  0.00000000000E+00  0.24939213891E+03  0.24939213891E+03  0.00000000000E+00 0.  1.
          3   -1    0    0  501    0  0.00000000000E+00 -0.00000000000E+00 -0.55695968884E+02  0.55695968884E+02  0.00000000000E+00 0. -1.
         25    2    1    2    0    0  0.40106485467E+01 -0.20121880705E+02  0.54175529217E+02  0.13785251685E+03  0.12508938025E+03 0.  0.
         23    2    1    2    0    0 -0.40106485467E+01  0.20121880705E+02  0.13952064081E+03  0.16723559094E+03  0.89893038008E+02 0.  0.
          5    1    3    3  502    0  0.24854513958E+02 -0.58167604415E+02 -0.58625678573E+01  0.63663640874E+02  0.41800000000E+01 0. -1.
         -5    1    3    3    0  502 -0.20843865411E+02  0.38045723710E+02  0.60038097074E+02  0.74188875974E+02  0.41800000000E+01 0. -1.
        -11    1    4    4    0    0  0.16755264674E+02 -0.14338421509E-01 -0.68005069369E+01  0.18082754063E+02  0.00000000000E+00 0. -1.
         11    1    4    4    0    0 -0.20765913221E+02  0.20136219126E+02  0.14632114774E+03  0.14915283688E+03  0.00000000000E+00 0.  1.
</event>
<event>
 8    1  0.3541538E-009  0.8398567E+02  0.7561462E-02  0.1318107E+00
         -2   -1    0    0    0  501 -0.00000000000E+00  0.00000000000E+00  0.16112940378E+03  0.16112940378E+03  0.00000000000E+00 0.  1.
          2   -1    0    0  501    0  0.00000000000E+00 -0.00000000000E+00 -0.14626609752E+03  0.14626609752E+03  0.00000000000E+00 0. -1.
         25    2    1    2    0    0 -0.41398344319E+02 -0.71698231457E+02 -0.61427909453E+02  0.16209585111E+03  0.12508883876E+03 0.  0.
         23    2    1    2    0    0  0.41398344319E+02  0.71698231457E+02  0.76291215711E+02  0.14529965018E+03  0.91854120445E+02 0.  0.
          5    1    3    3  502    0 -0.37109006424E+02 -0.50331202382E+02 -0.99754891748E+02  0.11780840003E+03  0.41800000000E+01 0.  1.
         -5    1    3    3    0  502 -0.42893378941E+01 -0.21367029075E+02  0.38326982295E+02  0.44287451077E+02  0.41800000000E+01 0.  1.
        -11    1    4    4    0    0  0.24532028839E+02  0.49340673345E+02  0.96251620146E+02  0.11090850673E+03  0.00000000000E+00 0.  1.
         11    1    4    4    0    0  0.16866315479E+02  0.22357558113E+02 -0.19960404436E+02  0.34391143451E+02  0.00000000000E+00 0. -1.
</event>
<event>
 8    1  0.3541538E-009  0.1140864E+03  0.7561462E-02  0.1253184E+00
          2   -1    0    0  501    0  0.00000000000E+00  0.00000000000E+00  0.15811740452E+03  0.15811740452E+03  0.00000000000E+00 0. -1.
         -2   -1    0    0    0  501 -0.00000000000E+00 -0.00000000000E+00 -0.16163214297E+03  0.16163214297E+03  0.00000000000E+00 0.  1.
         25    2    1    2    0    0  0.50016930724E+02  0.11365075175E+02  0.10443869258E+03  0.17083607163E+03  0.12508662826E+03 0.  0.
         23    2    1    2    0    0 -0.50016930724E+02 -0.11365075175E+02 -0.10795343103E+03  0.14891347586E+03  0.88828045844E+02 0.  0.
          5    1    3    3  502    0  0.77227141039E+02 -0.23830563895E+02  0.95656434246E+02  0.12529785673E+03  0.41800000000E+01 0.  1.
         -5    1    3    3    0  502 -0.27210210315E+02  0.35195639070E+02  0.87822583343E+01  0.45538214902E+02  0.41800000000E+01 0.  1.
        -11    1    4    4    0    0 -0.17991738427E+01  0.35367252464E+02 -0.36185071365E+02  0.50630415395E+02  0.00000000000E+00 0.  1.
         11    1    4    4    0    0 -0.48217756881E+02 -0.46732327639E+02 -0.71768359666E+02  0.98283060465E+02  0.00000000000E+00 0. -1.
</event>
<event>
 8    1  0.3541538E-009  0.9087198E+02  0.7561462E-02  0.1300754E+00
         -1   -1    0    0    0  501 -0.00000000000E+00  0.00000000000E+00  0.64800738913E+02  0.64800738913E+02  0.00000000000E+00 0.  1.
          1   -1    0    0  501    0  0.00000000000E+00 -0.00000000000E+00 -0.22538336183E+03  0.22538336183E+03  0.00000000000E+00 0. -1.
         25    2    1    2    0    0 -0.39814164945E+02  0.36123309555E+02 -0.10169353748E+03  0.16994824182E+03  0.12510302997E+03 0.  0.
         23    2    1    2    0    0  0.39814164945E+02 -0.36123309555E+02 -0.58889085429E+02  0.12023585892E+03  0.89992645055E+02 0.  0.
          5    1    3    3  502    0 -0.26905100310E+01  0.39252785343E+02 -0.12133660748E+03  0.12762470261E+03  0.41800000000E+01 0.  1.
         -5    1    3    3    0  502 -0.37123654914E+02 -0.31294757877E+01  0.19643069993E+02  0.42323539214E+02  0.41800000000E+01 0.  1.
        -11    1    4    4    0    0  0.11331094184E+02 -0.63904107842E+02 -0.39489654265E+02  0.75970793654E+02  0.00000000000E+00 0.  1.
         11    1    4    4    0    0  0.28483070761E+02  0.27780798287E+02 -0.19399431164E+02  0.44265065265E+02  0.00000000000E+00 0. -1.
</event>
<event>
 8    1  0.3541538E-009  0.8432420E+02  0.7561462E-02  0.1317209E+00
         -1   -1    0    0    0  501 -0.00000000000E+00  0.00000000000E+00  0.33281012827E+02  0.33281012827E+02  0.00000000000E+00 0.  1.
          1   -1    0    0  501    0  0.00000000000E+00 -0.00000000000E+00 -0.53478546073E+03  0.53478546073E+03  0.00000000000E+00 0. -1.
         25    2    1    2    0    0  0.14786478326E+02 -0.26233039668E+02 -0.43115001398E+03  0.44993812451E+03  0.12508864464E+03 0.  0.
         23    2    1    2    0    0 -0.14786478326E+02  0.26233039668E+02 -0.70354433920E+02  0.11812834905E+03  0.89987488935E+02 0.  0.
          5    1    3    3  502    0 -0.34469456879E+02  0.25492781720E+02 -0.73421902734E+02  0.85125046716E+02  0.41800000000E+01 0. -1.
         -5    1    3    3    0  502  0.49255935205E+02 -0.51725821388E+02 -0.35772811125E+03  0.36481307779E+03  0.41800000000E+01 0. -1.
        -11    1    4    4    0    0  0.41107524313E+01  0.33519861018E+02  0.10032148636E+02  0.35229580958E+02  0.00000000000E+00 0.  1.
         11    1    4    4    0    0 -0.18897230757E+02 -0.72868213494E+01 -0.80386582556E+02  0.82898768089E+02  0.00000000000E+00 0. -1.
</event>
<event>
 8    1  0.3541538E-009  0.2323335E+03  0.7561462E-02  0.1125008E+00
         -1   -1    0    0    0  501 -0.00000000000E+00  0.00000000000E+00  0.46452374015E+03  0.46452374015E+03  0.00000000000E+00 0.  1.
          1   -1    0    0  501    0  0.00000000000E+00 -0.00000000000E+00 -0.14840249533E+03  0.14840249533E+03  0.00000000000E+00 0. -1.
         25    2    1    2    0    0 -0.21826807175E+03 -0.47714022788E+02  0.65463519691E+02  0.26429237943E+03  0.12508960907E+03 0.  0.
         23    2    1    2    0    0  0.21826807175E+03  0.47714022788E+02  0.25065772513E+03  0.34863385606E+03  0.93801339595E+02 0.  0.
          5    1    3    3  502    0 -0.11879964736E+02  0.55526922569E+01  0.48512812974E+02  0.50427486315E+02  0.41800000000E+01 0.  1.
         -5    1    3    3    0  502 -0.20638810701E+03 -0.53266715045E+02  0.16950706717E+02  0.21386489311E+03  0.41800000000E+01 0.  1.
        -11    1    4    4    0    0  0.47973909348E+02 -0.23142411350E+02  0.30336086270E+02  0.61297188446E+02  0.00000000000E+00 0. -1.
         11    1    4    4    0    0  0.17029416240E+03  0.70856434138E+02  0.22032163886E+03  0.28733666761E+03  0.00000000000E+00 0.  1.
</event>
<event>
 8    1  0.3541538E-009  0.2021184E+03  0.7561462E-02  0.1147964E+00
          2   -1    0    0  501    0  0.00000000000E+00  0.00000000000E+00  0.66115393741E+03  0.66115393741E+03  0.00000000000E+00 0. -1.
         -2   -1    0    0    0  501 -0.00000000000E+00 -0.00000000000E+00 -0.82544232472E+02  0.82544232472E+02  0.00000000000E+00 0.  1.
         25    2    1    2    0    0 -0.17754372667E+03 -0.63691650785E+02  0.16624720704E+03  0.28082719536E+03  0.12508948215E+03 0.  0.
         23    2    1    2    0    0  0.17754372667E+03  0.63691650785E+02  0.41236249789E+03  0.46287097451E+03  0.92888686713E+02 0.  0.
          5    1    3    3  502    0 -0.92639121169E+02 -0.68226043857E+02  0.15772590398E+03  0.19527348263E+03  0.41800000000E+01 0.  1.
         -5    1    3    3    0  502 -0.84904605506E+02  0.45343930718E+01  0.85213030595E+01  0.85553712734E+02  0.41800000000E+01 0.  1.
        -11    1    4    4    0    0  0.18200250247E+02  0.38598217733E+02  0.46992108666E+02  0.63477002120E+02  0.00000000000E+00 0. -1.
         11    1    4    4    0    0  0.15934347643E+03  0.25093433052E+02  0.36537038923E+03  0.39939397239E+03  0.00000000000E+00 0.  1.
</event>
<event>
 8    1  0.3541538E-009  0.1441694E+03  0.7561462E-02  0.1207826E+00
         -2   -1    0    0    0  501 -0.00000000000E+00  0.00000000000E+00  0.11780146614E+03  0.11780146614E+03  0.00000000000E+00 0.  1.
          2   -1    0    0  501    0  0.00000000000E+00 -0.00000000000E+00 -0.22667166246E+03  0.22667166246E+03  0.00000000000E+00 0. -1.
         25    2    1    2    0    0  0.96945250876E+02 -0.79962116905E+01 -0.12928814478E+03  0.20451111593E+03  0.12508817326E+03 0.  0.
         23    2    1    2    0    0 -0.96945250876E+02  0.79962116905E+01  0.20417948466E+02  0.13996201266E+03  0.98540099964E+02 0.  0.
          5    1    3    3  502    0  0.24585984345E+02  0.54601259211E+02 -0.68494591820E+02  0.91075516152E+02  0.41800000000E+01 0. -1.
         -5    1    3    3    0  502  0.72359266531E+02 -0.62597470902E+02 -0.60793552961E+02  0.11343559978E+03  0.41800000000E+01 0. -1.
        -11    1    4    4    0    0 -0.42263817297E+02 -0.41174305201E+02 -0.10952568454E+02  0.60012602152E+02  0.00000000000E+00 0. -1.
         11    1    4    4    0    0 -0.54681433578E+02  0.49170516891E+02  0.31370516920E+02  0.79949410513E+02  0.00000000000E+00 0.  1.
</event>
<event>
 8    1  0.3541538E-009  0.7041675E+02  0.7561462E-02  0.1358682E+00
         -2   -1    0    0    0  501 -0.00000000000E+00  0.00000000000E+00  0.15224751692E+03  0.15224751692E+03  0.00000000000E+00 0.  1.
          2   -1    0    0  501    0  0.00000000000E+00 -0.00000000000E+00 -0.10030140251E+03  0.10030140251E+03  0.00000000000E+00 0. -1.
         25    2    1    2    0    0 -0.37969145326E+02  0.31460620778E+02 -0.88453246252E+01  0.13474825776E+03  0.12508967402E+03 0.  0.
         23    2    1    2    0    0  0.37969145326E+02 -0.31460620778E+02  0.60791439035E+02  0.11780066166E+03  0.88033914895E+02 0.  0.
          5    1    3    3  502    0 -0.26336616889E+02  0.25002421912E+02  0.56850541882E+02  0.67588423586E+02  0.41800000000E+01 0.  1.
         -5    1    3    3    0  502 -0.11632528437E+02  0.64581988654E+01 -0.65695866507E+02  0.67159834176E+02  0.41800000000E+01 0.  1.
        -11    1    4    4    0    0 -0.13513363456E+02 -0.36193069586E+02  0.52895243368E+02  0.65501572873E+02  0.00000000000E+00 0.  1.
         11    1    4    4    0    0  0.51482508782E+02  0.47324488084E+01  0.78961956676E+01  0.52299088790E+02  0.00000000000E+00 0. -1.
</event>
<event>
 8    1  0.3541538E-009  0.9800238E+02  0.7561462E-02  0.1284554E+00
          3   -1    0    0  501    0  0.00000000000E+00  0.00000000000E+00  0.12398249607E+03  0.12398249607E+03  0.00000000000E+00 0. -1.
         -3   -1    0    0    0  501 -0.00000000000E+00 -0.00000000000E+00 -0.13127911566E+03  0.13127911566E+03  0.00000000000E+00 0.  1.
         25    2    1    2    0    0 -0.19219047289E+02 -0.16319575263E+01 -0.70361742225E+02  0.14480820122E+03  0.12508639137E+03 0.  0.
         23    2    1    2    0    0  0.19219047289E+02  0.16319575263E+01  0.63065122637E+02  0.11045341051E+03  0.88604238819E+02 0.  0.
          5    1    3    3  502    0  0.35722088759E+02  0.30380642710E+02  0.35558400378E+01  0.47214060142E+02  0.41800000000E+01 0.  1.
         -5    1    3    3    0  502 -0.54941136048E+02 -0.32012600237E+02 -0.73917582263E+02  0.97594141073E+02  0.41800000000E+01 0.  1.
        -11    1    4    4    0    0 -0.14333494851E+02 -0.33611125198E+02  0.88360340035E+01  0.37592982172E+02  0.00000000000E+00 0.  1.
         11    1    4    4    0    0  0.33552542140E+02  0.35243082724E+02  0.54229088634E+02  0.72860428341E+02  0.00000000000E+00 0. -1.
</event>
<event>
 8    1  0.3541538E-009  0.1406304E+03  0.7561462E-02  0.1212483E+00
          1   -1    0    0  501    0  0.00000000000E+00  0.00000000000E+00  0.12729146562E+03  0.12729146562E+03  0.00000000000E+00 0. -1.
         -1   -1    0    0    0  501 -0.00000000000E+00 -0.00000000000E+00 -0.21762385294E+03  0.21762385294E+03  0.00000000000E+00 0.  1.
         25    2    1    2    0    0 -0.12228694118E+03  0.12289460410E+02 -0.21959641364E+02  0.17673379715E+03  0.12508989722E+03 0.  0.
         23    2    1    2    0    0  0.12228694118E+03 -0.12289460410E+02 -0.68372745948E+02  0.16818152141E+03  0.92222908941E+02 0.  0.
          5    1    3    3  502    0 -0.13304213031E+03  0.32504212520E+01  0.17824591801E+02  0.13433526026E+03  0.41800000000E+01 0. -1.
         -5    1    3    3    0  502  0.10755189131E+02  0.90390391578E+01 -0.39784233166E+02  0.42398536894E+02  0.41800000000E+01 0. -1.
        -11    1    4    4    0    0  0.18286872542E+01 -0.12866708234E+02 -0.43209691892E+02  0.45121765826E+02  0.00000000000E+00 0.  1.
         11    1    4    4    0    0  0.12045825393E+03  0.57724782432E+00 -0.25163054056E+02  0.12305975558E+03  0.00000000000E+00 0. -1.
</event>
<event>
 8    1  0.3541538E-009  0.7904367E+02  0.7561462E-02  0.1331787E+00
          3   -1    0    0  501    0  0.00000000000E+00  0.00000000000E+00  0.83892997474E+03  0.83892997474E+03  0.00000000000E+00 0. -1.
         -3   -1    0    0    0  501 -0.00000000000E+00 -0.00000000000E+00 -0.16854380553E+02  0.16854380553E+02  0.00000000000E+00 0.  1.
         25    2    1    2    0    0  0.15053109470E+02 -0.46777004059E+02  0.44727044379E+03  0.46702523210E+03  0.12508810222E+03 0.  0.
         23    2    1    2    0    0 -0.15053109470E+02  0.46777004059E+02  0.37480515040E+03  0.38875912320E+03  0.90774836206E+02 0.  0.
          5    1    3    3  502    0 -0.59146422478E+01 -0.13711716531E+02  0.41718107437E+03  0.41746917895E+03  0.41800000000E+01 0.  1.
         -5    1    3    3    0  502  0.20967751718E+02 -0.33065287528E+02  0.30089369421E+02  0.49556053148E+02  0.41800000000E+01 0.  1.
        -11    1    4    4    0    0 -0.12242959040E+02 -0.26857692117E+02  0.11041283768E+03  0.11429007130E+03  0.00000000000E+00 0.  1.
         11    1    4    4    0    0 -0.28101504301E+01  0.73634696176E+02  0.26439231272E+03  0.27446905190E+03  0.00000000000E+00 0. -1.
</event>
<event>
 8    1  0.3541538E-009  0.8467425E+02  0.7561462E-02  0.1316287E+00
          1   -1    0    0  501    0  0.00000000000E+00  0.00000000000E+00  0.18857377041E+03  0.18857377041E+03  0.00000000000E+00 0. -1.
         -1   -1    0    0    0  501 -0.00000000000E+00 -0.00000000000E+00 -0.72801266512E+02  0.72801266512E+02  0.00000000000E+00 0.  1.
         25    2    1    2    0    0 -0.98605536083E+01  0.30106587959E+02  0.46935922221E+02  0.13730911039E+03  0.12508866394E+03 0.  0.
         23    2    1    2    0    0  0.98605536083E+01 -0.30106587959E+02  0.68836581676E+02  0.12406592653E+03  0.98235645224E+02 0.  0.
          5    1    3    3  502    0  0.29590908786E+02  0.22898911451E+02 -0.31517765705E+02  0.49100142397E+02  0.41800000000E+01 0.  1.
         -5    1    3    3    0  502 -0.39451462395E+02  0.72076765081E+01  0.78453687925E+02  0.88208967996E+02  0.41800000000E+01 0.  1.
        -11    1    4    4    0    0 -0.16101405282E+02 -0.53843880047E+02  0.68867017280E+02  0.88888046101E+02  0.00000000000E+00 0. -1.
         11    1    4    4    0    0  0.25961958890E+02  0.23737292088E+02 -0.30435603914E-01  0.35177880428E+02  0.00000000000E+00 0.  1.
</event>
<event>
 8    1  0.3541538E-009  0.9141387E+02  0.7561462E-02  0.1299463E+00
         -1   -1    0    0    0  501 -0.00000000000E+00  0.00000000000E+00  0.79439780453E+02  0.79439780453E+02  0.00000000000E+00 0.  1.
          1   -1    0    0  501    0  0.00000000000E+00 -0.00000000000E+00 -0.17272367238E+03  0.17272367238E+03  0.00000000000E+00 0. -1.
         25    2    1    2    0    0 -0.19390625164E+02 -0.29034832666E+02 -0.25942869459E+02  0.13243594132E+03  0.12508888130E+03 0.  0.
         23    2    1    2    0    0  0.19390625164E+02  0.29034832666E+02 -0.67341022466E+02  0.11972751151E+03  0.92632855153E+02 0.  0.
          5    1    3    3  502    0 -0.49772144005E+02 -0.64124929567E+02 -0.27497751596E+02  0.85807177169E+02  0.41800000000E+01 0.  1.
         -5    1    3    3    0  502  0.30381518841E+02  0.35090096902E+02  0.15548821375E+01  0.46628764149E+02  0.41800000000E+01 0.  1.
        -11    1    4    4    0    0  0.33394268985E+00  0.34979154652E+02  0.12715186430E+02  0.37220004619E+02  0.00000000000E+00 0.  1.
         11    1    4    4    0    0  0.19056682474E+02 -0.59443219861E+01 -0.80056208896E+02  0.82507506893E+02  0.00000000000E+00 0. -1.
</event>
<event>
 8    1  0.3541538E-009  0.1005709E+03  0.7561462E-02  0.1279100E+00
         -2   -1    0    0    0  501 -0.00000000000E+00  0.00000000000E+00  0.98804991401E+01  0.98804991401E+01  0.00000000000E+00 0.  1.
          2   -1    0    0  501    0  0.00000000000E+00 -0.00000000000E+00 -0.24817247812E+04  0.24817247812E+04  0.00000000000E+00 0. -1.
         25    2    1    2    0    0  0.70308838041E+02  0.13752054801E+02 -0.20371958256E+04  0.20422895814E+04  0.12508977059E+03 0.  0.
         23    2    1    2    0    0 -0.70308838041E+02 -0.13752054801E+02 -0.43464845644E+03  0.44931569892E+03  0.88503473936E+02 0.  0.
          5    1    3    3  502    0  0.75827231576E+02 -0.11486366815E+01 -0.20020791652E+04  0.20035192898E+04  0.41800000000E+01 0.  1.
         -5    1    3    3    0  502 -0.55183935347E+01  0.14900691483E+02 -0.35116660425E+02  0.38770291633E+02  0.41800000000E+01 0.  1.
        -11    1    4    4    0    0 -0.59237821330E+02 -0.45784404220E+02 -0.35408520057E+03  0.36191388535E+03  0.00000000000E+00 0. -1.
         11    1    4    4    0    0 -0.11071016711E+02  0.32032349419E+02 -0.80563255862E+02  0.87401813571E+02  0.00000000000E+00 0.  1.
</event>
<event>
 8    1  0.3541538E-009  0.1051108E+03  0.7561462E-02  0.1269901E+00
          2   -1    0    0  501    0  0.00000000000E+00  0.00000000000E+00  0.60349959095E+03  0.60349959095E+03  0.00000000000E+00 0. -1.
         -2   -1    0    0    0  501 -0.00000000000E+00 -0.00000000000E+00 -0.23203487564E+02  0.23203487564E+02  0.00000000000E+00 0.  1.
         25    2    1    2    0    0  0.53871399628E+01  0.40773661675E+02  0.37880818645E+03  0.40104495702E+03  0.12509957101E+03 0.  0.
         23    2    1    2    0    0 -0.53871399628E+01 -0.40773661675E+02  0.20148791694E+03  0.22565812150E+03  0.92912293924E+02 0.  0.
          5    1    3    3  502    0  0.33481534386E+02 -0.22020808775E+02  0.26462185777E+03  0.26767168168E+03  0.41800000000E+01 0. -1.
         -5    1    3    3    0  502 -0.28094394423E+02  0.62794470450E+02  0.11418632868E+03  0.13337327534E+03  0.41800000000E+01 0. -1.
        -11    1    4    4    0    0 -0.30690985600E+02  0.19003672680E+02  0.84060273330E+02  0.91483363104E+02  0.00000000000E+00 0. -1.
         11    1    4    4    0    0  0.25303845637E+02 -0.59777334355E+02  0.11742764361E+03  0.13417475839E+03  0.00000000000E+00 0.  1.
</event>
<event>
 8    1  0.3541538E-009  0.1170544E+03  0.7561462E-02  0.1248037E+00
          1   -1    0    0  501    0  0.00000000000E+00  0.00000000000E+00  0.14920218133E+03  0.14920218133E+03  0.00000000000E+00 0.  1.
         -1   -1    0    0    0  501 -0.00000000000E+00 -0.00000000000E+00 -0.14185187760E+03  0.14185187760E+03  0.00000000000E+00 0. -1.
         25    2    1    2    0    0 -0.10899238800E+02 -0.88249064926E+02  0.42632376550E+02  0.15928769981E+03  0.12509340875E+03 0.  0.
         23    2    1    2    0    0  0.10899238800E+02  0.88249064926E+02 -0.35282072825E+02  0.13176635912E+03  0.90613784087E+02 0.  0.
          5    1    3    3  502    0  0.41100665270E+02 -0.24543534482E+01 -0.14389949081E+02  0.43815882634E+02  0.41800000000E+01 0. -1.
         -5    1    3    3    0  502 -0.51999904069E+02 -0.85794711478E+02  0.57022325631E+02  0.11547181717E+03  0.41800000000E+01 0. -1.
        -11    1    4    4    0    0  0.18742157963E+02  0.53432662034E+02  0.24852984197E+02  0.61838407812E+02  0.00000000000E+00 0.  1.
         11    1    4    4    0    0 -0.78429191633E+01  0.34816402892E+02 -0.60135057022E+02  0.69927951310E+02  0.00000000000E+00 0. -1.
</event>
<event>
 8    1  0.3541538E-009  0.9471369E+02  0.7561462E-02  0.1291822E+00
          2   -1    0    0  501    0  0.00000000000E+00  0.00000000000E+00  0.42064663960E+03  0.42064663960E+03  0.00000000000E+00 0.  1.
         -2   -1    0    0    0  501 -0.00000000000E+00 -0.00000000000E+00 -0.55943280159E+02  0.55943280159E+02  0.00000000000E+00 0. -1.
         25    2    1    2    0    0 -0.44604005880E+02 -0.31059512775E+02  0.33979332105E+03  0.36614388796E+03  0.12509050718E+03 0.  0.
         23    2    1    2    0    0  0.44604005880E+02  0.31059512775E+02  0.24910038390E+02  0.11044603180E+03  0.92863368734E+02 0.  0.
          5    1    3    3  502    0  0.17767342408E+02  0.11103744071E+01 -0.86516843653E+00  0.18306619131E+02  0.41800000000E+01 0. -1.
         -5    1    3    3    0  502 -0.62371348288E+02 -0.32169887182E+02  0.34065848949E+03  0.34783726883E+03  0.41800000000E+01 0. -1.
        -11    1    4    4    0    0  0.63494193766E+02 -0.11421017593E+01 -0.33957592377E+01  0.63595190221E+02  0.00000000000E+00 0. -1.
         11    1    4    4    0    0 -0.18890187887E+02  0.32201614534E+02  0.28305797628E+02  0.46850841575E+02  0.00000000000E+00 0.  1.
</event>
<event>
 8    1  0.3541538E-009  0.8400804E+02  0.7561462E-02  0.1318047E+00
         -1   -1    0    0    0  501 -0.00000000000E+00  0.00000000000E+00  0.70430916825E+02  0.70430916825E+02  0.00000000000E+00 0.  1.
          1   -1    0    0  501    0  0.00000000000E+00 -0.00000000000E+00 -0.19835524638E+03  0.19835524638E+03  0.00000000000E+00 0. -1.
         25    2    1    2    0    0 -0.23755454666E+02  0.28811294322E+02 -0.96844945668E+02  0.16254728779E+03  0.12509302522E+03 0.  0.
         23    2    1    2    0    0  0.23755454666E+02 -0.28811294322E+02 -0.31079383890E+02  0.10623887542E+03  0.94479406440E+02 0.  0.
          5    1    3    3  502    0 -0.13452882683E+01  0.71343333932E+02 -0.24452120473E+02  0.75545083842E+02  0.41800000000E+01 0. -1.
         -5    1    3    3    0  502 -0.22410166398E+02 -0.42532039609E+02 -0.72392825195E+02  0.87002203944E+02  0.41800000000E+01 0. -1.
        -11    1    4    4    0    0  0.61112978865E+01 -0.29982068085E+02 -0.62836458207E+02  0.69890577680E+02  0.00000000000E+00 0. -1.
         11    1    4    4    0    0  0.17644156779E+02  0.11707737622E+01  0.31757074317E+02  0.36348297743E+02  0.00000000000E+00 0.  1.
</event>
<event>
 8    1  0.3541538E-009  0.2711661E+03  0.7561462E-02  0.1100614E+00
          2   -1    0    0  501    0  0.00000000000E+00  0.00000000000E+00  0.10026010464E+03  0.10026010464E+03  0.00000000000E+00 0. -1.
         -2   -1    0    0    0  501 -0.00000000000E+00 -0.00000000000E+00 -0.81025918714E+03  0.81025918714E+03  0.00000000000E+00 0.  1.
         25    2    1    2    0    0  0.17000285081E+03  0.20181703917E+03 -0.36246749269E+03  0.46546919889E+03  0.12509118784E+03 0.  0.
         23    2    1    2    0    0 -0.17000285081E+03 -0.20181703917E+03 -0.34753158981E+03  0.44505009289E+03  0.87523097958E+02 0.  0.
          5    1    3    3  502    0  0.34387566483E+02  0.50967818996E+02 -0.15515488508E+02  0.63548611987E+02  0.41800000000E+01 0. -1.
         -5    1    3    3    0  502  0.13561528433E+03  0.15084922018E+03 -0.34695200418E+03  0.40192058690E+03  0.41800000000E+01 0. -1.
        -11    1    4    4    0    0 -0.41388793878E+01 -0.58400044396E+02 -0.80211875080E+02  0.99305792439E+02  0.00000000000E+00 0. -1.
         11    1    4    4    0    0 -0.16586397143E+03 -0.14341699478E+03 -0.26731971473E+03  0.34574430045E+03  0.00000000000E+00 0.  1.
</event>
<event>
 8    1  0.3541538E-009  0.1397415E+03  0.7561462E-02  0.1213677E+00
          1   -1    0    0  501    0  0.00000000000E+00  0.00000000000E+00  0.16994840401E+03  0.16994840401E+03  0.00000000000E+00 0. -1.
         -1   -1    0    0    0  501 -0.00000000000E+00 -0.00000000000E+00 -0.15282482614E+03  0.15282482614E+03  0.00000000000E+00 0.  1.
         25    2    1    2    0    0 -0.24132455225E+02 -0.10945580336E+03  0.47337274957E+02  0.17449832917E+03  0.12508357606E+03 0.  0.
         23    2    1    2    0    0  0.24132455225E+02  0.10945580336E+03 -0.30213697087E+02  0.14827490097E+03  0.92247658412E+02 0.  0.
          5    1    3    3  502    0 -0.29618400649E+02  0.21095907800E+02  0.42572105376E+01  0.36849467085E+02  0.41800000000E+01 0. -1.
         -5    1    3    3    0  502  0.54859454235E+01 -0.13055171116E+03  0.43080064419E+02  0.13764886209E+03  0.41800000000E+01 0. -1.
        -11    1    4    4    0    0  0.30381797082E+01  0.20490101160E+02 -0.50531491974E+02  0.54612328852E+02  0.00000000000E+00 0.  1.
         11    1    4    4    0    0  0.21094275517E+02  0.88965702196E+02  0.20317794887E+02  0.93662572119E+02  0.00000000000E+00 0. -1.
</event>
<event>
 8    1  0.3541538E-009  0.1120935E+03  0.7561462E-02  0.1256741E+00
         -1   -1    0    0    0  501 -0.00000000000E+00  0.00000000000E+00  0.48195320286E+03  0.48195320286E+03  0.00000000000E+00 0.  1.
          1   -1    0    0  501    0  0.00000000000E+00 -0.00000000000E+00 -0.29220998417E+02  0.29220998417E+02  0.00000000000E+00 0. -1.
         25    2    1    2    0    0  0.45329391650E+02  0.59683039917E+01  0.28883572532E+03  0.31806161712E+03  0.12508693642E+03 0.  0.
         23    2    1    2    0    0 -0.45329391650E+02 -0.59683039917E+01  0.16389647912E+03  0.19311258416E+03  0.91323818865E+02 0.  0.
          5    1    3    3  502    0  0.84285057802E+02 -0.18727773171E+02  0.17567650184E+03  0.19579174179E+03  0.41800000000E+01 0.  1.
         -5    1    3    3    0  502 -0.38955666153E+02  0.24696077163E+02  0.11315922349E+03  0.12226987533E+03  0.41800000000E+01 0.  1.
        -11    1    4    4    0    0 -0.15751579888E+02 -0.41975806331E+02  0.12369514099E+03  0.13156963362E+03  0.00000000000E+00 0.  1.
         11    1    4    4    0    0 -0.29577811762E+02  0.36007502339E+02  0.40201338124E+02  0.61542950533E+02  0.00000000000E+00 0. -1.
</event>
<event>
 8    1  0.3541538E-009  0.9609665E+02  0.7561462E-02  0.1288725E+00
         -1   -1    0    0    0  501 -0.00000000000E+00  0.00000000000E+00  0.13612164642E+03  0.13612164642E+03  0.00000000000E+00 0.  1.
          1   -1    0    0  501    0  0.00000000000E+00 -0.00000000000E+00 -0.95332932739E+02  0.95332932739E+02  0.00000000000E+00 0. -1.
         25    2    1    2    0    0 -0.33928335697E+02  0.89518986754E+00  0.34092323593E+02  0.13402140819E+03  0.12509003956E+03 0.  0.
         23    2    1    2    0    0  0.33928335697E+02 -0.89518986754E+00  0.66963900897E+01  0.97433170975E+02  0.91084838683E+02 0.  0.
          5    1    3    3  502    0  0.44315805774E+02 -0.32269678314E+01 -0.74370367516E+01  0.45244733157E+02  0.41800000000E+01 0.  1.
         -5    1    3    3    0  502 -0.78244141470E+02  0.41221576990E+01  0.41529360344E+02  0.88776675029E+02  0.41800000000E+01 0.  1.
        -11    1    4    4    0    0  0.50741915683E+02  0.56537941994E+01  0.36382890904E+02  0.62693078936E+02  0.00000000000E+00 0.  1.
         11    1    4    4    0    0 -0.16813579986E+02 -0.65489840670E+01 -0.29686500814E+02  0.34740092038E+02  0.00000000000E+00 0. -1.
</event>
<event>
 8    1  0.3541538E-009  0.3719110E+03  0.7561462E-02  0.1053965E+00
          1   -1    0    0  501    0  0.00000000000E+00  0.00000000000E+00  0.72749634583E+03  0.72749634583E+03  0.00000000000E+00 0.  1.
         -1   -1    0    0    0  501 -0.00000000000E+00 -0.00000000000E+00 -0.19830940197E+03  0.19830940197E+03  0.00000000000E+00 0. -1.
         25    2    1    2    0    0 -0.35330086290E+03  0.74014947626E+02  0.21399408688E+03  0.43787799157E+03  0.12507579334E+03 0.  0.
         23    2    1    2    0    0  0.35330086290E+03 -0.74014947626E+02  0.31519285697E+03  0.48792775623E+03  0.91800032770E+02 0.  0.
          5    1    3    3  502    0 -0.78374410800E+02  0.72054382610E+02  0.49685069233E+02  0.11756045605E+03  0.41800000000E+01 0.  1.
         -5    1    3    3    0  502 -0.27492645210E+03  0.19605650157E+01  0.16430901765E+03  0.32031753552E+03  0.41800000000E+01 0.  1.
        -11    1    4    4    0    0  0.24029398605E+03 -0.35389315392E+02  0.26177713013E+03  0.35710064301E+03  0.00000000000E+00 0.  1.
         11    1    4    4    0    0  0.11300687684E+03 -0.38625632234E+02  0.53415726838E+02  0.13082711322E+03  0.00000000000E+00 0. -1.
</event>
<event>
 8    1  0.3541538E-009  0.1263788E+03  0.7561462E-02  0.1232930E+00
          1   -1    0    0  501    0  0.00000000000E+00  0.00000000000E+00  0.89225502558E+02  0.89225502558E+02  0.00000000000E+00 0. -1.
         -1   -1    0    0    0  501 -0.00000000000E+00 -0.00000000000E+00 -0.22559503831E+03  0.22559503831E+03  0.00000000000E+00 0.  1.
         25    2    1    2    0    0 -0.27130058142E+02 -0.54581953416E+02 -0.14431414132E+03  0.20047291638E+03  0.12509032386E+03 0.  0.
         23    2    1    2    0    0  0.27130058142E+02  0.54581953416E+02  0.79446055721E+01  0.11434762448E+03  0.96421122031E+02 0.  0.
          5    1    3    3  502    0  0.38926276427E+02  0.16049006923E+02 -0.46164730812E+02  0.62621724590E+02  0.41800000000E+01 0. -1.
         -5    1    3    3    0  502 -0.66056334569E+02 -0.70630960339E+02 -0.98149410508E+02  0.13785119179E+03  0.41800000000E+01 0. -1.
        -11    1    4    4    0    0  0.44250387818E+02 -0.11224406148E+02 -0.16245397483E+01  0.45680665985E+02  0.00000000000E+00 0.  1.
         11    1    4    4    0    0 -0.17120329676E+02  0.65806359564E+02  0.95691453204E+01  0.68666958499E+02  0.00000000000E+00 0. -1.
</event>
<event>
 8    1  0.3541538E-009  0.9529757E+02  0.7561462E-02  0.1290507E+00
         -1   -1    0    0    0  501 -0.00000000000E+00  0.00000000000E+00  0.38958938396E+03  0.38958938396E+03  0.00000000000E+00 0.  1.
          1   -1    0    0  501    0  0.00000000000E+00 -0.00000000000E+00 -0.53137736583E+02  0.53137736583E+02  0.00000000000E+00 0. -1.
         25    2    1    2    0    0 -0.37674911724E+02 -0.83527770429E+02  0.14166815330E+03  0.21003218659E+03  0.12508943336E+03 0.  0.
         23    2    1    2    0    0  0.37674911724E+02  0.83527770429E+02  0.19478349407E+03  0.23269493395E+03  0.88374404192E+02 0.  0.
          5    1    3    3  502    0 -0.36684022462E+02 -0.73271142916E+02  0.16495111473E+03  0.18423007501E+03  0.41800000000E+01 0. -1.
         -5    1    3    3    0  502 -0.99088926154E+00 -0.10256627512E+02 -0.23282961425E+02  0.25802111583E+02  0.41800000000E+01 0. -1.
        -11    1    4    4    0    0  0.15835182215E+02  0.69929996498E+02  0.19414301773E+03  0.20696006556E+03  0.00000000000E+00 0.  1.
         11    1    4    4    0    0  0.21839729509E+02  0.13597773931E+02  0.64047634639E+00  0.25734868386E+02  0.00000000000E+00 0. -1.
</event>
<event>
 8    1  0.3541538E-009  0.1307737E+03  0.7561462E-02  0.1226312E+00
          4   -1    0    0  501    0  0.00000000000E+00  0.00000000000E+00  0.90307635991E+02  0.90307635991E+02  0.00000000000E+00 0. -1.
         -4   -1    0    0    0  501 -0.00000000000E+00 -0.00000000000E+00 -0.29421992444E+03  0.29421992444E+03  0.00000000000E+00 0.  1.
         25    2    1    2    0    0 -0.35054535539E+02  0.11611155113E+03 -0.12845831065E+03  0.21647266284E+03  0.12509261933E+03 0.  0.
         23    2    1    2    0    0  0.35054535539E+02 -0.11611155113E+03 -0.75453977794E+02  0.16805489759E+03  0.88534925718E+02 0.  0.
          5    1    3    3  502    0 -0.29709605932E+02  0.71098192696E+02 -0.14801807999E+03  0.16692644515E+03  0.41800000000E+01 0. -1.
         -5    1    3    3    0  502 -0.53449296067E+01  0.45013358437E+02  0.19559769333E+02  0.49546217682E+02  0.41800000000E+01 0. -1.
        -11    1    4    4    0    0  0.52462602899E+02 -0.58062832866E+02 -0.10060290063E+02  0.78897570936E+02  0.00000000000E+00 0. -1.
         11    1    4    4    0    0 -0.17408067360E+02 -0.58048718266E+02 -0.65393687732E+02  0.89157326657E+02  0.00000000000E+00 0.  1.
</event>
<event>
 8    1  0.3541538E-009  0.8329654E+02  0.7561462E-02  0.1319948E+00
          1   -1    0    0  501    0  0.00000000000E+00  0.00000000000E+00  0.10715995341E+03  0.10715995341E+03  0.00000000000E+00 0. -1.
         -1   -1    0    0    0  501 -0.00000000000E+00 -0.00000000000E+00 -0.12571461598E+03  0.12571461598E+03  0.00000000000E+00 0.  1.
         25    2    1    2    0    0 -0.30644467638E+02 -0.14829459069E+02  0.13067340909E+02  0.13029598999E+03  0.12508914164E+03 0.  0.
         23    2    1    2    0    0  0.30644467638E+02  0.14829459069E+02 -0.31622003482E+02  0.10257857939E+03  0.91451722744E+02 0.  0.
          5    1    3    3  502    0 -0.51649651095E+02 -0.18173775774E+02  0.58329460656E+02  0.80110991534E+02  0.41800000000E+01 0.  1.
         -5    1    3    3    0  502  0.21005183457E+02  0.33443167053E+01 -0.45262119747E+02  0.50184998459E+02  0.41800000000E+01 0.  1.
        -11    1    4    4    0    0  0.59691499323E+02  0.87909058216E+01 -0.39208399357E+02  0.71955914953E+02  0.00000000000E+00 0. -1.
         11    1    4    4    0    0 -0.29047031685E+02  0.60385532474E+01  0.75863958747E+01  0.30622664440E+02  0.00000000000E+00 0.  1.
</event>
<event>
 8    1  0.3541538E-009  0.1073170E+03  0.7561462E-02  0.1265621E+00
         -2   -1    0    0    0  501 -0.00000000000E+00  0.00000000000E+00  0.14073487081E+03  0.14073487081E+03  0.00000000000E+00 0.  1.
          2   -1    0    0  501    0  0.00000000000E+00 -0.00000000000E+00 -0.14569470831E+03  0.14569470831E+03  0.00000000000E+00 0. -1.
         25    2    1    2    0    0  0.26393441504E+02 -0.23906160307E+02  0.81652776863E+02  0.15356560268E+03  0.12508836917E+03 0.  0.
         23    2    1    2    0    0 -0.26393441504E+02  0.23906160307E+02 -0.86612614368E+02  0.13286397644E+03  0.94249525272E+02 0.  0.
          5    1    3    3  502    0  0.68940746229E+02 -0.64299239674E+01  0.81966251977E+02  0.10737834640E+03  0.41800000000E+01 0. -1.
         -5    1    3    3    0  502 -0.42547304725E+02 -0.17476236339E+02 -0.31347511360E+00  0.46187256279E+02  0.41800000000E+01 0. -1.
        -11    1    4    4    0    0 -0.32440922061E+02 -0.30388901714E+02 -0.27017148672E+02  0.52017546019E+02  0.00000000000E+00 0.  1.
         11    1    4    4    0    0  0.60474805569E+01  0.54295062021E+02 -0.59595465696E+02  0.80846430425E+02  0.00000000000E+00 0. -1.
</event>
<event>
 8    1  0.3541538E-009  0.1114430E+03  0.7561462E-02  0.1257921E+00
          1   -1    0    0  501    0  0.00000000000E+00  0.00000000000E+00  0.32671026211E+03  0.32671026211E+03  0.00000000000E+00 0. -1.
         -1   -1    0    0    0  501 -0.00000000000E+00 -0.00000000000E+00 -0.46187518037E+02  0.46187518037E+02  0.00000000000E+00 0.  1.
         25    2    1    2    0    0 -0.38336756309E+02 -0.32931822404E+02  0.11724174783E+03  0.17874562875E+03  0.12510060172E+03 0.  0.
         23    2    1    2    0    0  0.38336756309E+02  0.32931822404E+02  0.16328099625E+03  0.19415215140E+03  0.92087796950E+02 0.  0.
          5    1    3    3  502    0  0.15367057364E+02  0.37771466986E+02  0.15951853927E+02  0.43985954735E+02  0.41800000000E+01 0.  1.
         -5    1    3    3    0  502 -0.53703813673E+02 -0.70703289389E+02  0.10128989390E+03  0.13475967401E+03  0.41800000000E+01 0.  1.
        -11    1    4    4    0    0 -0.22310872097E+02  0.22097675512E+02  0.10406694833E+03  0.10870148118E+03  0.00000000000E+00 0.  1.
         11    1    4    4    0    0  0.60647628406E+02  0.10834146892E+02  0.59214047923E+02  0.85450670223E+02  0.00000000000E+00 0. -1.
</event>
<event>
 8    1  0.3541538E-009  0.9342107E+02  0.7561462E-02  0.1294772E+00
          1   -1    0    0  501    0  0.00000000000E+00  0.00000000000E+00  0.12761359120E+02  0.12761359120E+02  0.00000000000E+00 0. -1.
         -1   -1    0    0    0  501 -0.00000000000E+00 -0.00000000000E+00 -0.14285833478E+04  0.14285833478E+04  0.00000000000E+00 0.  1.
         25    2    1    2    0    0 -0.46679119220E+02  0.33505000264E+00 -0.11273148109E+04  0.11351938235E+04  0.12508909444E+03 0.  0.
         23    2    1    2    0    0  0.46679119220E+02 -0.33505000264E+00 -0.28850717771E+03  0.30615088337E+03  0.91175212488E+02 0.  0.
          5    1    3    3  502    0  0.17760891622E+02 -0.67451832172E+01 -0.28767052515E+02  0.34726970473E+02  0.41800000000E+01 0. -1.
         -5    1    3    3    0  502 -0.64440010842E+02  0.70802332199E+01 -0.10985477584E+04  0.11004668530E+04  0.41800000000E+01 0. -1.
        -11    1    4    4    0    0  0.74520178336E+02  0.13790469543E+01 -0.20878881352E+03  0.22169331835E+03  0.00000000000E+00 0.  1.
         11    1    4    4    0    0 -0.27841059116E+02 -0.17140969569E+01 -0.79718364191E+02  0.84457565027E+02  0.00000000000E+00 0. -1.
</event>
<event>
 8    1  0.3541538E-009  0.1721200E+03  0.7561462E-02  0.1175655E+00
          1   -1    0    0  501    0  0.00000000000E+00  0.00000000000E+00  0.47353697148E+03  0.47353697148E+03  0.00000000000E+00 0. -1.
         -1   -1    0    0    0  501 -0.00000000000E+00 -0.00000000000E+00 -0.67406928961E+02  0.67406928961E+02  0.00000000000E+00 0.  1.
         25    2    1    2    0    0 -0.14095659478E+03  0.15492544552E+02  0.20941830144E+03  0.28215641700E+03  0.12508972032E+03 0.  0.
         23    2    1    2    0    0  0.14095659478E+03 -0.15492544552E+02  0.19671174108E+03  0.25878748344E+03  0.90369640694E+02 0.  0.
          5    1    3    3  502    0 -0.58624157517E+02 -0.48355348220E+02  0.13169039298E+03  0.15210149095E+03  0.41800000000E+01 0.  1.
         -5    1    3    3    0  502 -0.82332437259E+02  0.63847892772E+02  0.77727908458E+02  0.13005492605E+03  0.41800000000E+01 0.  1.
        -11    1    4    4    0    0  0.14260842058E+03  0.55845718957E+01  0.14758096166E+03  0.20530097250E+03  0.00000000000E+00 0.  1.
         11    1    4    4    0    0 -0.16518258071E+01 -0.21077116448E+02  0.49130779421E+02  0.53486510942E+02  0.00000000000E+00 0. -1.
</event>
<event>
 8    1  0.3541538E-009  0.1494253E+03  0.7561462E-02  0.1201181E+00
          1   -1    0    0  501    0  0.00000000000E+00  0.00000000000E+00  0.77274314255E+02  0.77274314255E+02  0.00000000000E+00 0. -1.
         -1   -1    0    0    0  501 -0.00000000000E+00 -0.00000000000E+00 -0.48144579909E+03  0.48144579909E+03  0.00000000000E+00 0.  1.
         25    2    1    2    0    0  0.11879057446E+03 -0.16974320038E+02 -0.35960573810E+03  0.39920194771E+03  0.12508629045E+03 0.  0.
         23    2    1    2    0    0 -0.11879057446E+03  0.16974320038E+02 -0.44565746737E+02  0.15951816564E+03  0.95187243178E+02 0.  0.
          5    1    3    3  502    0  0.57998958049E+01  0.37019346690E+02 -0.15294558143E+03  0.15752426511E+03  0.41800000000E+01 0. -1.
         -5    1    3    3    0  502  0.11299067866E+03 -0.53993666728E+02 -0.20666015667E+03  0.24167768260E+03  0.41800000000E+01 0. -1.
        -11    1    4    4    0    0 -0.67761792713E+02 -0.22429095992E+02 -0.59976605425E+02  0.93230456918E+02  0.00000000000E+00 0.  1.
         11    1    4    4    0    0 -0.51028781750E+02  0.39403416029E+02  0.15410858689E+02  0.66287708719E+02  0.00000000000E+00 0. -1.
</event>
<event>
 8    1  0.3541538E-009  0.9129770E+02  0.7561462E-02  0.1299739E+00
         -2   -1    0    0    0  501 -0.00000000000E+00  0.00000000000E+00  0.47910311821E+02  0.47910311821E+02  0.00000000000E+00 0. -1.
          2   -1    0    0  501    0  0.00000000000E+00 -0.00000000000E+00 -0.29274632621E+03  0.29274632621E+03  0.00000000000E+00 0.  1.
         25    2    1    2    0    0  0.11703137472E+02  0.29065799959E+02 -0.89335908382E+02  0.15687038330E+03  0.12508248669E+03 0.  0.
         23    2    1    2    0    0 -0.11703137472E+02 -0.29065799959E+02 -0.15550010601E+03  0.18378625473E+03  0.92818749749E+02 0.  0.
          5    1    3    3  502    0 -0.41717487314E+02  0.34091863290E+01 -0.87896342125E+02  0.97443371545E+02  0.41800000000E+01 0. -1.
         -5    1    3    3    0  502  0.53420624786E+02  0.25656613630E+02 -0.14395662574E+01  0.59427011758E+02  0.41800000000E+01 0. -1.
        -11    1    4    4    0    0 -0.29913679736E+02  0.14983140917E+02 -0.11938599221E+03  0.12398523252E+03  0.00000000000E+00 0.  1.
         11    1    4    4    0    0  0.18210542264E+02 -0.44048940876E+02 -0.36114113797E+02  0.59801022208E+02  0.00000000000E+00 0. -1.
</event>
<event>
 8    1  0.3541538E-009  0.1434133E+03  0.7561462E-02  0.1208809E+00
         -1   -1    0    0    0  501 -0.00000000000E+00  0.00000000000E+00  0.35490969937E+02  0.35490969937E+02  0.00000000000E+00 0.  1.
          1   -1    0    0  501    0  0.00000000000E+00 -0.00000000000E+00 -0.65504688882E+03  0.65504688882E+03  0.00000000000E+00 0. -1.
         25    2    1    2    0    0  0.18298404239E+02 -0.10245624461E+03 -0.30338781893E+03  0.34427281820E+03  0.12508993172E+03 0.  0.
         23    2    1    2    0    0 -0.18298404239E+02  0.10245624461E+03 -0.31616809995E+03  0.34626504056E+03  0.95420633139E+02 0.  0.
          5    1    3    3  502    0 -0.40600932351E+02 -0.89415888676E+02 -0.22282196323E+03  0.24353795711E+03  0.41800000000E+01 0.  1.
         -5    1    3    3    0  502  0.58899336590E+02 -0.13040355931E+02 -0.80565855699E+02  0.10073486109E+03  0.41800000000E+01 0.  1.
        -11    1    4    4    0    0 -0.34282757855E+02  0.12175690520E+02 -0.34834353006E+02  0.50368512735E+02  0.00000000000E+00 0.  1.
         11    1    4    4    0    0  0.15984353616E+02  0.90280554088E+02 -0.28133374694E+03  0.29589652782E+03  0.00000000000E+00 0. -1.
</event>
<event>
 8    1  0.3541538E-009  0.1040959E+03  0.7561462E-02  0.1271911E+00
         -2   -1    0    0    0  501 -0.00000000000E+00  0.00000000000E+00  0.14872215312E+02  0.14872215312E+02  0.00000000000E+00 0.  1.
          2   -1    0    0  501    0  0.00000000000E+00 -0.00000000000E+00 -0.89646764615E+03  0.89646764615E+03  0.00000000000E+00 0. -1.
         25    2    1    2    0    0  0.46554744959E+01  0.39331380876E+01 -0.64891326003E+03  0.66089030251E+03  0.12510167824E+03 0.  0.
         23    2    1    2    0    0 -0.46554744959E+01 -0.39331380876E+01 -0.23268217081E+03  0.25044955895E+03  0.92449153305E+02 0.  0.
          5    1    3    3  502    0 -0.42700554742E+02 -0.41283644133E+02 -0.29561132717E+03  0.30154801575E+03  0.41800000000E+01 0.  1.
         -5    1    3    3    0  502  0.47356029237E+02  0.45216782221E+02 -0.35330193285E+03  0.35934228676E+03  0.41800000000E+01 0.  1.
        -11    1    4    4    0    0 -0.27003913495E+02 -0.35351289829E+02 -0.67594517927E+02  0.80919366597E+02  0.00000000000E+00 0.  1.
         11    1    4    4    0    0  0.22348438999E+02  0.31418151741E+02 -0.16508765289E+03  0.16953019236E+03  0.00000000000E+00 0. -1.
</event>
<event>
 8    1  0.3541538E-009  0.9614659E+02  0.7561462E-02  0.1288614E+00
          2   -1    0    0  501    0  0.00000000000E+00  0.00000000000E+00  0.23940380759E+03  0.23940380759E+03  0.00000000000E+00 0. -1.
         -2   -1    0    0    0  501 -0.00000000000E+00 -0.00000000000E+00 -0.52172855398E+02  0.52172855398E+02  0.00000000000E+00 0.  1.
         25    2    1    2    0    0  0.78548043127E+01 -0.22657338643E+02  0.90930865015E+02  0.15649647766E+03  0.12509065657E+03 0.  0.
         23    2    1    2    0    0 -0.78548043127E+01  0.22657338643E+02  0.96300087176E+02  0.13508018533E+03  0.91640038922E+02 0.  0.
          5    1    3    3  502    0 -0.46936095520E+02  0.38493022226E+01  0.34329455445E+00  0.47280063889E+02  0.41800000000E+01 0.  1.
         -5    1    3    3    0  502  0.54790899832E+02 -0.26506640866E+02  0.90587570460E+02  0.10921641377E+03  0.41800000000E+01 0.  1.
        -11    1    4    4    0    0 -0.36125417870E+02 -0.13095450859E+02  0.13803923743E+02  0.40829951753E+02  0.00000000000E+00 0.  1.
         11    1    4    4    0    0  0.28270613558E+02  0.35752789502E+02  0.82496163433E+02  0.94250233577E+02  0.00000000000E+00 0. -1.
</event>
<event>
 8    1  0.3541538E-009  0.1417629E+03  0.7561462E-02  0.1210976E+00
          1   -1    0    0  501    0  0.00000000000E+00  0.00000000000E+00  0.39376006530E+03  0.39376006530E+03  0.00000000000E+00 0. -1.
         -1   -1    0    0    0  501 -0.00000000000E+00 -0.00000000000E+00 -0.73824807637E+02  0.73824807637E+02  0.00000000000E+00 0.  1.
         25    2    1    2    0    0 -0.25234343283E+02 -0.99458480401E+02  0.54878592183E+02  0.17084686846E+03  0.12509289020E+03 0.  0.
         23    2    1    2    0    0  0.25234343283E+02  0.99458480401E+02  0.26505666548E+03  0.29673800447E+03  0.85262218948E+02 0.  0.
          5    1    3    3  502    0  0.40807887851E+02 -0.65789829435E+02  0.57543297050E+02  0.96552000514E+02  0.41800000000E+01 0. -1.
         -5    1    3    3    0  502 -0.66042231134E+02 -0.33668650966E+02 -0.26647048676E+01  0.74294867946E+02  0.41800000000E+01 0. -1.
        -11    1    4    4    0    0 -0.30583902920E+02  0.35454860616E+02  0.72770001366E+02  0.86532625974E+02  0.00000000000E+00 0.  1.
         11    1    4    4    0    0  0.55818246203E+02  0.64003619785E+02  0.19228666411E+03  0.21020537850E+03  0.00000000000E+00 0. -1.
</event>
<event>
 8    1  0.3541538E-009  0.1062861E+03  0.7561462E-02  0.1267606E+00
          1   -1    0    0  501    0  0.00000000000E+00  0.00000000000E+00  0.23814988290E+03  0.23814988290E+03  0.00000000000E+00 0. -1.
         -1   -1    0    0    0  501 -0.00000000000E+00 -0.00000000000E+00 -0.64684734082E+02  0.64684734082E+02  0.00000000000E+00 0.  1.
         25    2    1    2    0    0  0.42548977361E+01 -0.14513066311E+02  0.24092260925E+02  0.12827673207E+03  0.12508297128E+03 0.  0.
         23    2    1    2    0    0 -0.42548977361E+01  0.14513066311E+02  0.14937288789E+03  0.17455788492E+03  0.89047528320E+02 0.  0.
          5    1    3    3  502    0  0.62110477274E+02  0.88042820671E+01  0.18362617505E+02  0.65497212853E+02  0.41800000000E+01 0.  1.
         -5    1    3    3    0  502 -0.57855579537E+02 -0.23317348378E+02  0.57296434201E+01  0.62779519214E+02  0.41800000000E+01 0.  1.
        -11    1    4    4    0    0  0.40823699054E+02  0.51980333767E+01  0.48019038746E+02  0.63240983844E+02  0.00000000000E+00 0. -1.
         11    1    4    4    0    0 -0.45078596790E+02  0.93150329342E+01  0.10135384915E+03  0.11131690107E+03  0.00000000000E+00 0.  1.
</event>
<event>
 8    1  0.3541538E-009  0.2466820E+03  0.7561462E-02  0.1115420E+00
          2   -1    0    0  501    0  0.00000000000E+00  0.00000000000E+00  0.20287350101E+03  0.20287350101E+03  0.00000000000E+00 0. -1.
         -2   -1    0    0    0  501 -0.00000000000E+00 -0.00000000000E+00 -0.33313211566E+03  0.33313211566E+03  0.00000000000E+00 0.  1.
         25    2    1    2    0    0 -0.12215732027E+03 -0.18587006544E+03  0.14053816869E+02  0.25556720541E+03  0.12508794741E+03 0.  0.
         23    2    1    2    0    0  0.12215732027E+03  0.18587006544E+03 -0.14431243151E+03  0.28043841126E+03  0.91375776331E+02 0.  0.
          5    1    3    3  502    0 -0.21641773044E+02  0.17566571663E+02  0.30213068400E+01  0.28346983534E+02  0.41800000000E+01 0. -1.
         -5    1    3    3    0  502 -0.10051554722E+03 -0.20343663711E+03  0.11032510029E+02  0.22722022187E+03  0.41800000000E+01 0. -1.
        -11    1    4    4    0    0  0.12893451735E+03  0.13415478847E+03 -0.96140213704E+02  0.20943867295E+03  0.00000000000E+00 0.  1.
         11    1    4    4    0    0 -0.67771970837E+01  0.51715276970E+02 -0.48172217809E+02  0.70999738317E+02  0.00000000000E+00 0. -1.
</event>
<event>
 8    1  0.3541538E-009  0.2698246E+03  0.7561462E-02  0.1101380E+00
         -1   -1    0    0    0  501 -0.00000000000E+00  0.00000000000E+00  0.16330624762E+03  0.16330624762E+03  0.00000000000E+00 0.  1.
          1   -1    0    0  501    0  0.00000000000E+00 -0.00000000000E+00 -0.46861288164E+03  0.46861288164E+03  0.00000000000E+00 0. -1.
         25    2    1    2    0    0  0.12865742722E+03 -0.21852056642E+03 -0.13617839350E+03  0.31384099974E+03  0.12509055412E+03 0.  0.
         23    2    1    2    0    0 -0.12865742722E+03  0.21852056642E+03 -0.16912824052E+03  0.31807812952E+03  0.90914042958E+02 0.  0.
          5    1    3    3  502    0  0.14149187171E+03 -0.14192161958E+03 -0.12236319085E+03  0.23484445647E+03  0.41800000000E+01 0. -1.
         -5    1    3    3    0  502 -0.12834444484E+02 -0.76598946847E+02 -0.13815202658E+02  0.78996543264E+02  0.41800000000E+01 0. -1.
        -11    1    4    4    0    0 -0.65200485603E+02  0.16832950804E+03 -0.79242845479E+02  0.19714298151E+03  0.00000000000E+00 0.  1.
         11    1    4    4    0    0 -0.63456941622E+02  0.50191058379E+02 -0.89885395037E+02  0.12093514800E+03  0.00000000000E+00 0. -1.
</event>
<event>
 8    1  0.3541538E-009  0.1097319E+03  0.7561462E-02  0.1261067E+00
          2   -1    0    0  501    0  0.00000000000E+00  0.00000000000E+00  0.10083908699E+04  0.10083908699E+04  0.00000000000E+00 0.  1.
         -2   -1    0    0    0  501 -0.00000000000E+00 -0.00000000000E+00 -0.20734781865E+02  0.20734781865E+02  0.00000000000E+00 0. -1.
         25    2    1    2    0    0  0.42153414895E+02  0.87379153600E+01  0.83669767103E+03  0.84708946153E+03  0.12507718244E+03 0.  0.
         23    2    1    2    0    0 -0.42153414895E+02 -0.87379153600E+01  0.15095841704E+03  0.18203619028E+03  0.92170870358E+02 0.  0.
          5    1    3    3  502    0 -0.40770808189E+02  0.24271119329E+02  0.32299122259E+03  0.32648452996E+03  0.41800000000E+01 0.  1.
         -5    1    3    3    0  502  0.82924223085E+02 -0.15533203969E+02  0.51370644844E+03  0.52060493156E+03  0.41800000000E+01 0.  1.
        -11    1    4    4    0    0 -0.26101328073E+02  0.33330768284E+02  0.12038111016E+03  0.12760811544E+03  0.00000000000E+00 0.  1.
         11    1    4    4    0    0 -0.16052086822E+02 -0.42068683644E+02  0.30577306883E+02  0.54428074843E+02  0.00000000000E+00 0. -1.
</event>
<event>
 8    1  0.3541538E-009  0.1766966E+03  0.7561462E-02  0.1171039E+00
         -2   -1    0    0    0  501 -0.00000000000E+00  0.00000000000E+00  0.12648909278E+03  0.12648909278E+03  0.00000000000E+00 0.  1.
          2   -1    0    0  501    0  0.00000000000E+00 -0.00000000000E+00 -0.33577509873E+03  0.33577509873E+03  0.00000000000E+00 0. -1.
         25    2    1    2    0    0 -0.14724721984E+03  0.43554994426E+02 -0.20270266408E+03  0.28339995860E+03  0.12509350591E+03 0.  0.
         23    2    1    2    0    0  0.14724721984E+03 -0.43554994426E+02 -0.65833418715E+01  0.17886423290E+03  0.91489300639E+02 0.  0.
          5    1    3    3  502    0 -0.14211898532E+03 -0.96693973860E+01 -0.16396063656E+03  0.21723688907E+03  0.41800000000E+01 0.  1.
         -5    1    3    3    0  502 -0.51282345205E+01  0.53224391812E+02 -0.38742027524E+02  0.66163069531E+02  0.41800000000E+01 0.  1.
        -11    1    4    4    0    0  0.13875488895E+03 -0.49010919971E+02 -0.32803529293E+02  0.15076823611E+03  0.00000000000E+00 0. -1.
         11    1    4    4    0    0  0.84923308864E+01  0.54559255450E+01  0.26220187422E+02  0.28095996795E+02  0.00000000000E+00 0.  1.
</event>
<event>
 8    1  0.3541538E-009  0.1253305E+03  0.7561462E-02  0.1234554E+00
         -2   -1    0    0    0  501 -0.00000000000E+00  0.00000000000E+00  0.45913768939E+03  0.45913768939E+03  0.00000000000E+00 0. -1.
          2   -1    0    0  501    0  0.00000000000E+00 -0.00000000000E+00 -0.51475810655E+02  0.51475810655E+02  0.00000000000E+00 0.  1.
         25    2    1    2    0    0 -0.90919728559E+02  0.23617771377E+02  0.30934269094E+03  0.34664673915E+03  0.12508743007E+03 0.  0.
         23    2    1    2    0    0  0.90919728559E+02 -0.23617771377E+02  0.98319187799E+02  0.16396676090E+03  0.91620084171E+02 0.  0.
          5    1    3    3  502    0 -0.72592063562E+02 -0.32474467411E+02  0.93366632580E+02  0.12271511400E+03  0.41800000000E+01 0. -1.
         -5    1    3    3    0  502 -0.18327664997E+02  0.56092238788E+02  0.21597605836E+03  0.22393162515E+03  0.41800000000E+01 0. -1.
        -11    1    4    4    0    0  0.45121842775E+02  0.19325431211E+02  0.21683323194E+01  0.49134047787E+02  0.00000000000E+00 0.  1.
         11    1    4    4    0    0  0.45797885784E+02 -0.42943202587E+02  0.96150855479E+02  0.11483271311E+03  0.00000000000E+00 0. -1.
</event>
<event>
 8    1  0.3541538E-009  0.1021366E+03  0.7561462E-02  0.1275866E+00
          2   -1    0    0  501    0  0.00000000000E+00  0.00000000000E+00  0.18657406808E+03  0.18657406808E+03  0.00000000000E+00 0. -1.
         -2   -1    0    0    0  501 -0.00000000000E+00 -0.00000000000E+00 -0.13536242124E+03  0.13536242124E+03  0.00000000000E+00 0.  1.
         25    2    1    2    0    0 -0.21943406002E+00  0.58710388168E+02 -0.72878725335E+02  0.15622321420E+03  0.12508967271E+03 0.  0.
         23    2    1    2    0    0  0.21943406002E+00 -0.58710388168E+02  0.12409037218E+03  0.16571327512E+03  0.92819778357E+02 0.  0.
          5    1    3    3  502    0 -0.72021534233E+01  0.97848278660E+02 -0.51167709819E+02  0.11073284779E+03  0.41800000000E+01 0. -1.
         -5    1    3    3    0  502  0.69827193633E+01 -0.39137890492E+02 -0.21711015516E+02  0.45490366416E+02  0.41800000000E+01 0. -1.
        -11    1    4    4    0    0 -0.14367247822E+02 -0.19209370377E+02 -0.93811676344E+01  0.25757018975E+02  0.00000000000E+00 0.  1.
         11    1    4    4    0    0  0.14586681882E+02 -0.39501017790E+02  0.13347153981E+03  0.13995625615E+03  0.00000000000E+00 0. -1.
</event>
<event>
 8    1  0.3541538E-009  0.9356258E+02  0.7561462E-02  0.1294447E+00
         -2   -1    0    0    0  501 -0.00000000000E+00  0.00000000000E+00  0.42682009176E+03  0.42682009176E+03  0.00000000000E+00 0.  1.
          2   -1    0    0  501    0  0.00000000000E+00 -0.00000000000E+00 -0.35790077048E+02  0.35790077048E+02  0.00000000000E+00 0. -1.
         25    2    1    2    0    0  0.14202267598E+02  0.57861768524E+02  0.21986553182E+03  0.25987699704E+03  0.12508202447E+03 0.  0.
         23    2    1    2    0    0 -0.14202267598E+02 -0.57861768524E+02  0.17116448289E+03  0.20273317177E+03  0.90850261808E+02 0.  0.
          5    1    3    3  502    0 -0.33587608249E+02  0.18117776923E+02  0.18406438804E+03  0.18802540417E+03  0.41800000000E+01 0. -1.
         -5    1    3    3    0  502  0.47789875846E+02  0.39743991601E+02  0.35801143782E+02  0.71851592870E+02  0.41800000000E+01 0. -1.
        -11    1    4    4    0    0  0.10536163325E+02 -0.60635250348E+02  0.50741908321E+02  0.79764563451E+02  0.00000000000E+00 0. -1.
         11    1    4    4    0    0 -0.24738430923E+02  0.27734818237E+01  0.12042257456E+03  0.12296860831E+03  0.00000000000E+00 0.  1.
</event>
<event>
 8    1  0.3541538E-009  0.1186020E+03  0.7561462E-02  0.1245421E+00
          2   -1    0    0  501    0  0.00000000000E+00  0.00000000000E+00  0.10880804365E+04  0.10880804365E+04  0.00000000000E+00 0. -1.
         -2   -1    0    0    0  501 -0.00000000000E+00 -0.00000000000E+00 -0.19558533858E+02  0.19558533858E+02  0.00000000000E+00 0.  1.
         25    2    1    2    0    0  0.89554418058E+02  0.71307929452E+01  0.73867120997E+03  0.75455516772E+03  0.12508997834E+03 0.  0.
         23    2    1    2    0    0 -0.89554418058E+02 -0.71307929452E+01  0.32985069271E+03  0.35308380268E+03  0.88294112121E+02 0.  0.
          5    1    3    3  502    0  0.70227070687E+02  0.50946445458E+02  0.62684436060E+03  0.63283386965E+03  0.41800000000E+01 0. -1.
         -5    1    3    3    0  502  0.19327347371E+02 -0.43815652513E+02  0.11182684938E+03  0.12172129807E+03  0.41800000000E+01 0. -1.
        -11    1    4    4    0    0 -0.29781251349E+02 -0.26059643758E+02  0.39033295374E+02  0.55584405299E+02  0.00000000000E+00 0.  1.
         11    1    4    4    0    0 -0.59773166709E+02  0.18928850813E+02  0.29081739733E+03  0.29749939738E+03  0.00000000000E+00 0. -1.
</event>
<event>
 8    1  0.3541538E-009  0.1391604E+03  0.7561462E-02  0.1214463E+00
          1   -1    0    0  501    0  0.00000000000E+00  0.00000000000E+00  0.57812763966E+02  0.57812763966E+02  0.00000000000E+00 0.  1.
         -1   -1    0    0    0  501 -0.00000000000E+00 -0.00000000000E+00 -0.33642458072E+03  0.33642458072E+03  0.00000000000E+00 0. -1.
         25    2    1    2    0    0  0.66593695471E+02  0.58358629256E+02 -0.15712470443E+03  0.21948862148E+03  0.12508649940E+03 0.  0.
         23    2    1    2    0    0 -0.66593695471E+02 -0.58358629256E+02 -0.12148711233E+03  0.17474872320E+03  0.89092917310E+02 0.  0.
          5    1    3    3  502    0 -0.27003942340E+02 -0.17711822654E+02 -0.34246796168E+02  0.47257137147E+02  0.41800000000E+01 0. -1.
         -5    1    3    3    0  502  0.93597637811E+02  0.76070451910E+02 -0.12287790826E+03  0.17223148433E+03  0.41800000000E+01 0. -1.
        -11    1    4    4    0    0 -0.19933182711E+01 -0.60407086209E+02 -0.50653305074E+02  0.78859030535E+02  0.00000000000E+00 0.  1.
         11    1    4    4    0    0 -0.64600377200E+02  0.20484569526E+01 -0.70833807252E+02  0.95889692669E+02  0.00000000000E+00 0. -1.
</event>
<event>
 8    1  0.3541538E-009  0.1097172E+03  0.7561462E-02  0.1261094E+00
         -1   -1    0    0    0  501 -0.00000000000E+00  0.00000000000E+00  0.64932990800E+02  0.64932990800E+02  0.00000000000E+00 0.  1.
          1   -1    0    0  501    0  0.00000000000E+00 -0.00000000000E+00 -0.21646441030E+03  0.21646441030E+03  0.00000000000E+00 0. -1.
         25    2    1    2    0    0  0.39836943728E+00  0.20787139574E+02 -0.13581335919E+03  0.18580467246E+03  0.12508334783E+03 0.  0.
         23    2    1    2    0    0 -0.39836943728E+00 -0.20787139574E+02 -0.15718060307E+02  0.95592728636E+02  0.91970911044E+02 0.  0.
          5    1    3    3  502    0 -0.30415341039E+02  0.64596278764E+02 -0.91683298956E+02  0.11628014408E+03  0.41800000000E+01 0. -1.
         -5    1    3    3    0  502  0.30813710476E+02 -0.43809139190E+02 -0.44130060235E+02  0.69524528378E+02  0.41800000000E+01 0. -1.
        -11    1    4    4    0    0 -0.11788976160E+02  0.35165970741E+02 -0.83590232689E+01  0.38019714979E+02  0.00000000000E+00 0.  1.
         11    1    4    4    0    0  0.11390606723E+02 -0.55953110315E+02 -0.73590370383E+01  0.57573013657E+02  0.00000000000E+00 0. -1.
</event>
<event>
 8    1  0.3541538E-009  0.1650801E+03  0.7561462E-02  0.1183078E+00
         -2   -1    0    0    0  501 -0.00000000000E+00  0.00000000000E+00  0.23163139836E+03  0.23163139836E+03  0.00000000000E+00 0. -1.
          2   -1    0    0  501    0  0.00000000000E+00 -0.00000000000E+00 -0.13134926402E+03  0.13134926402E+03  0.00000000000E+00 0.  1.
         25    2    1    2    0    0 -0.81149395869E+02  0.10126394200E+03  0.95701165399E+02  0.20407339181E+03  0.12509047040E+03 0.  0.
         23    2    1    2    0    0  0.81149395869E+02 -0.10126394200E+03  0.45809689351E+01  0.15890727057E+03  0.91601992138E+02 0.  0.
          5    1    3    3  502    0 -0.62423633632E+02 -0.85952132365E+01  0.11160869188E+02  0.64129752279E+02  0.41800000000E+01 0.  1.
         -5    1    3    3    0  502 -0.18725762238E+02  0.10985915524E+03  0.84540296211E+02  0.13994363953E+03  0.41800000000E+01 0.  1.
        -11    1    4    4    0    0  0.31084904825E+02  0.10671568216E+02  0.14423691036E+02  0.35891454962E+02  0.00000000000E+00 0. -1.
         11    1    4    4    0    0  0.50064491044E+02 -0.11193551022E+03 -0.98427221007E+01  0.12301581561E+03  0.00000000000E+00 0.  1.
</event>
<event>
 8    1  0.3541538E-009  0.1325256E+03  0.7561462E-02  0.1223756E+00
         -4   -1    0    0    0  501 -0.00000000000E+00  0.00000000000E+00  0.22664283701E+02  0.22664283701E+02  0.00000000000E+00 0.  1.
          4   -1    0    0  501    0  0.00000000000E+00 -0.00000000000E+00 -0.10977319345E+04  0.10977319345E+04  0.00000000000E+00 0. -1.
         25    2    1    2    0    0 -0.68073024047E+02  0.40175380243E+02 -0.86991889102E+03  0.88241394113E+03  0.12508992271E+03 0.  0.
         23    2    1    2    0    0  0.68073024047E+02 -0.40175380243E+02 -0.20514875977E+03  0.23798227706E+03  0.91112857384E+02 0.  0.
          5    1    3    3  502    0  0.11881644037E+02 -0.34300972455E+02 -0.28817763231E+03  0.29048502601E+03  0.41800000000E+01 0.  1.
         -5    1    3    3    0  502 -0.79954668083E+02  0.74476352699E+02 -0.58174125871E+03  0.59192891511E+03  0.41800000000E+01 0.  1.
        -11    1    4    4    0    0  0.27077810878E+02 -0.65569038154E+02 -0.10354121997E+03  0.12551211431E+03  0.00000000000E+00 0.  1.
         11    1    4    4    0    0  0.40995213169E+02  0.25393657911E+02 -0.10160753980E+03  0.11247016275E+03  0.00000000000E+00 0. -1.
</event>
<event>
 8    1  0.3541538E-009  0.1123443E+03  0.7561462E-02  0.1256289E+00
         -2   -1    0    0    0  501 -0.00000000000E+00  0.00000000000E+00  0.67887822835E+02  0.67887822835E+02  0.00000000000E+00 0.  1.
          2   -1    0    0  501    0  0.00000000000E+00 -0.00000000000E+00 -0.22491996589E+03  0.22491996589E+03  0.00000000000E+00 0. -1.
         25    2    1    2    0    0  0.47083379275E+02  0.12899762457E+02 -0.12982909556E+03  0.18677936540E+03  0.12509072232E+03 0.  0.
         23    2    1    2    0    0 -0.47083379275E+02 -0.12899762457E+02 -0.27203047490E+02  0.10602842332E+03  0.90104230108E+02 0.  0.
          5    1    3    3  502    0  0.77842187280E+02  0.40955878626E+02 -0.64317405394E+02  0.10904582134E+03  0.41800000000E+01 0.  1.
         -5    1    3    3    0  502 -0.30758808005E+02 -0.28056116168E+02 -0.65511690169E+02  0.77733544066E+02  0.41800000000E+01 0.  1.
        -11    1    4    4    0    0  0.20023610648E+02  0.11845224109E+02 -0.25452565096E+02  0.34483146428E+02  0.00000000000E+00 0. -1.
         11    1    4    4    0    0 -0.67106989923E+02 -0.24744986567E+02 -0.17504823933E+01  0.71545276891E+02  0.00000000000E+00 0.  1.
</event>
<event>
 8    1  0.3541538E-009  0.2133007E+03  0.7561462E-02  0.1138979E+00
         -1   -1    0    0    0  501 -0.00000000000E+00  0.00000000000E+00  0.12121747365E+03  0.12121747365E+03  0.00000000000E+00 0.  1.
          1   -1    0    0  501    0  0.00000000000E+00 -0.00000000000E+00 -0.50653940557E+03  0.50653940557E+03  0.00000000000E+00 0. -1.
         25    2    1    2    0    0 -0.13353473964E+03  0.15386793486E+03 -0.85318397986E+02  0.25384072469E+03  0.12509602874E+03 0.  0.
         23    2    1    2    0    0  0.13353473964E+03 -0.15386793486E+03 -0.30000353393E+03  0.37391615452E+03  0.91127943984E+02 0.  0.
          5    1    3    3  502    0 -0.41701066541E+02  0.46924127697E+02 -0.93367399043E+02  0.11258683899E+03  0.41800000000E+01 0. -1.
         -5    1    3    3    0  502 -0.91833673103E+02  0.10694380717E+03  0.80490010576E+01  0.14125388570E+03  0.41800000000E+01 0. -1.
        -11    1    4    4    0    0  0.26174240854E+02 -0.98395000549E+02 -0.14997925908E+03  0.18127450226E+03  0.00000000000E+00 0.  1.
         11    1    4    4    0    0  0.10736049879E+03 -0.55472934315E+02 -0.15002427485E+03  0.19264165226E+03  0.00000000000E+00 0. -1.
</event>
<event>
 8    1  0.3541538E-009  0.1463287E+03  0.7561462E-02  0.1205058E+00
         -1   -1    0    0    0  501 -0.00000000000E+00  0.00000000000E+00  0.14737278988E+03  0.14737278988E+03  0.00000000000E+00 0.  1.
          1   -1    0    0  501    0  0.00000000000E+00 -0.00000000000E+00 -0.17861295882E+03  0.17861295882E+03  0.00000000000E+00 0. -1.
         25    2    1    2    0    0 -0.11267411919E+03  0.13537099255E+02 -0.54593786327E+02  0.17749971960E+03  0.12508780421E+03 0.  0.
         23    2    1    2    0    0  0.11267411919E+03 -0.13537099255E+02  0.23353617394E+02  0.14848602910E+03  0.92865489830E+02 0.  0.
          5    1    3    3  502    0 -0.12644586743E+03  0.23988524770E+02 -0.76112673998E+02  0.14958147697E+03  0.41800000000E+01 0. -1.
         -5    1    3    3    0  502  0.13771748240E+02 -0.10451425514E+02  0.21518887671E+02  0.27918242629E+02  0.41800000000E+01 0. -1.
        -11    1    4    4    0    0  0.30352023593E+02 -0.48053257952E+02  0.29161974168E+01  0.56911028311E+02  0.00000000000E+00 0. -1.
         11    1    4    4    0    0  0.82322095595E+02  0.34516158696E+02  0.20437419977E+02  0.91575000789E+02  0.00000000000E+00 0.  1.
</event>
<event>
 8    1  0.3541538E-009  0.1990946E+03  0.7561462E-02  0.1150505E+00
          2   -1    0    0  501    0  0.00000000000E+00  0.00000000000E+00  0.10214482378E+04  0.10214482378E+04  0.00000000000E+00 0. -1.
         -2   -1    0    0    0  501 -0.00000000000E+00 -0.00000000000E+00 -0.49479611689E+02  0.49479611689E+02  0.00000000000E+00 0.  1.
         25    2    1    2    0    0 -0.18753714688E+03 -0.20386582258E+02  0.39509951842E+03  0.45534287718E+03  0.12509081559E+03 0.  0.
         23    2    1    2    0    0  0.18753714688E+03  0.20386582258E+02  0.57686910774E+03  0.61558497236E+03  0.10286445709E+03 0.  0.
          5    1    3    3  502    0 -0.68241600560E+02 -0.51855971394E+01  0.37736920287E+02  0.78264640914E+02  0.41800000000E+01 0.  1.
         -5    1    3    3    0  502 -0.11929554632E+03 -0.15200985118E+02  0.35736259813E+03  0.37707823626E+03  0.41800000000E+01 0.  1.
        -11    1    4    4    0    0  0.17923627744E+03  0.43748214557E+02  0.54385828419E+03  0.57430077722E+03  0.00000000000E+00 0.  1.
         11    1    4    4    0    0  0.83008694400E+01 -0.23361632300E+02  0.33010823549E+02  0.41284195143E+02  0.00000000000E+00 0. -1.
</event>
<event>
 8    1  0.3541538E-009  0.1135436E+03  0.7561462E-02  0.1254145E+00
         -2   -1    0    0    0  501 -0.00000000000E+00  0.00000000000E+00  0.68340677613E+03  0.68340677613E+03  0.00000000000E+00 0.  1.
          2   -1    0    0  501    0  0.00000000000E+00 -0.00000000000E+00 -0.19698576944E+02  0.19698576944E+02  0.00000000000E+00 0. -1.
         25    2    1    2    0    0  0.34817014296E+02 -0.15552914417E+02  0.44293513577E+03  0.46183742421E+03  0.12509258279E+03 0.  0.
         23    2    1    2    0    0 -0.34817014296E+02  0.15552914417E+02  0.22077306342E+03  0.24126792887E+03  0.89528488969E+02 0.  0.
          5    1    3    3  502    0 -0.46788517443E+02 -0.11282666782E+02  0.14292193367E+03  0.15086621709E+03  0.41800000000E+01 0.  1.
         -5    1    3    3    0  502  0.81605531739E+02 -0.42702476345E+01  0.30001320209E+03  0.31097120712E+03  0.41800000000E+01 0.  1.
        -11    1    4    4    0    0  0.43989719258E+01  0.46678564836E+02  0.11713574380E+03  0.12617060611E+03  0.00000000000E+00 0.  1.
         11    1    4    4    0    0 -0.39215986222E+02 -0.31125650419E+02  0.10363731962E+03  0.11509732276E+03  0.00000000000E+00 0. -1.
</event>
<event>
 8    1  0.3541538E-009  0.9202724E+02  0.7561462E-02  0.1298015E+00
          1   -1    0    0  501    0  0.00000000000E+00  0.00000000000E+00  0.67208594560E+02  0.67208594560E+02  0.00000000000E+00 0. -1.
         -1   -1    0    0    0  501 -0.00000000000E+00 -0.00000000000E+00 -0.20816912100E+03  0.20816912100E+03  0.00000000000E+00 0.  1.
         25    2    1    2    0    0  0.33723296984E+02  0.26467829489E+02 -0.10208103802E+03  0.16704935530E+03  0.12508853675E+03 0.  0.
         23    2    1    2    0    0 -0.33723296984E+02 -0.26467829489E+02 -0.38879488419E+02  0.10832836026E+03  0.91572988697E+02 0.  0.
          5    1    3    3  502    0  0.50217182968E+02  0.39456697405E+02 -0.12934691596E+01  0.64013607130E+02  0.41800000000E+01 0. -1.
         -5    1    3    3    0  502 -0.16493885984E+02 -0.12988867916E+02 -0.10078756886E+03  0.10303574817E+03  0.41800000000E+01 0. -1.
        -11    1    4    4    0    0  0.11913763670E+02 -0.47085511289E+02 -0.31038419847E+02  0.57639974364E+02  0.00000000000E+00 0.  1.
         11    1    4    4    0    0 -0.45637060654E+02  0.20617681800E+02 -0.78410685719E+01  0.50688385892E+02  0.00000000000E+00 0. -1.
</event>
<event>
 8    1  0.3541538E-009  0.1011620E+03  0.7561462E-02  0.1277871E+00
          2   -1    0    0  501    0  0.00000000000E+00  0.00000000000E+00  0.47914047090E+03  0.47914047090E+03  0.00000000000E+00 0.  1.
         -2   -1    0    0    0  501 -0.00000000000E+00 -0.00000000000E+00 -0.32262381158E+02  0.32262381158E+02  0.00000000000E+00 0. -1.
         25    2    1    2    0    0 -0.26388964611E+02  0.21452221895E+02  0.35910609555E+03  0.38178651827E+03  0.12508869813E+03 0.  0.
         23    2    1    2    0    0  0.26388964611E+02 -0.21452221895E+02  0.87771994198E+02  0.12961633378E+03  0.89106092613E+02 0.  0.
          5    1    3    3  502    0  0.37882481315E+02 -0.26974775924E+01  0.39862056061E+02  0.55216072745E+02  0.41800000000E+01 0.  1.
         -5    1    3    3    0  502 -0.64271445927E+02  0.24149699488E+02  0.31924403948E+03  0.32657044553E+03  0.41800000000E+01 0.  1.
        -11    1    4    4    0    0  0.53425494555E+02  0.94667221989E+01  0.47975970770E+02  0.72426487343E+02  0.00000000000E+00 0.  1.
         11    1    4    4    0    0 -0.27036529943E+02 -0.30918944094E+02  0.39796023428E+02  0.57189846441E+02  0.00000000000E+00 0. -1.
</event>
<event>
 8    1  0.3541538E-009  0.1121859E+03  0.7561462E-02  0.1256575E+00
         -1   -1    0    0    0  501 -0.00000000000E+00  0.00000000000E+00  0.67581255618E+02  0.67581255618E+02  0.00000000000E+00 0.  1.
          1   -1    0    0  501    0  0.00000000000E+00 -0.00000000000E+00 -0.24461682124E+03  0.24461682124E+03  0.00000000000E+00 0. -1.
         25    2    1    2    0    0 -0.33873505422E+02  0.57668133959E+02 -0.88978347414E+02  0.16744597026E+03  0.12509188064E+03 0.  0.
         23    2    1    2    0    0  0.33873505422E+02 -0.57668133959E+02 -0.88057218203E+02  0.14475210660E+03  0.93413439308E+02 0.  0.
          5    1    3    3  502    0 -0.64432489719E+02  0.51974925307E+02 -0.10373519999E+03  0.13278329228E+03  0.41800000000E+01 0. -1.
         -5    1    3    3    0  502  0.30558984297E+02  0.56932086523E+01  0.14756852580E+02  0.34662677971E+02  0.41800000000E+01 0. -1.
        -11    1    4    4    0    0  0.59314164339E+02 -0.60251009422E+02 -0.83400245202E+02  0.11876007379E+03  0.00000000000E+00 0. -1.
         11    1    4    4    0    0 -0.25440658917E+02  0.25828754631E+01 -0.46569730004E+01  0.25992032805E+02  0.00000000000E+00 0.  1.
</event>
<event>
 8    1  0.3541538E-009  0.8268092E+02  0.7561462E-02  0.1321611E+00
          2   -1    0    0  501    0  0.00000000000E+00  0.00000000000E+00  0.43373787889E+03  0.43373787889E+03  0.00000000000E+00 0. -1.
         -2   -1    0    0    0  501 -0.00000000000E+00 -0.00000000000E+00 -0.32177525169E+02  0.32177525169E+02  0.00000000000E+00 0.  1.
         25    2    1    2    0    0 -0.36707850946E+02  0.33327108953E+02  0.23411040686E+03  0.27002514446E+03  0.12509090105E+03 0.  0.
         23    2    1    2    0    0  0.36707850946E+02 -0.33327108953E+02  0.16744994686E+03  0.19589025960E+03  0.88743149547E+02 0.  0.
          5    1    3    3  502    0  0.70759750555E+01  0.35463859050E+02  0.50284338631E+01  0.36749316576E+02  0.41800000000E+01 0. -1.
         -5    1    3    3    0  502 -0.43783826002E+02 -0.21367500971E+01  0.22908197300E+03  0.23327582788E+03  0.41800000000E+01 0. -1.
        -11    1    4    4    0    0 -0.42074891288E+01  0.18454430600E+02  0.99053347778E+02  0.10084559822E+03  0.00000000000E+00 0. -1.
         11    1    4    4    0    0  0.40915340075E+02 -0.51781539553E+02  0.68396599078E+02  0.95044661383E+02  0.00000000000E+00 0.  1.
</event>
<event>
 8    1  0.3541538E-009  0.1073497E+03  0.7561462E-02  0.1265558E+00
         -1   -1    0    0    0  501 -0.00000000000E+00  0.00000000000E+00  0.59858700370E+03  0.59858700370E+03  0.00000000000E+00 0.  1.
          1   -1    0    0  501    0  0.00000000000E+00 -0.00000000000E+00 -0.29112948219E+02  0.29112948219E+02  0.00000000000E+00 0. -1.
         25    2    1    2    0    0  0.53521606709E+02  0.44025945157E+02  0.39015642545E+03  0.41553937739E+03  0.12509233235E+03 0.  0.
         23    2    1    2    0    0 -0.53521606709E+02 -0.44025945157E+02  0.17931763003E+03  0.21216057453E+03  0.89746591648E+02 0.  0.
          5    1    3    3  502    0 -0.17029070927E+02  0.65771832820E+02  0.16269229975E+03  0.17635810173E+03  0.41800000000E+01 0.  1.
         -5    1    3    3    0  502  0.70550677636E+02 -0.21745887663E+02  0.22746412570E+03  0.23918127566E+03  0.41800000000E+01 0.  1.
        -11    1    4    4    0    0 -0.30641481829E+02 -0.11098223160E+02  0.16709367111E+03  0.17024208026E+03  0.00000000000E+00 0.  1.
         11    1    4    4    0    0 -0.22880124880E+02 -0.32927721997E+02  0.12223958929E+02  0.41918494276E+02  0.00000000000E+00 0. -1.
</event>
<event>
 8    1  0.3541538E-009  0.1657489E+03  0.7561462E-02  0.1182355E+00
         -3   -1    0    0    0  501 -0.00000000000E+00  0.00000000000E+00  0.12192450474E+03  0.12192450474E+03  0.00000000000E+00 0.  1.
          3   -1    0    0  501    0  0.00000000000E+00 -0.00000000000E+00 -0.25921186247E+03  0.25921186247E+03  0.00000000000E+00 0. -1.
         25    2    1    2    0    0 -0.87336245211E+02  0.10912335150E+03 -0.56315668329E+02  0.19584059041E+03  0.12508619741E+03 0.  0.
         23    2    1    2    0    0  0.87336245211E+02 -0.10912335150E+03 -0.80971689394E+02  0.18529577680E+03  0.90788682375E+02 0.  0.
          5    1    3    3  502    0 -0.52691544283E+02 -0.67353879207E+01 -0.52466510280E+02  0.74779485090E+02  0.41800000000E+01 0. -1.
         -5    1    3    3    0  502 -0.34644700928E+02  0.11585873942E+03 -0.38491580495E+01  0.12106110532E+03  0.41800000000E+01 0. -1.
        -11    1    4    4    0    0  0.26198024628E+02  0.59877516091E+01  0.73371776175E+01  0.27857204439E+02  0.00000000000E+00 0. -1.
         11    1    4    4    0    0  0.61138220583E+02 -0.11511110311E+03 -0.88308867011E+02  0.15743857237E+03  0.00000000000E+00 0.  1.
</event>
<event>
 8    1  0.3541538E-009  0.3148580E+03  0.7561462E-02  0.1078040E+00
          2   -1    0    0  501    0  0.00000000000E+00  0.00000000000E+00  0.59294862056E+03  0.59294862056E+03  0.00000000000E+00 0. -1.
         -2   -1    0    0    0  501 -0.00000000000E+00 -0.00000000000E+00 -0.19141837450E+03  0.19141837450E+03  0.00000000000E+00 0.  1.
         25    2    1    2    0    0  0.19128080747E+03 -0.22826608195E+03  0.33386771174E+03  0.46455252872E+03  0.12509057326E+03 0.  0.
         23    2    1    2    0    0 -0.19128080747E+03  0.22826608195E+03  0.67662534317E+02  0.31981446634E+03  0.94917452839E+02 0.  0.
          5    1    3    3  502    0  0.20530796720E+03 -0.18777428791E+03  0.30417665900E+03  0.41225169118E+03  0.41800000000E+01 0.  1.
         -5    1    3    3    0  502 -0.14027159727E+02 -0.40491794044E+02  0.29691052734E+02  0.52300837540E+02  0.41800000000E+01 0.  1.
        -11    1    4    4    0    0 -0.15953137743E+03  0.13208514500E+03  0.20626058036E+02  0.20813980923E+03  0.00000000000E+00 0.  1.
         11    1    4    4    0    0 -0.31749430043E+02  0.96180936948E+02  0.47036476281E+02  0.11167465711E+03  0.00000000000E+00 0. -1.
</event>
<event>
 8    1  0.3541538E-009  0.8040597E+02  0.7561462E-02  0.1327903E+00
          2   -1    0    0  501    0  0.00000000000E+00  0.00000000000E+00  0.52570871019E+02  0.52570871019E+02  0.00000000000E+00 0. -1.
         -2   -1    0    0    0  501 -0.00000000000E+00 -0.00000000000E+00 -0.28388568534E+03  0.28388568534E+03  0.00000000000E+00 0.  1.
         25    2    1    2    0    0  0.53413075078E+02 -0.21880076211E+02 -0.13499384425E+03  0.19287222074E+03  0.12507862016E+03 0.  0.
         23    2    1    2    0    0 -0.53413075078E+02  0.21880076211E+02 -0.96320970061E+02  0.14358433562E+03  0.89482053153E+02 0.  0.
          5    1    3    3  502    0  0.30696318409E+02 -0.32296524477E+02  0.98541399793E+01  0.45824730571E+02  0.41800000000E+01 0.  1.
         -5    1    3    3    0  502  0.22716756670E+02  0.10416448266E+02 -0.14484798423E+03  0.14704749017E+03  0.41800000000E+01 0.  1.
        -11    1    4    4    0    0 -0.27580707664E+02 -0.24980554355E+02 -0.47341135976E+01  0.37511802978E+02  0.00000000000E+00 0. -1.
         11    1    4    4    0    0 -0.25832367415E+02  0.46860630566E+02 -0.91586856464E+02  0.10607253264E+03  0.00000000000E+00 0.  1.
</event>
<event>
 8    1  0.3541538E-009  0.9966856E+02  0.7561462E-02  0.1280994E+00
         -1   -1    0    0    0  501 -0.00000000000E+00  0.00000000000E+00  0.32202168787E+02  0.32202168787E+02  0.00000000000E+00 0.  1.
          1   -1    0    0  501    0  0.00000000000E+00 -0.00000000000E+00 -0.60513123792E+03  0.60513123792E+03  0.00000000000E+00 0. -1.
         25    2    1    2    0    0 -0.59635370690E+02  0.51585748223E+02 -0.22577648753E+03  0.26988911087E+03  0.12509053915E+03 0.  0.
         23    2    1    2    0    0  0.59635370690E+02 -0.51585748223E+02 -0.34715258160E+03  0.36744429584E+03  0.91010597049E+02 0.  0.
          5    1    3    3  502    0 -0.35519075774E+02  0.46118018960E+02 -0.18676433124E+02  0.61276079924E+02  0.41800000000E+01 0.  1.
         -5    1    3    3    0  502 -0.24116294915E+02  0.54677292628E+01 -0.20710005441E+03  0.20861303094E+03  0.41800000000E+01 0.  1.
        -11    1    4    4    0    0 -0.75405379599E+01 -0.48039832231E+02 -0.98450719093E+02  0.10980541555E+03  0.00000000000E+00 0. -1.
         11    1    4    4    0    0  0.67175908650E+02 -0.35459159919E+01 -0.24870186251E+03  0.25763888029E+03  0.00000000000E+00 0.  1.
</event>
<event>
 8    1  0.3541538E-009  0.1722270E+03  0.7561462E-02  0.1175545E+00
          2   -1    0    0  501    0  0.00000000000E+00  0.00000000000E+00  0.18850038693E+04  0.18850038693E+04  0.00000000000E+00 0. -1.
         -2   -1    0    0    0  501 -0.00000000000E+00 -0.00000000000E+00 -0.17312974799E+02  0.17312974799E+02  0.00000000000E+00 0.  1.
         25    2    1    2    0    0  0.10121225660E+03 -0.96240623771E+02  0.12433146427E+04  0.12573710563E+04  0.12507795205E+03 0.  0.
         23    2    1    2    0    0 -0.10121225660E+03  0.96240623771E+02  0.62437625180E+03  0.64494578773E+03  0.81259994769E+02 0.  0.
          5    1    3    3  502    0  0.10128446336E+03 -0.13427208446E+02  0.78284909676E+03  0.78949921668E+03  0.41800000000E+01 0. -1.
         -5    1    3    3    0  502 -0.72206765752E-01 -0.82813415325E+02  0.46046554591E+03  0.46787183966E+03  0.41800000000E+01 0. -1.
        -11    1    4    4    0    0 -0.17172427212E+02  0.68742383470E+02  0.22477705905E+03  0.23568015151E+03  0.00000000000E+00 0.  1.
         11    1    4    4    0    0 -0.84039829387E+02  0.27498240301E+02  0.39959919274E+03  0.40926563621E+03  0.00000000000E+00 0. -1.
</event>
<event>
 8    1  0.3541538E-009  0.9388844E+02  0.7561462E-02  0.1293699E+00
         -2   -1    0    0    0  501 -0.00000000000E+00  0.00000000000E+00  0.69285774304E+02  0.69285774304E+02  0.00000000000E+00 0.  1.
          2   -1    0    0  501    0  0.00000000000E+00 -0.00000000000E+00 -0.18129030016E+03  0.18129030016E+03  0.00000000000E+00 0. -1.
         25    2    1    2    0    0 -0.24474104452E+02 -0.19372332360E+02 -0.62783941223E+02  0.14340497168E+03  0.12509553780E+03 0.  0.
         23    2    1    2    0    0  0.24474104452E+02  0.19372332360E+02 -0.49220584632E+02  0.10717110278E+03  0.89937257408E+02 0.  0.
          5    1    3    3  502    0  0.72048498876E+01  0.47304143895E+02 -0.48192925070E+02  0.68041328017E+02  0.41800000000E+01 0.  1.
         -5    1    3    3    0  502 -0.31678954340E+02 -0.66676476255E+02 -0.14591016153E+02  0.75363643663E+02  0.41800000000E+01 0.  1.
        -11    1    4    4    0    0 -0.16647007649E+02  0.18206272657E+02  0.16470256687E+02  0.29662443983E+02  0.00000000000E+00 0.  1.
         11    1    4    4    0    0  0.41121112100E+02  0.11660597035E+01 -0.65690841319E+02  0.77508658799E+02  0.00000000000E+00 0. -1.
</event>
<event>
 8    1  0.3541538E-009  0.1227569E+03  0.7561462E-02  0.1238617E+00
          1   -1    0    0  501    0  0.00000000000E+00  0.00000000000E+00  0.11162605711E+03  0.11162605711E+03  0.00000000000E+00 0. -1.
         -1   -1    0    0    0  501 -0.00000000000E+00 -0.00000000000E+00 -0.19570763489E+03  0.19570763489E+03  0.00000000000E+00 0.  1.
         25    2    1    2    0    0 -0.68846539154E+02  0.63169208862E+02  0.39019850188E+01  0.15617156337E+03  0.12507652384E+03 0.  0.
         23    2    1    2    0    0  0.68846539154E+02 -0.63169208862E+02 -0.87983562798E+02  0.15116212863E+03  0.79866682093E+02 0.  0.
          5    1    3    3  502    0 -0.98056035675E+01  0.76494991638E+02 -0.34265796828E+02  0.84494087599E+02  0.41800000000E+01 0.  1.
         -5    1    3    3    0  502 -0.59040935587E+02 -0.13325782776E+02  0.38167781847E+02  0.71677475770E+02  0.41800000000E+01 0.  1.
        -11    1    4    4    0    0  0.20597171845E+02  0.76023436485E+01 -0.55274314351E+02  0.59475111971E+02  0.00000000000E+00 0.  1.
         11    1    4    4    0    0  0.48249367309E+02 -0.70771552510E+02 -0.32709248447E+02  0.91687016662E+02  0.00000000000E+00 0. -1.
</event>
<event>
 8    1  0.3541538E-009  0.1785971E+03  0.7561462E-02  0.1169168E+00
         -1   -1    0    0    0  501 -0.00000000000E+00  0.00000000000E+00  0.60150159835E+02  0.60150159835E+02  0.00000000000E+00 0.  1.
          1   -1    0    0  501    0  0.00000000000E+00 -0.00000000000E+00 -0.55917637653E+03  0.55917637653E+03  0.00000000000E+00 0. -1.
         25    2    1    2    0    0 -0.14320142612E+03 -0.29392832725E+02 -0.31225113978E+03  0.36676788442E+03  0.12508924690E+03 0.  0.
         23    2    1    2    0    0  0.14320142612E+03  0.29392832725E+02 -0.18677507692E+03  0.25255865195E+03  0.86777625335E+02 0.  0.
          5    1    3    3  502    0 -0.10128759436E+03 -0.76410555838E+02 -0.18045216331E+03  0.22063137914E+03  0.41800000000E+01 0. -1.
         -5    1    3    3    0  502 -0.41913831754E+02  0.47017723112E+02 -0.13179897647E+03  0.14613650529E+03  0.41800000000E+01 0. -1.
        -11    1    4    4    0    0  0.54054843135E+02 -0.28221478140E+02 -0.46681911535E+02  0.76795694927E+02  0.00000000000E+00 0.  1.
         11    1    4    4    0    0  0.89146582982E+02  0.57614310866E+02 -0.14009316538E+03  0.17576295702E+03  0.00000000000E+00 0. -1.
</event>
<event>
 8    1  0.3541538E-009  0.1190572E+03  0.7561462E-02  0.1244661E+00
         -2   -1    0    0    0  501 -0.00000000000E+00  0.00000000000E+00  0.28777614659E+02  0.28777614659E+02  0.00000000000E+00 0.  1.
          2   -1    0    0  501    0  0.00000000000E+00 -0.00000000000E+00 -0.89820484076E+03  0.89820484076E+03  0.00000000000E+00 0. -1.
         25    2    1    2    0    0 -0.10956760479E+03 -0.43237679693E+02 -0.50082757258E+03  0.52948098065E+03  0.12508914599E+03 0.  0.
         23    2    1    2    0    0  0.10956760479E+03  0.43237679693E+02 -0.36859965352E+03  0.39750147478E+03  0.90923929229E+02 0.  0.
          5    1    3    3  502    0 -0.23233677471E+02 -0.19664588354E+02 -0.12776447055E+02  0.33274762258E+02  0.41800000000E+01 0. -1.
         -5    1    3    3    0  502 -0.86333927319E+02 -0.23573091339E+02 -0.48805112552E+03  0.49620621839E+03  0.41800000000E+01 0. -1.
        -11    1    4    4    0    0  0.66976285853E+02  0.27152231597E+02 -0.32997606219E+03  0.33779767342E+03  0.00000000000E+00 0. -1.
         11    1    4    4    0    0  0.42591318937E+02  0.16085448096E+02 -0.38623591335E+02  0.59703801360E+02  0.00000000000E+00 0.  1.
</event>
<event>
 8    1  0.3541538E-009  0.9395383E+02  0.7561462E-02  0.1293550E+00
          2   -1    0    0  501    0  0.00000000000E+00  0.00000000000E+00  0.55401491397E+02  0.55401491397E+02  0.00000000000E+00 0.  1.
         -2   -1    0    0    0  501 -0.00000000000E+00 -0.00000000000E+00 -0.26442476342E+03  0.26442476342E+03  0.00000000000E+00 0. -1.
         25    2    1    2    0    0  0.43661923688E+02 -0.29251991916E+02 -0.11839505022E+03  0.18007438702E+03  0.12508938537E+03 0.  0.
         23    2    1    2    0    0 -0.43661923688E+02  0.29251991916E+02 -0.90628221802E+02  0.13975186780E+03  0.92493607100E+02 0.  0.
          5    1    3    3  502    0  0.12463458798E+02  0.22264783895E+02 -0.11685634288E+03  0.11968264568E+03  0.41800000000E+01 0.  1.
         -5    1    3    3    0  502  0.31198464890E+02 -0.51516775811E+02 -0.15387073438E+01  0.60391741337E+02  0.41800000000E+01 0.  1.
        -11    1    4    4    0    0 -0.25932209894E+02 -0.30103393863E+02 -0.56362545404E+02  0.68959628453E+02  0.00000000000E+00 0. -1.
         11    1    4    4    0    0 -0.17729713795E+02  0.59355385779E+02 -0.34265676398E+02  0.70792239343E+02  0.00000000000E+00 0.  1.
</event>
<event>
 8    1  0.3541538E-009  0.8729254E+02  0.7561462E-02  0.1309544E+00
         -2   -1    0    0    0  501 -0.00000000000E+00  0.00000000000E+00  0.13533896252E+03  0.13533896252E+03  0.00000000000E+00 0.  1.
          2   -1    0    0  501    0  0.00000000000E+00 -0.00000000000E+00 -0.18069992789E+03  0.18069992789E+03  0.00000000000E+00 0. -1.
         25    2    1    2    0    0 -0.69567936892E+02 -0.20989474995E+02 -0.11463098993E+03  0.18457613445E+03  0.12509128527E+03 0.  0.
         23    2    1    2    0    0  0.69567936892E+02  0.20989474995E+02  0.69270024565E+02  0.13146275596E+03  0.84875579506E+02 0.  0.
          5    1    3    3  502    0 -0.52333828389E+01  0.22331076482E+02 -0.10351970992E+03  0.10611252524E+03  0.41800000000E+01 0.  1.
         -5    1    3    3    0  502 -0.64334554053E+02 -0.43320551478E+02 -0.11111280017E+02  0.78463609203E+02  0.41800000000E+01 0.  1.
        -11    1    4    4    0    0  0.47905161240E+02  0.20001381637E+02 -0.68052343540E+01  0.52357148083E+02  0.00000000000E+00 0.  1.
         11    1    4    4    0    0  0.21662775652E+02  0.98809335849E+00  0.76075258919E+02  0.79105607873E+02  0.00000000000E+00 0. -1.
</event>
<event>
 8    1  0.3541538E-009  0.1674106E+03  0.7561462E-02  0.1180575E+00
          2   -1    0    0  501    0  0.00000000000E+00  0.00000000000E+00  0.11282209831E+04  0.11282209831E+04  0.00000000000E+00 0. -1.
         -2   -1    0    0    0  501 -0.00000000000E+00 -0.00000000000E+00 -0.29195822339E+02  0.29195822339E+02  0.00000000000E+00 0.  1.
         25    2    1    2    0    0 -0.13618763921E+03 -0.45935313528E+02  0.51893558803E+03  0.55280968068E+03  0.12508905799E+03 0.  0.
         23    2    1    2    0    0  0.13618763921E+03  0.45935313528E+02  0.58008957269E+03  0.60460712472E+03  0.91590047564E+02 0.  0.
          5    1    3    3  502    0 -0.22071913215E+02  0.41175580097E+02  0.12981670482E+03  0.13803060168E+03  0.41800000000E+01 0. -1.
         -5    1    3    3    0  502 -0.11411572600E+03 -0.87110893625E+02  0.38911888321E+03  0.41477907900E+03  0.41800000000E+01 0. -1.
        -11    1    4    4    0    0  0.45177898928E+02  0.89644458476E+01  0.61717004536E+02  0.77009041611E+02  0.00000000000E+00 0.  1.
         11    1    4    4    0    0  0.91009740283E+02  0.36970867681E+02  0.51837256815E+03  0.52759808311E+03  0.00000000000E+00 0. -1.
</event>
<event>
 8    1  0.3541538E-009  0.1015141E+03  0.7561462E-02  0.1277144E+00
          2   -1    0    0  501    0  0.00000000000E+00  0.00000000000E+00  0.11343189319E+03  0.11343189319E+03  0.00000000000E+00 0. -1.
         -2   -1    0    0    0  501 -0.00000000000E+00 -0.00000000000E+00 -0.11496051680E+03  0.11496051680E+03  0.00000000000E+00 0.  1.
         25    2    1    2    0    0 -0.42341632538E+01  0.63649461544E+01 -0.34874984950E+02  0.13008666789E+03  0.12509131029E+03 0.  0.
         23    2    1    2    0    0  0.42341632538E+01 -0.63649461544E+01  0.33346361340E+02  0.98305742104E+02  0.92160720689E+02 0.  0.
          5    1    3    3  502    0  0.54168882919E+02 -0.34466948304E+00 -0.44677279151E+02  0.70341441172E+02  0.41800000000E+01 0. -1.
         -5    1    3    3    0  502 -0.58403046173E+02  0.67096156374E+01  0.98022942009E+01  0.59745226720E+02  0.41800000000E+01 0. -1.
        -11    1    4    4    0    0  0.81581616843E+01 -0.47623350974E+02  0.29667214130E+02  0.56698172407E+02  0.00000000000E+00 0. -1.
         11    1    4    4    0    0 -0.39239984305E+01  0.41258404819E+02  0.36791472096E+01  0.41607569697E+02  0.00000000000E+00 0.  1.
</event>
<event>
 8    1  0.3541538E-009  0.1325178E+03  0.7561462E-02  0.1223767E+00
         -2   -1    0    0    0  501 -0.00000000000E+00  0.00000000000E+00  0.33266235057E+02  0.33266235057E+02  0.00000000000E+00 0. -1.
          2   -1    0    0  501    0  0.00000000000E+00 -0.00000000000E+00 -0.57169851056E+03  0.57169851056E+03  0.00000000000E+00 0.  1.
         25    2    1    2    0    0  0.83490837975E+02  0.10254937980E+02 -0.28125030528E+03  0.31910199943E+03  0.12509383694E+03 0.  0.
         23    2    1    2    0    0 -0.83490837975E+02 -0.10254937980E+02 -0.25718197022E+03  0.28586274618E+03  0.92190346952E+02 0.  0.
          5    1    3    3  502    0  0.11859090872E+02 -0.47253438800E+02 -0.15757290868E+03  0.16498551289E+03  0.41800000000E+01 0.  1.
         -5    1    3    3    0  502  0.71631747102E+02  0.57508376780E+02 -0.12367739661E+03  0.15411648654E+03  0.41800000000E+01 0.  1.
        -11    1    4    4    0    0 -0.69829047452E+02 -0.47538250899E+02 -0.16123608493E+03  0.18202487811E+03  0.00000000000E+00 0.  1.
         11    1    4    4    0    0 -0.13661790523E+02  0.37283312920E+02 -0.95945885290E+02  0.10383786808E+03  0.00000000000E+00 0. -1.
</event>
<event>
 8    1  0.3541538E-009  0.1158194E+03  0.7561462E-02  0.1250157E+00
          1   -1    0    0  501    0  0.00000000000E+00  0.00000000000E+00  0.38329861903E+03  0.38329861903E+03  0.00000000000E+00 0. -1.
         -1   -1    0    0    0  501 -0.00000000000E+00 -0.00000000000E+00 -0.56972352338E+02  0.56972352338E+02  0.00000000000E+00 0.  1.
         25    2    1    2    0    0 -0.39622543160E+02  0.71760192932E+02  0.87198042587E+02  0.17312252124E+03  0.12509371492E+03 0.  0.
         23    2    1    2    0    0  0.39622543160E+02 -0.71760192932E+02  0.23912822410E+03  0.26714845013E+03  0.86409002004E+02 0.  0.
          5    1    3    3  502    0  0.42611961048E+02  0.41705419431E+01  0.26049789209E+02  0.50291515809E+02  0.41800000000E+01 0. -1.
         -5    1    3    3    0  502 -0.82234504209E+02  0.67589650989E+02  0.61148253378E+02  0.12283100543E+03  0.41800000000E+01 0. -1.
        -11    1    4    4    0    0  0.24292456615E+02 -0.48324434732E+02  0.23204095425E+03  0.23826115690E+03  0.00000000000E+00 0. -1.
         11    1    4    4    0    0  0.15330086545E+02 -0.23435758200E+02  0.70872698551E+01  0.28887293226E+02  0.00000000000E+00 0.  1.
</event>
<event>
 8    1  0.3541538E-009  0.1330708E+03  0.7561462E-02  0.1222969E+00
         -1   -1    0    0    0  501 -0.00000000000E+00  0.00000000000E+00  0.80377084306E+02  0.80377084306E+02  0.00000000000E+00 0. -1.
          1   -1    0    0  501    0  0.00000000000E+00 -0.00000000000E+00 -0.43633378414E+03  0.43633378414E+03  0.00000000000E+00 0.  1.
         25    2    1    2    0    0 -0.11112794586E+03  0.14510099266E+02 -0.32956953764E+03  0.36989697715E+03  0.12509088789E+03 0.  0.
         23    2    1    2    0    0  0.11112794586E+03 -0.14510099266E+02 -0.26387162196E+02  0.14681389130E+03  0.91093759491E+02 0.  0.
          5    1    3    3  502    0 -0.67951960660E+02  0.54052548654E+02 -0.97973842696E+02  0.13097898009E+03  0.41800000000E+01 0.  1.
         -5    1    3    3    0  502 -0.43175985198E+02 -0.39542449388E+02 -0.23159569494E+03  0.23891799706E+03  0.41800000000E+01 0.  1.
        -11    1    4    4    0    0  0.24828929301E+02  0.15358091029E+02  0.28059757572E+02  0.40493168378E+02  0.00000000000E+00 0. -1.
         11    1    4    4    0    0  0.86299016556E+02 -0.29868190295E+02 -0.54446919768E+02  0.10632072292E+03  0.00000000000E+00 0.  1.
</event>
<event>
 8    1  0.3541538E-009  0.2014065E+03  0.7561462E-02  0.1148558E+00
          2   -1    0    0  501    0  0.00000000000E+00  0.00000000000E+00  0.17677297953E+04  0.17677297953E+04  0.00000000000E+00 0. -1.
         -2   -1    0    0    0  501 -0.00000000000E+00 -0.00000000000E+00 -0.36738765868E+02  0.36738765868E+02  0.00000000000E+00 0.  1.
         25    2    1    2    0    0 -0.13840207540E+03  0.13947260154E+03  0.13122211840E+04  0.13327339336E+04  0.12509021120E+03 0.  0.
         23    2    1    2    0    0  0.13840207540E+03 -0.13947260154E+03  0.41876984550E+03  0.47173462765E+03  0.92507482778E+02 0.  0.
          5    1    3    3  502    0 -0.67744962466E+02  0.73269092723E+02  0.10196174733E+04  0.10244974398E+04  0.41800000000E+01 0.  1.
         -5    1    3    3    0  502 -0.70657112933E+02  0.66203508814E+02  0.29260371063E+03  0.30823649372E+03  0.41800000000E+01 0.  1.
        -11    1    4    4    0    0  0.62684777807E+02 -0.22341475878E+02  0.21297611360E+03  0.22313078648E+03  0.00000000000E+00 0. -1.
         11    1    4    4    0    0  0.75717297592E+02 -0.11713112566E+03  0.20579373190E+03  0.24860384117E+03  0.00000000000E+00 0.  1.
</event>
<event>
 8    1  0.3541538E-009  0.1211875E+03  0.7561462E-02  0.1241151E+00
          1   -1    0    0  501    0  0.00000000000E+00  0.00000000000E+00  0.61596708670E+03  0.61596708670E+03  0.00000000000E+00 0. -1.
         -1   -1    0    0    0  501 -0.00000000000E+00 -0.00000000000E+00 -0.26540482696E+02  0.26540482696E+02  0.00000000000E+00 0.  1.
         25    2    1    2    0    0 -0.17938282263E+02 -0.58478720126E+02  0.26227796049E+03  0.29694862851E+03  0.12508883537E+03 0.  0.
         23    2    1    2    0    0  0.17938282263E+02  0.58478720126E+02  0.32714864351E+03  0.34555894089E+03  0.92968833481E+02 0.  0.
          5    1    3    3  502    0 -0.66131768747E+02 -0.60973412247E+02  0.18486631254E+03  0.20563120812E+03  0.41800000000E+01 0.  1.
         -5    1    3    3    0  502  0.48193486484E+02  0.24946921210E+01  0.77411647951E+02  0.91317420391E+02  0.41800000000E+01 0.  1.
        -11    1    4    4    0    0  0.50475610024E+02  0.22158331912E+02  0.11045869187E+03  0.12344999591E+03  0.00000000000E+00 0. -1.
         11    1    4    4    0    0 -0.32537327761E+02  0.36320388214E+02  0.21668995163E+03  0.22210894497E+03  0.00000000000E+00 0.  1.
</event>
<event>
 8    1  0.3541538E-009  0.1204246E+03  0.7561462E-02  0.1242398E+00
          2   -1    0    0  501    0  0.00000000000E+00  0.00000000000E+00  0.70943532734E+03  0.70943532734E+03  0.00000000000E+00 0. -1.
         -2   -1    0    0    0  501 -0.00000000000E+00 -0.00000000000E+00 -0.27976203181E+02  0.27976203181E+02  0.00000000000E+00 0.  1.
         25    2    1    2    0    0 -0.85014887096E+02  0.27802600380E+01  0.30126287547E+03  0.33711022944E+03  0.12509486713E+03 0.  0.
         23    2    1    2    0    0  0.85014887096E+02 -0.27802600380E+01  0.38019624869E+03  0.40030130108E+03  0.91960226491E+02 0.  0.
          5    1    3    3  502    0 -0.10592917696E+03 -0.17565263860E+02  0.28230370160E+03  0.30206353862E+03  0.41800000000E+01 0.  1.
         -5    1    3    3    0  502  0.20914289868E+02  0.20345523898E+02  0.18959173864E+02  0.35046690814E+02  0.41800000000E+01 0.  1.
        -11    1    4    4    0    0  0.23419571793E+02 -0.28740382498E+02  0.44056360383E+02  0.57579934172E+02  0.00000000000E+00 0.  1.
         11    1    4    4    0    0  0.61595315303E+02  0.25960122460E+02  0.33613988831E+03  0.34272136691E+03  0.00000000000E+00 0. -1.
</event>
<event>
 8    1  0.3541538E-009  0.1481982E+03  0.7561462E-02  0.1202705E+00
         -2   -1    0    0    0  501 -0.00000000000E+00  0.00000000000E+00  0.21406242539E+02  0.21406242539E+02  0.00000000000E+00 0.  1.
          2   -1    0    0  501    0  0.00000000000E+00 -0.00000000000E+00 -0.11337584291E+04  0.11337584291E+04  0.00000000000E+00 0. -1.
         25    2    1    2    0    0 -0.88925667697E+02  0.50279459338E+02 -0.43267343143E+03  0.46183277919E+03  0.12508964489E+03 0.  0.
         23    2    1    2    0    0  0.88925667697E+02 -0.50279459338E+02 -0.67967875517E+03  0.69333189249E+03  0.91159774631E+02 0.  0.
          5    1    3    3  502    0 -0.86418679952E+01 -0.38546550070E+02 -0.79114724135E+02  0.88527568473E+02  0.41800000000E+01 0.  1.
         -5    1    3    3    0  502 -0.80283799702E+02  0.88826009408E+02 -0.35355870730E+03  0.37330521072E+03  0.41800000000E+01 0.  1.
        -11    1    4    4    0    0  0.52448012074E+02  0.21238309647E+02 -0.29002001831E+03  0.29548852903E+03  0.00000000000E+00 0. -1.
         11    1    4    4    0    0  0.36477655624E+02 -0.71517768986E+02 -0.38965873686E+03  0.39784336346E+03  0.00000000000E+00 0.  1.
</event>
<event>
 8    1  0.3541538E-009  0.1456151E+03  0.7561462E-02  0.1205967E+00
         -2   -1    0    0    0  501 -0.00000000000E+00  0.00000000000E+00  0.11595957065E+03  0.11595957065E+03  0.00000000000E+00 0.  1.
          2   -1    0    0  501    0  0.00000000000E+00 -0.00000000000E+00 -0.24410454241E+03  0.24410454241E+03  0.00000000000E+00 0. -1.
         25    2    1    2    0    0  0.81525006610E+02 -0.65706086320E+02 -0.15218174118E+03  0.22309325000E+03  0.12509076451E+03 0.  0.
         23    2    1    2    0    0 -0.81525006610E+02  0.65706086320E+02  0.24036769418E+02  0.13697086307E+03  0.84968432746E+02 0.  0.
          5    1    3    3  502    0  0.58861669365E+02  0.26511913994E+02 -0.40015545631E+02  0.76067693512E+02  0.41800000000E+01 0. -1.
         -5    1    3    3    0  502  0.22663337245E+02 -0.92218000315E+02 -0.11216619555E+03  0.14702555649E+03  0.41800000000E+01 0. -1.
        -11    1    4    4    0    0  0.12858408650E+02  0.26162935220E+02 -0.71043711366E+01  0.30005165248E+02  0.00000000000E+00 0. -1.
         11    1    4    4    0    0 -0.94383415259E+02  0.39543151100E+02  0.31141140555E+02  0.10696569782E+03  0.00000000000E+00 0.  1.
</event>
<event>
 8    1  0.3541538E-009  0.1445134E+03  0.7561462E-02  0.1207382E+00
         -1   -1    0    0    0  501 -0.00000000000E+00  0.00000000000E+00  0.19429165178E+03  0.19429165178E+03  0.00000000000E+00 0.  1.
          1   -1    0    0  501    0  0.00000000000E+00 -0.00000000000E+00 -0.16293046183E+03  0.16293046183E+03  0.00000000000E+00 0. -1.
         25    2    1    2    0    0 -0.42830169902E+02  0.98545683237E+02 -0.68109206249E+02  0.17841261942E+03  0.12508606499E+03 0.  0.
         23    2    1    2    0    0  0.42830169902E+02 -0.98545683237E+02  0.99470396200E+02  0.17880949418E+03  0.10262943219E+03 0.  0.
          5    1    3    3  502    0 -0.63128863099E+02  0.14772788551E+02  0.52044235553E+01  0.65177043982E+02  0.41800000000E+01 0. -1.
         -5    1    3    3    0  502  0.20298693197E+02  0.83772894686E+02 -0.73313629804E+02  0.11323557544E+03  0.41800000000E+01 0. -1.
        -11    1    4    4    0    0 -0.25077829174E+02 -0.44052915887E+02  0.70931834445E+02  0.87183037639E+02  0.00000000000E+00 0. -1.
         11    1    4    4    0    0  0.67907999075E+02 -0.54492767350E+02  0.28538561755E+02  0.91626456545E+02  0.00000000000E+00 0.  1.
</event>
<event>
 8    1  0.3541538E-009  0.1484555E+03  0.7561462E-02  0.1202384E+00
          2   -1    0    0  501    0  0.00000000000E+00  0.00000000000E+00  0.32205433217E+03  0.32205433217E+03  0.00000000000E+00 0.  1.
         -2   -1    0    0    0  501 -0.00000000000E+00 -0.00000000000E+00 -0.11456683654E+03  0.11456683654E+03  0.00000000000E+00 0. -1.
         25    2    1    2    0    0 -0.69043510506E+02  0.11761631242E+03  0.20059813014E+03  0.27292496150E+03  0.12509125270E+03 0.  0.
         23    2    1    2    0    0  0.69043510506E+02 -0.11761631242E+03  0.68893654869E+01  0.16369620722E+03  0.90268386559E+02 0.  0.
          5    1    3    3  502    0 -0.16401212043E+02  0.70281149485E+02  0.18730644579E+03  0.20077254983E+03  0.41800000000E+01 0. -1.
         -5    1    3    3    0  502 -0.52642298463E+02  0.47335162930E+02  0.13291684356E+02  0.72152411672E+02  0.41800000000E+01 0. -1.
        -11    1    4    4    0    0  0.56574845723E+02 -0.27819882929E+02  0.30469573626E+02  0.70021810685E+02  0.00000000000E+00 0.  1.
         11    1    4    4    0    0  0.12468664783E+02 -0.89796429487E+02 -0.23580208139E+02  0.93674396534E+02  0.00000000000E+00 0. -1.
</event>
<event>
 8    1  0.3541538E-009  0.1234527E+03  0.7561462E-02  0.1237507E+00
          1   -1    0    0  501    0  0.00000000000E+00  0.00000000000E+00  0.24573064887E+02  0.24573064887E+02  0.00000000000E+00 0. -1.
         -1   -1    0    0    0  501 -0.00000000000E+00 -0.00000000000E+00 -0.86266416776E+03  0.86266416776E+03  0.00000000000E+00 0.  1.
         25    2    1    2    0    0 -0.59466798490E+02  0.70741391114E+02 -0.53347266191E+03  0.55568157802E+03  0.12509312775E+03 0.  0.
         23    2    1    2    0    0  0.59466798490E+02 -0.70741391114E+02 -0.30461844096E+03  0.33155565462E+03  0.92715225278E+02 0.  0.
          5    1    3    3  502    0 -0.48589515550E+02  0.87366560679E+02 -0.22151807680E+03  0.24306704362E+03  0.41800000000E+01 0. -1.
         -5    1    3    3    0  502 -0.10877282940E+02 -0.16625169564E+02 -0.31195458511E+03  0.31261453440E+03  0.41800000000E+01 0. -1.
        -11    1    4    4    0    0  0.53940362059E+02 -0.90869675224E+02 -0.21536036798E+03  0.23988945085E+03  0.00000000000E+00 0. -1.
         11    1    4    4    0    0  0.55264364305E+01  0.20128284110E+02 -0.89258072984E+02  0.91666203770E+02  0.00000000000E+00 0.  1.
</event>
<event>
 8    1  0.3541538E-009  0.1146225E+03  0.7561462E-02  0.1252242E+00
         -2   -1    0    0    0  501 -0.00000000000E+00  0.00000000000E+00  0.25080690506E+02  0.25080690506E+02  0.00000000000E+00 0. -1.
          2   -1    0    0  501    0  0.00000000000E+00 -0.00000000000E+00 -0.66656973540E+03  0.66656973540E+03  0.00000000000E+00 0.  1.
         25    2    1    2    0    0  0.57300550282E+02 -0.39915887262E+02 -0.31294756253E+03  0.34418041656E+03  0.12508937258E+03 0.  0.
         23    2    1    2    0    0 -0.57300550282E+02  0.39915887262E+02 -0.32854148236E+03  0.34747000934E+03  0.88990283968E+02 0.  0.
          5    1    3    3  502    0  0.64531295709E+02 -0.63879453149E+02 -0.12515373346E+03  0.15467967565E+03  0.41800000000E+01 0. -1.
         -5    1    3    3    0  502 -0.72307454264E+01  0.23963565887E+02 -0.18779382907E+03  0.18950074091E+03  0.41800000000E+01 0. -1.
        -11    1    4    4    0    0  0.21817608515E+02  0.23688791078E+02 -0.85799365707E+02  0.91644410740E+02  0.00000000000E+00 0. -1.
         11    1    4    4    0    0 -0.79118158797E+02  0.16227096184E+02 -0.24274211665E+03  0.25582559860E+03  0.00000000000E+00 0.  1.
</event>
<event>
 8    1  0.3541538E-009  0.1409652E+03  0.7561462E-02  0.1212036E+00
          2   -1    0    0  501    0  0.00000000000E+00  0.00000000000E+00  0.30063988746E+03  0.30063988746E+03  0.00000000000E+00 0. -1.
         -2   -1    0    0    0  501 -0.00000000000E+00 -0.00000000000E+00 -0.10457203426E+03  0.10457203426E+03  0.00000000000E+00 0.  1.
         25    2    1    2    0    0  0.11439846693E+03  0.40239133376E+02  0.17732462816E+03  0.24859119041E+03  0.12508940447E+03 0.  0.
         23    2    1    2    0    0 -0.11439846693E+03 -0.40239133376E+02  0.18743225045E+02  0.15662073131E+03  0.97327015264E+02 0.  0.
          5    1    3    3  502    0  0.10418075298E+03  0.64402373173E+02  0.76826618499E+02  0.14464126891E+03  0.41800000000E+01 0.  1.
         -5    1    3    3    0  502  0.10217713947E+02 -0.24163239796E+02  0.10049800966E+03  0.10394992150E+03  0.41800000000E+01 0.  1.
        -11    1    4    4    0    0 -0.52774819977E+02 -0.47194073402E+02 -0.30836785890E+02  0.77222856409E+02  0.00000000000E+00 0.  1.
         11    1    4    4    0    0 -0.61623646949E+02  0.69549400256E+01  0.49580010935E+02  0.79397874899E+02  0.00000000000E+00 0. -1.
</event>
<event>
 8    1  0.3541538E-009  0.1023845E+03  0.7561462E-02  0.1275360E+00
         -1   -1    0    0    0  501 -0.00000000000E+00  0.00000000000E+00  0.38476505719E+02  0.38476505719E+02  0.00000000000E+00 0.  1.
          1   -1    0    0  501    0  0.00000000000E+00 -0.00000000000E+00 -0.45014334862E+03  0.45014334862E+03  0.00000000000E+00 0. -1.
         25    2    1    2    0    0 -0.65190634367E+02  0.26042245613E+02 -0.17882238002E+03  0.22924908663E+03  0.12509869208E+03 0.  0.
         23    2    1    2    0    0  0.65190634367E+02 -0.26042245613E+02 -0.23284446288E+03  0.25937076771E+03  0.90158936776E+02 0.  0.
          5    1    3    3  502    0  0.29821887623E+02  0.11923792248E+02 -0.82133329775E+01  0.33413366211E+02  0.41800000000E+01 0.  1.
         -5    1    3    3    0  502 -0.95012521990E+02  0.14118453366E+02 -0.17060904704E+03  0.19583572042E+03  0.41800000000E+01 0.  1.
        -11    1    4    4    0    0  0.50454781161E+02 -0.52186573985E+01 -0.22778420704E+03  0.23336358822E+03  0.00000000000E+00 0. -1.
         11    1    4    4    0    0  0.14735853206E+02 -0.20823588215E+02 -0.50602558370E+01  0.26007179489E+02  0.00000000000E+00 0.  1.
</event>
<event>
 8    1  0.3541538E-009  0.1226753E+03  0.7561462E-02  0.1238748E+00
         -2   -1    0    0    0  501 -0.00000000000E+00  0.00000000000E+00  0.29843147955E+02  0.29843147955E+02  0.00000000000E+00 0. -1.
          2   -1    0    0  501    0  0.00000000000E+00 -0.00000000000E+00 -0.62958125436E+03  0.62958125436E+03  0.00000000000E+00 0.  1.
         25    2    1    2    0    0  0.51512506971E+02 -0.42449083823E+02 -0.45389161839E+03  0.47552159753E+03  0.12509086850E+03 0.  0.
         23    2    1    2    0    0 -0.51512506971E+02  0.42449083823E+02 -0.14584648801E+03  0.18390280478E+03  0.89964328760E+02 0.  0.
          5    1    3    3  502    0  0.88467828320E+02 -0.39487770716E+02 -0.38663518749E+03  0.39861018713E+03  0.41800000000E+01 0.  1.
         -5    1    3    3    0  502 -0.36955321349E+02 -0.29613131068E+01 -0.67256430904E+02  0.76911410397E+02  0.41800000000E+01 0.  1.
        -11    1    4    4    0    0  0.25472249154E+02  0.77266597290E+01 -0.25353792450E+02  0.36760733659E+02  0.00000000000E+00 0.  1.
         11    1    4    4    0    0 -0.76984756125E+02  0.34722424094E+02 -0.12049269556E+03  0.14714207112E+03  0.00000000000E+00 0. -1.
</event>
<event>
 8    1  0.3541538E-009  0.3633456E+03  0.7561462E-02  0.1057267E+00
          1   -1    0    0  501    0  0.00000000000E+00  0.00000000000E+00  0.18380991626E+03  0.18380991626E+03  0.00000000000E+00 0. -1.
         -1   -1    0    0    0  501 -0.00000000000E+00 -0.00000000000E+00 -0.80781818460E+03  0.80781818460E+03  0.00000000000E+00 0.  1.
         25    2    1    2    0    0  0.31199726356E+03  0.17432099839E+03 -0.43645595818E+03  0.57781587762E+03  0.12508909643E+03 0.  0.
         23    2    1    2    0    0 -0.31199726356E+03 -0.17432099839E+03 -0.18755231015E+03  0.41381222324E+03  0.91293943455E+02 0.  0.
          5    1    3    3  502    0  0.19853871579E+03  0.14691657015E+03 -0.21514986821E+03  0.32758058313E+03  0.41800000000E+01 0.  1.
         -5    1    3    3    0  502  0.11345854777E+03  0.27404428242E+02 -0.22130608998E+03  0.25023529449E+03  0.41800000000E+01 0.  1.
        -11    1    4    4    0    0 -0.23442883575E+02  0.38322509414E+01  0.43665279162E+01  0.24152049678E+02  0.00000000000E+00 0. -1.
         11    1    4    4    0    0 -0.28855437998E+03 -0.17815324933E+03 -0.19191883807E+03  0.38966017356E+03  0.00000000000E+00 0.  1.
</event>
<event>
 8    1  0.3541538E-009  0.2759264E+03  0.7561462E-02  0.1097935E+00
          2   -1    0    0  501    0  0.00000000000E+00  0.00000000000E+00  0.10941345874E+04  0.10941345874E+04  0.00000000000E+00 0. -1.
         -2   -1    0    0    0  501 -0.00000000000E+00 -0.00000000000E+00 -0.78043739061E+02  0.78043739061E+02  0.00000000000E+00 0.  1.
         25    2    1    2    0    0  0.13251654713E+03 -0.23551335155E+03  0.47482536349E+03  0.56047810553E+03  0.12509758968E+03 0.  0.
         23    2    1    2    0    0 -0.13251654713E+03  0.23551335155E+03  0.54126548486E+03  0.61170022094E+03  0.90452535496E+02 0.  0.
          5    1    3    3  502    0  0.40557466938E+02 -0.19192282795E+02  0.16801534329E+03  0.17395367149E+03  0.41800000000E+01 0. -1.
         -5    1    3    3    0  502  0.91959080193E+02 -0.21632106875E+03  0.30681002020E+03  0.38652443404E+03  0.41800000000E+01 0. -1.
        -11    1    4    4    0    0 -0.30351870175E+01  0.20367096673E+02  0.11616371950E+03  0.11797474609E+03  0.00000000000E+00 0. -1.
         11    1    4    4    0    0 -0.12948136011E+03  0.21514625488E+03  0.42510176536E+03  0.49372547485E+03  0.00000000000E+00 0.  1.
</event>
<event>
 8    1  0.3541538E-009  0.1947964E+03  0.7561462E-02  0.1154205E+00
         -2   -1    0    0    0  501 -0.00000000000E+00  0.00000000000E+00  0.19315784371E+03  0.19315784371E+03  0.00000000000E+00 0.  1.
          2   -1    0    0  501    0  0.00000000000E+00 -0.00000000000E+00 -0.22272757914E+03  0.22272757914E+03  0.00000000000E+00 0. -1.
         25    2    1    2    0    0  0.96402327519E+02  0.14287054756E+03  0.22806526772E+02  0.21418863324E+03  0.12510487934E+03 0.  0.
         23    2    1    2    0    0 -0.96402327519E+02 -0.14287054756E+03 -0.52376262202E+02  0.20169678961E+03  0.90735439517E+02 0.  0.
          5    1    3    3  502    0 -0.16308209460E+02  0.20334619635E+01  0.29061045786E+02  0.33646834109E+02  0.41800000000E+01 0.  1.
         -5    1    3    3    0  502  0.11271053698E+03  0.14083708560E+03 -0.62545190143E+01  0.18054179913E+03  0.41800000000E+01 0.  1.
        -11    1    4    4    0    0 -0.26203890587E+02 -0.11285173144E+03 -0.47437205314E+02  0.12518963862E+03  0.00000000000E+00 0. -1.
         11    1    4    4    0    0 -0.70198436932E+02 -0.30018816127E+02 -0.49390568888E+01  0.76507150988E+02  0.00000000000E+00 0.  1.
</event>
<event>
 8    1  0.3541538E-009  0.1260468E+03  0.7561462E-02  0.1233442E+00
          2   -1    0    0  501    0  0.00000000000E+00  0.00000000000E+00  0.51508852240E+03  0.51508852240E+03  0.00000000000E+00 0. -1.
         -2   -1    0    0    0  501 -0.00000000000E+00 -0.00000000000E+00 -0.31859168387E+02  0.31859168387E+02  0.00000000000E+00 0.  1.
         25    2    1    2    0    0 -0.22600602132E+02  0.62587016111E+02  0.31087630539E+03  0.34164423608E+03  0.12509510378E+03 0.  0.
         23    2    1    2    0    0  0.22600602132E+02 -0.62587016111E+02  0.17235304863E+03  0.20530345471E+03  0.89532191657E+02 0.  0.
          5    1    3    3  502    0  0.45425836167E+02 -0.44113172068E+01  0.90745138083E+02  0.10166178631E+03  0.41800000000E+01 0.  1.
         -5    1    3    3    0  502 -0.68026438299E+02  0.66998333318E+02  0.22013116730E+03  0.23998244976E+03  0.41800000000E+01 0.  1.
        -11    1    4    4    0    0 -0.15348083869E+02 -0.70309643141E+02  0.12380404720E+03  0.14320073918E+03  0.00000000000E+00 0. -1.
         11    1    4    4    0    0  0.37948686001E+02  0.77226270296E+01  0.48549001425E+02  0.62102715535E+02  0.00000000000E+00 0.  1.
</event>
<event>
 8    1  0.3541538E-009  0.1141303E+03  0.7561462E-02  0.1253107E+00
         -2   -1    0    0    0  501 -0.00000000000E+00  0.00000000000E+00  0.12421748252E+02  0.12421748252E+02  0.00000000000E+00 0.  1.
          2   -1    0    0  501    0  0.00000000000E+00 -0.00000000000E+00 -0.22276217776E+04  0.22276217776E+04  0.00000000000E+00 0. -1.
         25    2    1    2    0    0 -0.39214922753E+02 -0.21159668755E+02 -0.19699352242E+04  0.19744060767E+04  0.12509606849E+03 0.  0.
         23    2    1    2    0    0  0.39214922753E+02  0.21159668755E+02 -0.24526480514E+03  0.26563744916E+03  0.91776293280E+02 0.  0.
          5    1    3    3  502    0  0.41080281408E+02 -0.19871874679E+02 -0.44530734737E+03  0.44765900744E+03  0.41800000000E+01 0.  1.
         -5    1    3    3    0  502 -0.80295204161E+02 -0.12877940768E+01 -0.15246278768E+04  0.15267470692E+04  0.41800000000E+01 0.  1.
        -11    1    4    4    0    0  0.57887488948E+02 -0.16323074588E+02 -0.14503858720E+03  0.15701463600E+03  0.00000000000E+00 0.  1.
         11    1    4    4    0    0 -0.18672566195E+02  0.37482743344E+02 -0.10022621794E+03  0.10862281316E+03  0.00000000000E+00 0. -1.
</event>
<event>
 8    1  0.3541538E-009  0.1428089E+03  0.7561462E-02  0.1209599E+00
          1   -1    0    0  501    0  0.00000000000E+00  0.00000000000E+00  0.82700025077E+02  0.82700025077E+02  0.00000000000E+00 0. -1.
         -1   -1    0    0    0  501 -0.00000000000E+00 -0.00000000000E+00 -0.16299751175E+04  0.16299751175E+04  0.00000000000E+00 0.  1.
         25    2    1    2    0    0 -0.11837567452E+03  0.47999961473E+02 -0.15421578675E+04  0.15524859748E+04  0.12508004255E+03 0.  0.
         23    2    1    2    0    0  0.11837567452E+03 -0.47999961473E+02 -0.51172249625E+01  0.16018916781E+03  0.96527648237E+02 0.  0.
          5    1    3    3  502    0 -0.11063157413E+03  0.40962507398E+02 -0.15340958279E+04  0.15386308049E+04  0.41800000000E+01 0.  1.
         -5    1    3    3    0  502 -0.77441003929E+01  0.70374540749E+01 -0.80620396220E+01  0.13855169924E+02  0.41800000000E+01 0.  1.
        -11    1    4    4    0    0  0.70636390315E+02 -0.73702080201E+02 -0.19865504159E+02  0.10400064672E+03  0.00000000000E+00 0.  1.
         11    1    4    4    0    0  0.47739284206E+02  0.25702118728E+02  0.14748279197E+02  0.56188521095E+02  0.00000000000E+00 0. -1.
</event>
<event>
 8    1  0.3541538E-009  0.1563467E+03  0.7561462E-02  0.1192884E+00
         -1   -1    0    0    0  501 -0.00000000000E+00  0.00000000000E+00  0.53323002151E+02  0.53323002151E+02  0.00000000000E+00 0.  1.
          1   -1    0    0  501    0  0.00000000000E+00 -0.00000000000E+00 -0.56341928950E+03  0.56341928950E+03  0.00000000000E+00 0. -1.
         25    2    1    2    0    0 -0.11627298046E+03 -0.52485242094E+02 -0.18926443490E+03  0.26026552020E+03  0.12507201152E+03 0.  0.
         23    2    1    2    0    0  0.11627298046E+03  0.52485242094E+02 -0.32083185245E+03  0.35647677145E+03  0.88704590712E+02 0.  0.
          5    1    3    3  502    0 -0.70779722015E+02 -0.78417302751E+02 -0.61935074500E+02  0.12252537808E+03  0.41800000000E+01 0.  1.
         -5    1    3    3    0  502 -0.45493258443E+02  0.25932060657E+02 -0.12732936040E+03  0.13774014213E+03  0.41800000000E+01 0.  1.
        -11    1    4    4    0    0  0.18166019564E+02  0.53322602367E+02 -0.13636123734E+03  0.14753877877E+03  0.00000000000E+00 0. -1.
         11    1    4    4    0    0  0.98106960895E+02 -0.83736027365E+00 -0.18447061510E+03  0.20893799268E+03  0.00000000000E+00 0.  1.
</event>
<event>
 8    1  0.3541538E-009  0.1492536E+03  0.7561462E-02  0.1201393E+00
         -2   -1    0    0    0  501 -0.00000000000E+00  0.00000000000E+00  0.10242646139E+03  0.10242646139E+03  0.00000000000E+00 0.  1.
          2   -1    0    0  501    0  0.00000000000E+00 -0.00000000000E+00 -0.24917051958E+03  0.24917051958E+03  0.00000000000E+00 0. -1.
         25    2    1    2    0    0  0.97700674223E+01 -0.10483772471E+03 -0.23652827653E+02  0.16520680127E+03  0.12508968059E+03 0.  0.
         23    2    1    2    0    0 -0.97700674223E+01  0.10483772471E+03 -0.12309123054E+03  0.18639017970E+03  0.92214127530E+02 0.  0.
          5    1    3    3  502    0 -0.35118473217E+01  0.26573509759E+02  0.98802051367E+01  0.28871704939E+02  0.41800000000E+01 0.  1.
         -5    1    3    3    0  502  0.13281914744E+02 -0.13141123447E+03 -0.33533032790E+02  0.13633509633E+03  0.41800000000E+01 0.  1.
        -11    1    4    4    0    0 -0.49874533392E+02  0.70956622653E+02 -0.67289029137E+02  0.10977306055E+03  0.00000000000E+00 0. -1.
         11    1    4    4    0    0  0.40104465970E+02  0.33881102053E+02 -0.55802201400E+02  0.76617119159E+02  0.00000000000E+00 0.  1.
</event>
<event>
 8    1  0.3541538E-009  0.1031726E+03  0.7561462E-02  0.1273762E+00
         -4   -1    0    0    0  501 -0.00000000000E+00  0.00000000000E+00  0.17189385420E+02  0.17189385420E+02  0.00000000000E+00 0. -1.
          4   -1    0    0  501    0  0.00000000000E+00 -0.00000000000E+00 -0.10708275712E+04  0.10708275712E+04  0.00000000000E+00 0.  1.
         25    2    1    2    0    0 -0.59949203201E+02 -0.35590877055E+02 -0.74944885899E+03  0.76300841955E+03  0.12509052149E+03 0.  0.
         23    2    1    2    0    0  0.59949203201E+02  0.35590877055E+02 -0.30418932683E+03  0.32500853711E+03  0.90767753878E+02 0.  0.
          5    1    3    3  502    0 -0.32977601147E+02  0.13752656412E+02 -0.51697584362E+02  0.62982301995E+02  0.41800000000E+01 0. -1.
         -5    1    3    3    0  502 -0.26971602054E+02 -0.49343533467E+02 -0.69775127463E+03  0.70002611756E+03  0.41800000000E+01 0. -1.
        -11    1    4    4    0    0 -0.22681288730E+02  0.19255179182E+02 -0.92943257361E+02  0.97589199569E+02  0.00000000000E+00 0. -1.
         11    1    4    4    0    0  0.82630491931E+02  0.16335697873E+02 -0.21124606947E+03  0.22741933754E+03  0.00000000000E+00 0.  1.
</event>
<event>
 8    1  0.3541538E-009  0.1127992E+03  0.7561462E-02  0.1255472E+00
          1   -1    0    0  501    0  0.00000000000E+00  0.00000000000E+00  0.46167058747E+02  0.46167058747E+02  0.00000000000E+00 0. -1.
         -1   -1    0    0    0  501 -0.00000000000E+00 -0.00000000000E+00 -0.52675195743E+03  0.52675195743E+03  0.00000000000E+00 0.  1.
         25    2    1    2    0    0  0.93758381614E+02  0.21941405105E+02 -0.36484519987E+03  0.39753160163E+03  0.12508914842E+03 0.  0.
         23    2    1    2    0    0 -0.93758381614E+02 -0.21941405105E+02 -0.11573969881E+03  0.17538741454E+03  0.89961146707E+02 0.  0.
          5    1    3    3  502    0  0.31294740350E+02  0.23841894966E+02 -0.15299037265E+02  0.42418506226E+02  0.41800000000E+01 0.  1.
         -5    1    3    3    0  502  0.62463641264E+02 -0.19004898610E+01 -0.34954616260E+03  0.35511309541E+03  0.41800000000E+01 0.  1.
        -11    1    4    4    0    0 -0.91839245527E+02  0.91120008582E+01 -0.11027473680E+03  0.14379844629E+03  0.00000000000E+00 0.  1.
         11    1    4    4    0    0 -0.19191360872E+01 -0.31053405963E+02 -0.54649620090E+01  0.31588968248E+02  0.00000000000E+00 0. -1.
</event>
<event>
 8    1  0.3541538E-009  0.1549036E+03  0.7561462E-02  0.1194574E+00
         -2   -1    0    0    0  501 -0.00000000000E+00  0.00000000000E+00  0.15134394327E+03  0.15134394327E+03  0.00000000000E+00 0. -1.
          2   -1    0    0  501    0  0.00000000000E+00 -0.00000000000E+00 -0.20819049751E+03  0.20819049751E+03  0.00000000000E+00 0.  1.
         25    2    1    2    0    0 -0.23909876783E+02  0.13691257665E+03 -0.46562718934E+02  0.19270156420E+03  0.12509624374E+03 0.  0.
         23    2    1    2    0    0  0.23909876783E+02 -0.13691257665E+03 -0.10283835311E+02  0.16683287658E+03  0.91709953587E+02 0.  0.
          5    1    3    3  502    0  0.35614749872E+02  0.53251575367E+02 -0.61448467665E+02  0.88868032869E+02  0.41800000000E+01 0. -1.
         -5    1    3    3    0  502 -0.59524626655E+02  0.83661001281E+02  0.14885748731E+02  0.10383353133E+03  0.41800000000E+01 0. -1.
        -11    1    4    4    0    0  0.19005171521E+02 -0.28100911006E+02  0.35117581015E+02  0.48827269433E+02  0.00000000000E+00 0. -1.
         11    1    4    4    0    0  0.49047052613E+01 -0.10881166564E+03 -0.45401416326E+02  0.11800560715E+03  0.00000000000E+00 0.  1.
</event>
<event>
 8    1  0.3541538E-009  0.7612244E+02  0.7561462E-02  0.1340430E+00
         -1   -1    0    0    0  501 -0.00000000000E+00  0.00000000000E+00  0.35658770629E+02  0.35658770629E+02  0.00000000000E+00 0.  1.
          1   -1    0    0  501    0  0.00000000000E+00 -0.00000000000E+00 -0.52519433376E+03  0.52519433376E+03  0.00000000000E+00 0. -1.
         25    2    1    2    0    0  0.39742517716E+02  0.44047999839E+02 -0.39036500075E+03  0.41418834695E+03  0.12508980347E+03 0.  0.
         23    2    1    2    0    0 -0.39742517716E+02 -0.44047999839E+02 -0.99170562384E+02  0.14666475745E+03  0.90310888763E+02 0.  0.
          5    1    3    3  502    0 -0.95888844463E+01  0.82384177411E+01  0.49303808846E+01  0.14198566388E+02  0.41800000000E+01 0.  1.
         -5    1    3    3    0  502  0.49331402162E+02  0.35809582097E+02 -0.39529538164E+03  0.39998978056E+03  0.41800000000E+01 0.  1.
        -11    1    4    4    0    0 -0.50447630584E+02 -0.44274697893E+02 -0.11161828452E+03  0.13024535978E+03  0.00000000000E+00 0. -1.
         11    1    4    4    0    0  0.10705112868E+02  0.22669805474E+00  0.12447722133E+02  0.16419397669E+02  0.00000000000E+00 0.  1.
</event>
<event>
 8    1  0.3541538E-009  0.6881161E+02  0.7561462E-02  0.1364181E+00
         -1   -1    0    0    0  501 -0.00000000000E+00  0.00000000000E+00  0.18799565455E+03  0.18799565455E+03  0.00000000000E+00 0.  1.
          1   -1    0    0  501    0  0.00000000000E+00 -0.00000000000E+00 -0.65655611287E+02  0.65655611287E+02  0.00000000000E+00 0. -1.
         25    2    1    2    0    0  0.17882941077E+02  0.12686596188E+02  0.69236028623E+02  0.14464614390E+03  0.12509248572E+03 0.  0.
         23    2    1    2    0    0 -0.17882941077E+02 -0.12686596188E+02  0.53104014644E+02  0.10900512194E+03  0.92635473405E+02 0.  0.
          5    1    3    3  502    0  0.28593696878E+02 -0.20901851602E+02 -0.25258265608E+02  0.43702852116E+02  0.41800000000E+01 0. -1.
         -5    1    3    3    0  502 -0.10710755800E+02  0.33588447790E+02  0.94494294231E+02  0.10094329179E+03  0.41800000000E+01 0. -1.
        -11    1    4    4    0    0 -0.36341869857E+02  0.95318189030E+01  0.67103566480E+02  0.76905628602E+02  0.00000000000E+00 0.  1.
         11    1    4    4    0    0  0.18458928780E+02 -0.22218415091E+02 -0.13999551836E+02  0.32099493336E+02  0.00000000000E+00 0. -1.
</event>
<event>
 8    1  0.3541538E-009  0.7553562E+02  0.7561462E-02  0.1342220E+00
         -2   -1    0    0    0  501 -0.00000000000E+00  0.00000000000E+00  0.20362170831E+03  0.20362170831E+03  0.00000000000E+00 0.  1.
          2   -1    0    0  501    0  0.00000000000E+00 -0.00000000000E+00 -0.96149255191E+02  0.96149255191E+02  0.00000000000E+00 0. -1.
         25    2    1    2    0    0 -0.40095523607E+02 -0.57159924041E+02  0.27046534336E+01  0.14328247018E+03  0.12509053993E+03 0.  0.
         23    2    1    2    0    0  0.40095523607E+02  0.57159924041E+02  0.10476779968E+03  0.15648849332E+03  0.92937875820E+02 0.  0.
          5    1    3    3  502    0 -0.36507975498E+02 -0.32808841268E+02 -0.58915376446E+02  0.76796785884E+02  0.41800000000E+01 0. -1.
         -5    1    3    3    0  502 -0.35875481093E+01 -0.24351082772E+02  0.61620029880E+02  0.66485684294E+02  0.41800000000E+01 0. -1.
        -11    1    4    4    0    0  0.36952728751E+02  0.25196337062E+02 -0.22233388522E+01  0.44780607400E+02  0.00000000000E+00 0. -1.
         11    1    4    4    0    0  0.31427948560E+01  0.31963586979E+02  0.10699113853E+03  0.11170788592E+03  0.00000000000E+00 0.  1.
</event>
<event>
 8    1  0.3541538E-009  0.1137996E+03  0.7561462E-02  0.1253691E+00
         -1   -1    0    0    0  501 -0.00000000000E+00  0.00000000000E+00  0.35583042299E+02  0.35583042299E+02  0.00000000000E+00 0.  1.
          1   -1    0    0  501    0  0.00000000000E+00 -0.00000000000E+00 -0.44207295844E+03  0.44207295844E+03  0.00000000000E+00 0. -1.
         25    2    1    2    0    0 -0.35016376658E+02 -0.50062264333E+02 -0.20152986989E+03  0.24493665791E+03  0.12508917213E+03 0.  0.
         23    2    1    2    0    0  0.35016376658E+02  0.50062264333E+02 -0.20496004625E+03  0.23271934283E+03  0.91745817471E+02 0.  0.
          5    1    3    3  502    0  0.21997295733E+02  0.18146610312E+02 -0.12272594785E+03  0.12606471021E+03  0.41800000000E+01 0. -1.
         -5    1    3    3    0  502 -0.57013672391E+02 -0.68208874645E+02 -0.78803922035E+02  0.11887194769E+03  0.41800000000E+01 0. -1.
        -11    1    4    4    0    0 -0.13189586552E+02  0.59256051379E+02 -0.10286953634E+03  0.11944616497E+03  0.00000000000E+00 0.  1.
         11    1    4    4    0    0  0.48205963210E+02 -0.91937870459E+01 -0.10209050991E+03  0.11327317786E+03  0.00000000000E+00 0. -1.
</event>
<event>
 8    1  0.3541538E-009  0.1542698E+03  0.7561462E-02  0.1195322E+00
          1   -1    0    0  501    0  0.00000000000E+00  0.00000000000E+00  0.18108906383E+03  0.18108906383E+03  0.00000000000E+00 0. -1.
         -1   -1    0    0    0  501 -0.00000000000E+00 -0.00000000000E+00 -0.67196150694E+03  0.67196150694E+03  0.00000000000E+00 0.  1.
         25    2    1    2    0    0 -0.51009617663E+01  0.11877512901E+03  0.12858584055E+03  0.21520887998E+03  0.12508793927E+03 0.  0.
         23    2    1    2    0    0  0.51009617663E+01 -0.11877512901E+03 -0.61945828365E+03  0.63784169080E+03  0.94762367294E+02 0.  0.
          5    1    3    3  502    0 -0.49841895889E+02  0.56029281436E+01  0.45004923315E+02  0.67516834287E+02  0.41800000000E+01 0.  1.
         -5    1    3    3    0  502  0.44740934123E+02  0.11317220086E+03  0.83580917232E+02  0.14769204569E+03  0.41800000000E+01 0.  1.
        -11    1    4    4    0    0 -0.30096901002E+02 -0.39119957897E+02 -0.10447939724E+03  0.11555145609E+03  0.00000000000E+00 0. -1.
         11    1    4    4    0    0  0.35197862768E+02 -0.79655171109E+02 -0.51497888641E+03  0.52229023471E+03  0.00000000000E+00 0.  1.
</event>
<event>
 8    1  0.3541538E-009  0.1483089E+03  0.7561462E-02  0.1202566E+00
         -2   -1    0    0    0  501 -0.00000000000E+00  0.00000000000E+00  0.12408536888E+03  0.12408536888E+03  0.00000000000E+00 0.  1.
          2   -1    0    0  501    0  0.00000000000E+00 -0.00000000000E+00 -0.29996007444E+03  0.29996007444E+03  0.00000000000E+00 0. -1.
         25    2    1    2    0    0 -0.12332221833E+03  0.75764527076E+02 -0.19966301299E+02  0.19233633820E+03  0.12508389467E+03 0.  0.
         23    2    1    2    0    0  0.12332221833E+03 -0.75764527076E+02 -0.15590840426E+03  0.23170910512E+03  0.91831616462E+02 0.  0.
          5    1    3    3  502    0 -0.33928299533E+02  0.40713975944E+02  0.50372117895E+02  0.73236466378E+02  0.41800000000E+01 0. -1.
         -5    1    3    3    0  502 -0.89393918794E+02  0.35050551132E+02 -0.70338419194E+02  0.11909987182E+03  0.41800000000E+01 0. -1.
        -11    1    4    4    0    0  0.37152681754E+02 -0.38374830845E+02 -0.11963446093E+03  0.13101661592E+03  0.00000000000E+00 0. -1.
         11    1    4    4    0    0  0.86169536574E+02 -0.37389696231E+02 -0.36273943322E+02  0.10069248920E+03  0.00000000000E+00 0.  1.
</event>
<event>
 8    1  0.3541538E-009  0.9993186E+02  0.7561462E-02  0.1280439E+00
          2   -1    0    0  501    0  0.00000000000E+00  0.00000000000E+00  0.15552713988E+03  0.15552713988E+03  0.00000000000E+00 0. -1.
         -2   -1    0    0    0  501 -0.00000000000E+00 -0.00000000000E+00 -0.82869161336E+02  0.82869161336E+02  0.00000000000E+00 0.  1.
         25    2    1    2    0    0  0.24155839741E+02  0.24689809389E+02  0.41434755309E+02  0.13623807207E+03  0.12510348538E+03 0.  0.
         23    2    1    2    0    0 -0.24155839741E+02 -0.24689809389E+02  0.31223223236E+02  0.10215822914E+03  0.90930318550E+02 0.  0.
          5    1    3    3  502    0  0.16233140944E+01 -0.49685813881E+02  0.44941290640E+01  0.50089767875E+02  0.41800000000E+01 0.  1.
         -5    1    3    3    0  502  0.22532525646E+02  0.74375623270E+02  0.36940626245E+02  0.86148304198E+02  0.41800000000E+01 0.  1.
        -11    1    4    4    0    0  0.85306874561E+01 -0.36432519334E+02 -0.18313174673E+02  0.41659014152E+02  0.00000000000E+00 0.  1.
         11    1    4    4    0    0 -0.32686527197E+02  0.11742709945E+02  0.49536397909E+02  0.60499214993E+02  0.00000000000E+00 0. -1.
</event>
<event>
 8    1  0.3541538E-009  0.1437764E+03  0.7561462E-02  0.1208336E+00
          2   -1    0    0  501    0  0.00000000000E+00  0.00000000000E+00  0.89122970734E+03  0.89122970734E+03  0.00000000000E+00 0. -1.
         -2   -1    0    0    0  501 -0.00000000000E+00 -0.00000000000E+00 -0.36596285349E+02  0.36596285349E+02  0.00000000000E+00 0.  1.
         25    2    1    2    0    0 -0.35112434059E+02  0.89066655768E+02  0.17499236449E+03  0.23544736384E+03  0.12508949322E+03 0.  0.
         23    2    1    2    0    0  0.35112434059E+02 -0.89066655768E+02  0.67964105750E+03  0.69237862885E+03  0.91161650122E+02 0.  0.
          5    1    3    3  502    0 -0.80651324245E+02  0.38985664277E+02  0.97514997869E+02  0.13248081118E+03  0.41800000000E+01 0. -1.
         -5    1    3    3    0  502  0.45538890185E+02  0.50080991491E+02  0.77477366624E+02  0.10296655266E+03  0.41800000000E+01 0. -1.
        -11    1    4    4    0    0 -0.24577358037E+02 -0.22223925750E+01  0.86587643710E+02  0.90035579634E+02  0.00000000000E+00 0.  1.
         11    1    4    4    0    0  0.59689792097E+02 -0.86844263193E+02  0.59305341379E+03  0.60234304921E+03  0.00000000000E+00 0. -1.
</event>
<event>
 8    1  0.3541538E-009  0.2613686E+03  0.7561462E-02  0.1106324E+00
          2   -1    0    0  501    0  0.00000000000E+00  0.00000000000E+00  0.11248672624E+04  0.11248672624E+04  0.00000000000E+00 0. -1.
         -2   -1    0    0    0  501 -0.00000000000E+00 -0.00000000000E+00 -0.93101535355E+02  0.93101535355E+02  0.00000000000E+00 0.  1.
         25    2    1    2    0    0 -0.24022426936E+03 -0.78463441913E+01  0.87703758492E+03  0.91793890328E+03  0.12509052757E+03 0.  0.
         23    2    1    2    0    0  0.24022426936E+03  0.78463441913E+01  0.15472814212E+03  0.30002989447E+03  0.91147544699E+02 0.  0.
          5    1    3    3  502    0 -0.11762763034E+03  0.52713193466E+02  0.33674590873E+03  0.36059703220E+03  0.41800000000E+01 0.  1.
         -5    1    3    3    0  502 -0.12259663902E+03 -0.60559537657E+02  0.54029167620E+03  0.55734187109E+03  0.41800000000E+01 0.  1.
        -11    1    4    4    0    0  0.70956767707E+02 -0.39491336791E+02  0.45297646314E+02  0.92985511380E+02  0.00000000000E+00 0.  1.
         11    1    4    4    0    0  0.16926750165E+03  0.47337680982E+02  0.10943049581E+03  0.20704438309E+03  0.00000000000E+00 0. -1.
</event>
<event>
 8    1  0.3541538E-009  0.8163027E+02  0.7561462E-02  0.1324488E+00
          1   -1    0    0  501    0  0.00000000000E+00  0.00000000000E+00  0.85999730944E+02  0.85999730944E+02  0.00000000000E+00 0. -1.
         -1   -1    0    0    0  501 -0.00000000000E+00 -0.00000000000E+00 -0.15066398013E+03  0.15066398013E+03  0.00000000000E+00 0.  1.
         25    2    1    2    0    0  0.25552790165E+02  0.30759032347E+02 -0.40395693859E+02  0.13739790177E+03  0.12508920086E+03 0.  0.
         23    2    1    2    0    0 -0.25552790165E+02 -0.30759032347E+02 -0.24268555325E+02  0.99265809305E+02  0.87553840368E+02 0.  0.
          5    1    3    3  502    0  0.61682659639E+02  0.30708471747E+02  0.15463431779E+02  0.70741436652E+02  0.41800000000E+01 0. -1.
         -5    1    3    3    0  502 -0.36129869473E+02  0.50560599888E-01 -0.55859125639E+02  0.66656465115E+02  0.41800000000E+01 0. -1.
        -11    1    4    4    0    0  0.95723001090E+01 -0.18186078867E+02  0.28194778492E+02  0.34889940214E+02  0.00000000000E+00 0. -1.
         11    1    4    4    0    0 -0.35125090274E+02 -0.12572953481E+02 -0.52463333817E+02  0.64375869091E+02  0.00000000000E+00 0.  1.
</event>
<event>
 8    1  0.3541538E-009  0.1226050E+03  0.7561462E-02  0.1238860E+00
          1   -1    0    0  501    0  0.00000000000E+00  0.00000000000E+00  0.14411561266E+03  0.14411561266E+03  0.00000000000E+00 0. -1.
         -1   -1    0    0    0  501 -0.00000000000E+00 -0.00000000000E+00 -0.11814069493E+03  0.11814069493E+03  0.00000000000E+00 0.  1.
         25    2    1    2    0    0  0.25818445733E+02  0.70185567273E+02  0.73688529797E+01  0.14592897573E+03  0.12509340498E+03 0.  0.
         23    2    1    2    0    0 -0.25818445733E+02 -0.70185567273E+02  0.18606064756E+02  0.11632733186E+03  0.87139293649E+02 0.  0.
          5    1    3    3  502    0 -0.18386165875E-01 -0.33372475737E+02 -0.14952726430E+02  0.36807321317E+02  0.41800000000E+01 0. -1.
         -5    1    3    3    0  502  0.25836831899E+02  0.10355804301E+03  0.22321579410E+02  0.10912165441E+03  0.41800000000E+01 0. -1.
        -11    1    4    4    0    0  0.15654164261E+02  0.69943354006E+01 -0.14708975642E+02  0.22590430515E+02  0.00000000000E+00 0.  1.
         11    1    4    4    0    0 -0.41472609994E+02 -0.77179902673E+02  0.33315040398E+02  0.93736901341E+02  0.00000000000E+00 0. -1.
</event>
<event>
 8    1  0.3541538E-009  0.9244699E+02  0.7561462E-02  0.1297032E+00
         -4   -1    0    0    0  501 -0.00000000000E+00  0.00000000000E+00  0.87369643586E+02  0.87369643586E+02  0.00000000000E+00 0. -1.
          4   -1    0    0  501    0  0.00000000000E+00 -0.00000000000E+00 -0.16629702389E+03  0.16629702389E+03  0.00000000000E+00 0.  1.
         25    2    1    2    0    0 -0.51224713322E+02  0.14605436172E+02 -0.39934353904E+02  0.14170219364E+03  0.12508984388E+03 0.  0.
         23    2    1    2    0    0  0.51224713322E+02 -0.14605436172E+02 -0.38993026401E+02  0.11196447383E+03  0.90433938720E+02 0.  0.
          5    1    3    3  502    0  0.14713763243E+02  0.14810564136E+02 -0.67000490203E+02  0.70302103284E+02  0.41800000000E+01 0. -1.
         -5    1    3    3    0  502 -0.65938476564E+02 -0.20512796374E+00  0.27066136298E+02  0.71400090359E+02  0.41800000000E+01 0. -1.
        -11    1    4    4    0    0 -0.15300069314E+02 -0.25873897641E+02 -0.32359779270E+02  0.44166797649E+02  0.00000000000E+00 0.  1.
         11    1    4    4    0    0  0.66524782636E+02  0.11268461469E+02 -0.66332471314E+01  0.67797676185E+02  0.00000000000E+00 0. -1.
</event>
<event>
 8    1  0.3541538E-009  0.2076666E+03  0.7561462E-02  0.1143427E+00
         -1   -1    0    0    0  501 -0.00000000000E+00  0.00000000000E+00  0.20722369859E+03  0.20722369859E+03  0.00000000000E+00 0.  1.
          1   -1    0    0  501    0  0.00000000000E+00 -0.00000000000E+00 -0.27661535290E+03  0.27661535290E+03  0.00000000000E+00 0. -1.
         25    2    1    2    0    0 -0.11086369126E+03  0.16124521072E+03 -0.12191883839E+03  0.26230489941E+03  0.12509548784E+03 0.  0.
         23    2    1    2    0    0  0.11086369126E+03 -0.16124521072E+03  0.52527184074E+02  0.22153415209E+03  0.89596313846E+02 0.  0.
          5    1    3    3  502    0 -0.99891089838E+01  0.50233210667E+02  0.20592665868E+02  0.55359624635E+02  0.41800000000E+01 0. -1.
         -5    1    3    3    0  502 -0.10087458227E+03  0.11101200006E+03 -0.14251150425E+03  0.20694527477E+03  0.41800000000E+01 0. -1.
        -11    1    4    4    0    0  0.11465557173E+03 -0.98863215812E+02  0.48228554076E+02  0.15888936087E+03  0.00000000000E+00 0.  1.
         11    1    4    4    0    0 -0.37918804774E+01 -0.62381994911E+02  0.42986299986E+01  0.62644791216E+02  0.00000000000E+00 0. -1.
</event>
<event>
 8    1  0.3541538E-009  0.6302588E+02  0.7561462E-02  0.1385555E+00
         -2   -1    0    0    0  501 -0.00000000000E+00  0.00000000000E+00  0.24627739006E+03  0.24627739006E+03  0.00000000000E+00 0.  1.
          2   -1    0    0  501    0  0.00000000000E+00 -0.00000000000E+00 -0.55646952074E+02  0.55646952074E+02  0.00000000000E+00 0. -1.
         25    2    1    2    0    0 -0.37248675369E+02 -0.65027744829E+01  0.13909213581E+03  0.19085045596E+03  0.12509006517E+03 0.  0.
         23    2    1    2    0    0  0.37248675369E+02  0.65027744829E+01  0.51538302181E+02  0.11107388618E+03  0.90837556693E+02 0.  0.
          5    1    3    3  502    0 -0.28171467652E+02 -0.24463032671E+02  0.15831675044E+03  0.16270752111E+03  0.41800000000E+01 0. -1.
         -5    1    3    3    0  502 -0.90772077174E+01  0.17960258188E+02 -0.19224614631E+02  0.28142934847E+02  0.41800000000E+01 0. -1.
        -11    1    4    4    0    0  0.35705441728E+02  0.28634465160E+02 -0.89583517248E+01  0.46637573153E+02  0.00000000000E+00 0. -1.
         11    1    4    4    0    0  0.15432336413E+01 -0.22131690677E+02  0.60496653906E+02  0.64436313024E+02  0.00000000000E+00 0.  1.
</event>
<event>
 8    1  0.3541538E-009  0.3805527E+02  0.7561462E-02  0.1523030E+00
          1   -1    0    0  501    0  0.00000000000E+00  0.00000000000E+00  0.29512836783E+03  0.29512836783E+03  0.00000000000E+00 0. -1.
         -1   -1    0    0    0  501 -0.00000000000E+00 -0.00000000000E+00 -0.41777852725E+02  0.41777852725E+02  0.00000000000E+00 0.  1.
         25    2    1    2    0    0  0.27555576579E+02  0.91559209882E+01  0.14384050571E+03  0.19282747555E+03  0.12509677676E+03 0.  0.
         23    2    1    2    0    0 -0.27555576579E+02 -0.91559209882E+01  0.10951000940E+03  0.14407874501E+03  0.89011807726E+02 0.  0.
          5    1    3    3  502    0  0.31091143854E+01 -0.49552516276E+01  0.15991507051E+03  0.16007661693E+03  0.41800000000E+01 0. -1.
         -5    1    3    3    0  502  0.24446462193E+02  0.14111172616E+02 -0.16074564808E+02  0.32750858616E+02  0.41800000000E+01 0. -1.
        -11    1    4    4    0    0 -0.29030941549E+01 -0.14811360712E+02 -0.12424115981E+02  0.19548990248E+02  0.00000000000E+00 0.  1.
         11    1    4    4    0    0 -0.24652482424E+02  0.56554397242E+01  0.12193412538E+03  0.12452975476E+03  0.00000000000E+00 0. -1.
</event>
<event>
 8    1  0.3541538E-009  0.1000552E+03  0.7561462E-02  0.1280180E+00
         -3   -1    0    0    0  501 -0.00000000000E+00  0.00000000000E+00  0.34302897315E+03  0.34302897315E+03  0.00000000000E+00 0.  1.
          3   -1    0    0  501    0  0.00000000000E+00 -0.00000000000E+00 -0.45967710519E+02  0.45967710519E+02  0.00000000000E+00 0. -1.
         25    2    1    2    0    0  0.59189391775E+02  0.11305191686E+02  0.19237321971E+03  0.23724703560E+03  0.12509000273E+03 0.  0.
         23    2    1    2    0    0 -0.59189391775E+02 -0.11305191686E+02  0.10468804292E+03  0.15174964807E+03  0.91854112048E+02 0.  0.
          5    1    3    3  502    0 -0.16743361694E+02  0.12260634399E+02  0.14735588316E+03  0.14886870732E+03  0.41800000000E+01 0.  1.
         -5    1    3    3    0  502  0.75932753469E+02 -0.95544271298E+00  0.45017336552E+02  0.88378328284E+02  0.41800000000E+01 0.  1.
        -11    1    4    4    0    0  0.17397259993E+02 -0.19182833504E+02  0.53085238538E+02  0.59065119208E+02  0.00000000000E+00 0.  1.
         11    1    4    4    0    0 -0.76586651767E+02  0.78776418177E+01  0.51602804380E+02  0.92684528857E+02  0.00000000000E+00 0. -1.
</event>
<event>
 8    1  0.3541538E-009  0.7258605E+02  0.7561462E-02  0.1351513E+00
         -4   -1    0    0    0  501 -0.00000000000E+00  0.00000000000E+00  0.34807126379E+02  0.34807126379E+02  0.00000000000E+00 0.  1.
          4   -1    0    0  501    0  0.00000000000E+00 -0.00000000000E+00 -0.49600272587E+03  0.49600272587E+03  0.00000000000E+00 0. -1.
         25    2    1    2    0    0  0.61601952895E+02  0.15740184350E+02 -0.33125989425E+03  0.35975643086E+03  0.12509603512E+03 0.  0.
         23    2    1    2    0    0 -0.61601952895E+02 -0.15740184350E+02 -0.12993570524E+03  0.17105342138E+03  0.91287630420E+02 0.  0.
          5    1    3    3  502    0  0.53821503195E+02  0.30049582100E+02 -0.33651428485E+03  0.34213895993E+03  0.41800000000E+01 0.  1.
         -5    1    3    3    0  502  0.77804497003E+01 -0.14309397750E+02  0.52543906024E+01  0.17617470934E+02  0.41800000000E+01 0.  1.
        -11    1    4    4    0    0 -0.45248739866E+02 -0.21331349426E+01 -0.64586323217E+01  0.45757104974E+02  0.00000000000E+00 0.  1.
         11    1    4    4    0    0 -0.16353213029E+02 -0.13607049407E+02 -0.12347707292E+03  0.12529631641E+03  0.00000000000E+00 0. -1.
</event>
<event>
 8    1  0.3541538E-009  0.1998307E+03  0.7561462E-02  0.1149882E+00
         -4   -1    0    0    0  501 -0.00000000000E+00  0.00000000000E+00  0.29482084988E+03  0.29482084988E+03  0.00000000000E+00 0.  1.
          4   -1    0    0  501    0  0.00000000000E+00 -0.00000000000E+00 -0.20583054403E+03  0.20583054403E+03  0.00000000000E+00 0. -1.
         25    2    1    2    0    0 -0.17743055261E+03 -0.26727332357E+02 -0.84774724552E+02  0.23458383581E+03  0.12508745262E+03 0.  0.
         23    2    1    2    0    0  0.17743055261E+03  0.26727332357E+02  0.17376503040E+03  0.26606755810E+03  0.91660833445E+02 0.  0.
          5    1    3    3  502    0 -0.15302615803E+03 -0.58259741434E+02 -0.99760139229E+02  0.19178310742E+03  0.41800000000E+01 0.  1.
         -5    1    3    3    0  502 -0.24404394583E+02  0.31532409077E+02  0.14985414677E+02  0.42800728385E+02  0.41800000000E+01 0.  1.
        -11    1    4    4    0    0  0.57683676602E+02 -0.27993761765E+02  0.88220964546E+02  0.10905959760E+03  0.00000000000E+00 0.  1.
         11    1    4    4    0    0  0.11974687601E+03  0.54721094122E+02  0.85544065858E+02  0.15700796050E+03  0.00000000000E+00 0. -1.
</event>
<event>
 8    1  0.3541538E-009  0.1776306E+03  0.7561462E-02  0.1170116E+00
         -2   -1    0    0    0  501 -0.00000000000E+00  0.00000000000E+00  0.14892166166E+03  0.14892166166E+03  0.00000000000E+00 0.  1.
          2   -1    0    0  501    0  0.00000000000E+00 -0.00000000000E+00 -0.25429610755E+03  0.25429610755E+03  0.00000000000E+00 0. -1.
         25    2    1    2    0    0  0.11702402561E+03  0.10970716123E+03 -0.32739307067E+02  0.20603442489E+03  0.12509211893E+03 0.  0.
         23    2    1    2    0    0 -0.11702402561E+03 -0.10970716123E+03 -0.72635138825E+02  0.19718334432E+03  0.88741895908E+02 0.  0.
          5    1    3    3  502    0 -0.18061822775E+02  0.35011877644E+02  0.17970839354E+02  0.43502695149E+02  0.41800000000E+01 0.  1.
         -5    1    3    3    0  502  0.13508584839E+03  0.74695283583E+02 -0.50710146421E+02  0.16253172975E+03  0.41800000000E+01 0.  1.
        -11    1    4    4    0    0 -0.99908822147E+02 -0.10082933352E+03 -0.92560043935E+02  0.16945704168E+03  0.00000000000E+00 0. -1.
         11    1    4    4    0    0 -0.17115203465E+02 -0.88778277048E+01  0.19924905110E+02  0.27726302639E+02  0.00000000000E+00 0.  1.
</event>
<event>
 8    1  0.3541538E-009  0.8490883E+02  0.7561462E-02  0.1315671E+00
         -3   -1    0    0    0  501 -0.00000000000E+00  0.00000000000E+00  0.18833150230E+02  0.18833150230E+02  0.00000000000E+00 0.  1.
          3   -1    0    0  501    0  0.00000000000E+00 -0.00000000000E+00 -0.74835902370E+03  0.74835902370E+03  0.00000000000E+00 0. -1.
         25    2    1    2    0    0 -0.15295909264E+02 -0.38871691133E+02 -0.48167507753E+03  0.49940268491E+03  0.12508872118E+03 0.  0.
         23    2    1    2    0    0  0.15295909264E+02  0.38871691133E+02 -0.24785079594E+03  0.26778948903E+03  0.92391667222E+02 0.  0.
          5    1    3    3  502    0  0.33012238308E+02  0.78842818638E+01 -0.34838224811E+03  0.35005661396E+03  0.41800000000E+01 0.  1.
         -5    1    3    3    0  502 -0.48308147572E+02 -0.46755972997E+02 -0.13329282942E+03  0.14934607095E+03  0.41800000000E+01 0.  1.
        -11    1    4    4    0    0 -0.19844105782E+02  0.20796165005E+02 -0.16614677940E+02  0.33201152635E+02  0.00000000000E+00 0.  1.
         11    1    4    4    0    0  0.35140015047E+02  0.18075526128E+02 -0.23123611800E+03  0.23458833639E+03  0.00000000000E+00 0. -1.
</event>
<event>
 8    1  0.3541538E-009  0.1029506E+03  0.7561462E-02  0.1274211E+00
          2   -1    0    0  501    0  0.00000000000E+00  0.00000000000E+00  0.54940630731E+03  0.54940630731E+03  0.00000000000E+00 0. -1.
         -2   -1    0    0    0  501 -0.00000000000E+00 -0.00000000000E+00 -0.24890861241E+02  0.24890861241E+02  0.00000000000E+00 0.  1.
         25    2    1    2    0    0  0.21271891590E+02  0.17592937165E+02  0.37138496848E+03  0.39285632680E+03  0.12508914373E+03 0.  0.
         23    2    1    2    0    0 -0.21271891590E+02 -0.17592937165E+02  0.15313047758E+03  0.18144084175E+03  0.93326475777E+02 0.  0.
          5    1    3    3  502    0 -0.51997488300E+02  0.11011116534E+01  0.17269300129E+03  0.18040314945E+03  0.41800000000E+01 0.  1.
         -5    1    3    3    0  502  0.73269379890E+02  0.16491825512E+02  0.19869196720E+03  0.21245317735E+03  0.41800000000E+01 0.  1.
        -11    1    4    4    0    0 -0.38622625815E+02 -0.36290911358E+02  0.14544543373E+03  0.15480023147E+03  0.00000000000E+00 0. -1.
         11    1    4    4    0    0  0.17350734225E+02  0.18697974193E+02  0.76850438587E+01  0.26640610282E+02  0.00000000000E+00 0.  1.
</event>
<event>
 8    1  0.3541538E-009  0.2409586E+03  0.7561462E-02  0.1119156E+00
         -1   -1    0    0    0  501 -0.00000000000E+00  0.00000000000E+00  0.82364555539E+02  0.82364555539E+02  0.00000000000E+00 0.  1.
          1   -1    0    0  501    0  0.00000000000E+00 -0.00000000000E+00 -0.92693275268E+03  0.92693275268E+03  0.00000000000E+00 0. -1.
         25    2    1    2    0    0 -0.15583186280E+03 -0.16987601327E+03 -0.62636499595E+03  0.67905963065E+03  0.12508974566E+03 0.  0.
         23    2    1    2    0    0  0.15583186280E+03  0.16987601327E+03 -0.21820320119E+03  0.33023767757E+03  0.91120016068E+02 0.  0.
          5    1    3    3  502    0 -0.31697573130E+02 -0.10269749037E+03 -0.16839896962E+03  0.19981790721E+03  0.41800000000E+01 0. -1.
         -5    1    3    3    0  502 -0.12413428967E+03 -0.67178522900E+02 -0.45796602633E+03  0.47924172344E+03  0.41800000000E+01 0. -1.
        -11    1    4    4    0    0  0.50411446720E+02  0.80298205348E+02 -0.14628154553E+03  0.17431983910E+03  0.00000000000E+00 0. -1.
         11    1    4    4    0    0  0.10542041608E+03  0.89577807926E+02 -0.71921655657E+02  0.15591783847E+03  0.00000000000E+00 0.  1.
</event>
<event>
 8    1  0.3541538E-009  0.1446511E+03  0.7561462E-02  0.1207204E+00
         -4   -1    0    0    0  501 -0.00000000000E+00  0.00000000000E+00  0.36001932644E+03  0.36001932644E+03  0.00000000000E+00 0.  1.
          4   -1    0    0  501    0  0.00000000000E+00 -0.00000000000E+00 -0.65753710196E+02  0.65753710196E+02  0.00000000000E+00 0. -1.
         25    2    1    2    0    0 -0.67487437065E+02 -0.84586541783E+02  0.17265057700E+03  0.23909256384E+03  0.12509034788E+03 0.  0.
         23    2    1    2    0    0  0.67487437065E+02  0.84586541783E+02  0.12161503925E+03  0.18668047280E+03  0.91378027674E+02 0.  0.
          5    1    3    3  502    0  0.93414423101E+01  0.17778660244E+02 -0.40085264399E+01  0.20901769990E+02  0.41800000000E+01 0.  1.
         -5    1    3    3    0  502 -0.76828879375E+02 -0.10236520203E+03  0.17665910344E+03  0.21819079384E+03  0.41800000000E+01 0.  1.
        -11    1    4    4    0    0  0.25235896678E+02  0.94096731168E+02  0.93604414242E+02  0.13510304091E+03  0.00000000000E+00 0.  1.
         11    1    4    4    0    0  0.42251540387E+02 -0.95101893855E+01  0.28010625007E+02  0.51577431892E+02  0.00000000000E+00 0. -1.
</event>
<event>
 8    1  0.3541538E-009  0.1025162E+03  0.7561462E-02  0.1275092E+00
          2   -1    0    0  501    0  0.00000000000E+00  0.00000000000E+00  0.50609181142E+03  0.50609181142E+03  0.00000000000E+00 0. -1.
         -2   -1    0    0    0  501 -0.00000000000E+00 -0.00000000000E+00 -0.37070445081E+02  0.37070445081E+02  0.00000000000E+00 0.  1.
         25    2    1    2    0    0 -0.33925666153E+02 -0.25117522866E+02  0.39921305982E+03  0.42047643539E+03  0.12509006680E+03 0.  0.
         23    2    1    2    0    0  0.33925666153E+02  0.25117522866E+02  0.69808306521E+02  0.12268582111E+03  0.91633892544E+02 0.  0.
          5    1    3    3  502    0 -0.40167167003E+02  0.34169467645E+02  0.30020746136E+03  0.30483265258E+03  0.41800000000E+01 0. -1.
         -5    1    3    3    0  502  0.62415008507E+01 -0.59286990511E+02  0.99005598456E+02  0.11564378281E+03  0.41800000000E+01 0. -1.
        -11    1    4    4    0    0  0.38811027109E+02  0.52090546868E+02  0.69694759484E+02  0.95273713046E+02  0.00000000000E+00 0. -1.
         11    1    4    4    0    0 -0.48853609558E+01 -0.26973024001E+02  0.11354703773E+00  0.27412108061E+02  0.00000000000E+00 0.  1.
</event>
<event>
 8    1  0.3541538E-009  0.1195152E+03  0.7561462E-02  0.1243899E+00
         -4   -1    0    0    0  501 -0.00000000000E+00  0.00000000000E+00  0.21530068271E+03  0.21530068271E+03  0.00000000000E+00 0.  1.
          4   -1    0    0  501    0  0.00000000000E+00 -0.00000000000E+00 -0.85884575807E+02  0.85884575807E+02  0.00000000000E+00 0. -1.
         25    2    1    2    0    0 -0.37028174829E+02 -0.68634310391E+02  0.38198619999E+02  0.15227771815E+03  0.12509042561E+03 0.  0.
         23    2    1    2    0    0  0.37028174829E+02  0.68634310391E+02  0.91217486904E+02  0.14890754037E+03  0.88153680402E+02 0.  0.
          5    1    3    3  502    0 -0.63893824076E+02 -0.86340277465E+02  0.48928132445E+02  0.11810376290E+03  0.41800000000E+01 0. -1.
         -5    1    3    3    0  502  0.26865649247E+02  0.17705967074E+02 -0.10729512446E+02  0.34173955241E+02  0.41800000000E+01 0. -1.
        -11    1    4    4    0    0 -0.15231470392E+02  0.31480658452E+02  0.75022580865E+02  0.82773287880E+02  0.00000000000E+00 0. -1.
         11    1    4    4    0    0  0.52259645221E+02  0.37153651939E+02  0.16194906039E+02  0.66134252492E+02  0.00000000000E+00 0.  1.
</event>
<event>
 8    1  0.3541538E-009  0.9942199E+02  0.7561462E-02  0.1281516E+00
         -2   -1    0    0    0  501 -0.00000000000E+00  0.00000000000E+00  0.19921216459E+03  0.19921216459E+03  0.00000000000E+00 0.  1.
          2   -1    0    0  501    0  0.00000000000E+00 -0.00000000000E+00 -0.73129252123E+02  0.73129252123E+02  0.00000000000E+00 0. -1.
         25    2    1    2    0    0 -0.23103957239E+02  0.85603464560E+01  0.12240090559E+03  0.17673908983E+03  0.12509057443E+03 0.  0.
         23    2    1    2    0    0  0.23103957239E+02 -0.85603464560E+01  0.36820068814E+01  0.95602326891E+02  0.92299378983E+02 0.  0.
          5    1    3    3  502    0  0.12338540308E+02 -0.48680100001E+02  0.20213977059E+02  0.54296123081E+02  0.41800000000E+01 0.  1.
         -5    1    3    3    0  502 -0.35442497546E+02  0.57240446457E+02  0.10218692853E+03  0.12244296675E+03  0.41800000000E+01 0.  1.
        -11    1    4    4    0    0  0.37110637000E+02 -0.35040771048E+02 -0.22535415136E+02  0.55793368329E+02  0.00000000000E+00 0. -1.
         11    1    4    4    0    0 -0.14006679762E+02  0.26480424592E+02  0.26217422017E+02  0.39808958561E+02  0.00000000000E+00 0.  1.
</event>
<event>
 8    1  0.3541538E-009  0.2316990E+03  0.7561462E-02  0.1125450E+00
         -1   -1    0    0    0  501 -0.00000000000E+00  0.00000000000E+00  0.23970849450E+03  0.23970849450E+03  0.00000000000E+00 0. -1.
          1   -1    0    0  501    0  0.00000000000E+00 -0.00000000000E+00 -0.27150272782E+03  0.27150272782E+03  0.00000000000E+00 0.  1.
         25    2    1    2    0    0 -0.14906409227E+03  0.17160129565E+03  0.24832383056E+02  0.26063163057E+03  0.12508033950E+03 0.  0.
         23    2    1    2    0    0  0.14906409227E+03 -0.17160129565E+03 -0.56626616376E+02  0.25057959176E+03  0.88974433684E+02 0.  0.
          5    1    3    3  502    0 -0.87562126869E+02  0.11570733001E+03 -0.45022606034E+02  0.15198624850E+03  0.41800000000E+01 0. -1.
         -5    1    3    3    0  502 -0.61501965400E+02  0.55893965643E+02  0.69854989090E+02  0.10864538207E+03  0.41800000000E+01 0. -1.
        -11    1    4    4    0    0  0.10762732291E+03 -0.78802251552E+02  0.16976738597E+01  0.13340283949E+03  0.00000000000E+00 0. -1.
         11    1    4    4    0    0  0.41436769355E+02 -0.92799044101E+02 -0.58324290236E+02  0.11717675227E+03  0.00000000000E+00 0.  1.
</event>
<event>
 8    1  0.3541538E-009  0.1683699E+03  0.7561462E-02  0.1179558E+00
          3   -1    0    0  501    0  0.00000000000E+00  0.00000000000E+00  0.62609444633E+03  0.62609444633E+03  0.00000000000E+00 0. -1.
         -3   -1    0    0    0  501 -0.00000000000E+00 -0.00000000000E+00 -0.55595401386E+02  0.55595401386E+02  0.00000000000E+00 0.  1.
         25    2    1    2    0    0 -0.52629253403E+02 -0.13413580261E+03  0.38452716063E+03  0.42926669787E+03  0.12508600555E+03 0.  0.
         23    2    1    2    0    0  0.52629253403E+02  0.13413580261E+03  0.18597188432E+03  0.25242314985E+03  0.91485807474E+02 0.  0.
          5    1    3    3  502    0  0.21251401321E+02 -0.79868884262E+02  0.27064542215E+03  0.28301427112E+03  0.41800000000E+01 0.  1.
         -5    1    3    3    0  502 -0.73880654724E+02 -0.54266918344E+02  0.11388173848E+03  0.14625242674E+03  0.41800000000E+01 0.  1.
        -11    1    4    4    0    0 -0.82852370022E+01  0.80899743669E+02  0.13244514268E+03  0.15541920569E+03  0.00000000000E+00 0. -1.
         11    1    4    4    0    0  0.60914490405E+02  0.53236058936E+02  0.53526741643E+02  0.97003944164E+02  0.00000000000E+00 0.  1.
</event>
<event>
 8    1  0.3541538E-009  0.1421575E+03  0.7561462E-02  0.1210455E+00
         -2   -1    0    0    0  501 -0.00000000000E+00  0.00000000000E+00  0.16710045149E+02  0.16710045149E+02  0.00000000000E+00 0.  1.
          2   -1    0    0  501    0  0.00000000000E+00 -0.00000000000E+00 -0.15468642742E+04  0.15468642742E+04  0.00000000000E+00 0. -1.
         25    2    1    2    0    0 -0.63564359353E+02  0.92770599466E+02 -0.99388147487E+03  0.10080163966E+04  0.12509939141E+03 0.  0.
         23    2    1    2    0    0  0.63564359353E+02 -0.92770599466E+02 -0.53627275421E+03  0.55555792282E+03  0.91702381634E+02 0.  0.
          5    1    3    3  502    0 -0.84910500145E+02  0.61659547396E+02 -0.90883288053E+03  0.91488052223E+03  0.41800000000E+01 0.  1.
         -5    1    3    3    0  502  0.21346140792E+02  0.31111052069E+02 -0.85048594334E+02  0.93135874322E+02  0.41800000000E+01 0.  1.
        -11    1    4    4    0    0  0.16835091428E+01 -0.77603483799E+02 -0.35581333628E+03  0.36418163761E+03  0.00000000000E+00 0. -1.
         11    1    4    4    0    0  0.61880850210E+02 -0.15167115667E+02 -0.18045941793E+03  0.19137628521E+03  0.00000000000E+00 0.  1.
</event>
<event>
 8    1  0.3541538E-009  0.1504135E+03  0.7561462E-02  0.1199966E+00
          2   -1    0    0  501    0  0.00000000000E+00  0.00000000000E+00  0.49523768571E+03  0.49523768571E+03  0.00000000000E+00 0. -1.
         -2   -1    0    0    0  501 -0.00000000000E+00 -0.00000000000E+00 -0.72286736382E+02  0.72286736382E+02  0.00000000000E+00 0.  1.
         25    2    1    2    0    0  0.11338201333E+03  0.74667809660E+02  0.11227911192E+03  0.21606436611E+03  0.12508576492E+03 0.  0.
         23    2    1    2    0    0 -0.11338201333E+03 -0.74667809660E+02  0.31067183740E+03  0.35146005598E+03  0.92608950142E+02 0.  0.
          5    1    3    3  502    0  0.70946346242E+01  0.94906690179E+01 -0.26578530078E+02  0.29398933653E+02  0.41800000000E+01 0. -1.
         -5    1    3    3    0  502  0.10628737870E+03  0.65177140642E+02  0.13885764200E+03  0.18666543246E+03  0.41800000000E+01 0. -1.
        -11    1    4    4    0    0 -0.76787649998E+02  0.38513715149E+01  0.16374282692E+03  0.18089469208E+03  0.00000000000E+00 0.  1.
         11    1    4    4    0    0 -0.36594363328E+02 -0.78519181175E+02  0.14692901048E+03  0.17056536389E+03  0.00000000000E+00 0. -1.
</event>
<event>
 8    1  0.3541538E-009  0.7277056E+02  0.7561462E-02  0.1350917E+00
          1   -1    0    0  501    0  0.00000000000E+00  0.00000000000E+00  0.90000810106E+03  0.90000810106E+03  0.00000000000E+00 0. -1.
         -1   -1    0    0    0  501 -0.00000000000E+00 -0.00000000000E+00 -0.15037358467E+02  0.15037358467E+02  0.00000000000E+00 0.  1.
         25    2    1    2    0    0 -0.22015654803E+02  0.36601903015E+02  0.51916029280E+03  0.53572167211E+03  0.12508361998E+03 0.  0.
         23    2    1    2    0    0  0.22015654803E+02 -0.36601903015E+02  0.36581044979E+03  0.37932378742E+03  0.90801223344E+02 0.  0.
          5    1    3    3  502    0 -0.17865625016E+02  0.18364779996E+01  0.48892540338E+03  0.48927300731E+03  0.41800000000E+01 0. -1.
         -5    1    3    3    0  502 -0.41500297867E+01  0.34765425015E+02  0.30234889416E+02  0.46448664801E+02  0.41800000000E+01 0. -1.
        -11    1    4    4    0    0  0.21951315562E+01 -0.60642793115E+02  0.30519332315E+03  0.31116769025E+03  0.00000000000E+00 0. -1.
         11    1    4    4    0    0  0.19820523247E+02  0.24040890100E+02  0.60617126644E+02  0.68156097168E+02  0.00000000000E+00 0.  1.
</event>
<event>
 8    1  0.3541538E-009  0.1561395E+03  0.7561462E-02  0.1193126E+00
         -1   -1    0    0    0  501 -0.00000000000E+00  0.00000000000E+00  0.47551598138E+02  0.47551598138E+02  0.00000000000E+00 0.  1.
          1   -1    0    0  501    0  0.00000000000E+00 -0.00000000000E+00 -0.63638235987E+03  0.63638235987E+03  0.00000000000E+00 0. -1.
         25    2    1    2    0    0  0.10606089224E+03 -0.80894173234E+02 -0.36598019403E+03  0.40912215262E+03  0.12508658286E+03 0.  0.
         23    2    1    2    0    0 -0.10606089224E+03  0.80894173234E+02 -0.22285056770E+03  0.27481180539E+03  0.89812987547E+02 0.  0.
          5    1    3    3  502    0  0.57741204490E+02  0.23785601280E+02 -0.17665636639E+03  0.18741596973E+03  0.41800000000E+01 0. -1.
         -5    1    3    3    0  502  0.48319687749E+02 -0.10467977451E+03 -0.18932382764E+03  0.22170618288E+03  0.41800000000E+01 0. -1.
        -11    1    4    4    0    0 -0.28127768181E+02  0.30625558595E+02 -0.10194651961E+02  0.42813865869E+02  0.00000000000E+00 0.  1.
         11    1    4    4    0    0 -0.77933124058E+02  0.50268614640E+02 -0.21265591574E+03  0.23199793952E+03  0.00000000000E+00 0. -1.
</event>
<event>
 8    1  0.3541538E-009  0.2299878E+03  0.7561462E-02  0.1126648E+00
         -2   -1    0    0    0  501 -0.00000000000E+00  0.00000000000E+00  0.29006499624E+02  0.29006499624E+02  0.00000000000E+00 0. -1.
          2   -1    0    0  501    0  0.00000000000E+00 -0.00000000000E+00 -0.21068812331E+04  0.21068812331E+04  0.00000000000E+00 0.  1.
         25    2    1    2    0    0  0.19741729974E+03 -0.72043301596E+02 -0.13757420884E+04  0.13973108073E+04  0.12508945077E+03 0.  0.
         23    2    1    2    0    0 -0.19741729974E+03  0.72043301596E+02 -0.70213264506E+03  0.73857692547E+03  0.91333433269E+02 0.  0.
          5    1    3    3  502    0  0.12238589665E+03 -0.96890389758E+02 -0.10770167123E+04  0.10882777799E+04  0.41800000000E+01 0. -1.
         -5    1    3    3    0  502  0.75031403088E+02  0.24847088162E+02 -0.29872537610E+03  0.30903302731E+03  0.41800000000E+01 0. -1.
        -11    1    4    4    0    0 -0.12026645995E+03  0.83869421596E+02 -0.52331015281E+03  0.54346261813E+03  0.00000000000E+00 0.  1.
         11    1    4    4    0    0 -0.77150839788E+02 -0.11826120000E+02 -0.17882249225E+03  0.19511430734E+03  0.00000000000E+00 0. -1.
</event>
<event>
 8    1  0.3541538E-009  0.5614985E+02  0.7561462E-02  0.1414738E+00
         -1   -1    0    0    0  501 -0.00000000000E+00  0.00000000000E+00  0.54743014482E+02  0.54743014482E+02  0.00000000000E+00 0.  1.
          1   -1    0    0  501    0  0.00000000000E+00 -0.00000000000E+00 -0.24791964037E+03  0.24791964037E+03  0.00000000000E+00 0. -1.
         25    2    1    2    0    0 -0.25918843924E+01 -0.42763673820E+02 -0.11656569421E+03  0.17626869864E+03  0.12509054077E+03 0.  0.
         23    2    1    2    0    0  0.25918843924E+01  0.42763673820E+02 -0.76610931678E+02  0.12639395622E+03  0.90943650971E+02 0.  0.
          5    1    3    3  502    0 -0.20639522643E+01 -0.42133075026E+02 -0.14317605126E+03  0.14931948957E+03  0.41800000000E+01 0.  1.
         -5    1    3    3    0  502 -0.52793212817E+00 -0.63059879391E+00  0.26610357050E+02  0.26949209070E+02  0.41800000000E+01 0.  1.
        -11    1    4    4    0    0  0.22603500236E+02  0.39305176199E+02  0.18188449775E+01  0.45377563796E+02  0.00000000000E+00 0. -1.
         11    1    4    4    0    0 -0.20011615843E+02  0.34584976201E+01 -0.78429776656E+02  0.81016392420E+02  0.00000000000E+00 0.  1.
</event>
<event>
 8    1  0.3541538E-009  0.1975539E+03  0.7561462E-02  0.1151819E+00
         -2   -1    0    0    0  501 -0.00000000000E+00  0.00000000000E+00  0.60853417332E+02  0.60853417332E+02  0.00000000000E+00 0.  1.
          2   -1    0    0  501    0  0.00000000000E+00 -0.00000000000E+00 -0.82986734984E+03  0.82986734984E+03  0.00000000000E+00 0. -1.
         25    2    1    2    0    0 -0.12152886143E+03 -0.15265349401E+03 -0.34796802701E+03  0.41809266707E+03  0.12508947615E+03 0.  0.
         23    2    1    2    0    0  0.12152886143E+03  0.15265349401E+03 -0.42104590550E+03  0.47262810011E+03  0.89584111746E+02 0.  0.
          5    1    3    3  502    0 -0.45502265872E+02 -0.44175105989E+02 -0.23657713074E+03  0.24496552284E+03  0.41800000000E+01 0.  1.
         -5    1    3    3    0  502 -0.76026595557E+02 -0.10847838802E+03 -0.11139089626E+03  0.17312714423E+03  0.41800000000E+01 0.  1.
        -11    1    4    4    0    0  0.11894067096E+03  0.12993576055E+03 -0.28776508562E+03  0.33740025131E+03  0.00000000000E+00 0.  1.
         11    1    4    4    0    0  0.25881904708E+01  0.22717733453E+02 -0.13328081988E+03  0.13522784880E+03  0.00000000000E+00 0. -1.
</event>
<event>
 8    1  0.3541538E-009  0.1359822E+03  0.7561462E-02  0.1218840E+00
         -2   -1    0    0    0  501 -0.00000000000E+00  0.00000000000E+00  0.30015962507E+02  0.30015962507E+02  0.00000000000E+00 0.  1.
          2   -1    0    0  501    0  0.00000000000E+00 -0.00000000000E+00 -0.11003600945E+04  0.11003600945E+04  0.00000000000E+00 0. -1.
         25    2    1    2    0    0  0.37956550505E+02 -0.84234446583E+02 -0.91677092748E+03  0.92986733064E+03  0.12509267524E+03 0.  0.
         23    2    1    2    0    0 -0.37956550505E+02  0.84234446583E+02 -0.15357320451E+03  0.20050872637E+03  0.89904830170E+02 0.  0.
          5    1    3    3  502    0  0.42994677850E+02  0.22412252544E+02 -0.28762398465E+03  0.29171198182E+03  0.41800000000E+01 0.  1.
         -5    1    3    3    0  502 -0.50381273452E+01 -0.10664669913E+03 -0.62914694283E+03  0.63815534882E+03  0.41800000000E+01 0.  1.
        -11    1    4    4    0    0 -0.17072664695E-01  0.78003977159E+02 -0.13900077296E+03  0.15939208145E+03  0.00000000000E+00 0. -1.
         11    1    4    4    0    0 -0.37939477840E+02  0.62304694235E+01 -0.14572431547E+02  0.41116644917E+02  0.00000000000E+00 0.  1.
</event>
<event>
 8    1  0.3541538E-009  0.1458976E+03  0.7561462E-02  0.1205607E+00
          2   -1    0    0  501    0  0.00000000000E+00  0.00000000000E+00  0.57727411432E+03  0.57727411432E+03  0.00000000000E+00 0.  1.
         -2   -1    0    0    0  501 -0.00000000000E+00 -0.00000000000E+00 -0.37833917696E+02  0.37833917696E+02  0.00000000000E+00 0. -1.
         25    2    1    2    0    0  0.86809143653E+02  0.48418885090E+02  0.31813577912E+03  0.35600489275E+03  0.12509553891E+03 0.  0.
         23    2    1    2    0    0 -0.86809143653E+02 -0.48418885090E+02  0.22130441751E+03  0.25910313926E+03  0.90986678770E+02 0.  0.
          5    1    3    3  502    0 -0.30923196659E+02  0.14769944873E+02  0.45582752103E+02  0.57180897618E+02  0.41800000000E+01 0.  1.
         -5    1    3    3    0  502  0.11773234031E+03  0.33648940216E+02  0.27255302701E+03  0.29882399513E+03  0.41800000000E+01 0.  1.
        -11    1    4    4    0    0 -0.72688024677E+02  0.11146339472E+02  0.12118379450E+03  0.14175084432E+03  0.00000000000E+00 0.  1.
         11    1    4    4    0    0 -0.14121118976E+02 -0.59565224562E+02  0.10012062301E+03  0.11735229495E+03  0.00000000000E+00 0. -1.
</event>
<event>
 8    1  0.3541538E-009  0.7091315E+02  0.7561462E-02  0.1357015E+00
          2   -1    0    0  501    0  0.00000000000E+00  0.00000000000E+00  0.50442547350E+02  0.50442547350E+02  0.00000000000E+00 0. -1.
         -2   -1    0    0    0  501 -0.00000000000E+00 -0.00000000000E+00 -0.25492417441E+03  0.25492417441E+03  0.00000000000E+00 0.  1.
         25    2    1    2    0    0  0.33496383453E+02 -0.71195445095E+01 -0.11812118129E+03  0.17542162638E+03  0.12508971947E+03 0.  0.
         23    2    1    2    0    0 -0.33496383453E+02  0.71195445095E+01 -0.86360445771E+02  0.12994509538E+03  0.90856511049E+02 0.  0.
          5    1    3    3  502    0  0.16206604165E+02  0.20775908867E+02  0.20031941215E+02  0.33362306225E+02  0.41800000000E+01 0.  1.
         -5    1    3    3    0  502  0.17289779288E+02 -0.27895453376E+02 -0.13815312250E+03  0.14205932016E+03  0.41800000000E+01 0.  1.
        -11    1    4    4    0    0 -0.54767037975E+02 -0.88334654202E+01 -0.20883144029E+02  0.59275325933E+02  0.00000000000E+00 0. -1.
         11    1    4    4    0    0  0.21270654523E+02  0.15953009930E+02 -0.65477301742E+02  0.70669769442E+02  0.00000000000E+00 0.  1.
</event>
<event>
 8    1  0.3541538E-009  0.1091281E+03  0.7561462E-02  0.1262193E+00
         -1   -1    0    0    0  501 -0.00000000000E+00  0.00000000000E+00  0.27940497010E+03  0.27940497010E+03  0.00000000000E+00 0.  1.
          1   -1    0    0  501    0  0.00000000000E+00 -0.00000000000E+00 -0.52242039511E+02  0.52242039511E+02  0.00000000000E+00 0. -1.
         25    2    1    2    0    0  0.81112894439E+01  0.41973087130E+02  0.84811783336E+02  0.15706015126E+03  0.12508924599E+03 0.  0.
         23    2    1    2    0    0 -0.81112894439E+01 -0.41973087130E+02  0.14235114725E+03  0.17458685835E+03  0.91592515658E+02 0.  0.
          5    1    3    3  502    0  0.96592952492E+00 -0.39872330149E+02  0.17262060343E+01  0.40139605362E+02  0.41800000000E+01 0.  1.
         -5    1    3    3    0  502  0.71453599190E+01  0.81845417279E+02  0.83085577302E+02  0.11692054590E+03  0.41800000000E+01 0.  1.
        -11    1    4    4    0    0  0.38923307030E+02 -0.22713179873E+02  0.94887828297E+02  0.10504576302E+03  0.00000000000E+00 0. -1.
         11    1    4    4    0    0 -0.47034596474E+02 -0.19259907257E+02  0.47463318953E+02  0.69541095325E+02  0.00000000000E+00 0.  1.
</event>
<event>
 8    1  0.3541538E-009  0.9815999E+02  0.7561462E-02  0.1284213E+00
          2   -1    0    0  501    0  0.00000000000E+00  0.00000000000E+00  0.14296021022E+04  0.14296021022E+04  0.00000000000E+00 0. -1.
         -2   -1    0    0    0  501 -0.00000000000E+00 -0.00000000000E+00 -0.93170041300E+01  0.93170041300E+01  0.00000000000E+00 0.  1.
         25    2    1    2    0    0  0.12783637470E+02 -0.27346786967E+02  0.98180809363E+03  0.99020517638E+03  0.12509152839E+03 0.  0.
         23    2    1    2    0    0 -0.12783637470E+02  0.27346786967E+02  0.43847700442E+03  0.44871392993E+03  0.90392695286E+02 0.  0.
          5    1    3    3  502    0 -0.38685838351E+02  0.86270044103E+01  0.12754818106E+03  0.13363019937E+03  0.41800000000E+01 0.  1.
         -5    1    3    3    0  502  0.51469475820E+02 -0.35973791377E+02  0.85425991257E+03  0.85657497701E+03  0.41800000000E+01 0.  1.
        -11    1    4    4    0    0 -0.81334798180E+01  0.59999304892E+02  0.32267681267E+03  0.32830838478E+03  0.00000000000E+00 0. -1.
         11    1    4    4    0    0 -0.46501576516E+01 -0.32652517925E+02  0.11580019175E+03  0.12040554515E+03  0.00000000000E+00 0.  1.
</event>
<event>
 8    1  0.3541538E-009  0.1114569E+03  0.7561462E-02  0.1257895E+00
          1   -1    0    0  501    0  0.00000000000E+00  0.00000000000E+00  0.27820099671E+03  0.27820099671E+03  0.00000000000E+00 0. -1.
         -1   -1    0    0    0  501 -0.00000000000E+00 -0.00000000000E+00 -0.46835505436E+02  0.46835505436E+02  0.00000000000E+00 0.  1.
         25    2    1    2    0    0  0.18211120993E+02  0.29733440781E+02  0.12020730535E+03  0.17695994641E+03  0.12509717800E+03 0.  0.
         23    2    1    2    0    0 -0.18211120993E+02 -0.29733440781E+02  0.11115818592E+03  0.14807655574E+03  0.91404604009E+02 0.  0.
          5    1    3    3  502    0  0.38759799181E+02 -0.38487272626E+02  0.31812306215E+02  0.63348933799E+02  0.41800000000E+01 0. -1.
         -5    1    3    3    0  502 -0.20548678188E+02  0.68220713406E+02  0.88394999139E+02  0.11361101261E+03  0.41800000000E+01 0. -1.
        -11    1    4    4    0    0 -0.19193338029E+02 -0.61783452455E+02  0.84200356591E+02  0.10618511794E+03  0.00000000000E+00 0. -1.
         11    1    4    4    0    0  0.98221703540E+00  0.32050011675E+02  0.26957829326E+02  0.41891437796E+02  0.00000000000E+00 0.  1.
</event>
<event>
 8    1  0.3541538E-009  0.9270195E+02  0.7561462E-02  0.1296437E+00
         -2   -1    0    0    0  501 -0.00000000000E+00  0.00000000000E+00  0.66364967747E+02  0.66364967747E+02  0.00000000000E+00 0. -1.
          2   -1    0    0  501    0  0.00000000000E+00 -0.00000000000E+00 -0.20535827057E+03  0.20535827057E+03  0.00000000000E+00 0.  1.
         25    2    1    2    0    0  0.31404534859E+02  0.24275164495E+02 -0.56393730730E+02  0.14283951915E+03  0.12508935584E+03 0.  0.
         23    2    1    2    0    0 -0.31404534859E+02 -0.24275164495E+02 -0.82599572093E+02  0.12888371917E+03  0.90624474265E+02 0.  0.
          5    1    3    3  502    0  0.62346311193E+01 -0.32166262790E+02 -0.71781315238E+02  0.79016255950E+02  0.41800000000E+01 0. -1.
         -5    1    3    3    0  502  0.25169903740E+02  0.56441427284E+02  0.15387584508E+02  0.63823263197E+02  0.41800000000E+01 0. -1.
        -11    1    4    4    0    0  0.17760796082E+02  0.18222486924E+02 -0.22536879741E+01  0.25545724038E+02  0.00000000000E+00 0. -1.
         11    1    4    4    0    0 -0.49165330942E+02 -0.42497651418E+02 -0.80345884119E+02  0.10333799513E+03  0.00000000000E+00 0.  1.
</event>
<event>
 8    1  0.3541538E-009  0.1068760E+03  0.7561462E-02  0.1266467E+00
          1   -1    0    0  501    0  0.00000000000E+00  0.00000000000E+00  0.14637607976E+04  0.14637607976E+04  0.00000000000E+00 0. -1.
         -1   -1    0    0    0  501 -0.00000000000E+00 -0.00000000000E+00 -0.16010901474E+02  0.16010901474E+02  0.00000000000E+00 0.  1.
         25    2    1    2    0    0 -0.43199803074E+02 -0.25268129788E+02  0.12666041184E+04  0.12737500690E+04  0.12509414162E+03 0.  0.
         23    2    1    2    0    0  0.43199803074E+02  0.25268129788E+02  0.18114577771E+03  0.20602163002E+03  0.84418113479E+02 0.  0.
          5    1    3    3  502    0 -0.78152354074E+02 -0.20664899145E+02  0.51633525390E+03  0.52264174664E+03  0.41800000000E+01 0. -1.
         -5    1    3    3    0  502  0.34952550999E+02 -0.46032306422E+01  0.75026886449E+03  0.75110832240E+03  0.41800000000E+01 0. -1.
        -11    1    4    4    0    0  0.53348927758E+02 -0.15289078143E+02  0.89829439362E+02  0.10558973520E+03  0.00000000000E+00 0.  1.
         11    1    4    4    0    0 -0.10149124684E+02  0.40557207931E+02  0.91316338351E+02  0.10043189482E+03  0.00000000000E+00 0. -1.
</event>
<event>
 8    1  0.3541538E-009  0.1355314E+03  0.7561462E-02  0.1219471E+00
          2   -1    0    0  501    0  0.00000000000E+00  0.00000000000E+00  0.70840343714E+02  0.70840343714E+02  0.00000000000E+00 0. -1.
         -2   -1    0    0    0  501 -0.00000000000E+00 -0.00000000000E+00 -0.29908504477E+03  0.29908504477E+03  0.00000000000E+00 0.  1.
         25    2    1    2    0    0 -0.54002729545E+02  0.67306502917E+02 -0.18601921011E+03  0.24020492744E+03  0.12509516578E+03 0.  0.
         23    2    1    2    0    0  0.54002729545E+02 -0.67306502917E+02 -0.42225490946E+02  0.12972046105E+03  0.87166196400E+02 0.  0.
          5    1    3    3  502    0 -0.30150329254E+02 -0.33372820483E+02 -0.80857899494E+02  0.92618895544E+02  0.41800000000E+01 0.  1.
         -5    1    3    3    0  502 -0.23852400291E+02  0.10067932340E+03 -0.10516131061E+03  0.14758603189E+03  0.41800000000E+01 0.  1.
        -11    1    4    4    0    0 -0.19334102372E+02  0.43423174671E+01 -0.34945455552E+01  0.20121507999E+02  0.00000000000E+00 0.  1.
         11    1    4    4    0    0  0.73336831917E+02 -0.71648820384E+02 -0.38730945391E+02  0.10959895305E+03  0.00000000000E+00 0. -1.
</event>
<event>
 8    1  0.3541538E-009  0.1561380E+03  0.7561462E-02  0.1193127E+00
          1   -1    0    0  501    0  0.00000000000E+00  0.00000000000E+00  0.16978411820E+03  0.16978411820E+03  0.00000000000E+00 0. -1.
         -1   -1    0    0    0  501 -0.00000000000E+00 -0.00000000000E+00 -0.25318513774E+03  0.25318513774E+03  0.00000000000E+00 0.  1.
         25    2    1    2    0    0 -0.93632918155E+02 -0.11879582549E+03 -0.13542560962E+03  0.23846572390E+03  0.12508490804E+03 0.  0.
         23    2    1    2    0    0  0.93632918155E+02  0.11879582549E+03  0.52024590087E+02  0.18450353203E+03  0.91953378636E+02 0.  0.
          5    1    3    3  502    0 -0.28219954536E+02 -0.98173044888E+01 -0.10285620860E+03  0.10718963266E+03  0.41800000000E+01 0. -1.
         -5    1    3    3    0  502 -0.65412963619E+02 -0.10897852100E+03 -0.32569401022E+02  0.13127609124E+03  0.41800000000E+01 0. -1.
        -11    1    4    4    0    0  0.84880713167E+02  0.85386064041E+02 -0.19637408130E+01  0.12041333680E+03  0.00000000000E+00 0.  1.
         11    1    4    4    0    0  0.87522049882E+01  0.33409761452E+02  0.53988330900E+02  0.64090195239E+02  0.00000000000E+00 0. -1.
</event>
<event>
 8    1  0.3541538E-009  0.8671116E+02  0.7561462E-02  0.1311017E+00
         -3   -1    0    0    0  501 -0.00000000000E+00  0.00000000000E+00  0.22427250085E+02  0.22427250085E+02  0.00000000000E+00 0.  1.
          3   -1    0    0  501    0  0.00000000000E+00 -0.00000000000E+00 -0.81542060473E+03  0.81542060473E+03  0.00000000000E+00 0. -1.
         25    2    1    2    0    0 -0.37816433640E+02  0.41045371395E+02 -0.62092936604E+03  0.63585830382E+03  0.12509076605E+03 0.  0.
         23    2    1    2    0    0  0.37816433640E+02 -0.41045371395E+02 -0.17206398860E+03  0.20198955100E+03  0.89883020493E+02 0.  0.
          5    1    3    3  502    0 -0.87844118424E+01  0.40746269423E+02 -0.59569081474E+03  0.59716199102E+03  0.41800000000E+01 0. -1.
         -5    1    3    3    0  502 -0.29032021797E+02  0.29910197210E+00 -0.25238551308E+02  0.38696312793E+02  0.41800000000E+01 0. -1.
        -11    1    4    4    0    0  0.52388930413E+02 -0.59112283140E+02 -0.10763631948E+03  0.13350819945E+03  0.00000000000E+00 0.  1.
         11    1    4    4    0    0 -0.14572496773E+02  0.18066911745E+02 -0.64427669123E+02  0.68481351555E+02  0.00000000000E+00 0. -1.
</event>
<event>
 8    1  0.3541538E-009  0.1369322E+03  0.7561462E-02  0.1217517E+00
          1   -1    0    0  501    0  0.00000000000E+00  0.00000000000E+00  0.16822017395E+03  0.16822017395E+03  0.00000000000E+00 0. -1.
         -1   -1    0    0    0  501 -0.00000000000E+00 -0.00000000000E+00 -0.12447962452E+03  0.12447962452E+03  0.00000000000E+00 0.  1.
         25    2    1    2    0    0  0.83246422572E+02 -0.28840772796E+02  0.62795782795E+02  0.16538553033E+03  0.12508919322E+03 0.  0.
         23    2    1    2    0    0 -0.83246422572E+02  0.28840772796E+02 -0.19055233367E+02  0.12731426813E+03  0.89911422553E+02 0.  0.
          5    1    3    3  502    0  0.96481905928E+02 -0.63354827101E+02  0.42983180272E+02  0.12323805611E+03  0.41800000000E+01 0.  1.
         -5    1    3    3    0  502 -0.13235483356E+02  0.34514054305E+02  0.19812602523E+02  0.42147474218E+02  0.41800000000E+01 0.  1.
        -11    1    4    4    0    0 -0.72311356991E+02 -0.16795964250E+02 -0.28365702904E+02  0.79471063075E+02  0.00000000000E+00 0. -1.
         11    1    4    4    0    0 -0.10935065581E+02  0.45636737046E+02  0.93104695376E+01  0.47843205060E+02  0.00000000000E+00 0.  1.
</event>
<event>
 8    1  0.3541538E-009  0.9874948E+02  0.7561462E-02  0.1282948E+00
          1   -1    0    0  501    0  0.00000000000E+00  0.00000000000E+00  0.32177093750E+02  0.32177093750E+02  0.00000000000E+00 0. -1.
         -1   -1    0    0    0  501 -0.00000000000E+00 -0.00000000000E+00 -0.53615103611E+03  0.53615103611E+03  0.00000000000E+00 0.  1.
         25    2    1    2    0    0  0.24252468338E+01 -0.54766999757E+02 -0.38621131946E+03  0.40965197141E+03  0.12510095248E+03 0.  0.
         23    2    1    2    0    0 -0.24252468338E+01  0.54766999757E+02 -0.11776262289E+03  0.15867615845E+03  0.91130575688E+02 0.  0.
          5    1    3    3  502    0  0.11681222219E+02  0.36362481230E+02 -0.17872042536E+03  0.18280356625E+03  0.41800000000E+01 0. -1.
         -5    1    3    3    0  502 -0.92559753854E+01 -0.91129480987E+02 -0.20749089411E+03  0.22684840516E+03  0.41800000000E+01 0. -1.
        -11    1    4    4    0    0  0.18156009028E+02  0.20251199407E+02 -0.11524523269E+03  0.11841121315E+03  0.00000000000E+00 0.  1.
         11    1    4    4    0    0 -0.20581255862E+02  0.34515800350E+02 -0.25173902007E+01  0.40264945301E+02  0.00000000000E+00 0. -1.
</event>
<event>
 8    1  0.3541538E-009  0.9602146E+02  0.7561462E-02  0.1288892E+00
          1   -1    0    0  501    0  0.00000000000E+00  0.00000000000E+00  0.70519635921E+02  0.70519635921E+02  0.00000000000E+00 0. -1.
         -1   -1    0    0    0  501 -0.00000000000E+00 -0.00000000000E+00 -0.17552972527E+03  0.17552972527E+03  0.00000000000E+00 0.  1.
         25    2    1    2    0    0 -0.16148067383E+02 -0.15414180613E+02 -0.53754205847E+02  0.13796714387E+03  0.12508821327E+03 0.  0.
         23    2    1    2    0    0  0.16148067383E+02  0.15414180613E+02 -0.51255883499E+02  0.10808221731E+03  0.92499962498E+02 0.  0.
          5    1    3    3  502    0 -0.43338460903E+01  0.55108797557E+02 -0.23531373654E+02  0.60224245418E+02  0.41800000000E+01 0. -1.
         -5    1    3    3    0  502 -0.11814221292E+02 -0.70522978169E+02 -0.30222832193E+02  0.77742898456E+02  0.41800000000E+01 0. -1.
        -11    1    4    4    0    0 -0.23110662047E+02  0.91829534678E+00 -0.60892898915E+02  0.65137478496E+02  0.00000000000E+00 0.  1.
         11    1    4    4    0    0  0.39258729429E+02  0.14495885266E+02  0.96370154157E+01  0.42944738818E+02  0.00000000000E+00 0. -1.
</event>
<event>
 8    1  0.3541538E-009  0.1762840E+03  0.7561462E-02  0.1171449E+00
          1   -1    0    0  501    0  0.00000000000E+00  0.00000000000E+00  0.48751924687E+03  0.48751924687E+03  0.00000000000E+00 0. -1.
         -1   -1    0    0    0  501 -0.00000000000E+00 -0.00000000000E+00 -0.79807106410E+02  0.79807106410E+02  0.00000000000E+00 0.  1.
         25    2    1    2    0    0  0.15910664576E+03 -0.40248215287E+02  0.22526162436E+03  0.30549017707E+03  0.12508639142E+03 0.  0.
         23    2    1    2    0    0 -0.15910664576E+03  0.40248215287E+02  0.18245051610E+03  0.26183617621E+03  0.91297036022E+02 0.  0.
          5    1    3    3  502    0  0.10087416999E+03 -0.12644230893E+02  0.40058830863E+02  0.10935107259E+03  0.41800000000E+01 0. -1.
         -5    1    3    3    0  502  0.58232475772E+02 -0.27603984394E+02  0.18520279350E+03  0.19613910448E+03  0.41800000000E+01 0. -1.
        -11    1    4    4    0    0 -0.36170554350E+02  0.51341910054E+02  0.46061855705E+02  0.77884499620E+02  0.00000000000E+00 0.  1.
         11    1    4    4    0    0 -0.12293609141E+03 -0.11093694768E+02  0.13638866039E+03  0.18395167659E+03  0.00000000000E+00 0. -1.
</event>
<event>
 8    1  0.3541538E-009  0.9873441E+02  0.7561462E-02  0.1282980E+00
         -2   -1    0    0    0  501 -0.00000000000E+00  0.00000000000E+00  0.10623647754E+03  0.10623647754E+03  0.00000000000E+00 0.  1.
          2   -1    0    0  501    0  0.00000000000E+00 -0.00000000000E+00 -0.14625964871E+03  0.14625964871E+03  0.00000000000E+00 0. -1.
         25    2    1    2    0    0  0.59959973875E+02 -0.90439653829E+01 -0.18309228506E+02  0.14021847577E+03  0.12509596845E+03 0.  0.
         23    2    1    2    0    0 -0.59959973875E+02  0.90439653829E+01 -0.21713942661E+02  0.11227765048E+03  0.91966209632E+02 0.  0.
          5    1    3    3  502    0 -0.38930780776E+01 -0.51204019461E+02  0.19095804527E+02  0.54946608780E+02  0.41800000000E+01 0. -1.
         -5    1    3    3    0  502  0.63853051952E+02  0.42160054078E+02 -0.37405033033E+02  0.85271866988E+02  0.41800000000E+01 0. -1.
        -11    1    4    4    0    0 -0.20564963712E+02  0.19729617216E+02  0.33264495893E+02  0.43802993219E+02  0.00000000000E+00 0.  1.
         11    1    4    4    0    0 -0.39395010163E+02 -0.10685651833E+02 -0.54978438554E+02  0.68474657258E+02  0.00000000000E+00 0. -1.
</event>
<event>
 8    1  0.3541538E-009  0.1058495E+03  0.7561462E-02  0.1268455E+00
          2   -1    0    0  501    0  0.00000000000E+00  0.00000000000E+00  0.41048031514E+03  0.41048031514E+03  0.00000000000E+00 0. -1.
         -2   -1    0    0    0  501 -0.00000000000E+00 -0.00000000000E+00 -0.40653540977E+02  0.40653540977E+02  0.00000000000E+00 0.  1.
         25    2    1    2    0    0  0.22669873495E+02 -0.15777211082E+02  0.31191349148E+03  0.33719525574E+03  0.12509104991E+03 0.  0.
         23    2    1    2    0    0 -0.22669873495E+02  0.15777211082E+02  0.57913282681E+02  0.11393860038E+03  0.94155258972E+02 0.  0.
          5    1    3    3  502    0  0.63926527657E+02  0.12981306869E+02  0.24388640562E+03  0.25249389401E+03  0.41800000000E+01 0. -1.
         -5    1    3    3    0  502 -0.41256654162E+02 -0.28758517950E+02  0.68027085863E+02  0.84701361726E+02  0.41800000000E+01 0. -1.
        -11    1    4    4    0    0  0.91362263390E+01  0.49018818308E+02  0.17940397937E+02  0.52992198088E+02  0.00000000000E+00 0.  1.
         11    1    4    4    0    0 -0.31806099834E+02 -0.33241607227E+02  0.39972884743E+02  0.60946402292E+02  0.00000000000E+00 0. -1.
</event>
<event>
 8    1  0.3541538E-009  0.9099158E+02  0.7561462E-02  0.1300468E+00
         -2   -1    0    0    0  501 -0.00000000000E+00  0.00000000000E+00  0.11260906357E+03  0.11260906357E+03  0.00000000000E+00 0.  1.
          2   -1    0    0  501    0  0.00000000000E+00 -0.00000000000E+00 -0.11264792109E+03  0.11264792109E+03  0.00000000000E+00 0. -1.
         25    2    1    2    0    0 -0.24782289059E+02 -0.19518683971E+02 -0.47453838870E+01  0.12909590563E+03  0.12509233912E+03 0.  0.
         23    2    1    2    0    0  0.24782289059E+02  0.19518683971E+02  0.47065263699E+01  0.96161079036E+02  0.90717478227E+02 0.  0.
          5    1    3    3  502    0  0.22742770984E+02 -0.53811662860E+02 -0.29212334950E+02  0.65450451527E+02  0.41800000000E+01 0. -1.
         -5    1    3    3    0  502 -0.47525060043E+02  0.34292978890E+02  0.24466951063E+02  0.63645454099E+02  0.41800000000E+01 0. -1.
        -11    1    4    4    0    0 -0.18282289712E+02  0.87498877413E+01  0.36369076640E+02  0.41635470314E+02  0.00000000000E+00 0.  1.
         11    1    4    4    0    0  0.43064578771E+02  0.10768796230E+02 -0.31662550270E+02  0.54525608722E+02  0.00000000000E+00 0. -1.
</event>
<event>
 8    1  0.3541538E-009  0.1374312E+03  0.7561462E-02  0.1216828E+00
         -4   -1    0    0    0  501 -0.00000000000E+00  0.00000000000E+00  0.57094533811E+02  0.57094533811E+02  0.00000000000E+00 0.  1.
          4   -1    0    0  501    0  0.00000000000E+00 -0.00000000000E+00 -0.34311030812E+03  0.34311030812E+03  0.00000000000E+00 0. -1.
         25    2    1    2    0    0 -0.31812620615E+02 -0.82279985950E+02 -0.16215314480E+03  0.22299018123E+03  0.12509572189E+03 0.  0.
         23    2    1    2    0    0  0.31812620615E+02  0.82279985950E+02 -0.12386262951E+03  0.17721466071E+03  0.91000253089E+02 0.  0.
          5    1    3    3  502    0  0.30988771403E+02 -0.81221031745E+02 -0.11558753534E+03  0.14468970480E+03  0.41800000000E+01 0. -1.
         -5    1    3    3    0  502 -0.62801392018E+02 -0.10589542047E+01 -0.46565609465E+02  0.78300476424E+02  0.41800000000E+01 0. -1.
        -11    1    4    4    0    0  0.34913951869E+02 -0.69482130117E+01 -0.49783007023E+02  0.61201384686E+02  0.00000000000E+00 0.  1.
         11    1    4    4    0    0 -0.31013312545E+01  0.89228198961E+02 -0.74079622487E+02  0.11601327602E+03  0.00000000000E+00 0. -1.
</event>
<event>
 8    1  0.3541538E-009  0.8939348E+02  0.7561462E-02  0.1304327E+00
          2   -1    0    0  501    0  0.00000000000E+00  0.00000000000E+00  0.53326643632E+03  0.53326643632E+03  0.00000000000E+00 0. -1.
         -2   -1    0    0    0  501 -0.00000000000E+00 -0.00000000000E+00 -0.24901244655E+02  0.24901244655E+02  0.00000000000E+00 0.  1.
         25    2    1    2    0    0  0.19499453863E+02 -0.30307414550E+02  0.24436307853E+03  0.27687476432E+03  0.12509017903E+03 0.  0.
         23    2    1    2    0    0 -0.19499453863E+02  0.30307414550E+02  0.26400211313E+03  0.28129291665E+03  0.90165520812E+02 0.  0.
          5    1    3    3  502    0  0.47544391461E+02 -0.18465275483E+02  0.24052362318E+03  0.24590754617E+03  0.41800000000E+01 0. -1.
         -5    1    3    3    0  502 -0.28044937598E+02 -0.11842139067E+02  0.38394553573E+01  0.30967218151E+02  0.41800000000E+01 0. -1.
        -11    1    4    4    0    0 -0.71021557490E+01  0.62232121749E+02  0.16150916038E+03  0.17322957739E+03  0.00000000000E+00 0.  1.
         11    1    4    4    0    0 -0.12397298114E+02 -0.31924707199E+02  0.10249295274E+03  0.10806333926E+03  0.00000000000E+00 0. -1.
</event>
<event>
 8    1  0.3541538E-009  0.1077461E+03  0.7561462E-02  0.1264802E+00
         -2   -1    0    0    0  501 -0.00000000000E+00  0.00000000000E+00  0.18526649501E+02  0.18526649501E+02  0.00000000000E+00 0.  1.
          2   -1    0    0  501    0  0.00000000000E+00 -0.00000000000E+00 -0.91486733967E+03  0.91486733967E+03  0.00000000000E+00 0. -1.
         25    2    1    2    0    0  0.51135450473E+02  0.35667441702E+02 -0.62678165231E+03  0.64217601304E+03  0.12509113221E+03 0.  0.
         23    2    1    2    0    0 -0.51135450473E+02 -0.35667441702E+02 -0.26955903785E+03  0.29121797612E+03  0.90878127388E+02 0.  0.
          5    1    3    3  502    0  0.91167657006E+02  0.31410543975E+02 -0.49488154722E+03  0.50420569427E+03  0.41800000000E+01 0.  1.
         -5    1    3    3    0  502 -0.40032206533E+02  0.42568977266E+01 -0.13190010510E+03  0.13797031877E+03  0.41800000000E+01 0.  1.
        -11    1    4    4    0    0 -0.31853513389E+02  0.61589289365E+01 -0.21503035809E+02  0.38922477694E+02  0.00000000000E+00 0.  1.
         11    1    4    4    0    0 -0.19281937085E+02 -0.41826370639E+02 -0.24805600204E+03  0.25229549843E+03  0.00000000000E+00 0. -1.
</event>
<event>
 8    1  0.3541538E-009  0.9528213E+02  0.7561462E-02  0.1290542E+00
          2   -1    0    0  501    0  0.00000000000E+00  0.00000000000E+00  0.23990221372E+03  0.23990221372E+03  0.00000000000E+00 0. -1.
         -2   -1    0    0    0  501 -0.00000000000E+00 -0.00000000000E+00 -0.59590495352E+02  0.59590495352E+02  0.00000000000E+00 0.  1.
         25    2    1    2    0    0 -0.21728236729E+02 -0.45933585762E+02  0.97985192192E+02  0.16682567726E+03  0.12509075958E+03 0.  0.
         23    2    1    2    0    0  0.21728236729E+02  0.45933585762E+02  0.82326526175E+02  0.13266703181E+03  0.90779258889E+02 0.  0.
          5    1    3    3  502    0 -0.52289535662E+02 -0.75593306113E+02  0.62448560587E+02  0.11120179220E+03  0.41800000000E+01 0.  1.
         -5    1    3    3    0  502  0.30561298932E+02  0.29659720351E+02  0.35536631605E+02  0.55623885064E+02  0.41800000000E+01 0.  1.
        -11    1    4    4    0    0  0.24452290005E+02  0.26189979518E+02  0.99877566913E+02  0.10611012151E+03  0.00000000000E+00 0. -1.
         11    1    4    4    0    0 -0.27240532752E+01  0.19743606244E+02 -0.17551040738E+02  0.26556910302E+02  0.00000000000E+00 0.  1.
</event>
<event>
 8    1  0.3541538E-009  0.1643856E+03  0.7561462E-02  0.1183833E+00
          2   -1    0    0  501    0  0.00000000000E+00  0.00000000000E+00  0.11294391869E+04  0.11294391869E+04  0.00000000000E+00 0. -1.
         -2   -1    0    0    0  501 -0.00000000000E+00 -0.00000000000E+00 -0.30198084410E+02  0.30198084410E+02  0.00000000000E+00 0.  1.
         25    2    1    2    0    0  0.38010021199E+02 -0.13425177462E+03  0.75263735954E+03  0.77561506867E+03  0.12508972408E+03 0.  0.
         23    2    1    2    0    0 -0.38010021199E+02  0.13425177462E+03  0.34660374292E+03  0.38402220262E+03  0.88716384014E+02 0.  0.
          5    1    3    3  502    0  0.30065593435E+02  0.11060325224E+02  0.63262347847E+02  0.71034271713E+02  0.41800000000E+01 0.  1.
         -5    1    3    3    0  502  0.79444277640E+01 -0.14531209984E+03  0.68937501169E+03  0.70458079696E+03  0.41800000000E+01 0.  1.
        -11    1    4    4    0    0 -0.53419810545E+02  0.10554179740E+03  0.32244752181E+03  0.34346055302E+03  0.00000000000E+00 0. -1.
         11    1    4    4    0    0  0.15409789346E+02  0.28709977218E+02  0.24156221111E+02  0.40561649595E+02  0.00000000000E+00 0.  1.
</event>
<event>
 8    1  0.3541538E-009  0.1246934E+03  0.7561462E-02  0.1235549E+00
         -2   -1    0    0    0  501 -0.00000000000E+00  0.00000000000E+00  0.12740158019E+03  0.12740158019E+03  0.00000000000E+00 0.  1.
          2   -1    0    0  501    0  0.00000000000E+00 -0.00000000000E+00 -0.16279179576E+03  0.16279179576E+03  0.00000000000E+00 0. -1.
         25    2    1    2    0    0 -0.36024518344E+02  0.79096061412E+02  0.19266142858E+02  0.15353974347E+03  0.12509722504E+03 0.  0.
         23    2    1    2    0    0  0.36024518344E+02 -0.79096061412E+02 -0.54656358429E+02  0.13665363247E+03  0.90182841484E+02 0.  0.
          5    1    3    3  502    0  0.12033986133E+02  0.76740244162E+02  0.53437259967E+02  0.94376347932E+02  0.41800000000E+01 0.  1.
         -5    1    3    3    0  502 -0.48058504477E+02  0.23558172499E+01 -0.34171117108E+02  0.59163395541E+02  0.41800000000E+01 0.  1.
        -11    1    4    4    0    0  0.47435018489E+02 -0.93546949543E+02 -0.37217938712E+02  0.11129370022E+03  0.00000000000E+00 0.  1.
         11    1    4    4    0    0 -0.11410500145E+02  0.14450888131E+02 -0.17438419717E+02  0.25359932247E+02  0.00000000000E+00 0. -1.
</event>
<event>
 8    1  0.3541538E-009  0.1753878E+03  0.7561462E-02  0.1172343E+00
          1   -1    0    0  501    0  0.00000000000E+00  0.00000000000E+00  0.26129178862E+03  0.26129178862E+03  0.00000000000E+00 0. -1.
         -1   -1    0    0    0  501 -0.00000000000E+00 -0.00000000000E+00 -0.18929497166E+03  0.18929497166E+03  0.00000000000E+00 0.  1.
         25    2    1    2    0    0 -0.15440611366E+03  0.16568133673E+02 -0.80156152784E+02  0.21491668976E+03  0.12509365978E+03 0.  0.
         23    2    1    2    0    0  0.15440611366E+03 -0.16568133673E+02  0.15215296974E+03  0.23567007052E+03  0.90962107211E+02 0.  0.
          5    1    3    3  502    0 -0.24246519657E+02  0.31598670832E+02  0.24696590658E+02  0.47050650409E+02  0.41800000000E+01 0.  1.
         -5    1    3    3    0  502 -0.13015959401E+03 -0.15030537159E+02 -0.10485274344E+03  0.16786603935E+03  0.41800000000E+01 0.  1.
        -11    1    4    4    0    0  0.30692787935E+02 -0.43293160512E+02  0.38500888471E+02  0.65564192906E+02  0.00000000000E+00 0.  1.
         11    1    4    4    0    0  0.12371332573E+03  0.26725026838E+02  0.11365208127E+03  0.17010587761E+03  0.00000000000E+00 0. -1.
</event>
<event>
 8    1  0.3541538E-009  0.1944019E+03  0.7561462E-02  0.1154550E+00
          1   -1    0    0  501    0  0.00000000000E+00  0.00000000000E+00  0.15127297853E+04  0.15127297853E+04  0.00000000000E+00 0. -1.
         -1   -1    0    0    0  501 -0.00000000000E+00 -0.00000000000E+00 -0.36911335343E+02  0.36911335343E+02  0.00000000000E+00 0.  1.
         25    2    1    2    0    0 -0.12098258110E+03  0.14472608661E+03  0.10583796044E+04  0.10823111166E+04  0.12509013167E+03 0.  0.
         23    2    1    2    0    0  0.12098258110E+03 -0.14472608661E+03  0.41743884554E+03  0.46733000402E+03  0.92518743069E+02 0.  0.
          5    1    3    3  502    0 -0.48393307528E+02  0.59524237575E+02  0.16584964740E+03  0.18278026429E+03  0.41800000000E+01 0.  1.
         -5    1    3    3    0  502 -0.72589273571E+02  0.85201849030E+02  0.89252995701E+03  0.89953085232E+03  0.41800000000E+01 0.  1.
        -11    1    4    4    0    0  0.64415026827E+02 -0.27962730883E+02  0.22119630804E+03  0.23207545473E+03  0.00000000000E+00 0.  1.
         11    1    4    4    0    0  0.56567554273E+02 -0.11676335572E+03  0.19624253750E+03  0.23525454929E+03  0.00000000000E+00 0. -1.
</event>
<event>
 8    1  0.3541538E-009  0.1324367E+03  0.7561462E-02  0.1223884E+00
          2   -1    0    0  501    0  0.00000000000E+00  0.00000000000E+00  0.38734497779E+03  0.38734497779E+03  0.00000000000E+00 0. -1.
         -2   -1    0    0    0  501 -0.00000000000E+00 -0.00000000000E+00 -0.74198881307E+02  0.74198881307E+02  0.00000000000E+00 0.  1.
         25    2    1    2    0    0  0.53958220323E+02 -0.74336719962E+02  0.40854299777E+02  0.16048037339E+03  0.12508972363E+03 0.  0.
         23    2    1    2    0    0 -0.53958220323E+02  0.74336719962E+02  0.27229179671E+03  0.30106348571E+03  0.89771723833E+02 0.  0.
          5    1    3    3  502    0 -0.27376876016E+02 -0.58542847621E+02 -0.62783972079E+01  0.65066496905E+02  0.41800000000E+01 0.  1.
         -5    1    3    3    0  502  0.81335096339E+02 -0.15793872341E+02  0.47132696985E+02  0.95413876481E+02  0.41800000000E+01 0.  1.
        -11    1    4    4    0    0 -0.40575495924E+02 -0.10463496495E+01  0.16060329898E+03  0.16565290629E+03  0.00000000000E+00 0. -1.
         11    1    4    4    0    0 -0.13382724399E+02  0.75383069612E+02  0.11168849772E+03  0.13541057943E+03  0.00000000000E+00 0.  1.
</event>
<event>
 8    1  0.3541538E-009  0.2414676E+03  0.7561462E-02  0.1118819E+00
         -1   -1    0    0    0  501 -0.00000000000E+00  0.00000000000E+00  0.82012540423E+03  0.82012540423E+03  0.00000000000E+00 0.  1.
          1   -1    0    0  501    0  0.00000000000E+00 -0.00000000000E+00 -0.85110222005E+02  0.85110222005E+02  0.00000000000E+00 0. -1.
         25    2    1    2    0    0  0.21929389130E+03  0.56550986851E+02  0.51563242956E+03  0.57690170698E+03  0.12510376581E+03 0.  0.
         23    2    1    2    0    0 -0.21929389130E+03 -0.56550986851E+02  0.21938275266E+03  0.32833391926E+03  0.91578084154E+02 0.  0.
          5    1    3    3  502    0  0.15619315515E+03  0.87313523699E+02  0.43212235119E+03  0.46772550918E+03  0.41800000000E+01 0.  1.
         -5    1    3    3    0  502  0.63100736152E+02 -0.30762536848E+02  0.83510078372E+02  0.10917619780E+03  0.41800000000E+01 0.  1.
        -11    1    4    4    0    0 -0.15917636330E+03 -0.13639988192E+02  0.19148793687E+03  0.24938082099E+03  0.00000000000E+00 0.  1.
         11    1    4    4    0    0 -0.60117527997E+02 -0.42910998658E+02  0.27894815793E+02  0.78953098271E+02  0.00000000000E+00 0. -1.
</event>
<event>
 8    1  0.3541538E-009  0.1309134E+03  0.7561462E-02  0.1226107E+00
         -3   -1    0    0    0  501 -0.00000000000E+00  0.00000000000E+00  0.72724176076E+02  0.72724176076E+02  0.00000000000E+00 0.  1.
          3   -1    0    0  501    0  0.00000000000E+00 -0.00000000000E+00 -0.25276102787E+03  0.25276102787E+03  0.00000000000E+00 0. -1.
         25    2    1    2    0    0 -0.41260438353E+02 -0.61923928893E+02 -0.61344520107E+02  0.15794560488E+03  0.12508663881E+03 0.  0.
         23    2    1    2    0    0  0.41260438353E+02  0.61923928893E+02 -0.11869233168E+03  0.16753959907E+03  0.91894781747E+02 0.  0.
          5    1    3    3  502    0  0.44362124930E+02 -0.17812068321E+02 -0.29896056014E+02  0.56537726089E+02  0.41800000000E+01 0.  1.
         -5    1    3    3    0  502 -0.85622563282E+02 -0.44111860572E+02 -0.31448464093E+02  0.10140787879E+03  0.41800000000E+01 0.  1.
        -11    1    4    4    0    0  0.41686804328E+02 -0.12099340910E+02 -0.53553145344E+02  0.68935644494E+02  0.00000000000E+00 0.  1.
         11    1    4    4    0    0 -0.42636597536E+00  0.74023269804E+02 -0.65139186337E+02  0.98603954571E+02  0.00000000000E+00 0. -1.
</event>
<event>
 8    1  0.3541538E-009  0.9291693E+02  0.7561462E-02  0.1295938E+00
         -1   -1    0    0    0  501 -0.00000000000E+00  0.00000000000E+00  0.12891488221E+03  0.12891488221E+03  0.00000000000E+00 0.  1.
          1   -1    0    0  501    0  0.00000000000E+00 -0.00000000000E+00 -0.11311062459E+03  0.11311062459E+03  0.00000000000E+00 0. -1.
         25    2    1    2    0    0  0.42387042878E+01  0.15377744639E+02 -0.41796116603E+02  0.13284793918E+03  0.12508884017E+03 0.  0.
         23    2    1    2    0    0 -0.42387042878E+01 -0.15377744639E+02  0.57600374225E+02  0.10917756763E+03  0.91364634946E+02 0.  0.
          5    1    3    3  502    0  0.55502028267E+02  0.11815961761E+02  0.12197981761E+02  0.58192398586E+02  0.41800000000E+01 0.  1.
         -5    1    3    3    0  502 -0.51263323980E+02  0.35617828773E+01 -0.53994098364E+02  0.74655540591E+02  0.41800000000E+01 0.  1.
        -11    1    4    4    0    0 -0.29049918770E+02 -0.35186549566E+02  0.62153312586E+02  0.77103990275E+02  0.00000000000E+00 0.  1.
         11    1    4    4    0    0  0.24811214483E+02  0.19808804927E+02 -0.45529383607E+01  0.32073577357E+02  0.00000000000E+00 0. -1.
</event>
<event>
 8    1  0.3541538E-009  0.7435932E+02  0.7561462E-02  0.1345867E+00
         -2   -1    0    0    0  501 -0.00000000000E+00  0.00000000000E+00  0.72381171659E+02  0.72381171659E+02  0.00000000000E+00 0.  1.
          2   -1    0    0  501    0  0.00000000000E+00 -0.00000000000E+00 -0.21504794832E+03  0.21504794832E+03  0.00000000000E+00 0. -1.
         25    2    1    2    0    0  0.29826364187E+02  0.35355912552E+02 -0.12851980849E+03  0.18521124040E+03  0.12508481059E+03 0.  0.
         23    2    1    2    0    0 -0.29826364187E+02 -0.35355912552E+02 -0.14146968167E+02  0.10221787958E+03  0.90048351705E+02 0.  0.
          5    1    3    3  502    0  0.13022931174E+02 -0.22538638189E+02 -0.12155672627E+03  0.12438286478E+03  0.41800000000E+01 0.  1.
         -5    1    3    3    0  502  0.16803433013E+02  0.57894550742E+02 -0.69630822186E+01  0.60828375620E+02  0.41800000000E+01 0.  1.
        -11    1    4    4    0    0 -0.33887982682E+02 -0.87329541019E+01 -0.47720975014E+02  0.59177287145E+02  0.00000000000E+00 0. -1.
         11    1    4    4    0    0  0.40616184956E+01 -0.26622958451E+02  0.33574006847E+02  0.43040592436E+02  0.00000000000E+00 0.  1.
</event>
<event>
 8    1  0.3541538E-009  0.1101315E+03  0.7561462E-02  0.1260327E+00
         -2   -1    0    0    0  501 -0.00000000000E+00  0.00000000000E+00  0.52802889751E+02  0.52802889751E+02  0.00000000000E+00 0.  1.
          2   -1    0    0  501    0  0.00000000000E+00 -0.00000000000E+00 -0.32414560715E+03  0.32414560715E+03  0.00000000000E+00 0. -1.
         25    2    1    2    0    0 -0.64339585201E+02 -0.28673525454E+02 -0.11858462465E+03  0.18620282539E+03  0.12508967061E+03 0.  0.
         23    2    1    2    0    0  0.64339585201E+02  0.28673525454E+02 -0.15275809275E+03  0.19074567151E+03  0.89928432736E+02 0.  0.
          5    1    3    3  502    0  0.41547451323E+01 -0.60887288245E+02 -0.81243793609E+02  0.10169832927E+03  0.41800000000E+01 0. -1.
         -5    1    3    3    0  502 -0.68494330334E+02  0.32213762792E+02 -0.37340831042E+02  0.84504496117E+02  0.41800000000E+01 0. -1.
        -11    1    4    4    0    0  0.34252288818E+02 -0.86658700038E+01 -0.13510221358E+03  0.13964571137E+03  0.00000000000E+00 0. -1.
         11    1    4    4    0    0  0.30087296384E+02  0.37339395458E+02 -0.17655879176E+02  0.51099960140E+02  0.00000000000E+00 0.  1.
</event>
<event>
 8    1  0.3541538E-009  0.9759390E+02  0.7561462E-02  0.1285439E+00
          1   -1    0    0  501    0  0.00000000000E+00  0.00000000000E+00  0.35837298093E+03  0.35837298093E+03  0.00000000000E+00 0. -1.
         -1   -1    0    0    0  501 -0.00000000000E+00 -0.00000000000E+00 -0.37336929990E+02  0.37336929990E+02  0.00000000000E+00 0.  1.
         25    2    1    2    0    0 -0.32526454886E+02 -0.87734773531E+01  0.16375223370E+03  0.20879944307E+03  0.12508984456E+03 0.  0.
         23    2    1    2    0    0  0.32526454886E+02  0.87734773531E+01  0.15728381724E+03  0.18691046785E+03  0.95196531732E+02 0.  0.
          5    1    3    3  502    0  0.32662796768E+02 -0.96649848422E+01  0.20274615932E+01  0.34378092228E+02  0.41800000000E+01 0.  1.
         -5    1    3    3    0  502 -0.65189251654E+02  0.89150748908E+00  0.16172477210E+03  0.17442135084E+03  0.41800000000E+01 0.  1.
        -11    1    4    4    0    0 -0.31264611594E+02  0.47400418986E+01  0.26171265292E+02  0.41047278379E+02  0.00000000000E+00 0. -1.
         11    1    4    4    0    0  0.63791066480E+02  0.40334354545E+01  0.13111255195E+03  0.14586318947E+03  0.00000000000E+00 0.  1.
</event>
<event>
 8    1  0.3541538E-009  0.9481288E+02  0.7561462E-02  0.1291598E+00
          1   -1    0    0  501    0  0.00000000000E+00  0.00000000000E+00  0.89403145154E+03  0.89403145154E+03  0.00000000000E+00 0. -1.
         -1   -1    0    0    0  501 -0.00000000000E+00 -0.00000000000E+00 -0.37304464218E+02  0.37304464218E+02  0.00000000000E+00 0.  1.
         25    2    1    2    0    0  0.27848390303E+02  0.29363394771E+02  0.81012928514E+03  0.82072813605E+03  0.12508985916E+03 0.  0.
         23    2    1    2    0    0 -0.27848390303E+02 -0.29363394771E+02  0.46597702185E+02  0.11060777971E+03  0.91787762197E+02 0.  0.
          5    1    3    3  502    0  0.43514518061E+01 -0.29215523902E+02  0.61243288320E+03  0.61315902569E+03  0.41800000000E+01 0.  1.
         -5    1    3    3    0  502  0.23496938497E+02  0.58578918673E+02  0.19769640194E+03  0.20756911035E+03  0.41800000000E+01 0.  1.
        -11    1    4    4    0    0  0.53668912379E+01  0.28942834989E+02  0.95290803895E+00  0.29451642611E+02  0.00000000000E+00 0.  1.
         11    1    4    4    0    0 -0.33215281541E+02 -0.58306229760E+02  0.45644794146E+02  0.81156137102E+02  0.00000000000E+00 0. -1.
</event>
<event>
 8    1  0.3541538E-009  0.9169308E+02  0.7561462E-02  0.1298803E+00
          2   -1    0    0  501    0  0.00000000000E+00  0.00000000000E+00  0.58537216772E+03  0.58537216772E+03  0.00000000000E+00 0. -1.
         -2   -1    0    0    0  501 -0.00000000000E+00 -0.00000000000E+00 -0.26448816862E+02  0.26448816862E+02  0.00000000000E+00 0.  1.
         25    2    1    2    0    0  0.35959789972E+01  0.23881234228E+02  0.44987621382E+03  0.46757061190E+03  0.12510165840E+03 0.  0.
         23    2    1    2    0    0 -0.35959789972E+01 -0.23881234228E+02  0.10904713704E+03  0.14425037269E+03  0.91288813722E+02 0.  0.
          5    1    3    3  502    0  0.39617953249E+02  0.38837513511E+02  0.91738212872E+02  0.10729075811E+03  0.41800000000E+01 0. -1.
         -5    1    3    3    0  502 -0.36021974252E+02 -0.14956279283E+02  0.35813800095E+03  0.36027985379E+03  0.41800000000E+01 0. -1.
        -11    1    4    4    0    0 -0.44368083951E+02 -0.14591909841E+02  0.82244091118E+02  0.94580871375E+02  0.00000000000E+00 0. -1.
         11    1    4    4    0    0  0.40772104954E+02 -0.92893243868E+01  0.26803045920E+02  0.49669501311E+02  0.00000000000E+00 0.  1.
</event>
<event>
 8    1  0.3541538E-009  0.1103567E+03  0.7561462E-02  0.1259911E+00
          3   -1    0    0  501    0  0.00000000000E+00  0.00000000000E+00  0.77811158815E+02  0.77811158815E+02  0.00000000000E+00 0. -1.
         -3   -1    0    0    0  501 -0.00000000000E+00 -0.00000000000E+00 -0.20537446288E+03  0.20537446288E+03  0.00000000000E+00 0.  1.
         25    2    1    2    0    0  0.57263075699E+02 -0.30804589346E+02 -0.76375426958E+02  0.16033698423E+03  0.12508701014E+03 0.  0.
         23    2    1    2    0    0 -0.57263075699E+02  0.30804589346E+02 -0.51187877109E+02  0.12284863747E+03  0.90794308199E+02 0.  0.
          5    1    3    3  502    0  0.36715690440E+02 -0.78267346105E+02 -0.32731574985E+02  0.92534576196E+02  0.41800000000E+01 0.  1.
         -5    1    3    3    0  502  0.20547385259E+02  0.47462756759E+02 -0.43643851973E+02  0.67802408034E+02  0.41800000000E+01 0.  1.
        -11    1    4    4    0    0 -0.36588931276E+02 -0.87684936563E+01  0.17045299810E+02  0.41305915055E+02  0.00000000000E+00 0. -1.
         11    1    4    4    0    0 -0.20674144423E+02  0.39573083002E+02 -0.68233176919E+02  0.81542722412E+02  0.00000000000E+00 0.  1.
</event>
<event>
 8    1  0.3541538E-009  0.3333683E+03  0.7561462E-02  0.1069656E+00
         -1   -1    0    0    0  501 -0.00000000000E+00  0.00000000000E+00  0.95046179619E+03  0.95046179619E+03  0.00000000000E+00 0.  1.
          1   -1    0    0  501    0  0.00000000000E+00 -0.00000000000E+00 -0.13754774813E+03  0.13754774813E+03  0.00000000000E+00 0. -1.
         25    2    1    2    0    0  0.56081928142E+02  0.32268568746E+03  0.25060503197E+03  0.43095509603E+03  0.12509267443E+03 0.  0.
         23    2    1    2    0    0 -0.56081928142E+02 -0.32268568746E+03  0.56230901609E+03  0.65705444829E+03  0.90872894092E+02 0.  0.
          5    1    3    3  502    0 -0.13250642428E+02  0.12127238615E+03  0.33068994710E+02  0.12646581348E+03  0.41800000000E+01 0. -1.
         -5    1    3    3    0  502  0.69332570570E+02  0.20141330131E+03  0.21753603726E+03  0.30448928256E+03  0.41800000000E+01 0. -1.
        -11    1    4    4    0    0 -0.36593618451E+02 -0.78005214815E+02  0.21626051728E+03  0.23279286455E+03  0.00000000000E+00 0.  1.
         11    1    4    4    0    0 -0.19488309691E+02 -0.24468047265E+03  0.34604849881E+03  0.42426158374E+03  0.00000000000E+00 0. -1.
</event>
<event>
 8    1  0.3541538E-009  0.1098968E+03  0.7561462E-02  0.1260761E+00
         -1   -1    0    0    0  501 -0.00000000000E+00  0.00000000000E+00  0.10926942796E+03  0.10926942796E+03  0.00000000000E+00 0.  1.
          1   -1    0    0  501    0  0.00000000000E+00 -0.00000000000E+00 -0.19688977541E+03  0.19688977541E+03  0.00000000000E+00 0. -1.
         25    2    1    2    0    0 -0.16479091214E+02 -0.34167280111E+02 -0.13779025229E+03  0.18992650961E+03  0.12508781695E+03 0.  0.
         23    2    1    2    0    0  0.16479091214E+02  0.34167280111E+02  0.50169904845E+02  0.11623269376E+03  0.97744852901E+02 0.  0.
          5    1    3    3  502    0  0.12149424853E+02  0.40764076890E+02 -0.80903361992E+02  0.91499425521E+02  0.41800000000E+01 0.  1.
         -5    1    3    3    0  502 -0.28628516067E+02 -0.74931357001E+02 -0.56886890302E+02  0.98427084090E+02  0.41800000000E+01 0.  1.
        -11    1    4    4    0    0  0.40443137676E+02 -0.14108364097E+02  0.44940379744E+02  0.62083259049E+02  0.00000000000E+00 0.  1.
         11    1    4    4    0    0 -0.23964046462E+02  0.48275644208E+02  0.52295251004E+01  0.54149434709E+02  0.00000000000E+00 0. -1.
</event>
<event>
 8    1  0.3541538E-009  0.1406170E+03  0.7561462E-02  0.1212501E+00
          2   -1    0    0  501    0  0.00000000000E+00  0.00000000000E+00  0.62859160502E+03  0.62859160502E+03  0.00000000000E+00 0. -1.
         -2   -1    0    0    0  501 -0.00000000000E+00 -0.00000000000E+00 -0.60049490546E+02  0.60049490546E+02  0.00000000000E+00 0.  1.
         25    2    1    2    0    0  0.12013436437E+03  0.34511184733E+02  0.47841750585E+03  0.51005316248E+03  0.12509049236E+03 0.  0.
         23    2    1    2    0    0 -0.12013436437E+03 -0.34511184733E+02  0.90124608621E+02  0.17858793308E+03  0.90265815167E+02 0.  0.
          5    1    3    3  502    0 -0.32532904541E+01  0.24417417367E+02  0.24074510736E+03  0.24203816494E+03  0.41800000000E+01 0.  1.
         -5    1    3    3    0  502  0.12338765483E+03  0.10093767366E+02  0.23767239850E+03  0.26801499755E+03  0.41800000000E+01 0.  1.
        -11    1    4    4    0    0 -0.29244237089E+02  0.10347495872E+02 -0.13323451965E+02  0.33761078863E+02  0.00000000000E+00 0.  1.
         11    1    4    4    0    0 -0.90890127285E+02 -0.44858680604E+02  0.10344806059E+03  0.14482685422E+03  0.00000000000E+00 0. -1.
</event>
<event>
 8    1  0.3541538E-009  0.1987037E+03  0.7561462E-02  0.1150837E+00
         -3   -1    0    0    0  501 -0.00000000000E+00  0.00000000000E+00  0.72942457513E+02  0.72942457513E+02  0.00000000000E+00 0.  1.
          3   -1    0    0  501    0  0.00000000000E+00 -0.00000000000E+00 -0.71408392322E+03  0.71408392322E+03  0.00000000000E+00 0. -1.
         25    2    1    2    0    0 -0.17878952902E+03 -0.10532282843E+02 -0.48563431717E+03  0.53250770557E+03  0.12508853587E+03 0.  0.
         23    2    1    2    0    0  0.17878952902E+03  0.10532282843E+02 -0.15550714853E+03  0.25451867516E+03  0.92307410828E+02 0.  0.
          5    1    3    3  502    0 -0.26112445964E+02 -0.32489539212E+02 -0.30196860988E+02  0.51640611983E+02  0.41800000000E+01 0.  1.
         -5    1    3    3    0  502 -0.15267708305E+03  0.21957256369E+02 -0.45543745618E+03  0.48086709358E+03  0.41800000000E+01 0.  1.
        -11    1    4    4    0    0  0.70654139855E+02 -0.40716257958E+02 -0.69607007149E+02  0.10721453533E+03  0.00000000000E+00 0.  1.
         11    1    4    4    0    0  0.10813538916E+03  0.51248540801E+02 -0.85900141384E+02  0.14730413984E+03  0.00000000000E+00 0. -1.
</event>
<event>
 8    1  0.3541538E-009  0.1078743E+03  0.7561462E-02  0.1264558E+00
          1   -1    0    0  501    0  0.00000000000E+00  0.00000000000E+00  0.19055586878E+04  0.19055586878E+04  0.00000000000E+00 0. -1.
         -1   -1    0    0    0  501 -0.00000000000E+00 -0.00000000000E+00 -0.96782689002E+01  0.96782689002E+01  0.00000000000E+00 0.  1.
         25    2    1    2    0    0 -0.27743585599E+01  0.37392314612E+02  0.15725233868E+04  0.15779363874E+04  0.12509020113E+03 0.  0.
         23    2    1    2    0    0  0.27743585599E+01 -0.37392314612E+02  0.32335703212E+03  0.33730056931E+03  0.88351692563E+02 0.  0.
          5    1    3    3  502    0  0.55928882196E+02  0.35191775841E+02  0.10543611780E+04  0.10564381037E+04  0.41800000000E+01 0.  1.
         -5    1    3    3    0  502 -0.58703240756E+02  0.22005387706E+01  0.51816220879E+03  0.52149828366E+03  0.41800000000E+01 0.  1.
        -11    1    4    4    0    0  0.25870604440E+02 -0.55540878840E+02  0.16013192649E+03  0.17145352512E+03  0.00000000000E+00 0.  1.
         11    1    4    4    0    0 -0.23096245880E+02  0.18148564228E+02  0.16322510563E+03  0.16584704419E+03  0.00000000000E+00 0. -1.
</event>
<event>
 8    1  0.3541538E-009  0.1042999E+03  0.7561462E-02  0.1271505E+00
         -1   -1    0    0    0  501 -0.00000000000E+00  0.00000000000E+00  0.39536019541E+02  0.39536019541E+02  0.00000000000E+00 0.  1.
          1   -1    0    0  501    0  0.00000000000E+00 -0.00000000000E+00 -0.44431227520E+03  0.44431227520E+03  0.00000000000E+00 0. -1.
         25    2    1    2    0    0  0.75959307849E+02 -0.10974012059E+02 -0.22553816495E+03  0.26908215618E+03  0.12508995778E+03 0.  0.
         23    2    1    2    0    0 -0.75959307849E+02  0.10974012059E+02 -0.17923809071E+03  0.21476613856E+03  0.90044187601E+02 0.  0.
          5    1    3    3  502    0 -0.19745874455E+02 -0.24192214578E+02 -0.12765574514E+03  0.13148621400E+03  0.41800000000E+01 0.  1.
         -5    1    3    3    0  502  0.95705182305E+02  0.13218202519E+02 -0.97882419809E+02  0.13759594218E+03  0.41800000000E+01 0.  1.
        -11    1    4    4    0    0 -0.30258230885E+02  0.16316836215E+02 -0.52244662214E+01  0.34772039453E+02  0.00000000000E+00 0.  1.
         11    1    4    4    0    0 -0.45701076964E+02 -0.53428241564E+01 -0.17401362449E+03  0.17999409911E+03  0.00000000000E+00 0. -1.
</event>
<event>
 8    1  0.3541538E-009  0.1178101E+03  0.7561462E-02  0.1246754E+00
         -2   -1    0    0    0  501 -0.00000000000E+00  0.00000000000E+00  0.21650764316E+03  0.21650764316E+03  0.00000000000E+00 0. -1.
          2   -1    0    0  501    0  0.00000000000E+00 -0.00000000000E+00 -0.14606741009E+03  0.14606741009E+03  0.00000000000E+00 0.  1.
         25    2    1    2    0    0  0.72794604602E+02  0.85888968330E+02  0.12297847240E+03  0.20844025858E+03  0.12509063668E+03 0.  0.
         23    2    1    2    0    0 -0.72794604602E+02 -0.85888968330E+02 -0.52538239327E+02  0.15413479467E+03  0.91221154322E+02 0.  0.
          5    1    3    3  502    0  0.79052484943E+02  0.72051874462E+02  0.25952822723E+02  0.11014440247E+03  0.41800000000E+01 0. -1.
         -5    1    3    3    0  502 -0.62578803407E+01  0.13837093868E+02  0.97025649675E+02  0.98295856107E+02  0.41800000000E+01 0. -1.
        -11    1    4    4    0    0 -0.61928802225E+02 -0.68720014077E+02 -0.78389721303E+02  0.12125413513E+03  0.00000000000E+00 0.  1.
         11    1    4    4    0    0 -0.10865802377E+02 -0.17168954253E+02  0.25851481976E+02  0.32880659540E+02  0.00000000000E+00 0. -1.
</event>
<event>
 8    1  0.3541538E-009  0.1125834E+03  0.7561462E-02  0.1255859E+00
          2   -1    0    0  501    0  0.00000000000E+00  0.00000000000E+00  0.94028982210E+03  0.94028982210E+03  0.00000000000E+00 0. -1.
         -2   -1    0    0    0  501 -0.00000000000E+00 -0.00000000000E+00 -0.16432923495E+02  0.16432923495E+02  0.00000000000E+00 0.  1.
         25    2    1    2    0    0  0.56987058769E+02 -0.66542812562E+01  0.59850896402E+03  0.61412747369E+03  0.12509104527E+03 0.  0.
         23    2    1    2    0    0 -0.56987058769E+02  0.66542812562E+01  0.32534793459E+03  0.34259527190E+03  0.90710735109E+02 0.  0.
          5    1    3    3  502    0 -0.30005735864E+01  0.52793645114E+02  0.23575448656E+03  0.24164813829E+03  0.41800000000E+01 0. -1.
         -5    1    3    3    0  502  0.59987632355E+02 -0.59447926371E+02  0.36275447746E+03  0.37247933540E+03  0.41800000000E+01 0. -1.
        -11    1    4    4    0    0 -0.46231288520E+02  0.34519034858E+02  0.29275511398E+03  0.29838641485E+03  0.00000000000E+00 0. -1.
         11    1    4    4    0    0 -0.10755770249E+02 -0.27864753601E+02  0.32592820614E+02  0.44208857059E+02  0.00000000000E+00 0.  1.
</event>
<event>
 8    1  0.3541538E-009  0.1008999E+03  0.7561462E-02  0.1278415E+00
         -2   -1    0    0    0  501 -0.00000000000E+00  0.00000000000E+00  0.29419129166E+03  0.29419129166E+03  0.00000000000E+00 0.  1.
          2   -1    0    0  501    0  0.00000000000E+00 -0.00000000000E+00 -0.48867766029E+02  0.48867766029E+02  0.00000000000E+00 0. -1.
         25    2    1    2    0    0  0.46067035903E+02 -0.28256658827E+01  0.11910705813E+03  0.17878484697E+03  0.12508946408E+03 0.  0.
         23    2    1    2    0    0 -0.46067035903E+02  0.28256658827E+01  0.12621646750E+03  0.16427421072E+03  0.94473612479E+02 0.  0.
          5    1    3    3  502    0 -0.32307695415E+02 -0.34663534756E+02  0.53934696504E+02  0.71915031195E+02  0.41800000000E+01 0. -1.
         -5    1    3    3    0  502  0.78374731319E+02  0.31837868873E+02  0.65172361630E+02  0.10686981578E+03  0.41800000000E+01 0. -1.
        -11    1    4    4    0    0 -0.56179532009E+02 -0.54807420726E+01  0.13644806462E+03  0.14766263132E+03  0.00000000000E+00 0.  1.
         11    1    4    4    0    0  0.10112496106E+02  0.83064079553E+01 -0.10231597117E+02  0.16611579400E+02  0.00000000000E+00 0. -1.
</event>
<event>
 8    1  0.3541538E-009  0.1005349E+03  0.7561462E-02  0.1279175E+00
          3   -1    0    0  501    0  0.00000000000E+00  0.00000000000E+00  0.48966058819E+03  0.48966058819E+03  0.00000000000E+00 0. -1.
         -3   -1    0    0    0  501 -0.00000000000E+00 -0.00000000000E+00 -0.23768616334E+02  0.23768616334E+02  0.00000000000E+00 0.  1.
         25    2    1    2    0    0  0.30910919204E+01  0.98699747541E+01  0.27351473003E+03  0.30094326841E+03  0.12509824942E+03 0.  0.
         23    2    1    2    0    0 -0.30910919204E+01 -0.98699747541E+01  0.19237724183E+03  0.21248593612E+03  0.89634249162E+02 0.  0.
          5    1    3    3  502    0 -0.17102007752E+02  0.60602612451E+02  0.93670373904E+02  0.11294585717E+03  0.41800000000E+01 0. -1.
         -5    1    3    3    0  502  0.20193099672E+02 -0.50732637697E+02  0.17984435613E+03  0.18799741124E+03  0.41800000000E+01 0. -1.
        -11    1    4    4    0    0  0.29637033914E+02  0.22466426210E+02  0.46601218616E+02  0.59621872349E+02  0.00000000000E+00 0.  1.
         11    1    4    4    0    0 -0.32728125835E+02 -0.32336400964E+02  0.14577602321E+03  0.15286406377E+03  0.00000000000E+00 0. -1.
</event>
<event>
 8    1  0.3541538E-009  0.1163099E+03  0.7561462E-02  0.1249312E+00
         -2   -1    0    0    0  501 -0.00000000000E+00  0.00000000000E+00  0.26534165425E+03  0.26534165425E+03  0.00000000000E+00 0.  1.
          2   -1    0    0  501    0  0.00000000000E+00 -0.00000000000E+00 -0.77977936417E+02  0.77977936417E+02  0.00000000000E+00 0. -1.
         25    2    1    2    0    0 -0.79409707009E+02  0.26106379271E+02  0.44960399771E+02  0.15701817025E+03  0.12508326681E+03 0.  0.
         23    2    1    2    0    0  0.79409707009E+02 -0.26106379271E+02  0.14240331807E+03  0.18630142042E+03  0.86267430989E+02 0.  0.
          5    1    3    3  502    0 -0.43939598811E+02 -0.27110786177E+02 -0.28828844235E+02  0.59281175181E+02  0.41800000000E+01 0. -1.
         -5    1    3    3    0  502 -0.35470108197E+02  0.53217165448E+02  0.73789244006E+02  0.97736995068E+02  0.41800000000E+01 0. -1.
        -11    1    4    4    0    0  0.95052292880E+02 -0.12261115632E+02  0.13155260855E+03  0.16276167287E+03  0.00000000000E+00 0. -1.
         11    1    4    4    0    0 -0.15642585871E+02 -0.13845263639E+02  0.10850709515E+02  0.23539747555E+02  0.00000000000E+00 0.  1.
</event>
<event>
 8    1  0.3541538E-009  0.3628203E+03  0.7561462E-02  0.1057473E+00
         -1   -1    0    0    0  501 -0.00000000000E+00  0.00000000000E+00  0.60295073886E+02  0.60295073886E+02  0.00000000000E+00 0.  1.
          1   -1    0    0  501    0  0.00000000000E+00 -0.00000000000E+00 -0.26716389963E+04  0.26716389963E+04  0.00000000000E+00 0. -1.
         25    2    1    2    0    0 -0.34394539165E+03  0.63682472068E+02 -0.76362971531E+03  0.84919457797E+03  0.12508876633E+03 0.  0.
         23    2    1    2    0    0  0.34394539165E+03 -0.63682472068E+02 -0.18477142071E+04  0.18827394923E+04  0.91138985748E+02 0.  0.
          5    1    3    3  502    0 -0.13187265721E+03  0.85038929252E+02 -0.35971105780E+03  0.39246851429E+03  0.41800000000E+01 0. -1.
         -5    1    3    3    0  502 -0.21207273445E+03 -0.21356457183E+02 -0.40391865751E+03  0.45672606368E+03  0.41800000000E+01 0. -1.
        -11    1    4    4    0    0  0.12390284068E+03  0.77307626180E+01 -0.49149582112E+03  0.50693177135E+03  0.00000000000E+00 0.  1.
         11    1    4    4    0    0  0.22004255097E+03 -0.71413234686E+02 -0.13562183860E+04  0.13758077209E+04  0.00000000000E+00 0. -1.
</event>
<event>
 8    1  0.3541538E-009  0.1070610E+03  0.7561462E-02  0.1266111E+00
         -1   -1    0    0    0  501 -0.00000000000E+00  0.00000000000E+00  0.67650875765E+02  0.67650875765E+02  0.00000000000E+00 0.  1.
          1   -1    0    0  501    0  0.00000000000E+00 -0.00000000000E+00 -0.26012775733E+03  0.26012775733E+03  0.00000000000E+00 0. -1.
         25    2    1    2    0    0  0.14293313584E+02 -0.66836674878E+02 -0.64105059366E+02  0.15629507844E+03  0.12508898028E+03 0.  0.
         23    2    1    2    0    0 -0.14293313584E+02  0.66836674878E+02 -0.12837182220E+03  0.17148355466E+03  0.90861679820E+02 0.  0.
          5    1    3    3  502    0 -0.41870403529E+02 -0.34760746575E+02  0.12457382861E+02  0.55983024051E+02  0.41800000000E+01 0. -1.
         -5    1    3    3    0  502  0.56163717114E+02 -0.32075928303E+02 -0.76562442228E+02  0.10031205439E+03  0.41800000000E+01 0. -1.
        -11    1    4    4    0    0  0.56622132472E-01 -0.13309211673E+02  0.58171575390E+01  0.14525069475E+02  0.00000000000E+00 0. -1.
         11    1    4    4    0    0 -0.14349935717E+02  0.80145886551E+02 -0.13418897974E+03  0.15695848518E+03  0.00000000000E+00 0.  1.
</event>
<event>
 8    1  0.3541538E-009  0.1424892E+03  0.7561462E-02  0.1210018E+00
          1   -1    0    0  501    0  0.00000000000E+00  0.00000000000E+00  0.22812440381E+03  0.22812440381E+03  0.00000000000E+00 0. -1.
         -1   -1    0    0    0  501 -0.00000000000E+00 -0.00000000000E+00 -0.96574860462E+02  0.96574860462E+02  0.00000000000E+00 0.  1.
         25    2    1    2    0    0 -0.10006557436E+03  0.11256367477E+02  0.55059373630E+02  0.16976022611E+03  0.12508866761E+03 0.  0.
         23    2    1    2    0    0  0.10006557436E+03 -0.11256367477E+02  0.76490169717E+02  0.15493903816E+03  0.89529517488E+02 0.  0.
          5    1    3    3  502    0 -0.21364533113E+02  0.57472295377E+02  0.48266246898E+02  0.78144807893E+02  0.41800000000E+01 0.  1.
         -5    1    3    3    0  502 -0.78701041246E+02 -0.46215927900E+02  0.67931267314E+01  0.91615418220E+02  0.41800000000E+01 0.  1.
        -11    1    4    4    0    0  0.37712926073E+02  0.37365418330E+02  0.45827110762E+02  0.70132470089E+02  0.00000000000E+00 0.  1.
         11    1    4    4    0    0  0.62352648286E+02 -0.48621785807E+02  0.30663058954E+02  0.84806568070E+02  0.00000000000E+00 0. -1.
</event>
<event>
 8    1  0.3541538E-009  0.1683898E+03  0.7561462E-02  0.1179538E+00
         -2   -1    0    0    0  501 -0.00000000000E+00  0.00000000000E+00  0.38108004838E+02  0.38108004838E+02  0.00000000000E+00 0.  1.
          2   -1    0    0  501    0  0.00000000000E+00 -0.00000000000E+00 -0.10637866134E+04  0.10637866134E+04  0.00000000000E+00 0. -1.
         25    2    1    2    0    0 -0.10966096408E+03  0.10999344763E+03 -0.33741765834E+03  0.39194731756E+03  0.12509171842E+03 0.  0.
         23    2    1    2    0    0  0.10966096408E+03 -0.10999344763E+03 -0.68826095017E+03  0.70994730063E+03  0.78727051090E+02 0.  0.
          5    1    3    3  502    0 -0.11666708692E+03  0.81359102466E+02 -0.16904301288E+03  0.22096046101E+03  0.41800000000E+01 0.  1.
         -5    1    3    3    0  502  0.70061228426E+01  0.28634345169E+02 -0.16837464546E+03  0.17098685655E+03  0.41800000000E+01 0.  1.
        -11    1    4    4    0    0  0.10721030723E+03 -0.77900020850E+02 -0.62583126981E+03  0.63970871613E+03  0.00000000000E+00 0. -1.
         11    1    4    4    0    0  0.24506568448E+01 -0.32093426785E+02 -0.62429680363E+02  0.70238584496E+02  0.00000000000E+00 0.  1.
</event>
<event>
 8    1  0.3541538E-009  0.9704958E+02  0.7561462E-02  0.1286626E+00
         -1   -1    0    0    0  501 -0.00000000000E+00  0.00000000000E+00  0.17970818724E+03  0.17970818724E+03  0.00000000000E+00 0.  1.
          1   -1    0    0  501    0  0.00000000000E+00 -0.00000000000E+00 -0.65498363801E+02  0.65498363801E+02  0.00000000000E+00 0. -1.
         25    2    1    2    0    0 -0.35394860370E+01  0.12000429729E+02  0.61306097613E+02  0.13986026599E+03  0.12508364450E+03 0.  0.
         23    2    1    2    0    0  0.35394860370E+01 -0.12000429729E+02  0.52903725825E+02  0.10534628505E+03  0.90235787208E+02 0.  0.
          5    1    3    3  502    0 -0.51549618538E+02 -0.29625654519E+02  0.16016971540E+02  0.61717569252E+02  0.41800000000E+01 0.  1.
         -5    1    3    3    0  502  0.48010132501E+02  0.41626084248E+02  0.45289126073E+02  0.78142696735E+02  0.41800000000E+01 0.  1.
        -11    1    4    4    0    0  0.30111651264E+02  0.14383031139E+02 -0.75697385049E+01  0.34218183290E+02  0.00000000000E+00 0. -1.
         11    1    4    4    0    0 -0.26572165227E+02 -0.26383460869E+02  0.60473464330E+02  0.71128101762E+02  0.00000000000E+00 0.  1.
</event>
<event>
 8    1  0.3541538E-009  0.1527229E+03  0.7561462E-02  0.1197166E+00
          2   -1    0    0  501    0  0.00000000000E+00  0.00000000000E+00  0.33222710357E+02  0.33222710357E+02  0.00000000000E+00 0. -1.
         -2   -1    0    0    0  501 -0.00000000000E+00 -0.00000000000E+00 -0.87064797224E+03  0.87064797224E+03  0.00000000000E+00 0.  1.
         25    2    1    2    0    0  0.19931516006E+02  0.12846809967E+03 -0.41290071445E+03  0.45059575020E+03  0.12509281412E+03 0.  0.
         23    2    1    2    0    0 -0.19931516006E+02 -0.12846809967E+03 -0.42452454744E+03  0.45327493240E+03  0.91300355979E+02 0.  0.
          5    1    3    3  502    0  0.29776834889E+02  0.13663169267E+03 -0.41409328517E+03  0.43708763487E+03  0.41800000000E+01 0. -1.
         -5    1    3    3    0  502 -0.98453188831E+01 -0.81635930037E+01  0.11925707237E+01  0.13508115323E+02  0.41800000000E+01 0. -1.
        -11    1    4    4    0    0  0.28079916510E+02 -0.23328068801E+02 -0.16788898676E+03  0.17181208450E+03  0.00000000000E+00 0.  1.
         11    1    4    4    0    0 -0.48011432516E+02 -0.10514003087E+03 -0.25663556068E+03  0.28146284790E+03  0.00000000000E+00 0. -1.
</event>
<event>
 8    1  0.3541538E-009  0.1430156E+03  0.7561462E-02  0.1209328E+00
         -2   -1    0    0    0  501 -0.00000000000E+00  0.00000000000E+00  0.64086566508E+02  0.64086566508E+02  0.00000000000E+00 0.  1.
          2   -1    0    0  501    0  0.00000000000E+00 -0.00000000000E+00 -0.40887400235E+03  0.40887400235E+03  0.00000000000E+00 0. -1.
         25    2    1    2    0    0 -0.16843944140E+02  0.10654409162E+03 -0.10835674888E+03  0.19754517752E+03  0.12509016835E+03 0.  0.
         23    2    1    2    0    0  0.16843944140E+02 -0.10654409162E+03 -0.23643068696E+03  0.27541539134E+03  0.91207489481E+02 0.  0.
          5    1    3    3  502    0 -0.38037509921E+02 -0.32045093552E+01  0.44826369932E+01  0.38661188233E+02  0.41800000000E+01 0.  1.
         -5    1    3    3    0  502  0.21193565781E+02  0.10974860097E+03 -0.11283938587E+03  0.15888398928E+03  0.41800000000E+01 0.  1.
        -11    1    4    4    0    0  0.32257107908E+02 -0.44936542991E+01 -0.94295994941E+02  0.99761959692E+02  0.00000000000E+00 0.  1.
         11    1    4    4    0    0 -0.15413163769E+02 -0.10205043732E+03 -0.14213469202E+03  0.17565343165E+03  0.00000000000E+00 0. -1.
</event>
<event>
 8    1  0.3541538E-009  0.1385790E+03  0.7561462E-02  0.1215254E+00
         -2   -1    0    0    0  501 -0.00000000000E+00  0.00000000000E+00  0.18500510974E+02  0.18500510974E+02  0.00000000000E+00 0. -1.
          2   -1    0    0  501    0  0.00000000000E+00 -0.00000000000E+00 -0.16839527579E+04  0.16839527579E+04  0.00000000000E+00 0.  1.
         25    2    1    2    0    0  0.10326054647E+03  0.42649519311E+02 -0.12839082850E+04  0.12948164218E+04  0.12508940739E+03 0.  0.
         23    2    1    2    0    0 -0.10326054647E+03 -0.42649519311E+02 -0.38154396196E+03  0.40763684714E+03  0.90057105660E+02 0.  0.
          5    1    3    3  502    0  0.61084352510E+01  0.65176627548E+02 -0.61747060960E+03  0.62094503129E+03  0.41800000000E+01 0. -1.
         -5    1    3    3    0  502  0.97152111224E+02 -0.22527108237E+02 -0.66643767540E+03  0.67387139049E+03  0.41800000000E+01 0. -1.
        -11    1    4    4    0    0 -0.26324585060E+02 -0.97970173305E+01 -0.15350819955E+02  0.32009576699E+02  0.00000000000E+00 0. -1.
         11    1    4    4    0    0 -0.76935961414E+02 -0.32852501980E+02 -0.36619314201E+03  0.37562727044E+03  0.00000000000E+00 0.  1.
</event>
<event>
 8    1  0.3541538E-009  0.1577921E+03  0.7561462E-02  0.1191212E+00
          1   -1    0    0  501    0  0.00000000000E+00  0.00000000000E+00  0.40390684210E+02  0.40390684210E+02  0.00000000000E+00 0. -1.
         -1   -1    0    0    0  501 -0.00000000000E+00 -0.00000000000E+00 -0.86375156754E+03  0.86375156754E+03  0.00000000000E+00 0.  1.
         25    2    1    2    0    0 -0.19151041780E+02 -0.11978388484E+03 -0.65433527255E+03  0.67713895244E+03  0.12509024961E+03 0.  0.
         23    2    1    2    0    0  0.19151041780E+02  0.11978388484E+03 -0.16902561078E+03  0.22700329931E+03  0.90806934364E+02 0.  0.
          5    1    3    3  502    0 -0.66049529607E+02 -0.70178136310E+02 -0.26880335771E+03  0.28558751494E+03  0.41800000000E+01 0. -1.
         -5    1    3    3    0  502  0.46898487826E+02 -0.49605748526E+02 -0.38553191484E+03  0.39155143750E+03  0.41800000000E+01 0. -1.
        -11    1    4    4    0    0 -0.22743835295E+02 -0.11202527448E+01 -0.34540715355E+02  0.41371463926E+02  0.00000000000E+00 0.  1.
         11    1    4    4    0    0  0.41894877075E+02  0.12090413758E+03 -0.13448489543E+03  0.18563183538E+03  0.00000000000E+00 0. -1.
</event>
<event>
 8    1  0.3541538E-009  0.3351666E+03  0.7561462E-02  0.1068873E+00
          1   -1    0    0  501    0  0.00000000000E+00  0.00000000000E+00  0.48319076809E+03  0.48319076809E+03  0.00000000000E+00 0. -1.
         -1   -1    0    0    0  501 -0.00000000000E+00 -0.00000000000E+00 -0.30584289559E+03  0.30584289559E+03  0.00000000000E+00 0.  1.
         25    2    1    2    0    0 -0.84587962347E+02  0.31848512472E+03  0.26091694541E+03  0.43853465812E+03  0.12508835251E+03 0.  0.
         23    2    1    2    0    0  0.84587962347E+02 -0.31848512472E+03 -0.83569072900E+02  0.35049900556E+03  0.85310403296E+02 0.  0.
          5    1    3    3  502    0  0.15712788372E+02  0.20271609676E+02 -0.51189800526E+01  0.26485962962E+02  0.41800000000E+01 0. -1.
         -5    1    3    3    0  502 -0.10030075072E+03  0.29821351504E+03  0.26603592546E+03  0.41204869516E+03  0.41800000000E+01 0. -1.
        -11    1    4    4    0    0  0.48332047420E+02 -0.16180551021E+03 -0.86326375264E+02  0.18965561686E+03  0.00000000000E+00 0. -1.
         11    1    4    4    0    0  0.36255914927E+02 -0.15667961451E+03  0.27573023638E+01  0.16084338870E+03  0.00000000000E+00 0.  1.
</event>
<event>
 8    1  0.3541538E-009  0.6318694E+02  0.7561462E-02  0.1384924E+00
          1   -1    0    0  501    0  0.00000000000E+00  0.00000000000E+00  0.15875192609E+03  0.15875192609E+03  0.00000000000E+00 0. -1.
         -1   -1    0    0    0  501 -0.00000000000E+00 -0.00000000000E+00 -0.80374055126E+02  0.80374055126E+02  0.00000000000E+00 0.  1.
         25    2    1    2    0    0 -0.30168123464E+02 -0.18796776895E+02  0.40125753205E+02  0.13609134717E+03  0.12508934491E+03 0.  0.
         23    2    1    2    0    0  0.30168123464E+02  0.18796776895E+02  0.38252117757E+02  0.10303463405E+03  0.88822726850E+02 0.  0.
          5    1    3    3  502    0  0.60729406055E+00 -0.25436670288E+01 -0.44354272416E+02  0.44627490738E+02  0.41800000000E+01 0.  1.
         -5    1    3    3    0  502 -0.30775417525E+02 -0.16253109867E+02  0.84480025621E+02  0.91463856430E+02  0.41800000000E+01 0.  1.
        -11    1    4    4    0    0  0.92634337797E+01  0.48883369664E+02  0.43420295956E+02  0.66035726209E+02  0.00000000000E+00 0. -1.
         11    1    4    4    0    0  0.20904689684E+02 -0.30086592768E+02 -0.51681781993E+01  0.36998907837E+02  0.00000000000E+00 0.  1.
</event>
<event>
 8    1  0.3541538E-009  0.1660043E+03  0.7561462E-02  0.1182080E+00
         -4   -1    0    0    0  501 -0.00000000000E+00  0.00000000000E+00  0.51452780541E+02  0.51452780541E+02  0.00000000000E+00 0.  1.
          4   -1    0    0  501    0  0.00000000000E+00 -0.00000000000E+00 -0.84290102952E+03  0.84290102952E+03  0.00000000000E+00 0. -1.
         25    2    1    2    0    0 -0.11196530301E+03  0.10416988166E+03 -0.60877316158E+03  0.64003102349E+03  0.12508938980E+03 0.  0.
         23    2    1    2    0    0  0.11196530301E+03 -0.10416988166E+03 -0.18267508740E+03  0.25432278658E+03  0.89007296841E+02 0.  0.
          5    1    3    3  502    0 -0.34261707357E+02  0.15879928559E+02 -0.38793689404E+03  0.38979294873E+03  0.41800000000E+01 0.  1.
         -5    1    3    3    0  502 -0.77703595658E+02  0.88289953102E+02 -0.22083626754E+03  0.25023807476E+03  0.41800000000E+01 0.  1.
        -11    1    4    4    0    0  0.62177758896E+02 -0.14696701051E+01 -0.54464613591E+02  0.82671807560E+02  0.00000000000E+00 0. -1.
         11    1    4    4    0    0  0.49787544118E+02 -0.10270021156E+03 -0.12821047381E+03  0.17165097902E+03  0.00000000000E+00 0.  1.
</event>
<event>
 8    1  0.3541538E-009  0.1207029E+03  0.7561462E-02  0.1241942E+00
         -1   -1    0    0    0  501 -0.00000000000E+00  0.00000000000E+00  0.17986472331E+03  0.17986472331E+03  0.00000000000E+00 0.  1.
          1   -1    0    0  501    0  0.00000000000E+00 -0.00000000000E+00 -0.92931702530E+02  0.92931702530E+02  0.00000000000E+00 0. -1.
         25    2    1    2    0    0 -0.19236345391E+02 -0.51468027577E+02  0.87175401174E+02  0.16206814414E+03  0.12509011922E+03 0.  0.
         23    2    1    2    0    0  0.19236345391E+02  0.51468027577E+02 -0.24238039499E+00  0.11072828170E+03  0.96133754601E+02 0.  0.
          5    1    3    3  502    0  0.59682096628E+01  0.38376428710E+02  0.44978036982E+02  0.59572359512E+02  0.41800000000E+01 0. -1.
         -5    1    3    3    0  502 -0.25204555054E+02 -0.89844456287E+02  0.42197364192E+02  0.10249578462E+03  0.41800000000E+01 0. -1.
        -11    1    4    4    0    0  0.44113258099E+02  0.66552030043E+02 -0.89895062667E+01  0.80349010360E+02  0.00000000000E+00 0. -1.
         11    1    4    4    0    0 -0.24876912707E+02 -0.15084002466E+02  0.87471258717E+01  0.30379271342E+02  0.00000000000E+00 0.  1.
</event>
<event>
 8    1  0.3541538E-009  0.9519533E+02  0.7561462E-02  0.1290737E+00
         -2   -1    0    0    0  501 -0.00000000000E+00  0.00000000000E+00  0.77790417016E+02  0.77790417016E+02  0.00000000000E+00 0. -1.
          2   -1    0    0  501    0  0.00000000000E+00 -0.00000000000E+00 -0.21132143450E+03  0.21132143450E+03  0.00000000000E+00 0.  1.
         25    2    1    2    0    0  0.29355312933E+02  0.55325997685E+02 -0.10875290799E+03  0.17719082274E+03  0.12508673891E+03 0.  0.
         23    2    1    2    0    0 -0.29355312933E+02 -0.55325997685E+02 -0.24778109492E+02  0.11192102877E+03  0.89384906744E+02 0.  0.
          5    1    3    3  502    0 -0.39667157662E+02  0.30876293586E+02 -0.57847874684E+01  0.50771695546E+02  0.41800000000E+01 0. -1.
         -5    1    3    3    0  502  0.69022470595E+02  0.24449704099E+02 -0.10296812052E+03  0.12641912720E+03  0.41800000000E+01 0. -1.
        -11    1    4    4    0    0 -0.97036188994E+01 -0.41394270824E+02  0.30030269499E+02  0.52052501986E+02  0.00000000000E+00 0.  1.
         11    1    4    4    0    0 -0.19651694033E+02 -0.13931726861E+02 -0.54808378991E+02  0.59868526784E+02  0.00000000000E+00 0. -1.
</event>
<event>
 8    1  0.3541538E-009  0.9445012E+02  0.7561462E-02  0.1292419E+00
         -2   -1    0    0    0  501 -0.00000000000E+00  0.00000000000E+00  0.15764436671E+02  0.15764436671E+02  0.00000000000E+00 0.  1.
          2   -1    0    0  501    0  0.00000000000E+00 -0.00000000000E+00 -0.97543182020E+03  0.97543182020E+03  0.00000000000E+00 0. -1.
         25    2    1    2    0    0 -0.39685270635E+02  0.47063546636E+02 -0.51646305221E+03  0.53495107397E+03  0.12509464062E+03 0.  0.
         23    2    1    2    0    0  0.39685270635E+02 -0.47063546636E+02 -0.44320433132E+03  0.45624518290E+03  0.89104935308E+02 0.  0.
          5    1    3    3  502    0 -0.26200442574E+02 -0.75980017107E+01 -0.43479101285E+03  0.43566603044E+03  0.41800000000E+01 0. -1.
         -5    1    3    3    0  502 -0.13484828062E+02  0.54661548347E+02 -0.81672039363E+02  0.99285043533E+02  0.41800000000E+01 0. -1.
        -11    1    4    4    0    0 -0.10399316476E+02 -0.53363572342E+02 -0.17216792532E+03  0.18054808541E+03  0.00000000000E+00 0.  1.
         11    1    4    4    0    0  0.50084587111E+02  0.63000257056E+01 -0.27103640600E+03  0.27569709749E+03  0.00000000000E+00 0. -1.
</event>
<event>
 8    1  0.3541538E-009  0.1754904E+03  0.7561462E-02  0.1172240E+00
         -2   -1    0    0    0  501 -0.00000000000E+00  0.00000000000E+00  0.84137150725E+02  0.84137150725E+02  0.00000000000E+00 0.  1.
          2   -1    0    0  501    0  0.00000000000E+00 -0.00000000000E+00 -0.55457074469E+03  0.55457074469E+03  0.00000000000E+00 0. -1.
         25    2    1    2    0    0  0.10794691649E+02 -0.15325126555E+03 -0.88552692310E+02  0.21701033172E+03  0.12509767783E+03 0.  0.
         23    2    1    2    0    0 -0.10794691649E+02  0.15325126555E+03 -0.38188090166E+03  0.42169756369E+03  0.91615153853E+02 0.  0.
          5    1    3    3  502    0 -0.52339333362E+02 -0.66951182968E+02 -0.13129170858E+02  0.86091313412E+02  0.41800000000E+01 0. -1.
         -5    1    3    3    0  502  0.63134025011E+02 -0.86300082580E+02 -0.75423521452E+02  0.13091901831E+03  0.41800000000E+01 0. -1.
        -11    1    4    4    0    0  0.15013353564E+02  0.39812103183E+02 -0.20920096050E+03  0.21348406549E+03  0.00000000000E+00 0. -1.
         11    1    4    4    0    0 -0.25808045213E+02  0.11343916236E+03 -0.17267994116E+03  0.20821349821E+03  0.00000000000E+00 0.  1.
</event>
<event>
 8    1  0.3541538E-009  0.9496927E+02  0.7561462E-02  0.1291245E+00
         -2   -1    0    0    0  501 -0.00000000000E+00  0.00000000000E+00  0.56909906937E+02  0.56909906937E+02  0.00000000000E+00 0.  1.
          2   -1    0    0  501    0  0.00000000000E+00 -0.00000000000E+00 -0.24918006159E+03  0.24918006159E+03  0.00000000000E+00 0. -1.
         25    2    1    2    0    0  0.38483132952E+02  0.29605134410E+02 -0.97428819250E+02  0.16582449899E+03  0.12509186280E+03 0.  0.
         23    2    1    2    0    0 -0.38483132952E+02 -0.29605134410E+02 -0.94841335403E+02  0.14026546954E+03  0.91225585992E+02 0.  0.
          5    1    3    3  502    0 -0.38076602789E+01  0.65950807764E+02 -0.17839591815E+02  0.68554582324E+02  0.41800000000E+01 0. -1.
         -5    1    3    3    0  502  0.42290793231E+02 -0.36345673354E+02 -0.79589227435E+02  0.97269916661E+02  0.41800000000E+01 0. -1.
        -11    1    4    4    0    0  0.10529443086E+02 -0.11459806226E+02 -0.85831443262E+02  0.87230917586E+02  0.00000000000E+00 0. -1.
         11    1    4    4    0    0 -0.49012576038E+02 -0.18145328185E+02 -0.90098921416E+01  0.53034551956E+02  0.00000000000E+00 0.  1.
</event>
<event>
 8    1  0.3541538E-009  0.1588149E+03  0.7561462E-02  0.1190041E+00
         -2   -1    0    0    0  501 -0.00000000000E+00  0.00000000000E+00  0.35618266766E+02  0.35618266766E+02  0.00000000000E+00 0. -1.
          2   -1    0    0  501    0  0.00000000000E+00 -0.00000000000E+00 -0.76298864568E+03  0.76298864568E+03  0.00000000000E+00 0.  1.
         25    2    1    2    0    0  0.66129139178E+02 -0.10137573301E+03 -0.32252010908E+03  0.36649213391E+03  0.12508861324E+03 0.  0.
         23    2    1    2    0    0 -0.66129139178E+02  0.10137573301E+03 -0.40485026983E+03  0.43211477853E+03  0.90384393306E+02 0.  0.
          5    1    3    3  502    0  0.99308997348E+02 -0.98345899053E+02 -0.24674660433E+03  0.28361162170E+03  0.41800000000E+01 0.  1.
         -5    1    3    3    0  502 -0.33179858169E+02 -0.30298339606E+01 -0.75773504750E+02  0.82880512210E+02  0.41800000000E+01 0.  1.
        -11    1    4    4    0    0 -0.60769754022E+01 -0.13385058522E+02 -0.13763391095E+02  0.20137535999E+02  0.00000000000E+00 0.  1.
         11    1    4    4    0    0 -0.60052163776E+02  0.11476079154E+03 -0.39108687873E+03  0.41197724253E+03  0.00000000000E+00 0. -1.
</event>
<event>
 8    1  0.3541538E-009  0.2974120E+03  0.7561462E-02  0.1086541E+00
         -1   -1    0    0    0  501 -0.00000000000E+00  0.00000000000E+00  0.24021164266E+03  0.24021164266E+03  0.00000000000E+00 0.  1.
          1   -1    0    0  501    0  0.00000000000E+00 -0.00000000000E+00 -0.47463493714E+03  0.47463493714E+03  0.00000000000E+00 0. -1.
         25    2    1    2    0    0 -0.24390963602E+03 -0.15556261877E+03 -0.26223190835E+03  0.41000468233E+03  0.12508647759E+03 0.  0.
         23    2    1    2    0    0  0.24390963602E+03  0.15556261877E+03  0.27808613862E+02  0.30484189747E+03  0.91997959484E+02 0.  0.
          5    1    3    3  502    0  0.31185398827E+00  0.27691742930E+01  0.10168141140E+02  0.11341475804E+02  0.41800000000E+01 0. -1.
         -5    1    3    3    0  502 -0.24422149000E+03 -0.15833179306E+03 -0.27240004949E+03  0.39866320652E+03  0.41800000000E+01 0. -1.
        -11    1    4    4    0    0  0.38647806438E+02  0.62174589405E+02  0.30528243597E+02  0.79317754426E+02  0.00000000000E+00 0.  1.
         11    1    4    4    0    0  0.20526182958E+03  0.93388029365E+02 -0.27196297353E+01  0.22552414305E+03  0.00000000000E+00 0. -1.
</event>
<event>
 8    1  0.3541538E-009  0.1147361E+03  0.7561462E-02  0.1252042E+00
         -1   -1    0    0    0  501 -0.00000000000E+00  0.00000000000E+00  0.24065965478E+03  0.24065965478E+03  0.00000000000E+00 0.  1.
          1   -1    0    0  501    0  0.00000000000E+00 -0.00000000000E+00 -0.59890765008E+02  0.59890765008E+02  0.00000000000E+00 0. -1.
         25    2    1    2    0    0 -0.32408524849E+02 -0.26147952896E+02  0.13560667136E+03  0.18913940182E+03  0.12510202269E+03 0.  0.
         23    2    1    2    0    0  0.32408524849E+02  0.26147952896E+02  0.45162218408E+02  0.11141101796E+03  0.92944935466E+02 0.  0.
          5    1    3    3  502    0 -0.62993811066E+02  0.26740672078E+02  0.54925009279E+02  0.87849375752E+02  0.41800000000E+01 0.  1.
         -5    1    3    3    0  502  0.30585286217E+02 -0.52888624974E+02  0.80681662085E+02  0.10129002607E+03  0.41800000000E+01 0.  1.
        -11    1    4    4    0    0  0.65027021263E+01 -0.33771545018E+02  0.49670922087E+01  0.34748732248E+02  0.00000000000E+00 0. -1.
         11    1    4    4    0    0  0.25905822722E+02  0.59919497913E+02  0.40195126199E+02  0.76662285717E+02  0.00000000000E+00 0.  1.
</event>
<event>
 8    1  0.3541538E-009  0.9495293E+02  0.7561462E-02  0.1291282E+00
          1   -1    0    0  501    0  0.00000000000E+00  0.00000000000E+00  0.50557182371E+03  0.50557182371E+03  0.00000000000E+00 0. -1.
         -1   -1    0    0    0  501 -0.00000000000E+00 -0.00000000000E+00 -0.27503211887E+02  0.27503211887E+02  0.00000000000E+00 0.  1.
         25    2    1    2    0    0  0.35290002355E+02  0.29051220388E+02  0.30787966084E+03  0.33544666463E+03  0.12508086017E+03 0.  0.
         23    2    1    2    0    0 -0.35290002355E+02 -0.29051220388E+02  0.17018895098E+03  0.19762837096E+03  0.89461367649E+02 0.  0.
          5    1    3    3  502    0  0.14089641539E+02  0.56120035239E+02  0.54130493339E+02  0.79344559127E+02  0.41800000000E+01 0. -1.
         -5    1    3    3    0  502  0.21200360816E+02 -0.27068814852E+02  0.25374916750E+03  0.25610210551E+03  0.41800000000E+01 0. -1.
        -11    1    4    4    0    0 -0.62701865155E+02 -0.30663693529E+02  0.14226653275E+03  0.15846624983E+03  0.00000000000E+00 0. -1.
         11    1    4    4    0    0  0.27411862800E+02  0.16124731414E+01  0.27922418233E+02  0.39162121135E+02  0.00000000000E+00 0.  1.
</event>
<event>
 8    1  0.3541538E-009  0.8084902E+02  0.7561462E-02  0.1326659E+00
         -2   -1    0    0    0  501 -0.00000000000E+00  0.00000000000E+00  0.33781633511E+03  0.33781633511E+03  0.00000000000E+00 0.  1.
          2   -1    0    0  501    0  0.00000000000E+00 -0.00000000000E+00 -0.53977413256E+02  0.53977413256E+02  0.00000000000E+00 0. -1.
         25    2    1    2    0    0  0.42784371513E+02  0.25927062827E+02  0.65342986693E+02  0.14973233629E+03  0.12508937440E+03 0.  0.
         23    2    1    2    0    0 -0.42784371513E+02 -0.25927062827E+02  0.21849593516E+03  0.24206141207E+03  0.91381280908E+02 0.  0.
          5    1    3    3  502    0  0.54492333952E+02  0.21911203198E+02  0.98129157758E+02  0.11443915103E+03  0.41800000000E+01 0. -1.
         -5    1    3    3    0  502 -0.11707962439E+02  0.40158596286E+01 -0.32786171066E+02  0.35293185266E+02  0.41800000000E+01 0. -1.
        -11    1    4    4    0    0 -0.22347890812E+02 -0.52015260612E+02  0.19032386717E+03  0.19856532924E+03  0.00000000000E+00 0.  1.
         11    1    4    4    0    0 -0.20436480701E+02  0.26088197785E+02  0.28172067986E+02  0.43496082832E+02  0.00000000000E+00 0. -1.
</event>
<event>
 8    1  0.3541538E-009  0.9112356E+02  0.7561462E-02  0.1300153E+00
          1   -1    0    0  501    0  0.00000000000E+00  0.00000000000E+00  0.54957134340E+03  0.54957134340E+03  0.00000000000E+00 0. -1.
         -1   -1    0    0    0  501 -0.00000000000E+00 -0.00000000000E+00 -0.27460128794E+02  0.27460128794E+02  0.00000000000E+00 0.  1.
         25    2    1    2    0    0 -0.33503449695E+02 -0.39777202894E+02  0.23797926229E+03  0.27383476036E+03  0.12508652880E+03 0.  0.
         23    2    1    2    0    0  0.33503449695E+02  0.39777202894E+02  0.28413195231E+03  0.30319671183E+03  0.92155155748E+02 0.  0.
          5    1    3    3  502    0 -0.50454631155E+02 -0.33163493060E+02  0.34829142445E+02  0.69828566077E+02  0.41800000000E+01 0. -1.
         -5    1    3    3    0  502  0.16951181460E+02 -0.66137098342E+01  0.20315011985E+03  0.20400619428E+03  0.41800000000E+01 0. -1.
        -11    1    4    4    0    0  0.59168455873E+02  0.47908981001E+02  0.17594531197E+03  0.19171053553E+03  0.00000000000E+00 0. -1.
         11    1    4    4    0    0 -0.25665006177E+02 -0.81317781068E+01  0.10818664035E+03  0.11148617630E+03  0.00000000000E+00 0.  1.
</event>
<event>
 8    1  0.3541538E-009  0.9042357E+02  0.7561462E-02  0.1301829E+00
         -2   -1    0    0    0  501 -0.00000000000E+00  0.00000000000E+00  0.42079130586E+02  0.42079130586E+02  0.00000000000E+00 0.  1.
          2   -1    0    0  501    0  0.00000000000E+00 -0.00000000000E+00 -0.41517886444E+03  0.41517886444E+03  0.00000000000E+00 0. -1.
         25    2    1    2    0    0 -0.25937297721E+02 -0.64215958117E+02 -0.23786598705E+03  0.27753154755E+03  0.12508836637E+03 0.  0.
         23    2    1    2    0    0  0.25937297721E+02  0.64215958117E+02 -0.13523374681E+03  0.17972644748E+03  0.96005192344E+02 0.  0.
          5    1    3    3  502    0  0.18769444914E+01 -0.73420263291E+01  0.14732392776E+02  0.17086370831E+02  0.41800000000E+01 0. -1.
         -5    1    3    3    0  502 -0.27814242212E+02 -0.56873931788E+02 -0.25259837983E+03  0.26044517672E+03  0.41800000000E+01 0. -1.
        -11    1    4    4    0    0 -0.15577964336E+02 -0.13513440914E+02 -0.61371835599E+02  0.64744021060E+02  0.00000000000E+00 0. -1.
         11    1    4    4    0    0  0.41515262056E+02  0.77729399031E+02 -0.73861911207E+02  0.11498242642E+03  0.00000000000E+00 0.  1.
</event>
<event>
 8    1  0.3541538E-009  0.9166357E+02  0.7561462E-02  0.1298872E+00
          1   -1    0    0  501    0  0.00000000000E+00  0.00000000000E+00  0.83101950794E+03  0.83101950794E+03  0.00000000000E+00 0. -1.
         -1   -1    0    0    0  501 -0.00000000000E+00 -0.00000000000E+00 -0.22336691587E+02  0.22336691587E+02  0.00000000000E+00 0.  1.
         25    2    1    2    0    0 -0.51329126136E+02 -0.61731764106E+02  0.49392039823E+03  0.51580381946E+03  0.12510287965E+03 0.  0.
         23    2    1    2    0    0  0.51329126136E+02  0.61731764106E+02  0.31476241813E+03  0.33755238007E+03  0.91764587585E+02 0.  0.
          5    1    3    3  502    0 -0.59342198447E+02 -0.57013045175E+02  0.49803804184E+03  0.50480822830E+03  0.41800000000E+01 0.  1.
         -5    1    3    3    0  502  0.80130723103E+01 -0.47187189310E+01 -0.41176436102E+01  0.10995591166E+02  0.41800000000E+01 0.  1.
        -11    1    4    4    0    0  0.24759681677E+02  0.13870314493E+01  0.11735620611E+02  0.27435205195E+02  0.00000000000E+00 0.  1.
         11    1    4    4    0    0  0.26569444460E+02  0.60344732657E+02  0.30302679751E+03  0.31011717487E+03  0.00000000000E+00 0. -1.
</event>
<event>
 8    1  0.3541538E-009  0.1306135E+03  0.7561462E-02  0.1226548E+00
         -2   -1    0    0    0  501 -0.00000000000E+00  0.00000000000E+00  0.42998415484E+03  0.42998415484E+03  0.00000000000E+00 0.  1.
          2   -1    0    0  501    0  0.00000000000E+00 -0.00000000000E+00 -0.58441917566E+02  0.58441917566E+02  0.00000000000E+00 0. -1.
         25    2    1    2    0    0 -0.82678982734E+02  0.74411282027E+02  0.25141225385E+03  0.30203772989E+03  0.12508323555E+03 0.  0.
         23    2    1    2    0    0  0.82678982734E+02 -0.74411282027E+02  0.12012998342E+03  0.18638834251E+03  0.89087306768E+02 0.  0.
          5    1    3    3  502    0 -0.63422700522E+02  0.99467971474E+02  0.24125042745E+03  0.26858063489E+03  0.41800000000E+01 0. -1.
         -5    1    3    3    0  502 -0.19256282211E+02 -0.25056689446E+02  0.10161826398E+02  0.33457095007E+02  0.41800000000E+01 0. -1.
        -11    1    4    4    0    0  0.52260090413E+02 -0.44348221667E+02  0.11312841979E+02  0.69468425984E+02  0.00000000000E+00 0. -1.
         11    1    4    4    0    0  0.30418892320E+02 -0.30063060361E+02  0.10881714144E+03  0.11691991652E+03  0.00000000000E+00 0.  1.
</event>
<event>
 8    1  0.3541538E-009  0.8587881E+02  0.7561462E-02  0.1313150E+00
          2   -1    0    0  501    0  0.00000000000E+00  0.00000000000E+00  0.37757771293E+03  0.37757771293E+03  0.00000000000E+00 0. -1.
         -2   -1    0    0    0  501 -0.00000000000E+00 -0.00000000000E+00 -0.39445540000E+02  0.39445540000E+02  0.00000000000E+00 0.  1.
         25    2    1    2    0    0  0.28142320716E+02  0.46457206421E+02  0.22223308348E+03  0.26074014101E+03  0.12509042927E+03 0.  0.
         23    2    1    2    0    0 -0.28142320716E+02 -0.46457206421E+02  0.11589908945E+03  0.15628311192E+03  0.89674689259E+02 0.  0.
          5    1    3    3  502    0 -0.27401705131E+01  0.32309721812E+02  0.22409226567E+03  0.22646466080E+03  0.41800000000E+01 0. -1.
         -5    1    3    3    0  502  0.30882491229E+02  0.14147484609E+02 -0.18591821855E+01  0.34275480211E+02  0.41800000000E+01 0. -1.
        -11    1    4    4    0    0  0.22596741749E+02 -0.49079737223E+02  0.60348959753E+02  0.81002656048E+02  0.00000000000E+00 0. -1.
         11    1    4    4    0    0 -0.50739062465E+02  0.26225308021E+01  0.55550129696E+02  0.75280455876E+02  0.00000000000E+00 0.  1.
</event>
<event>
 8    1  0.3541538E-009  0.1099735E+03  0.7561462E-02  0.1260619E+00
         -2   -1    0    0    0  501 -0.00000000000E+00  0.00000000000E+00  0.17536155363E+02  0.17536155363E+02  0.00000000000E+00 0.  1.
          2   -1    0    0  501    0  0.00000000000E+00 -0.00000000000E+00 -0.10810050795E+04  0.10810050795E+04  0.00000000000E+00 0. -1.
         25    2    1    2    0    0 -0.34473460180E+02  0.35065319024E+00 -0.88911207313E+03  0.89852861623E+03  0.12507938758E+03 0.  0.
         23    2    1    2    0    0  0.34473460180E+02 -0.35065319024E+00 -0.17435685099E+03  0.20001261861E+03  0.91739815246E+02 0.  0.
          5    1    3    3  502    0 -0.63069495919E+02  0.42878991014E+02 -0.45273985645E+03  0.45913747310E+03  0.41800000000E+01 0. -1.
         -5    1    3    3    0  502  0.28596035739E+02 -0.42528337824E+02 -0.43637221667E+03  0.43939114313E+03  0.41800000000E+01 0. -1.
        -11    1    4    4    0    0  0.62954375865E+02 -0.55448636123E+01 -0.14772483038E+03  0.16067552540E+03  0.00000000000E+00 0.  1.
         11    1    4    4    0    0 -0.28480915685E+02  0.51942104221E+01 -0.26632020615E+02  0.39337093210E+02  0.00000000000E+00 0. -1.
</event>
<event>
 8    1  0.3541538E-009  0.1128941E+03  0.7561462E-02  0.1255302E+00
          1   -1    0    0  501    0  0.00000000000E+00  0.00000000000E+00  0.38705319988E+02  0.38705319988E+02  0.00000000000E+00 0. -1.
         -1   -1    0    0    0  501 -0.00000000000E+00 -0.00000000000E+00 -0.51355459885E+03  0.51355459885E+03  0.00000000000E+00 0.  1.
         25    2    1    2    0    0  0.22602794879E+02  0.54243784624E+02 -0.12588275255E+03  0.18694214992E+03  0.12509046933E+03 0.  0.
         23    2    1    2    0    0 -0.22602794879E+02 -0.54243784624E+02 -0.34896652631E+03  0.36531776893E+03  0.90698187963E+02 0.  0.
          5    1    3    3  502    0  0.63899991596E+02  0.27754852023E+02 -0.11797166451E+03  0.13707051749E+03  0.41800000000E+01 0. -1.
         -5    1    3    3    0  502 -0.41297196716E+02  0.26488932601E+02 -0.79110880397E+01  0.49871632427E+02  0.41800000000E+01 0. -1.
        -11    1    4    4    0    0  0.14121798944E+01 -0.75000178559E+02 -0.26953719412E+03  0.27978084289E+03  0.00000000000E+00 0.  1.
         11    1    4    4    0    0 -0.24014974774E+02  0.20756393935E+02 -0.79429332190E+02  0.85536926031E+02  0.00000000000E+00 0. -1.
</event>
<event>
 8    1  0.3541538E-009  0.1098260E+03  0.7561462E-02  0.1260892E+00
          2   -1    0    0  501    0  0.00000000000E+00  0.00000000000E+00  0.34513898102E+02  0.34513898102E+02  0.00000000000E+00 0. -1.
         -2   -1    0    0    0  501 -0.00000000000E+00 -0.00000000000E+00 -0.46713124016E+03  0.46713124016E+03  0.00000000000E+00 0.  1.
         25    2    1    2    0    0  0.18666909416E+02  0.55420572514E+02 -0.29203192497E+03  0.32303536742E+03  0.12509720234E+03 0.  0.
         23    2    1    2    0    0 -0.18666909416E+02 -0.55420572514E+02 -0.14058541709E+03  0.17860977084E+03  0.93366468174E+02 0.  0.
          5    1    3    3  502    0  0.10131496989E+02  0.95857571093E+02 -0.20881175829E+03  0.23002422474E+03  0.41800000000E+01 0. -1.
         -5    1    3    3    0  502  0.85354124272E+01 -0.40436998580E+02 -0.83220166688E+02  0.93011142682E+02  0.41800000000E+01 0. -1.
        -11    1    4    4    0    0 -0.39082784991E+02 -0.40948716542E+02 -0.27767916518E+02  0.63050128127E+02  0.00000000000E+00 0. -1.
         11    1    4    4    0    0  0.20415875575E+02 -0.14471855972E+02 -0.11281750057E+03  0.11555964272E+03  0.00000000000E+00 0.  1.
</event>
<event>
 8    1  0.3541538E-009  0.1109782E+03  0.7561462E-02  0.1258769E+00
         -3   -1    0    0    0  501 -0.00000000000E+00  0.00000000000E+00  0.15397623491E+03  0.15397623491E+03  0.00000000000E+00 0.  1.
          3   -1    0    0  501    0  0.00000000000E+00 -0.00000000000E+00 -0.10615876569E+03  0.10615876569E+03  0.00000000000E+00 0. -1.
         25    2    1    2    0    0 -0.57890630058E+02 -0.29144803047E+02  0.54971994785E+01  0.14098511670E+03  0.12508332957E+03 0.  0.
         23    2    1    2    0    0  0.57890630058E+02  0.29144803047E+02  0.42320269737E+02  0.11914988390E+03  0.90581151508E+02 0.  0.
          5    1    3    3  502    0 -0.78711098183E+02 -0.57465258603E+02 -0.17038203445E+02  0.99022551472E+02  0.41800000000E+01 0.  1.
         -5    1    3    3    0  502  0.20820468125E+02  0.28320455557E+02  0.22535402924E+02  0.41962565231E+02  0.41800000000E+01 0.  1.
        -11    1    4    4    0    0  0.90630282713E+01 -0.18619331639E+02  0.46309613029E+02  0.50728672868E+02  0.00000000000E+00 0.  1.
         11    1    4    4    0    0  0.48827601786E+02  0.47764134686E+02 -0.39893432914E+01  0.68421211027E+02  0.00000000000E+00 0. -1.
</event>
<event>
 8    1  0.3541538E-009  0.9368516E+02  0.7561462E-02  0.1294165E+00
         -1   -1    0    0    0  501 -0.00000000000E+00  0.00000000000E+00  0.49667221442E+02  0.49667221442E+02  0.00000000000E+00 0.  1.
          1   -1    0    0  501    0  0.00000000000E+00 -0.00000000000E+00 -0.32261018963E+03  0.32261018963E+03  0.00000000000E+00 0. -1.
         25    2    1    2    0    0 -0.90502316814E+01  0.20945956592E+02 -0.65853149317E+02  0.14319211225E+03  0.12508678566E+03 0.  0.
         23    2    1    2    0    0  0.90502316814E+01 -0.20945956592E+02 -0.20708981887E+03  0.22908529882E+03  0.95253562998E+02 0.  0.
          5    1    3    3  502    0 -0.56238604657E+02  0.33661943455E+02 -0.67414138299E+02  0.94117190425E+02  0.41800000000E+01 0. -1.
         -5    1    3    3    0  502  0.47188372976E+02 -0.12715986862E+02  0.15609889812E+01  0.49074921829E+02  0.41800000000E+01 0. -1.
        -11    1    4    4    0    0 -0.21362080970E+02 -0.33508890358E+02 -0.18554881016E+03  0.18975654189E+03  0.00000000000E+00 0. -1.
         11    1    4    4    0    0  0.30412312651E+02  0.12562933765E+02 -0.21541008709E+02  0.39328756931E+02  0.00000000000E+00 0.  1.
</event>
<event>
 8    1  0.3541538E-009  0.1176781E+03  0.7561462E-02  0.1246977E+00
          2   -1    0    0  501    0  0.00000000000E+00  0.00000000000E+00  0.14920113557E+03  0.14920113557E+03  0.00000000000E+00 0. -1.
         -2   -1    0    0    0  501 -0.00000000000E+00 -0.00000000000E+00 -0.17507958573E+03  0.17507958573E+03  0.00000000000E+00 0.  1.
         25    2    1    2    0    0  0.88365636765E+02 -0.11682379022E+01  0.66669782325E+02  0.16703944403E+03  0.12508982951E+03 0.  0.
         23    2    1    2    0    0 -0.88365636765E+02  0.11682379022E+01 -0.92548232492E+02  0.15724127726E+03  0.91377203929E+02 0.  0.
          5    1    3    3  502    0  0.81466086184E+02 -0.44254199552E+02  0.70940958786E+01  0.93075001866E+02  0.41800000000E+01 0. -1.
         -5    1    3    3    0  502  0.68995505812E+01  0.43085961649E+02  0.59575686446E+02  0.73964442167E+02  0.41800000000E+01 0. -1.
        -11    1    4    4    0    0 -0.21036652373E+02 -0.19089344197E+02 -0.81194139615E+02  0.86019951830E+02  0.00000000000E+00 0.  1.
         11    1    4    4    0    0 -0.67328984391E+02  0.20257582100E+02 -0.11354092877E+02  0.71221325435E+02  0.00000000000E+00 0. -1.
</event>
<event>
 8    1  0.3541538E-009  0.1252453E+03  0.7561462E-02  0.1234686E+00
          1   -1    0    0  501    0  0.00000000000E+00  0.00000000000E+00  0.92507955040E+03  0.92507955040E+03  0.00000000000E+00 0. -1.
         -1   -1    0    0    0  501 -0.00000000000E+00 -0.00000000000E+00 -0.19841050364E+02  0.19841050364E+02  0.00000000000E+00 0.  1.
         25    2    1    2    0    0  0.33829220294E+02 -0.67842739528E+02  0.59275099370E+03  0.61053083158E+03  0.12508837808E+03 0.  0.
         23    2    1    2    0    0 -0.33829220294E+02  0.67842739528E+02  0.31248750634E+03  0.33438976918E+03  0.91766130263E+02 0.  0.
          5    1    3    3  502    0  0.55849066602E+02  0.49565049631E+01  0.13124393000E+03  0.14277999420E+03  0.41800000000E+01 0. -1.
         -5    1    3    3    0  502 -0.22019846308E+02 -0.72799244492E+02  0.46150706370E+03  0.46775083738E+03  0.41800000000E+01 0. -1.
        -11    1    4    4    0    0  0.29356561876E+02  0.38534605896E+02  0.10804550111E+03  0.11840841983E+03  0.00000000000E+00 0.  1.
         11    1    4    4    0    0 -0.63185782170E+02  0.29308133632E+02  0.20444200523E+03  0.21598134935E+03  0.00000000000E+00 0. -1.
</event>
<event>
 8    1  0.3541538E-009  0.5917445E+02  0.7561462E-02  0.1401329E+00
         -3   -1    0    0    0  501 -0.00000000000E+00  0.00000000000E+00  0.45322906515E+02  0.45322906515E+02  0.00000000000E+00 0.  1.
          3   -1    0    0  501    0  0.00000000000E+00 -0.00000000000E+00 -0.26066755187E+03  0.26066755187E+03  0.00000000000E+00 0. -1.
         25    2    1    2    0    0 -0.11175360587E+02  0.32545742960E+01 -0.12069629339E+03  0.17421800050E+03  0.12509530575E+03 0.  0.
         23    2    1    2    0    0  0.11175360587E+02 -0.32545742960E+01 -0.94648351963E+02  0.13177245789E+03  0.90940580545E+02 0.  0.
          5    1    3    3  502    0  0.14373005229E+02  0.12054898435E+02  0.21834506911E+02  0.29088175392E+02  0.41800000000E+01 0.  1.
         -5    1    3    3    0  502 -0.25548365816E+02 -0.88003241390E+01 -0.14253080030E+03  0.14512982511E+03  0.41800000000E+01 0.  1.
        -11    1    4    4    0    0 -0.29625756051E+02 -0.80628187787E+01 -0.24092653859E+01  0.30797711407E+02  0.00000000000E+00 0.  1.
         11    1    4    4    0    0  0.40801116637E+02  0.48082444827E+01 -0.92239086577E+02  0.10097474648E+03  0.00000000000E+00 0. -1.
</event>
<event>
 8    1  0.3541538E-009  0.1153677E+03  0.7561462E-02  0.1250941E+00
          1   -1    0    0  501    0  0.00000000000E+00  0.00000000000E+00  0.23877449274E+03  0.23877449274E+03  0.00000000000E+00 0. -1.
         -1   -1    0    0    0  501 -0.00000000000E+00 -0.00000000000E+00 -0.83128767722E+02  0.83128767722E+02  0.00000000000E+00 0.  1.
         25    2    1    2    0    0  0.64172060132E+02  0.65192619548E+02  0.73616709451E+02  0.17157135927E+03  0.12509668447E+03 0.  0.
         23    2    1    2    0    0 -0.64172060132E+02 -0.65192619548E+02  0.82029015564E+02  0.15033190119E+03  0.86618647971E+02 0.  0.
          5    1    3    3  502    0  0.71032353436E+02  0.27250808140E+02 -0.12417086793E+02  0.77200118027E+02  0.41800000000E+01 0.  1.
         -5    1    3    3    0  502 -0.68602933037E+01  0.37941811408E+02  0.86033796244E+02  0.94371241241E+02  0.41800000000E+01 0.  1.
        -11    1    4    4    0    0 -0.68508091364E+02 -0.21431458480E+02  0.78260961025E+02  0.10619531070E+03  0.00000000000E+00 0. -1.
         11    1    4    4    0    0  0.43360312320E+01 -0.43761161068E+02  0.37680545391E+01  0.44136590488E+02  0.00000000000E+00 0.  1.
</event>
<event>
 8    1  0.3541538E-009  0.1078578E+03  0.7561462E-02  0.1264589E+00
          1   -1    0    0  501    0  0.00000000000E+00  0.00000000000E+00  0.42660793706E+03  0.42660793706E+03  0.00000000000E+00 0. -1.
         -1   -1    0    0    0  501 -0.00000000000E+00 -0.00000000000E+00 -0.38396519427E+02  0.38396519427E+02  0.00000000000E+00 0.  1.
         25    2    1    2    0    0 -0.62479716314E+02 -0.25505498764E+02  0.18817246585E+03  0.23581500746E+03  0.12508235456E+03 0.  0.
         23    2    1    2    0    0  0.62479716314E+02  0.25505498764E+02  0.20003895179E+03  0.22918944903E+03  0.89207487902E+02 0.  0.
          5    1    3    3  502    0  0.39016717020E+01  0.21631115740E+02 -0.76944332787E+01  0.23660196823E+02  0.41800000000E+01 0.  1.
         -5    1    3    3    0  502 -0.66381388016E+02 -0.47136614504E+02  0.19586689913E+03  0.21215481064E+03  0.41800000000E+01 0.  1.
        -11    1    4    4    0    0  0.38101493130E+02  0.59096671595E+02  0.12286756496E+03  0.14156475158E+03  0.00000000000E+00 0.  1.
         11    1    4    4    0    0  0.24378223183E+02 -0.33591172831E+02  0.77171386828E+02  0.87624697447E+02  0.00000000000E+00 0. -1.
</event>
<event>
 8    1  0.3541538E-009  0.1641613E+03  0.7561462E-02  0.1184077E+00
         -2   -1    0    0    0  501 -0.00000000000E+00  0.00000000000E+00  0.10641712321E+03  0.10641712321E+03  0.00000000000E+00 0.  1.
          2   -1    0    0  501    0  0.00000000000E+00 -0.00000000000E+00 -0.37610854226E+03  0.37610854226E+03  0.00000000000E+00 0. -1.
         25    2    1    2    0    0  0.31781192281E+01 -0.16000647242E+03 -0.19992563988E+03  0.28501082137E+03  0.12509490461E+03 0.  0.
         23    2    1    2    0    0 -0.31781192281E+01  0.16000647242E+03 -0.69765779178E+02  0.19751484410E+03  0.92372496109E+02 0.  0.
          5    1    3    3  502    0 -0.49655832761E+01 -0.52398783222E+02 -0.16226054633E+03  0.17063483465E+03  0.41800000000E+01 0.  1.
         -5    1    3    3    0  502  0.81437025041E+01 -0.10760768920E+03 -0.37665093543E+02  0.11437598672E+03  0.41800000000E+01 0.  1.
        -11    1    4    4    0    0 -0.26373369275E+02  0.80931796520E+02 -0.77014757472E+02  0.11479017015E+03  0.00000000000E+00 0. -1.
         11    1    4    4    0    0  0.23195250047E+02  0.79074675904E+02  0.72489782949E+01  0.82724673952E+02  0.00000000000E+00 0.  1.
</event>
<event>
 8    1  0.3541538E-009  0.9557336E+02  0.7561462E-02  0.1289890E+00
         -1   -1    0    0    0  501 -0.00000000000E+00  0.00000000000E+00  0.19989793954E+03  0.19989793954E+03  0.00000000000E+00 0.  1.
          1   -1    0    0  501    0  0.00000000000E+00 -0.00000000000E+00 -0.10174974886E+03  0.10174974886E+03  0.00000000000E+00 0. -1.
         25    2    1    2    0    0  0.26911400040E+02  0.28707838301E+01  0.14672646789E+03  0.19469873789E+03  0.12508587972E+03 0.  0.
         23    2    1    2    0    0 -0.26911400040E+02 -0.28707838301E+01 -0.48578277208E+02  0.10694895051E+03  0.91355153909E+02 0.  0.
          5    1    3    3  502    0  0.71645960520E+02  0.16836748796E+02  0.11930274565E+03  0.14023992759E+03  0.41800000000E+01 0. -1.
         -5    1    3    3    0  502 -0.44734560481E+02 -0.13965964966E+02  0.27423722231E+02  0.54458810305E+02  0.41800000000E+01 0. -1.
        -11    1    4    4    0    0 -0.30685734710E+02 -0.30044908433E+02  0.83546530015E+01  0.43750555016E+02  0.00000000000E+00 0.  1.
         11    1    4    4    0    0  0.37743346706E+01  0.27174124603E+02 -0.56932930210E+02  0.63198395489E+02  0.00000000000E+00 0. -1.
</event>
<event>
 8    1  0.3541538E-009  0.1259898E+03  0.7561462E-02  0.1233530E+00
          1   -1    0    0  501    0  0.00000000000E+00  0.00000000000E+00  0.72027124337E+03  0.72027124337E+03  0.00000000000E+00 0. -1.
         -1   -1    0    0    0  501 -0.00000000000E+00 -0.00000000000E+00 -0.24664504735E+02  0.24664504735E+02  0.00000000000E+00 0.  1.
         25    2    1    2    0    0  0.63337459802E+02 -0.40563633429E-01  0.26685965627E+03  0.30145108242E+03  0.12508814287E+03 0.  0.
         23    2    1    2    0    0 -0.63337459802E+02  0.40563633429E-01  0.42874708236E+03  0.44348466568E+03  0.94036974647E+02 0.  0.
          5    1    3    3  502    0  0.87402129910E+02 -0.37336666343E+02  0.16959796514E+03  0.19445848181E+03  0.41800000000E+01 0.  1.
         -5    1    3    3    0  502 -0.24064670108E+02  0.37296102710E+02  0.97261691124E+02  0.10699260061E+03  0.41800000000E+01 0.  1.
        -11    1    4    4    0    0 -0.56977818312E+02 -0.41340646138E+02  0.29781514432E+03  0.30602186358E+03  0.00000000000E+00 0.  1.
         11    1    4    4    0    0 -0.63596414899E+01  0.41381209771E+02  0.13093193804E+03  0.13746280210E+03  0.00000000000E+00 0. -1.
</event>
<event>
 8    1  0.3541538E-009  0.2941383E+03  0.7561462E-02  0.1088208E+00
          1   -1    0    0  501    0  0.00000000000E+00  0.00000000000E+00  0.50982636311E+03  0.50982636311E+03  0.00000000000E+00 0. -1.
         -1   -1    0    0    0  501 -0.00000000000E+00 -0.00000000000E+00 -0.19273214957E+03  0.19273214957E+03  0.00000000000E+00 0.  1.
         25    2    1    2    0    0  0.28337355413E+03 -0.77717343952E+02  0.16795098972E+03  0.36082654448E+03  0.12509078114E+03 0.  0.
         23    2    1    2    0    0 -0.28337355413E+03  0.77717343952E+02  0.14914322382E+03  0.34173196820E+03  0.90534414171E+02 0.  0.
          5    1    3    3  502    0  0.20797857463E+03 -0.56841077231E+02  0.53592351826E+02  0.22220622885E+03  0.41800000000E+01 0.  1.
         -5    1    3    3    0  502  0.75394979502E+02 -0.20876266720E+02  0.11435863789E+03  0.13862031564E+03  0.41800000000E+01 0.  1.
        -11    1    4    4    0    0 -0.18909051321E+03  0.59757187235E+02  0.51653024467E+02  0.20492481194E+03  0.00000000000E+00 0.  1.
         11    1    4    4    0    0 -0.94283040913E+02  0.17960156716E+02  0.97490199353E+02  0.13680715626E+03  0.00000000000E+00 0. -1.
</event>
<event>
 8    1  0.3541538E-009  0.1515370E+03  0.7561462E-02  0.1198597E+00
         -1   -1    0    0    0  501 -0.00000000000E+00  0.00000000000E+00  0.57425931670E+02  0.57425931670E+02  0.00000000000E+00 0.  1.
          1   -1    0    0  501    0  0.00000000000E+00 -0.00000000000E+00 -0.48652959599E+03  0.48652959599E+03  0.00000000000E+00 0. -1.
         25    2    1    2    0    0 -0.41103009779E+02  0.11714645554E+03 -0.26277568157E+03  0.31640419678E+03  0.12509119655E+03 0.  0.
         23    2    1    2    0    0  0.41103009779E+02 -0.11714645554E+03 -0.16632798275E+03  0.22755133088E+03  0.93283765369E+02 0.  0.
          5    1    3    3  502    0  0.18720910254E+02 -0.99478539554E-01  0.33540761240E+01  0.19473176509E+02  0.41800000000E+01 0. -1.
         -5    1    3    3    0  502 -0.59823920033E+02  0.11724593408E+03 -0.26612975769E+03  0.29693102027E+03  0.41800000000E+01 0. -1.
        -11    1    4    4    0    0  0.52163080501E+02 -0.12705728705E+03 -0.16134092322E+03  0.21188542815E+03  0.00000000000E+00 0. -1.
         11    1    4    4    0    0 -0.11060070722E+02  0.99108315037E+01 -0.49870595272E+01  0.15665902725E+02  0.00000000000E+00 0.  1.
</event>
<event>
 8    1  0.3541538E-009  0.1485180E+03  0.7561462E-02  0.1202306E+00
         -2   -1    0    0    0  501 -0.00000000000E+00  0.00000000000E+00  0.11696397292E+03  0.11696397292E+03  0.00000000000E+00 0.  1.
          2   -1    0    0  501    0  0.00000000000E+00 -0.00000000000E+00 -0.28921635716E+03  0.28921635716E+03  0.00000000000E+00 0. -1.
         25    2    1    2    0    0 -0.78476705886E+02 -0.77486415888E+02  0.19471364127E+02  0.16789832301E+03  0.12509186559E+03 0.  0.
         23    2    1    2    0    0  0.78476705886E+02  0.77486415888E+02 -0.19172374837E+03  0.23828200706E+03  0.88642998524E+02 0.  0.
          5    1    3    3  502    0  0.22978329611E+02 -0.54410093855E+02 -0.91319611633E+01  0.59910992812E+02  0.41800000000E+01 0.  1.
         -5    1    3    3    0  502 -0.10145503550E+03 -0.23076322033E+02  0.28603325291E+02  0.10798733020E+03  0.41800000000E+01 0.  1.
        -11    1    4    4    0    0  0.45478396825E+02 -0.41245186516E+01 -0.31524060143E+02  0.55489301669E+02  0.00000000000E+00 0.  1.
         11    1    4    4    0    0  0.32998309062E+02  0.81610934540E+02 -0.16019968822E+03  0.18279270539E+03  0.00000000000E+00 0. -1.
</event>
<event>
 8    1  0.3541538E-009  0.1131093E+03  0.7561462E-02  0.1254918E+00
         -2   -1    0    0    0  501 -0.00000000000E+00  0.00000000000E+00  0.14314649178E+04  0.14314649178E+04  0.00000000000E+00 0.  1.
          2   -1    0    0  501    0  0.00000000000E+00 -0.00000000000E+00 -0.95097254854E+01  0.95097254854E+01  0.00000000000E+00 0. -1.
         25    2    1    2    0    0  0.30147193445E+02 -0.20882599123E+02  0.96426967089E+03  0.97304014899E+03  0.12508475978E+03 0.  0.
         23    2    1    2    0    0 -0.30147193445E+02  0.20882599123E+02  0.45768552145E+03  0.46793449432E+03  0.90231470183E+02 0.  0.
          5    1    3    3  502    0  0.95135371037E+01 -0.72801597803E+02  0.49367705420E+03  0.49912431946E+03  0.41800000000E+01 0.  1.
         -5    1    3    3    0  502  0.20633656341E+02  0.51918998679E+02  0.47059261669E+03  0.47391582953E+03  0.41800000000E+01 0.  1.
        -11    1    4    4    0    0 -0.19650292638E+01  0.53506860238E+02  0.28188740303E+03  0.28692743581E+03  0.00000000000E+00 0.  1.
         11    1    4    4    0    0 -0.28182164181E+02 -0.32624261115E+02  0.17579811842E+03  0.18100705851E+03  0.00000000000E+00 0. -1.
</event>
<event>
 8    1  0.3541538E-009  0.1289461E+03  0.7561462E-02  0.1229028E+00
          2   -1    0    0  501    0  0.00000000000E+00  0.00000000000E+00  0.90716260014E+02  0.90716260014E+02  0.00000000000E+00 0. -1.
         -2   -1    0    0    0  501 -0.00000000000E+00 -0.00000000000E+00 -0.24503650044E+03  0.24503650044E+03  0.00000000000E+00 0.  1.
         25    2    1    2    0    0  0.83855257591E+02  0.61580645802E+02 -0.78644263910E+02  0.18071092688E+03  0.12509052195E+03 0.  0.
         23    2    1    2    0    0 -0.83855257591E+02 -0.61580645802E+02 -0.75675976517E+02  0.15504183358E+03  0.86528819332E+02 0.  0.
          5    1    3    3  502    0  0.10353850029E+03  0.56641005368E+02 -0.21641562866E+02  0.12005937770E+03  0.41800000000E+01 0. -1.
         -5    1    3    3    0  502 -0.19683242697E+02  0.49396404348E+01 -0.57002701044E+02  0.60651549173E+02  0.41800000000E+01 0. -1.
        -11    1    4    4    0    0 -0.21780016079E+02 -0.51860259956E+02 -0.72995320105E+02  0.92152983784E+02  0.00000000000E+00 0.  1.
         11    1    4    4    0    0 -0.62075241513E+02 -0.97203858468E+01 -0.26806564119E+01  0.62888849796E+02  0.00000000000E+00 0. -1.
</event>
<event>
 8    1  0.3541538E-009  0.1193369E+03  0.7561462E-02  0.1244195E+00
          2   -1    0    0  501    0  0.00000000000E+00  0.00000000000E+00  0.12787980524E+03  0.12787980524E+03  0.00000000000E+00 0.  1.
         -2   -1    0    0    0  501 -0.00000000000E+00 -0.00000000000E+00 -0.12947026739E+03  0.12947026739E+03  0.00000000000E+00 0. -1.
         25    2    1    2    0    0 -0.37219279087E+02  0.55559751362E+02 -0.33038554187E+00  0.14184573004E+03  0.12509173142E+03 0.  0.
         23    2    1    2    0    0  0.37219279087E+02 -0.55559751362E+02 -0.12600766111E+01  0.11550434258E+03  0.94167428841E+02 0.  0.
          5    1    3    3  502    0 -0.72473365104E+02  0.44908115867E+01 -0.21993086910E+02  0.75985026881E+02  0.41800000000E+01 0. -1.
         -5    1    3    3    0  502  0.35254086018E+02  0.51068939775E+02  0.21662701368E+02  0.65860703164E+02  0.41800000000E+01 0. -1.
        -11    1    4    4    0    0  0.44418349133E+02  0.32117103949E+01  0.24617890737E+02  0.50885610615E+02  0.00000000000E+00 0.  1.
         11    1    4    4    0    0 -0.71990700462E+01 -0.58771461757E+02 -0.25877967348E+02  0.64618731964E+02  0.00000000000E+00 0. -1.
</event>
<event>
 8    1  0.3541538E-009  0.1292063E+03  0.7561462E-02  0.1228638E+00
          3   -1    0    0  501    0  0.00000000000E+00  0.00000000000E+00  0.37524119451E+02  0.37524119451E+02  0.00000000000E+00 0. -1.
         -3   -1    0    0    0  501 -0.00000000000E+00 -0.00000000000E+00 -0.57447233980E+03  0.57447233980E+03  0.00000000000E+00 0.  1.
         25    2    1    2    0    0  0.91591685398E+02  0.20700436745E+02 -0.35227169719E+03  0.38543529291E+03  0.12508985354E+03 0.  0.
         23    2    1    2    0    0 -0.91591685398E+02 -0.20700436745E+02 -0.18467652316E+03  0.22656116635E+03  0.91689688488E+02 0.  0.
          5    1    3    3  502    0  0.29503288159E+02  0.69383227666E+02 -0.20212528870E+03  0.21576974075E+03  0.41800000000E+01 0.  1.
         -5    1    3    3    0  502  0.62088397239E+02 -0.48682790920E+02 -0.15014640850E+03  0.16966555215E+03  0.41800000000E+01 0.  1.
        -11    1    4    4    0    0 -0.71129812833E+02  0.46883048659E+01 -0.18002333660E+03  0.19362291237E+03  0.00000000000E+00 0.  1.
         11    1    4    4    0    0 -0.20461872565E+02 -0.25388741611E+02 -0.46531865571E+01  0.32938253970E+02  0.00000000000E+00 0. -1.
</event>
<event>
 8    1  0.3541538E-009  0.1351707E+03  0.7561462E-02  0.1219979E+00
         -1   -1    0    0    0  501 -0.00000000000E+00  0.00000000000E+00  0.10198221987E+03  0.10198221987E+03  0.00000000000E+00 0.  1.
          1   -1    0    0  501    0  0.00000000000E+00 -0.00000000000E+00 -0.18488221552E+03  0.18488221552E+03  0.00000000000E+00 0. -1.
         25    2    1    2    0    0  0.13653249485E+02 -0.82766861403E+02 -0.51834984665E+02  0.15928015824E+03  0.12508612475E+03 0.  0.
         23    2    1    2    0    0 -0.13653249485E+02  0.82766861403E+02 -0.31065010978E+02  0.12758427715E+03  0.90972239175E+02 0.  0.
          5    1    3    3  502    0  0.31623515751E+02  0.25443157707E+02 -0.15584188198E+02  0.43677687030E+02  0.41800000000E+01 0. -1.
         -5    1    3    3    0  502 -0.17970266266E+02 -0.10821001911E+03 -0.36250796467E+02  0.11560247121E+03  0.41800000000E+01 0. -1.
        -11    1    4    4    0    0 -0.24397306555E+02 -0.10009348141E+02  0.60967692131E+01  0.27066329862E+02  0.00000000000E+00 0.  1.
         11    1    4    4    0    0  0.10744057070E+02  0.92776209545E+02 -0.37161780191E+02  0.10051794729E+03  0.00000000000E+00 0. -1.
</event>
<event>
 8    1  0.3541538E-009  0.1042712E+03  0.7561462E-02  0.1271562E+00
         -1   -1    0    0    0  501 -0.00000000000E+00  0.00000000000E+00  0.94399977247E+01  0.94399977247E+01  0.00000000000E+00 0.  1.
          1   -1    0    0  501    0  0.00000000000E+00 -0.00000000000E+00 -0.15241998136E+04  0.15241998136E+04  0.00000000000E+00 0. -1.
         25    2    1    2    0    0 -0.13126941254E+02  0.22845251250E+02 -0.11492343669E+04  0.11563227201E+04  0.12509348798E+03 0.  0.
         23    2    1    2    0    0  0.13126941254E+02 -0.22845251250E+02 -0.36552544899E+03  0.37731709130E+03  0.89805965465E+02 0.  0.
          5    1    3    3  502    0 -0.57052119933E+02  0.37593434980E+02 -0.41426075911E+03  0.41987814862E+03  0.41800000000E+01 0.  1.
         -5    1    3    3    0  502  0.43925178679E+02 -0.14748183730E+02 -0.73497360781E+03  0.73644457145E+03  0.41800000000E+01 0.  1.
        -11    1    4    4    0    0  0.42232776862E+02 -0.41327148677E+02 -0.23493972525E+03  0.24225650695E+03  0.00000000000E+00 0. -1.
         11    1    4    4    0    0 -0.29105835608E+02  0.18481897428E+02 -0.13058572374E+03  0.13506058435E+03  0.00000000000E+00 0.  1.
</event>
<event>
 8    1  0.3541538E-009  0.1152880E+03  0.7561462E-02  0.1251079E+00
          2   -1    0    0  501    0  0.00000000000E+00  0.00000000000E+00  0.36401021458E+03  0.36401021458E+03  0.00000000000E+00 0. -1.
         -2   -1    0    0    0  501 -0.00000000000E+00 -0.00000000000E+00 -0.59204784474E+02  0.59204784474E+02  0.00000000000E+00 0.  1.
         25    2    1    2    0    0  0.89026646172E+02  0.38812103951E+02  0.16761369255E+03  0.23059472439E+03  0.12508978313E+03 0.  0.
         23    2    1    2    0    0 -0.89026646172E+02 -0.38812103951E+02  0.13719173755E+03  0.19262027466E+03  0.94068454949E+02 0.  0.
          5    1    3    3  502    0  0.98324917257E+02  0.55893519322E+02  0.17580203776E+03  0.20908300681E+03  0.41800000000E+01 0.  1.
         -5    1    3    3    0  502 -0.92982710856E+01 -0.17081415371E+02 -0.81883452034E+01  0.21511717585E+02  0.41800000000E+01 0.  1.
        -11    1    4    4    0    0 -0.21818151727E+02 -0.13676206954E+02 -0.10976114896E+02  0.27991882388E+02  0.00000000000E+00 0.  1.
         11    1    4    4    0    0 -0.67208494445E+02 -0.25135896997E+02  0.14816785245E+03  0.16462839227E+03  0.00000000000E+00 0. -1.
</event>
<event>
 8    1  0.3541538E-009  0.1222533E+03  0.7561462E-02  0.1239425E+00
          2   -1    0    0  501    0  0.00000000000E+00  0.00000000000E+00  0.42251274523E+02  0.42251274523E+02  0.00000000000E+00 0. -1.
         -2   -1    0    0    0  501 -0.00000000000E+00 -0.00000000000E+00 -0.42692940180E+03  0.42692940180E+03  0.00000000000E+00 0.  1.
         25    2    1    2    0    0  0.49107527819E+02  0.54769774942E+02 -0.23569155994E+03  0.27678305235E+03  0.12508824527E+03 0.  0.
         23    2    1    2    0    0 -0.49107527819E+02 -0.54769774942E+02 -0.14898656733E+03  0.19239762397E+03  0.96997788266E+02 0.  0.
          5    1    3    3  502    0  0.11752113354E+02 -0.36245746450E+02 -0.11381546004E+03  0.12009703430E+03  0.41800000000E+01 0.  1.
         -5    1    3    3    0  502  0.37355414465E+02  0.91015521392E+02 -0.12187609990E+03  0.15668601805E+03  0.41800000000E+01 0.  1.
        -11    1    4    4    0    0 -0.28433361819E+02 -0.74119412179E+02 -0.61436601789E+02  0.10038226619E+03  0.00000000000E+00 0. -1.
         11    1    4    4    0    0 -0.20674166000E+02  0.19349637237E+02 -0.87549965541E+02  0.92015357779E+02  0.00000000000E+00 0.  1.
</event>
<event>
 8    1  0.3541538E-009  0.1462992E+03  0.7561462E-02  0.1205096E+00
          2   -1    0    0  501    0  0.00000000000E+00  0.00000000000E+00  0.57026914667E+03  0.57026914667E+03  0.00000000000E+00 0. -1.
         -2   -1    0    0    0  501 -0.00000000000E+00 -0.00000000000E+00 -0.44911803255E+02  0.44911803255E+02  0.00000000000E+00 0.  1.
         25    2    1    2    0    0  0.86923535452E+02 -0.71298321694E+02  0.34864946678E+03  0.38709526807E+03  0.12508854538E+03 0.  0.
         23    2    1    2    0    0 -0.86923535452E+02  0.71298321694E+02  0.17670787663E+03  0.22808568185E+03  0.90323047498E+02 0.  0.
          5    1    3    3  502    0 -0.70690074470E+00 -0.69128697978E+02  0.22536212964E+03  0.23576437065E+03  0.41800000000E+01 0. -1.
         -5    1    3    3    0  502  0.87630436197E+02 -0.21696237156E+01  0.12328733714E+03  0.15133089742E+03  0.41800000000E+01 0. -1.
        -11    1    4    4    0    0 -0.14384103415E+02  0.60569968210E+02  0.12071955876E+03  0.13582648986E+03  0.00000000000E+00 0. -1.
         11    1    4    4    0    0 -0.72539432037E+02  0.10728353483E+02  0.55988317869E+02  0.92259191990E+02  0.00000000000E+00 0.  1.
</event>
<event>
 8    1  0.3541538E-009  0.1212338E+03  0.7561462E-02  0.1241075E+00
          2   -1    0    0  501    0  0.00000000000E+00  0.00000000000E+00  0.66179608845E+02  0.66179608845E+02  0.00000000000E+00 0. -1.
         -2   -1    0    0    0  501 -0.00000000000E+00 -0.00000000000E+00 -0.22822243120E+03  0.22822243120E+03  0.00000000000E+00 0.  1.
         25    2    1    2    0    0 -0.41263933351E+00  0.57778276351E+02 -0.85472179369E+02  0.16215284706E+03  0.12509817295E+03 0.  0.
         23    2    1    2    0    0  0.41263933351E+00 -0.57778276351E+02 -0.76570642987E+02  0.13224919298E+03  0.91040025195E+02 0.  0.
          5    1    3    3  502    0  0.17763570390E+02 -0.35311895242E+02 -0.41695498458E+02  0.57606087962E+02  0.41800000000E+01 0. -1.
         -5    1    3    3    0  502 -0.18176209724E+02  0.93090171593E+02 -0.43776680911E+02  0.10454675910E+03  0.41800000000E+01 0. -1.
        -11    1    4    4    0    0  0.42968069976E+02 -0.10625353571E+02 -0.33405502220E+02  0.55453410667E+02  0.00000000000E+00 0. -1.
         11    1    4    4    0    0 -0.42555430643E+02 -0.47152922780E+02 -0.43165140767E+02  0.76795782314E+02  0.00000000000E+00 0.  1.
</event>
<event>
 8    1  0.3541538E-009  0.2297395E+03  0.7561462E-02  0.1126823E+00
         -1   -1    0    0    0  501 -0.00000000000E+00  0.00000000000E+00  0.10955351920E+03  0.10955351920E+03  0.00000000000E+00 0.  1.
          1   -1    0    0  501    0  0.00000000000E+00 -0.00000000000E+00 -0.51901194355E+03  0.51901194355E+03  0.00000000000E+00 0. -1.
         25    2    1    2    0    0  0.24289264082E+02  0.20883082291E+03 -0.24683228612E+03  0.34752616434E+03  0.12509187217E+03 0.  0.
         23    2    1    2    0    0 -0.24289264082E+02 -0.20883082291E+03 -0.16262613823E+03  0.28103929841E+03  0.91299208472E+02 0.  0.
          5    1    3    3  502    0  0.31374501678E+02  0.21968689574E+03 -0.20006112649E+03  0.29881201155E+03  0.41800000000E+01 0.  1.
         -5    1    3    3    0  502 -0.70852375964E+01 -0.10856072826E+02 -0.46771159628E+02  0.48714152789E+02  0.41800000000E+01 0.  1.
        -11    1    4    4    0    0  0.34278328215E+01 -0.19081367273E+03 -0.11419374909E+03  0.22240013505E+03  0.00000000000E+00 0.  1.
         11    1    4    4    0    0 -0.27717096904E+02 -0.18017150178E+02 -0.48432389146E+02  0.58639163361E+02  0.00000000000E+00 0. -1.
</event>
<event>
 8    1  0.3541538E-009  0.2440905E+03  0.7561462E-02  0.1117097E+00
          2   -1    0    0  501    0  0.00000000000E+00  0.00000000000E+00  0.16080931278E+04  0.16080931278E+04  0.00000000000E+00 0. -1.
         -2   -1    0    0    0  501 -0.00000000000E+00 -0.00000000000E+00 -0.39693456653E+02  0.39693456653E+02  0.00000000000E+00 0.  1.
         25    2    1    2    0    0  0.53977004733E+02 -0.21722334273E+03  0.94531370090E+03  0.97947182204E+03  0.12509020504E+03 0.  0.
         23    2    1    2    0    0 -0.53977004733E+02  0.21722334273E+03  0.62308597028E+03  0.66831476244E+03  0.91153703580E+02 0.  0.
          5    1    3    3  502    0  0.87430338330E+02 -0.97165711892E+02  0.52554854806E+03  0.54157546879E+03  0.41800000000E+01 0.  1.
         -5    1    3    3    0  502 -0.33453333597E+02 -0.12005763083E+03  0.41976515284E+03  0.43789635325E+03  0.41800000000E+01 0.  1.
        -11    1    4    4    0    0 -0.63611759685E+02  0.12774687143E+03  0.46502482791E+03  0.48642965545E+03  0.00000000000E+00 0. -1.
         11    1    4    4    0    0  0.96347549522E+01  0.89476471294E+02  0.15806114237E+03  0.18188510699E+03  0.00000000000E+00 0.  1.
</event>
<event>
 8    1  0.3541538E-009  0.1122954E+03  0.7561462E-02  0.1256377E+00
          4   -1    0    0  501    0  0.00000000000E+00  0.00000000000E+00  0.19538040100E+03  0.19538040100E+03  0.00000000000E+00 0. -1.
         -4   -1    0    0    0  501 -0.00000000000E+00 -0.00000000000E+00 -0.90608746026E+02  0.90608746026E+02  0.00000000000E+00 0.  1.
         25    2    1    2    0    0  0.48333259606E+02  0.57057086824E+02  0.52494976656E+02  0.15490166557E+03  0.12508872164E+03 0.  0.
         23    2    1    2    0    0 -0.48333259606E+02 -0.57057086824E+02  0.52276678314E+02  0.13108748145E+03  0.94124712785E+02 0.  0.
          5    1    3    3  502    0  0.25102585966E+02 -0.18172811714E+02  0.67727259043E+02  0.74597888209E+02  0.41800000000E+01 0. -1.
         -5    1    3    3    0  502  0.23230673641E+02  0.75229898538E+02 -0.15232282387E+02  0.80303777362E+02  0.41800000000E+01 0. -1.
        -11    1    4    4    0    0 -0.36465802673E+02  0.16457651529E+02  0.38172877065E+02  0.55297175352E+02  0.00000000000E+00 0.  1.
         11    1    4    4    0    0 -0.11867456933E+02 -0.73514738352E+02  0.14103801249E+02  0.75790306100E+02  0.00000000000E+00 0. -1.
</event>
<event>
 8    1  0.3541538E-009  0.9547998E+02  0.7561462E-02  0.1290099E+00
          1   -1    0    0  501    0  0.00000000000E+00  0.00000000000E+00  0.38633590810E+03  0.38633590810E+03  0.00000000000E+00 0. -1.
         -1   -1    0    0    0  501 -0.00000000000E+00 -0.00000000000E+00 -0.46611305382E+02  0.46611305382E+02  0.00000000000E+00 0.  1.
         25    2    1    2    0    0 -0.57061613739E+02 -0.12013234628E+02  0.27234098553E+03  0.30531317491E+03  0.12508467854E+03 0.  0.
         23    2    1    2    0    0  0.57061613739E+02  0.12013234628E+02  0.67383617186E+02  0.12763403857E+03  0.91375874101E+02 0.  0.
          5    1    3    3  502    0 -0.76577640289E+02  0.32913933638E+02  0.12775815673E+03  0.15260105186E+03  0.41800000000E+01 0.  1.
         -5    1    3    3    0  502  0.19516026550E+02 -0.44927168266E+02  0.14458282881E+03  0.15271212305E+03  0.41800000000E+01 0.  1.
        -11    1    4    4    0    0  0.31198985528E+02  0.75248887465E+01 -0.19036953920E+02  0.37314960313E+02  0.00000000000E+00 0.  1.
         11    1    4    4    0    0  0.25862628211E+02  0.44883458815E+01  0.86420571106E+02  0.90319078256E+02  0.00000000000E+00 0. -1.
</event>
<event>
 8    1  0.3541538E-009  0.9136663E+02  0.7561462E-02  0.1299576E+00
          2   -1    0    0  501    0  0.00000000000E+00  0.00000000000E+00  0.11487520845E+03  0.11487520845E+03  0.00000000000E+00 0. -1.
         -2   -1    0    0    0  501 -0.00000000000E+00 -0.00000000000E+00 -0.12189965137E+03  0.12189965137E+03  0.00000000000E+00 0.  1.
         25    2    1    2    0    0 -0.21979558013E+02 -0.16706198680E+02  0.40543238105E+02  0.13436579610E+03  0.12509282538E+03 0.  0.
         23    2    1    2    0    0  0.21979558013E+02  0.16706198680E+02 -0.47567681016E+02  0.10240906372E+03  0.86387117150E+02 0.  0.
          5    1    3    3  502    0 -0.55497683751E+02  0.23095365169E+02  0.53499479838E+02  0.80579498242E+02  0.41800000000E+01 0. -1.
         -5    1    3    3    0  502  0.33518125737E+02 -0.39801563849E+02 -0.12956241732E+02  0.53786297861E+02  0.41800000000E+01 0. -1.
        -11    1    4    4    0    0 -0.13182392546E+02 -0.17036352419E+02 -0.49136332379E+02  0.53650647122E+02  0.00000000000E+00 0.  1.
         11    1    4    4    0    0  0.35161950560E+02  0.33742551098E+02  0.15686513625E+01  0.48758416595E+02  0.00000000000E+00 0. -1.
</event>
<event>
 8    1  0.3541538E-009  0.4484002E+02  0.7561462E-02  0.1475343E+00
          2   -1    0    0  501    0  0.00000000000E+00  0.00000000000E+00  0.32416641028E+02  0.32416641028E+02  0.00000000000E+00 0. -1.
         -2   -1    0    0    0  501 -0.00000000000E+00 -0.00000000000E+00 -0.42688817141E+03  0.42688817141E+03  0.00000000000E+00 0.  1.
         25    2    1    2    0    0 -0.52305430019E+01 -0.95067882814E+01 -0.31394459184E+03  0.33811994096E+03  0.12508457189E+03 0.  0.
         23    2    1    2    0    0  0.52305430019E+01  0.95067882814E+01 -0.80526938541E+02  0.12118487148E+03  0.89907995425E+02 0.  0.
          5    1    3    3  502    0 -0.11679736735E+02 -0.26427097617E+02 -0.62382260670E+01  0.29852899409E+02  0.41800000000E+01 0.  1.
         -5    1    3    3    0  502  0.64491937336E+01  0.16920309336E+02 -0.30770636577E+03  0.30826704155E+03  0.41800000000E+01 0.  1.
        -11    1    4    4    0    0  0.20349178016E+02  0.15560456932E+02 -0.95613242898E+02  0.98985398334E+02  0.00000000000E+00 0.  1.
         11    1    4    4    0    0 -0.15118635014E+02 -0.60536686502E+01  0.15086304357E+02  0.22199473146E+02  0.00000000000E+00 0. -1.
</event>
<event>
 8    1  0.3541538E-009  0.1001050E+03  0.7561462E-02  0.1280075E+00
         -2   -1    0    0    0  501 -0.00000000000E+00  0.00000000000E+00  0.21347014362E+02  0.21347014362E+02  0.00000000000E+00 0.  1.
          2   -1    0    0  501    0  0.00000000000E+00 -0.00000000000E+00 -0.10393670580E+04  0.10393670580E+04  0.00000000000E+00 0. -1.
         25    2    1    2    0    0 -0.17856597202E+02  0.79393510668E+02 -0.76398102799E+03  0.77841961399E+03  0.12509155336E+03 0.  0.
         23    2    1    2    0    0  0.17856597202E+02 -0.79393510668E+02 -0.25403901564E+03  0.28229445836E+03  0.92369649522E+02 0.  0.
          5    1    3    3  502    0  0.64478512868E+01  0.16168079562E-02  0.20001565878E+01  0.79402654367E+01  0.41800000000E+01 0.  1.
         -5    1    3    3    0  502 -0.24304448489E+02  0.79391893860E+02 -0.76598118458E+03  0.77047934856E+03  0.41800000000E+01 0.  1.
        -11    1    4    4    0    0  0.23805604626E+02  0.53832617376E+01 -0.12783073301E+03  0.13013985793E+03  0.00000000000E+00 0. -1.
         11    1    4    4    0    0 -0.59490074240E+01 -0.84776772406E+02 -0.12620828262E+03  0.15215460043E+03  0.00000000000E+00 0.  1.
</event>
<event>
 8    1  0.3541538E-009  0.1605219E+03  0.7561462E-02  0.1188109E+00
          2   -1    0    0  501    0  0.00000000000E+00  0.00000000000E+00  0.24136864742E+04  0.24136864742E+04  0.00000000000E+00 0. -1.
         -2   -1    0    0    0  501 -0.00000000000E+00 -0.00000000000E+00 -0.27803038778E+02  0.27803038778E+02  0.00000000000E+00 0.  1.
         25    2    1    2    0    0 -0.12157466448E+03 -0.64562527417E+02  0.21208318713E+04  0.21289726826E+04  0.12509251804E+03 0.  0.
         23    2    1    2    0    0  0.12157466448E+03  0.64562527417E+02  0.26505156420E+03  0.31251683043E+03  0.92009339874E+02 0.  0.
          5    1    3    3  502    0 -0.12976718479E+03 -0.18954497930E+02  0.12423696691E+04  0.12492792571E+04  0.41800000000E+01 0.  1.
         -5    1    3    3    0  502  0.81925203014E+01 -0.45608029487E+02  0.87846220219E+03  0.87969342547E+03  0.41800000000E+01 0.  1.
        -11    1    4    4    0    0  0.19476297445E+02 -0.45694659296E+01 -0.20148161883E+00  0.20006168446E+02  0.00000000000E+00 0.  1.
         11    1    4    4    0    0  0.10209836704E+03  0.69131993347E+02  0.26525304582E+03  0.29251066198E+03  0.00000000000E+00 0. -1.
</event>
<event>
 8    1  0.3541538E-009  0.1112168E+03  0.7561462E-02  0.1258333E+00
          2   -1    0    0  501    0  0.00000000000E+00  0.00000000000E+00  0.47196881851E+03  0.47196881851E+03  0.00000000000E+00 0. -1.
         -2   -1    0    0    0  501 -0.00000000000E+00 -0.00000000000E+00 -0.40493989641E+02  0.40493989641E+02  0.00000000000E+00 0.  1.
         25    2    1    2    0    0  0.77753638882E+02 -0.34043629006E+02  0.25691055859E+03  0.29808634145E+03  0.12509130588E+03 0.  0.
         23    2    1    2    0    0 -0.77753638882E+02  0.34043629006E+02  0.17456427028E+03  0.21437646670E+03  0.90994439296E+02 0.  0.
          5    1    3    3  502    0  0.80273106054E+02 -0.50645809642E+02  0.91934232542E+02  0.13220493600E+03  0.41800000000E+01 0.  1.
         -5    1    3    3    0  502 -0.25194671724E+01  0.16602180637E+02  0.16497632605E+03  0.16588140545E+03  0.41800000000E+01 0.  1.
        -11    1    4    4    0    0 -0.17414460696E+02  0.45487952304E+02  0.29742052398E+02  0.57070192982E+02  0.00000000000E+00 0.  1.
         11    1    4    4    0    0 -0.60339178186E+02 -0.11444323299E+02  0.14482221788E+03  0.15730627372E+03  0.00000000000E+00 0. -1.
</event>
<event>
 8    1  0.3541538E-009  0.1178830E+03  0.7561462E-02  0.1246631E+00
         -2   -1    0    0    0  501 -0.00000000000E+00  0.00000000000E+00  0.15729734667E+03  0.15729734667E+03  0.00000000000E+00 0.  1.
          2   -1    0    0  501    0  0.00000000000E+00 -0.00000000000E+00 -0.15127724562E+03  0.15127724562E+03  0.00000000000E+00 0. -1.
         25    2    1    2    0    0  0.75927470609E+02 -0.34505631077E+02 -0.66997334245E+02  0.16458894957E+03  0.12508101437E+03 0.  0.
         23    2    1    2    0    0 -0.75927470609E+02  0.34505631077E+02  0.73017435290E+02  0.14398564272E+03  0.91895049298E+02 0.  0.
          5    1    3    3  502    0 -0.93284308162E+01  0.12721711361E+02  0.25422117586E+02  0.30209568418E+02  0.41800000000E+01 0. -1.
         -5    1    3    3    0  502  0.85255901425E+02 -0.47227342438E+02 -0.92419451831E+02  0.13437938115E+03  0.41800000000E+01 0. -1.
        -11    1    4    4    0    0 -0.22991982217E+02  0.59180657503E+02  0.51475210777E+02  0.81735419453E+02  0.00000000000E+00 0. -1.
         11    1    4    4    0    0 -0.52935488392E+02 -0.24675026426E+02  0.21542224513E+02  0.62250223272E+02  0.00000000000E+00 0.  1.
</event>
<event>
 8    1  0.3541538E-009  0.7041390E+02  0.7561462E-02  0.1358691E+00
          3   -1    0    0  501    0  0.00000000000E+00  0.00000000000E+00  0.63270117630E+02  0.63270117630E+02  0.00000000000E+00 0. -1.
         -3   -1    0    0    0  501 -0.00000000000E+00 -0.00000000000E+00 -0.19957561110E+03  0.19957561110E+03  0.00000000000E+00 0.  1.
         25    2    1    2    0    0 -0.94682724767E+01  0.10748583593E+01 -0.11060027743E+03  0.16724547666E+03  0.12509126505E+03 0.  0.
         23    2    1    2    0    0  0.94682724767E+01 -0.10748583593E+01 -0.25705216046E+02  0.95600252075E+02  0.91585187453E+02 0.  0.
          5    1    3    3  502    0  0.45934637875E+00 -0.44382846045E+02 -0.11195956524E+03  0.12050918916E+03  0.41800000000E+01 0. -1.
         -5    1    3    3    0  502 -0.99276188555E+01  0.45457704404E+02  0.13592878161E+01  0.46736287499E+02  0.41800000000E+01 0. -1.
        -11    1    4    4    0    0 -0.86264062118E+01 -0.20946964535E+02  0.27717915780E+02  0.35797668395E+02  0.00000000000E+00 0. -1.
         11    1    4    4    0    0  0.18094678689E+02  0.19872106176E+02 -0.53423131826E+02  0.59802583680E+02  0.00000000000E+00 0.  1.
</event>
<event>
 8    1  0.3541538E-009  0.1368107E+03  0.7561462E-02  0.1217686E+00
         -2   -1    0    0    0  501 -0.00000000000E+00  0.00000000000E+00  0.20619537076E+03  0.20619537076E+03  0.00000000000E+00 0.  1.
          2   -1    0    0  501    0  0.00000000000E+00 -0.00000000000E+00 -0.14247494382E+03  0.14247494382E+03  0.00000000000E+00 0. -1.
         25    2    1    2    0    0 -0.91292667762E+02 -0.96338628728E+02  0.49449131237E+02  0.18896617618E+03  0.12509003393E+03 0.  0.
         23    2    1    2    0    0  0.91292667762E+02  0.96338628728E+02  0.14271295706E+02  0.15970413839E+03  0.87671314387E+02 0.  0.
          5    1    3    3  502    0 -0.34720177438E+01 -0.17605270839E+02  0.67144271056E+02  0.69626331256E+02  0.41800000000E+01 0. -1.
         -5    1    3    3    0  502 -0.87820650019E+02 -0.78733357888E+02 -0.17695139818E+02  0.11933984493E+03  0.41800000000E+01 0. -1.
        -11    1    4    4    0    0  0.11948268343E+02 -0.52982222710E+00  0.31139327992E+02  0.33357151793E+02  0.00000000000E+00 0.  1.
         11    1    4    4    0    0  0.79344399419E+02  0.96868450955E+02 -0.16868032286E+02  0.12634698660E+03  0.00000000000E+00 0. -1.
</event>
<event>
 8    1  0.3541538E-009  0.9289745E+02  0.7561462E-02  0.1295983E+00
         -1   -1    0    0    0  501 -0.00000000000E+00  0.00000000000E+00  0.55014601726E+02  0.55014601726E+02  0.00000000000E+00 0.  1.
          1   -1    0    0  501    0  0.00000000000E+00 -0.00000000000E+00 -0.30294801397E+03  0.30294801397E+03  0.00000000000E+00 0. -1.
         25    2    1    2    0    0 -0.98196816188E+01 -0.43414190002E+02 -0.21221584270E+03  0.25032633101E+03  0.12508593072E+03 0.  0.
         23    2    1    2    0    0  0.98196816188E+01  0.43414190002E+02 -0.35717569545E+02  0.10763628469E+03  0.91261201870E+02 0.  0.
          5    1    3    3  502    0  0.43916832361E+01  0.29248007855E+02 -0.15169545660E+03  0.15460826886E+03  0.41800000000E+01 0.  1.
         -5    1    3    3    0  502 -0.14211364855E+02 -0.72662197857E+02 -0.60520386092E+02  0.95718062148E+02  0.41800000000E+01 0.  1.
        -11    1    4    4    0    0 -0.14824462854E+02 -0.13309437010E+02  0.17139401157E+02  0.26280503885E+02  0.00000000000E+00 0.  1.
         11    1    4    4    0    0  0.24644144473E+02  0.56723627012E+02 -0.52856970702E+02  0.81355780803E+02  0.00000000000E+00 0. -1.
</event>
<event>
 8    1  0.3541538E-009  0.8017071E+02  0.7561462E-02  0.1328568E+00
         -1   -1    0    0    0  501 -0.00000000000E+00  0.00000000000E+00  0.20515370499E+03  0.20515370499E+03  0.00000000000E+00 0.  1.
          1   -1    0    0  501    0  0.00000000000E+00 -0.00000000000E+00 -0.67985008754E+02  0.67985008754E+02  0.00000000000E+00 0. -1.
         25    2    1    2    0    0 -0.23544367897E+02 -0.34078367186E+02  0.10012325018E+03  0.16550022618E+03  0.12509990914E+03 0.  0.
         23    2    1    2    0    0  0.23544367897E+02  0.34078367186E+02  0.37045446061E+02  0.10763848757E+03  0.92184633011E+02 0.  0.
          5    1    3    3  502    0 -0.62854564453E+02  0.48866031368E+01  0.88581481507E+02  0.10880591174E+03  0.41800000000E+01 0. -1.
         -5    1    3    3    0  502  0.39310196556E+02 -0.38964970323E+02  0.11541768672E+02  0.56694314438E+02  0.41800000000E+01 0. -1.
        -11    1    4    4    0    0  0.13287674735E+02  0.22938493559E+02  0.68106068509E+02  0.73083331577E+02  0.00000000000E+00 0.  1.
         11    1    4    4    0    0  0.10256693161E+02  0.11139873627E+02 -0.31060622448E+02  0.34555155996E+02  0.00000000000E+00 0. -1.
</event>
<event>
 8    1  0.3541538E-009  0.7354097E+02  0.7561462E-02  0.1348450E+00
         -2   -1    0    0    0  501 -0.00000000000E+00  0.00000000000E+00  0.19310645218E+02  0.19310645218E+02  0.00000000000E+00 0. -1.
          2   -1    0    0  501    0  0.00000000000E+00 -0.00000000000E+00 -0.89744125963E+03  0.89744125963E+03  0.00000000000E+00 0.  1.
         25    2    1    2    0    0  0.47223416885E+02 -0.45307057927E+02 -0.60463236616E+03  0.62089580204E+03  0.12509403739E+03 0.  0.
         23    2    1    2    0    0 -0.47223416885E+02  0.45307057927E+02 -0.27349824825E+03  0.29585610280E+03  0.91906262942E+02 0.  0.
          5    1    3    3  502    0  0.21791021462E+02 -0.21576121570E+01 -0.10501148236E+02  0.24642451600E+02  0.41800000000E+01 0.  1.
         -5    1    3    3    0  502  0.25432395423E+02 -0.43149445770E+02 -0.59413121792E+03  0.59625335044E+03  0.41800000000E+01 0.  1.
        -11    1    4    4    0    0 -0.17276914438E+02  0.40718388239E+02 -0.25811641651E+03  0.26187890977E+03  0.00000000000E+00 0.  1.
         11    1    4    4    0    0 -0.29946502447E+02  0.45886696879E+01 -0.15381831745E+02  0.33977193029E+02  0.00000000000E+00 0. -1.
</event>
<event>
 8    1  0.3541538E-009  0.1182731E+03  0.7561462E-02  0.1245973E+00
          1   -1    0    0  501    0  0.00000000000E+00  0.00000000000E+00  0.31640737681E+03  0.31640737681E+03  0.00000000000E+00 0. -1.
         -1   -1    0    0    0  501 -0.00000000000E+00 -0.00000000000E+00 -0.12093132047E+03  0.12093132047E+03  0.00000000000E+00 0.  1.
         25    2    1    2    0    0  0.10856452955E+03 -0.23516057420E+02 -0.29944400614E+02  0.16995172232E+03  0.12509060220E+03 0.  0.
         23    2    1    2    0    0 -0.10856452955E+03  0.23516057420E+02  0.22542045695E+03  0.26738697496E+03  0.91335370672E+02 0.  0.
          5    1    3    3  502    0  0.10909753908E+03 -0.32563769101E+02  0.22869418041E+02  0.11620307558E+03  0.41800000000E+01 0.  1.
         -5    1    3    3    0  502 -0.53300953564E+00  0.90477116803E+01 -0.52813818655E+02  0.53748646743E+02  0.41800000000E+01 0.  1.
        -11    1    4    4    0    0 -0.31342912979E+02 -0.17316553016E+01  0.41390978259E+01  0.31662421810E+02  0.00000000000E+00 0.  1.
         11    1    4    4    0    0 -0.77221616568E+02  0.25247712722E+02  0.22128135912E+03  0.23572455315E+03  0.00000000000E+00 0. -1.
</event>
<event>
 8    1  0.3541538E-009  0.1273370E+03  0.7561462E-02  0.1231461E+00
         -1   -1    0    0    0  501 -0.00000000000E+00  0.00000000000E+00  0.49116498073E+03  0.49116498073E+03  0.00000000000E+00 0.  1.
          1   -1    0    0  501    0  0.00000000000E+00 -0.00000000000E+00 -0.42245776266E+02  0.42245776266E+02  0.00000000000E+00 0. -1.
         25    2    1    2    0    0  0.61323612913E+02  0.75892824127E+02  0.25629529009E+03  0.30142254047E+03  0.12509182998E+03 0.  0.
         23    2    1    2    0    0 -0.61323612913E+02 -0.75892824127E+02  0.19262391437E+03  0.23198821652E+03  0.84818948138E+02 0.  0.
          5    1    3    3  502    0 -0.31812988888E+02  0.32530796580E+02  0.35507816230E+02  0.57867057999E+02  0.41800000000E+01 0.  1.
         -5    1    3    3    0  502  0.93136601801E+02  0.43362027548E+02  0.22078747386E+03  0.24355548247E+03  0.41800000000E+01 0.  1.
        -11    1    4    4    0    0 -0.58890881586E+02 -0.42368178659E+02  0.57001341322E+02  0.92262405179E+02  0.00000000000E+00 0. -1.
         11    1    4    4    0    0 -0.24327313268E+01 -0.33524645468E+02  0.13562257305E+03  0.13972581134E+03  0.00000000000E+00 0.  1.
</event>
<event>
 8    1  0.3541538E-009  0.9311048E+02  0.7561462E-02  0.1295489E+00
          4   -1    0    0  501    0  0.00000000000E+00  0.00000000000E+00  0.10262270753E+03  0.10262270753E+03  0.00000000000E+00 0. -1.
         -4   -1    0    0    0  501 -0.00000000000E+00 -0.00000000000E+00 -0.18957159169E+03  0.18957159169E+03  0.00000000000E+00 0.  1.
         25    2    1    2    0    0 -0.12850310420E+01  0.75856514112E+02 -0.41600684906E+01  0.14635829572E+03  0.12509029745E+03 0.  0.
         23    2    1    2    0    0  0.12850310420E+01 -0.75856514112E+02 -0.82788815670E+02  0.14583600350E+03  0.93049932174E+02 0.  0.
          5    1    3    3  502    0  0.25732837216E+02  0.82130699200E+01  0.48985045365E+02  0.56094923996E+02  0.41800000000E+01 0.  1.
         -5    1    3    3    0  502 -0.27017868258E+02  0.67643444192E+02 -0.53145113856E+02  0.90263371719E+02  0.41800000000E+01 0.  1.
        -11    1    4    4    0    0  0.18269499871E+02 -0.18065292778E+02 -0.81642359198E+02  0.85589743802E+02  0.00000000000E+00 0.  1.
         11    1    4    4    0    0 -0.16984468829E+02 -0.57791221334E+02 -0.11464564725E+01  0.60246259694E+02  0.00000000000E+00 0. -1.
</event>
<event>
 8    1  0.3541538E-009  0.7702675E+02  0.7561462E-02  0.1337707E+00
          2   -1    0    0  501    0  0.00000000000E+00  0.00000000000E+00  0.10501736904E+03  0.10501736904E+03  0.00000000000E+00 0. -1.
         -2   -1    0    0    0  501 -0.00000000000E+00 -0.00000000000E+00 -0.13773565067E+03  0.13773565067E+03  0.00000000000E+00 0.  1.
         25    2    1    2    0    0  0.30602574929E+02 -0.48065661443E+02 -0.18171071231E+02  0.13866151421E+03  0.12509996919E+03 0.  0.
         23    2    1    2    0    0 -0.30602574929E+02  0.48065661443E+02 -0.14547210397E+02  0.10409150551E+03  0.85887104889E+02 0.  0.
          5    1    3    3  502    0  0.27971034632E+02 -0.41832800357E+02  0.49389806807E+02  0.70634179974E+02  0.41800000000E+01 0. -1.
         -5    1    3    3    0  502  0.26315402974E+01 -0.62328610857E+01 -0.67560878039E+02  0.68027334234E+02  0.41800000000E+01 0. -1.
        -11    1    4    4    0    0 -0.29810751396E+02  0.68734590042E+02 -0.27360278198E+02  0.79760325915E+02  0.00000000000E+00 0.  1.
         11    1    4    4    0    0 -0.79182353377E+00 -0.20668928599E+02  0.12813067800E+02  0.24331179593E+02  0.00000000000E+00 0. -1.
</event>
<event>
 8    1  0.3541538E-009  0.1261443E+03  0.7561462E-02  0.1233292E+00
          1   -1    0    0  501    0  0.00000000000E+00  0.00000000000E+00  0.13337689505E+03  0.13337689505E+03  0.00000000000E+00 0. -1.
         -1   -1    0    0    0  501 -0.00000000000E+00 -0.00000000000E+00 -0.13214727673E+03  0.13214727673E+03  0.00000000000E+00 0.  1.
         25    2    1    2    0    0 -0.56063517205E+02 -0.39703026314E+02  0.33796542902E+02  0.14666131464E+03  0.12509151306E+03 0.  0.
         23    2    1    2    0    0  0.56063517205E+02  0.39703026314E+02 -0.32566924573E+02  0.11886285714E+03  0.91369174082E+02 0.  0.
          5    1    3    3  502    0 -0.87311656338E+02  0.41909083172E+01  0.11760337321E+02  0.88298737131E+02  0.41800000000E+01 0.  1.
         -5    1    3    3    0  502  0.31248139133E+02 -0.43893934632E+02  0.22036205581E+02  0.58362577506E+02  0.41800000000E+01 0.  1.
        -11    1    4    4    0    0  0.78950005479E+02  0.22471293336E+02 -0.10610929117E+02  0.82768678895E+02  0.00000000000E+00 0.  1.
         11    1    4    4    0    0 -0.22886488274E+02  0.17231732979E+02 -0.21955995456E+02  0.36094178249E+02  0.00000000000E+00 0. -1.
</event>
<event>
 8    1  0.3541538E-009  0.8715596E+02  0.7561462E-02  0.1309889E+00
         -1   -1    0    0    0  501 -0.00000000000E+00  0.00000000000E+00  0.64202757700E+03  0.64202757700E+03  0.00000000000E+00 0.  1.
          1   -1    0    0  501    0  0.00000000000E+00 -0.00000000000E+00 -0.23092226107E+02  0.23092226107E+02  0.00000000000E+00 0. -1.
         25    2    1    2    0    0  0.27849479006E+02  0.31956376317E+02  0.43595270496E+03  0.45552037486E+03  0.12508895827E+03 0.  0.
         23    2    1    2    0    0 -0.27849479006E+02 -0.31956376317E+02  0.18298264593E+03  0.20959942824E+03  0.93018644052E+02 0.  0.
          5    1    3    3  502    0 -0.24064286657E+02  0.26150686502E+02  0.31456871767E+02  0.47644049767E+02  0.41800000000E+01 0. -1.
         -5    1    3    3    0  502  0.51913765663E+02  0.58056898151E+01  0.40449583320E+03  0.40787632510E+03  0.41800000000E+01 0. -1.
        -11    1    4    4    0    0 -0.52983169976E+02 -0.12758435068E+02  0.53718165971E+02  0.76522123085E+02  0.00000000000E+00 0. -1.
         11    1    4    4    0    0  0.25133690970E+02 -0.19197941249E+02  0.12926447996E+03  0.13307730516E+03  0.00000000000E+00 0.  1.
</event>
<event>
 8    1  0.3541538E-009  0.8529797E+02  0.7561462E-02  0.1314655E+00
          2   -1    0    0  501    0  0.00000000000E+00  0.00000000000E+00  0.20982698715E+02  0.20982698715E+02  0.00000000000E+00 0. -1.
         -2   -1    0    0    0  501 -0.00000000000E+00 -0.00000000000E+00 -0.75265372374E+03  0.75265372374E+03  0.00000000000E+00 0.  1.
         25    2    1    2    0    0 -0.47829487266E+02  0.23918432223E+02 -0.51950262763E+03  0.53701985252E+03  0.12509032986E+03 0.  0.
         23    2    1    2    0    0  0.47829487266E+02 -0.23918432223E+02 -0.21216839739E+03  0.23661656994E+03  0.90067869220E+02 0.  0.
          5    1    3    3  502    0 -0.10618303485E+02 -0.12091757033E+02 -0.18070052829E+01  0.16724133016E+02  0.41800000000E+01 0. -1.
         -5    1    3    3    0  502 -0.37211183781E+02  0.36010189256E+02 -0.51769562235E+03  0.52029571950E+03  0.41800000000E+01 0. -1.
        -11    1    4    4    0    0  0.43607522343E+02  0.26760913560E+02 -0.79563573490E+02  0.94594527992E+02  0.00000000000E+00 0.  1.
         11    1    4    4    0    0  0.42219649232E+01 -0.50679345784E+02 -0.13260482390E+03  0.14202204195E+03  0.00000000000E+00 0. -1.
</event>
<event>
 8    1  0.3541538E-009  0.1168389E+03  0.7561462E-02  0.1248405E+00
         -2   -1    0    0    0  501 -0.00000000000E+00  0.00000000000E+00  0.30945753496E+02  0.30945753496E+02  0.00000000000E+00 0.  1.
          2   -1    0    0  501    0  0.00000000000E+00 -0.00000000000E+00 -0.71293684285E+03  0.71293684285E+03  0.00000000000E+00 0. -1.
         25    2    1    2    0    0  0.29175811144E+02  0.84466006460E+02 -0.25725741340E+03  0.29969180461E+03  0.12509223317E+03 0.  0.
         23    2    1    2    0    0 -0.29175811144E+02 -0.84466006460E+02 -0.42473367595E+03  0.44419079173E+03  0.94451203099E+02 0.  0.
          5    1    3    3  502    0 -0.20679006982E+02  0.65844878317E+02 -0.22916509650E+03  0.23936850918E+03  0.41800000000E+01 0. -1.
         -5    1    3    3    0  502  0.49854818125E+02  0.18621128142E+02 -0.28092316895E+02  0.60323295435E+02  0.41800000000E+01 0. -1.
        -11    1    4    4    0    0 -0.40318917331E+02 -0.18691098363E+02 -0.67734894370E+02  0.81012271713E+02  0.00000000000E+00 0.  1.
         11    1    4    4    0    0  0.11143106187E+02 -0.65774908096E+02 -0.35699878158E+03  0.36317852002E+03  0.00000000000E+00 0. -1.
</event>
<event>
 8    1  0.3541538E-009  0.6488848E+02  0.7561462E-02  0.1378391E+00
          2   -1    0    0  501    0  0.00000000000E+00  0.00000000000E+00  0.23655034252E+03  0.23655034252E+03  0.00000000000E+00 0. -1.
         -2   -1    0    0    0  501 -0.00000000000E+00 -0.00000000000E+00 -0.60456874273E+02  0.60456874273E+02  0.00000000000E+00 0.  1.
         25    2    1    2    0    0 -0.23281964461E+02  0.38748318393E+02  0.12265949368E+03  0.18093272746E+03  0.12509124042E+03 0.  0.
         23    2    1    2    0    0  0.23281964461E+02 -0.38748318393E+02  0.53433974569E+02  0.11607448933E+03  0.92599219156E+02 0.  0.
          5    1    3    3  502    0 -0.71309266784E+01  0.47768079570E+00 -0.25600868241E+02  0.26906414643E+02  0.41800000000E+01 0.  1.
         -5    1    3    3    0  502 -0.16151037783E+02  0.38270637597E+02  0.14826036192E+03  0.15402631282E+03  0.41800000000E+01 0.  1.
        -11    1    4    4    0    0  0.28952967431E+02  0.10030441673E+02 -0.13147074657E+02  0.33342610204E+02  0.00000000000E+00 0.  1.
         11    1    4    4    0    0 -0.56710029699E+01 -0.48778760066E+02  0.66581049225E+02  0.82731879129E+02  0.00000000000E+00 0. -1.
</event>
<event>
 8    1  0.3541538E-009  0.1520075E+03  0.7561462E-02  0.1198028E+00
         -2   -1    0    0    0  501 -0.00000000000E+00  0.00000000000E+00  0.20275670850E+02  0.20275670850E+02  0.00000000000E+00 0.  1.
          2   -1    0    0  501    0  0.00000000000E+00 -0.00000000000E+00 -0.14913884129E+04  0.14913884129E+04  0.00000000000E+00 0. -1.
         25    2    1    2    0    0  0.32716201243E+02 -0.13094045623E+03 -0.72086115189E+03  0.74397836575E+03  0.12508899034E+03 0.  0.
         23    2    1    2    0    0 -0.32716201243E+02  0.13094045623E+03 -0.75025159019E+03  0.76768571803E+03  0.90819382168E+02 0.  0.
          5    1    3    3  502    0  0.34182807653E+02 -0.23454576738E+02 -0.52547591398E+02  0.67061936079E+02  0.41800000000E+01 0.  1.
         -5    1    3    3    0  502 -0.14666064102E+01 -0.10748587949E+03 -0.66831356049E+03  0.67691642967E+03  0.41800000000E+01 0.  1.
        -11    1    4    4    0    0  0.23603610037E+02  0.22658867897E+02 -0.80353328988E+02  0.86759507725E+02  0.00000000000E+00 0.  1.
         11    1    4    4    0    0 -0.56319811280E+02  0.10828158833E+03 -0.66989826121E+03  0.68092621031E+03  0.00000000000E+00 0. -1.
</event>
<event>
 8    1  0.3541538E-009  0.9587334E+02  0.7561462E-02  0.1289221E+00
          1   -1    0    0  501    0  0.00000000000E+00  0.00000000000E+00  0.13941404254E+03  0.13941404254E+03  0.00000000000E+00 0. -1.
         -1   -1    0    0    0  501 -0.00000000000E+00 -0.00000000000E+00 -0.10954935046E+03  0.10954935046E+03  0.00000000000E+00 0.  1.
         25    2    1    2    0    0 -0.19936479727E+02 -0.48826827511E+02  0.41295419118E+02  0.14189611492E+03  0.12509066104E+03 0.  0.
         23    2    1    2    0    0  0.19936479727E+02  0.48826827511E+02 -0.11430727039E+02  0.10706727808E+03  0.92472797110E+02 0.  0.
          5    1    3    3  502    0 -0.53477276926E+01 -0.79026774422E+02 -0.10540218462E+02  0.80014985298E+02  0.41800000000E+01 0. -1.
         -5    1    3    3    0  502 -0.14588752035E+02  0.30199946911E+02  0.51835637581E+02  0.61881129618E+02  0.41800000000E+01 0. -1.
        -11    1    4    4    0    0  0.18229731941E+02  0.62370304962E+02  0.23865120623E+02  0.69223710173E+02  0.00000000000E+00 0. -1.
         11    1    4    4    0    0  0.17067477860E+01 -0.13543477451E+02 -0.35295847662E+02  0.37843567904E+02  0.00000000000E+00 0.  1.
</event>
<event>
 8    1  0.3541538E-009  0.8444043E+02  0.7561462E-02  0.1316902E+00
         -1   -1    0    0    0  501 -0.00000000000E+00  0.00000000000E+00  0.25368887730E+03  0.25368887730E+03  0.00000000000E+00 0.  1.
          1   -1    0    0  501    0  0.00000000000E+00 -0.00000000000E+00 -0.45669614594E+02  0.45669614594E+02  0.00000000000E+00 0. -1.
         25    2    1    2    0    0 -0.39653780806E+00 -0.16351945776E+02  0.13716029986E+03  0.18635632613E+03  0.12509272184E+03 0.  0.
         23    2    1    2    0    0  0.39653780806E+00  0.16351945776E+02  0.70858962851E+02  0.11300216577E+03  0.86492505337E+02 0.  0.
          5    1    3    3  502    0  0.46108275800E+02 -0.35177598184E+02  0.11969089158E+03  0.13306696975E+03  0.41800000000E+01 0.  1.
         -5    1    3    3    0  502 -0.46504813608E+02  0.18825652408E+02  0.17469408275E+02  0.53289356374E+02  0.41800000000E+01 0.  1.
        -11    1    4    4    0    0 -0.27149074366E+02 -0.21092011217E+01  0.74806085607E+02  0.79608237087E+02  0.00000000000E+00 0.  1.
         11    1    4    4    0    0  0.27545612174E+02  0.18461146898E+02 -0.39471227564E+01  0.33393928683E+02  0.00000000000E+00 0. -1.
</event>
<event>
 8    1  0.3541538E-009  0.1036037E+03  0.7561462E-02  0.1272895E+00
          2   -1    0    0  501    0  0.00000000000E+00  0.00000000000E+00  0.63825904197E+03  0.63825904197E+03  0.00000000000E+00 0. -1.
         -2   -1    0    0    0  501 -0.00000000000E+00 -0.00000000000E+00 -0.26900429508E+02  0.26900429508E+02  0.00000000000E+00 0.  1.
         25    2    1    2    0    0  0.36359954998E+02  0.32919728567E+02  0.46879633685E+03  0.48767176436E+03  0.12509192403E+03 0.  0.
         23    2    1    2    0    0 -0.36359954998E+02 -0.32919728567E+02  0.14256227562E+03  0.17748770712E+03  0.93659643888E+02 0.  0.
          5    1    3    3  502    0 -0.23753024122E+02 -0.11404939050E+02  0.21781156035E+02  0.34440818049E+02  0.41800000000E+01 0.  1.
         -5    1    3    3    0  502  0.60112979120E+02  0.44324667617E+02  0.44701518081E+03  0.45323094631E+03  0.41800000000E+01 0.  1.
        -11    1    4    4    0    0 -0.22377579066E+01  0.32162041958E+02  0.43070891208E+02  0.53800614986E+02  0.00000000000E+00 0.  1.
         11    1    4    4    0    0 -0.34122197091E+02 -0.65081770526E+02  0.99491384414E+02  0.12368709214E+03  0.00000000000E+00 0. -1.
</event>
<event>
 8    1  0.3541538E-009  0.1363044E+03  0.7561462E-02  0.1218390E+00
          1   -1    0    0  501    0  0.00000000000E+00  0.00000000000E+00  0.44011449460E+03  0.44011449460E+03  0.00000000000E+00 0. -1.
         -1   -1    0    0    0  501 -0.00000000000E+00 -0.00000000000E+00 -0.57108468685E+02  0.57108468685E+02  0.00000000000E+00 0.  1.
         25    2    1    2    0    0 -0.10469216848E+03 -0.44967723745E+02  0.17728276556E+03  0.24507083042E+03  0.12509191277E+03 0.  0.
         23    2    1    2    0    0  0.10469216848E+03  0.44967723745E+02  0.20572326036E+03  0.25215213286E+03  0.90973028623E+02 0.  0.
          5    1    3    3  502    0 -0.90877321606E+02 -0.13541646765E+01  0.17713010414E+03  0.19913077998E+03  0.41800000000E+01 0.  1.
         -5    1    3    3    0  502 -0.13814846869E+02 -0.43613559069E+02  0.15266141743E+00  0.45940050437E+02  0.41800000000E+01 0.  1.
        -11    1    4    4    0    0  0.37916108327E+02 -0.19700242540E+02  0.26563370871E+02  0.50312458684E+02  0.00000000000E+00 0. -1.
         11    1    4    4    0    0  0.66776060148E+02  0.64667966285E+02  0.17915988949E+03  0.20183967418E+03  0.00000000000E+00 0.  1.
</event>
<event>
 8    1  0.3541538E-009  0.1450760E+03  0.7561462E-02  0.1206658E+00
          2   -1    0    0  501    0  0.00000000000E+00  0.00000000000E+00  0.20087184249E+03  0.20087184249E+03  0.00000000000E+00 0.  1.
         -2   -1    0    0    0  501 -0.00000000000E+00 -0.00000000000E+00 -0.12821215314E+03  0.12821215314E+03  0.00000000000E+00 0. -1.
         25    2    1    2    0    0  0.13162278052E+02  0.11535990424E+03  0.49869622288E+02  0.17780563908E+03  0.12508682182E+03 0.  0.
         23    2    1    2    0    0 -0.13162278052E+02 -0.11535990424E+03  0.22790067068E+02  0.15127835655E+03  0.94258161104E+02 0.  0.
          5    1    3    3  502    0 -0.40512272205E+02  0.52562100501E+02  0.65824375988E+02  0.93564627304E+02  0.41800000000E+01 0.  1.
         -5    1    3    3    0  502  0.53674550257E+02  0.62797803734E+02 -0.15954753700E+02  0.84241011774E+02  0.41800000000E+01 0.  1.
        -11    1    4    4    0    0  0.28136546899E+02 -0.85411662840E+02 -0.10234690286E+02  0.90507272116E+02  0.00000000000E+00 0. -1.
         11    1    4    4    0    0 -0.41298824952E+02 -0.29948241395E+02  0.33024757353E+02  0.60771084434E+02  0.00000000000E+00 0.  1.
</event>
<event>
 8    1  0.3541538E-009  0.1065604E+03  0.7561462E-02  0.1267075E+00
         -2   -1    0    0    0  501 -0.00000000000E+00  0.00000000000E+00  0.58520704626E+02  0.58520704626E+02  0.00000000000E+00 0.  1.
          2   -1    0    0  501    0  0.00000000000E+00 -0.00000000000E+00 -0.25725325480E+03  0.25725325480E+03  0.00000000000E+00 0. -1.
         25    2    1    2    0    0  0.35629424472E+02 -0.39700414449E+02 -0.13529535663E+03  0.19182538219E+03  0.12508622998E+03 0.  0.
         23    2    1    2    0    0 -0.35629424472E+02  0.39700414449E+02 -0.63437193541E+02  0.12394857723E+03  0.92159608715E+02 0.  0.
          5    1    3    3  502    0  0.37814665156E+02  0.22672746548E+02 -0.11930851077E+03  0.12726348840E+03  0.41800000000E+01 0.  1.
         -5    1    3    3    0  502 -0.21852406841E+01 -0.62373160997E+02 -0.15986845863E+02  0.64561893794E+02  0.41800000000E+01 0.  1.
        -11    1    4    4    0    0  0.10793594144E+02  0.56037240097E+02 -0.37873916040E+02  0.68491659846E+02  0.00000000000E+00 0.  1.
         11    1    4    4    0    0 -0.46423018616E+02 -0.16336825648E+02 -0.25563277501E+02  0.55456917389E+02  0.00000000000E+00 0. -1.
</event>
<event>
 8    1  0.3541538E-009  0.1430143E+03  0.7561462E-02  0.1209330E+00
          1   -1    0    0  501    0  0.00000000000E+00  0.00000000000E+00  0.79267316177E+03  0.79267316177E+03  0.00000000000E+00 0. -1.
         -1   -1    0    0    0  501 -0.00000000000E+00 -0.00000000000E+00 -0.29206901527E+02  0.29206901527E+02  0.00000000000E+00 0.  1.
         25    2    1    2    0    0  0.56062333828E+02  0.83430070878E+02  0.31994507702E+03  0.35793527600E+03  0.12509695238E+03 0.  0.
         23    2    1    2    0    0 -0.56062333828E+02 -0.83430070878E+02  0.44352118322E+03  0.46394478729E+03  0.91815922867E+02 0.  0.
          5    1    3    3  502    0 -0.35978877524E+02  0.12408219527E+02  0.43149042904E+02  0.57686704216E+02  0.41800000000E+01 0. -1.
         -5    1    3    3    0  502  0.92041211352E+02  0.71021851351E+02  0.27679603412E+03  0.30024857179E+03  0.41800000000E+01 0. -1.
        -11    1    4    4    0    0 -0.37780443043E+02  0.76205119517E+01  0.80763512588E+02  0.89488429668E+02  0.00000000000E+00 0.  1.
         11    1    4    4    0    0 -0.18281890785E+02 -0.91050582829E+02  0.36275767063E+03  0.37445635762E+03  0.00000000000E+00 0. -1.
</event>
<event>
 8    1  0.3541538E-009  0.1425092E+03  0.7561462E-02  0.1209992E+00
         -1   -1    0    0    0  501 -0.00000000000E+00  0.00000000000E+00  0.18568430466E+03  0.18568430466E+03  0.00000000000E+00 0.  1.
          1   -1    0    0  501    0  0.00000000000E+00 -0.00000000000E+00 -0.40343398357E+03  0.40343398357E+03  0.00000000000E+00 0. -1.
         25    2    1    2    0    0 -0.34595590034E+02  0.12170575238E+03  0.12335571281E+03  0.21650430490E+03  0.12509331375E+03 0.  0.
         23    2    1    2    0    0  0.34595590034E+02 -0.12170575238E+03 -0.34110539172E+03  0.37261398333E+03  0.80493150647E+02 0.  0.
          5    1    3    3  502    0 -0.39874113955E+02  0.59075335791E+01 -0.79546101538E+01  0.41298815230E+02  0.41800000000E+01 0.  1.
         -5    1    3    3    0  502  0.52785239217E+01  0.11579821880E+03  0.13131032297E+03  0.17520548967E+03  0.41800000000E+01 0.  1.
        -11    1    4    4    0    0  0.19455592391E+02 -0.31442459042E+02 -0.20685535621E+03  0.21013397322E+03  0.00000000000E+00 0. -1.
         11    1    4    4    0    0  0.15139997643E+02 -0.90263293340E+02 -0.13425003551E+03  0.16248001011E+03  0.00000000000E+00 0.  1.
</event>
<event>
 8    1  0.3541538E-009  0.1090858E+03  0.7561462E-02  0.1262272E+00
         -1   -1    0    0    0  501 -0.00000000000E+00  0.00000000000E+00  0.15028211401E+03  0.15028211401E+03  0.00000000000E+00 0.  1.
          1   -1    0    0  501    0  0.00000000000E+00 -0.00000000000E+00 -0.11140262298E+03  0.11140262298E+03  0.00000000000E+00 0. -1.
         25    2    1    2    0    0  0.30269842008E+02  0.11905812094E+02  0.82885978551E+02  0.15355082061E+03  0.12509899029E+03 0.  0.
         23    2    1    2    0    0 -0.30269842008E+02 -0.11905812094E+02 -0.44006487528E+02  0.10813391638E+03  0.93265005391E+02 0.  0.
          5    1    3    3  502    0 -0.47071226805E+02 -0.96882278283E+01  0.38401679852E+02  0.61658118418E+02  0.41800000000E+01 0.  1.
         -5    1    3    3    0  502  0.77341068813E+02  0.21594039922E+02  0.44484298699E+02  0.91892702192E+02  0.41800000000E+01 0.  1.
        -11    1    4    4    0    0 -0.19540122530E+02  0.35714401293E+02 -0.43134530689E+02  0.59312077909E+02  0.00000000000E+00 0.  1.
         11    1    4    4    0    0 -0.10729719478E+02 -0.47620213387E+02 -0.87195683948E+00  0.48821838472E+02  0.00000000000E+00 0. -1.
</event>
<event>
 8    1  0.3541538E-009  0.8478343E+02  0.7561462E-02  0.1316000E+00
         -1   -1    0    0    0  501 -0.00000000000E+00  0.00000000000E+00  0.47576147990E+03  0.47576147990E+03  0.00000000000E+00 0.  1.
          1   -1    0    0  501    0  0.00000000000E+00 -0.00000000000E+00 -0.39736187729E+02  0.39736187729E+02  0.00000000000E+00 0. -1.
         25    2    1    2    0    0 -0.49386614949E+02 -0.35491161179E+02  0.34813103463E+03  0.37488893351E+03  0.12509130640E+03 0.  0.
         23    2    1    2    0    0  0.49386614949E+02  0.35491161179E+02  0.87894257535E+02  0.14060873412E+03  0.91360578721E+02 0.  0.
          5    1    3    3  502    0 -0.35108040842E+02 -0.13890503781E+02  0.15181787681E+02  0.40908186275E+02  0.41800000000E+01 0. -1.
         -5    1    3    3    0  502 -0.14278574107E+02 -0.21600657398E+02  0.33294924695E+03  0.33398074724E+03  0.41800000000E+01 0. -1.
        -11    1    4    4    0    0 -0.24008183459E+02  0.17710140765E+02  0.84686513067E+01  0.31012255865E+02  0.00000000000E+00 0.  1.
         11    1    4    4    0    0  0.73394798408E+02  0.17781020414E+02  0.79425606228E+02  0.10959647825E+03  0.00000000000E+00 0. -1.
</event>
<event>
 8    1  0.3541538E-009  0.9653645E+02  0.7561462E-02  0.1287753E+00
         -2   -1    0    0    0  501 -0.00000000000E+00  0.00000000000E+00  0.18647370296E+02  0.18647370296E+02  0.00000000000E+00 0.  1.
          2   -1    0    0  501    0  0.00000000000E+00 -0.00000000000E+00 -0.66293012749E+03  0.66293012749E+03  0.00000000000E+00 0. -1.
         25    2    1    2    0    0 -0.83803574602E+01  0.13540680114E+02 -0.44140004874E+03  0.45905962527E+03  0.12509259018E+03 0.  0.
         23    2    1    2    0    0  0.83803574602E+01 -0.13540680114E+02 -0.20288270845E+03  0.22251787251E+03  0.89995720950E+02 0.  0.
          5    1    3    3  502    0 -0.57765270753E+02 -0.19383951126E+02 -0.15612864442E+03  0.16764900857E+03  0.41800000000E+01 0. -1.
         -5    1    3    3    0  502  0.49384913292E+02  0.32924631239E+02 -0.28527140433E+03  0.29141061671E+03  0.41800000000E+01 0. -1.
        -11    1    4    4    0    0 -0.21560204129E+02 -0.31059028727E+02 -0.17189415122E+03  0.17600313887E+03  0.00000000000E+00 0. -1.
         11    1    4    4    0    0  0.29940561590E+02  0.17518348614E+02 -0.30988557223E+02  0.46514733636E+02  0.00000000000E+00 0.  1.
</event>
<event>
 8    1  0.3541538E-009  0.1133476E+03  0.7561462E-02  0.1254493E+00
          2   -1    0    0  501    0  0.00000000000E+00  0.00000000000E+00  0.10018668183E+04  0.10018668183E+04  0.00000000000E+00 0. -1.
         -2   -1    0    0    0  501 -0.00000000000E+00 -0.00000000000E+00 -0.17435012876E+02  0.17435012876E+02  0.00000000000E+00 0.  1.
         25    2    1    2    0    0  0.11381874002E+02 -0.57168825831E+02  0.72788998490E+03  0.74085728580E+03  0.12509143098E+03 0.  0.
         23    2    1    2    0    0 -0.11381874002E+02  0.57168825831E+02  0.25654182050E+03  0.27844454536E+03  0.91213143066E+02 0.  0.
          5    1    3    3  502    0 -0.12102110134E+02 -0.87171073828E+02  0.34572954979E+03  0.35677955544E+03  0.41800000000E+01 0.  1.
         -5    1    3    3    0  502  0.23483984136E+02  0.30002247997E+02  0.38216043511E+03  0.38407773037E+03  0.41800000000E+01 0.  1.
        -11    1    4    4    0    0  0.33155456273E+02  0.41340469411E+02  0.18697280031E+03  0.19433771313E+03  0.00000000000E+00 0.  1.
         11    1    4    4    0    0 -0.44537330275E+02  0.15828356420E+02  0.69569020198E+02  0.84106832221E+02  0.00000000000E+00 0. -1.
</event>
<event>
 8    1  0.3541538E-009  0.1614371E+03  0.7561462E-02  0.1187084E+00
         -2   -1    0    0    0  501 -0.00000000000E+00  0.00000000000E+00  0.47045990796E+03  0.47045990796E+03  0.00000000000E+00 0.  1.
          2   -1    0    0  501    0  0.00000000000E+00 -0.00000000000E+00 -0.73245152398E+02  0.73245152398E+02  0.00000000000E+00 0. -1.
         25    2    1    2    0    0  0.72616405365E+02  0.11325268353E+03  0.30391217963E+03  0.35511976996E+03  0.12509246754E+03 0.  0.
         23    2    1    2    0    0 -0.72616405365E+02 -0.11325268353E+03  0.93302575932E+02  0.18858529039E+03  0.93593420825E+02 0.  0.
          5    1    3    3  502    0 -0.10191303257E+02 -0.22231311914E+02  0.44038730695E+02  0.50546771338E+02  0.41800000000E+01 0. -1.
         -5    1    3    3    0  502  0.82807708622E+02  0.13548399545E+03  0.25987344894E+03  0.30457299863E+03  0.41800000000E+01 0. -1.
        -11    1    4    4    0    0 -0.46585798823E+02 -0.99308207416E+02  0.10942599134E+03  0.15494000223E+03  0.00000000000E+00 0.  1.
         11    1    4    4    0    0 -0.26030606542E+02 -0.13944476119E+02 -0.16123415404E+02  0.33645288161E+02  0.00000000000E+00 0. -1.
</event>
<event>
 8    1  0.3541538E-009  0.9451126E+02  0.7561462E-02  0.1292281E+00
          1   -1    0    0  501    0  0.00000000000E+00  0.00000000000E+00  0.68036859641E+03  0.68036859641E+03  0.00000000000E+00 0. -1.
         -1   -1    0    0    0  501 -0.00000000000E+00 -0.00000000000E+00 -0.24522879007E+02  0.24522879007E+02  0.00000000000E+00 0.  1.
         25    2    1    2    0    0  0.53519812449E+02 -0.38868384666E+02  0.44069649345E+03  0.46285668541E+03  0.12509112774E+03 0.  0.
         23    2    1    2    0    0 -0.53519812449E+02  0.38868384666E+02  0.21514922395E+03  0.24203479000E+03  0.88974880470E+02 0.  0.
          5    1    3    3  502    0 -0.25504370097E+02 -0.13153797163E+02  0.28365392411E+03  0.28513245403E+03  0.41800000000E+01 0.  1.
         -5    1    3    3    0  502  0.79024182547E+02 -0.25714587503E+02  0.15704256934E+03  0.17772423138E+03  0.41800000000E+01 0.  1.
        -11    1    4    4    0    0 -0.42154069892E+02  0.66810872279E+01  0.26316099732E+02  0.50141197035E+02  0.00000000000E+00 0.  1.
         11    1    4    4    0    0 -0.11365742557E+02  0.32187297438E+02  0.18883312422E+03  0.19189359297E+03  0.00000000000E+00 0. -1.
</event>
<event>
 8    1  0.3541538E-009  0.1324587E+03  0.7561462E-02  0.1223852E+00
          4   -1    0    0  501    0  0.00000000000E+00  0.00000000000E+00  0.36646159422E+03  0.36646159422E+03  0.00000000000E+00 0. -1.
         -4   -1    0    0    0  501 -0.00000000000E+00 -0.00000000000E+00 -0.68757327690E+02  0.68757327690E+02  0.00000000000E+00 0.  1.
         25    2    1    2    0    0  0.37025466744E+02 -0.10263889995E+03  0.20919044821E+03  0.26704760714E+03  0.12509257326E+03 0.  0.
         23    2    1    2    0    0 -0.37025466744E+02  0.10263889995E+03  0.88513818319E+02  0.16817131477E+03  0.92418970497E+02 0.  0.
          5    1    3    3  502    0 -0.23370331188E+02 -0.63514575522E+02  0.30469588892E+02  0.74338024797E+02  0.41800000000E+01 0.  1.
         -5    1    3    3    0  502  0.60395797932E+02 -0.39124324432E+02  0.17872085932E+03  0.19270958234E+03  0.41800000000E+01 0.  1.
        -11    1    4    4    0    0 -0.46627126713E+02  0.39340814028E+02  0.84234926863E+02  0.10400630509E+03  0.00000000000E+00 0. -1.
         11    1    4    4    0    0  0.96016599699E+01  0.63298085925E+02  0.42788914555E+01  0.64165009686E+02  0.00000000000E+00 0.  1.
</event>
<event>
 8    1  0.3541538E-009  0.9009845E+02  0.7561462E-02  0.1302613E+00
         -1   -1    0    0    0  501 -0.00000000000E+00  0.00000000000E+00  0.28720479680E+02  0.28720479680E+02  0.00000000000E+00 0.  1.
          1   -1    0    0  501    0  0.00000000000E+00 -0.00000000000E+00 -0.56228907094E+03  0.56228907094E+03  0.00000000000E+00 0. -1.
         25    2    1    2    0    0 -0.25153147367E+02 -0.60989537997E+02 -0.29665347711E+03  0.32863839115E+03  0.12508997598E+03 0.  0.
         23    2    1    2    0    0  0.25153147367E+02  0.60989537997E+02 -0.23691511415E+03  0.26237115947E+03  0.91419086848E+02 0.  0.
          5    1    3    3  502    0 -0.19723157560E+02 -0.85602512651E+01 -0.26723330920E+03  0.26812943664E+03  0.41800000000E+01 0.  1.
         -5    1    3    3    0  502 -0.54299898071E+01 -0.52429286732E+02 -0.29420167911E+02  0.60508954515E+02  0.41800000000E+01 0.  1.
        -11    1    4    4    0    0  0.42069032892E+02  0.73288189328E+02 -0.21933160306E+03  0.23504747249E+03  0.00000000000E+00 0. -1.
         11    1    4    4    0    0 -0.16915885525E+02 -0.12298651331E+02 -0.17583511085E+02  0.27323686972E+02  0.00000000000E+00 0.  1.
</event>
<event>
 8    1  0.3541538E-009  0.1206957E+03  0.7561462E-02  0.1241954E+00
          1   -1    0    0  501    0  0.00000000000E+00  0.00000000000E+00  0.11402792737E+03  0.11402792737E+03  0.00000000000E+00 0. -1.
         -1   -1    0    0    0  501 -0.00000000000E+00 -0.00000000000E+00 -0.24402937784E+03  0.24402937784E+03  0.00000000000E+00 0.  1.
         25    2    1    2    0    0 -0.95369968499E+01 -0.80295162148E+02 -0.17428975347E+03  0.22926505777E+03  0.12508909296E+03 0.  0.
         23    2    1    2    0    0  0.95369968499E+01  0.80295162148E+02  0.44288302996E+02  0.12879224744E+03  0.89931762161E+02 0.  0.
          5    1    3    3  502    0  0.34565750676E+02 -0.95340543375E+02 -0.12906514874E+03  0.16419468734E+03  0.41800000000E+01 0. -1.
         -5    1    3    3    0  502 -0.44102747526E+02  0.15045381227E+02 -0.45224604725E+02  0.65070370432E+02  0.41800000000E+01 0. -1.
        -11    1    4    4    0    0  0.26766713887E+02  0.31376351161E+02 -0.20291875281E+02  0.45964035799E+02  0.00000000000E+00 0.  1.
         11    1    4    4    0    0 -0.17229717037E+02  0.48918810986E+02  0.64580178277E+02  0.82828211642E+02  0.00000000000E+00 0. -1.
</event>
<event>
 8    1  0.3541538E-009  0.1108411E+03  0.7561462E-02  0.1259020E+00
          1   -1    0    0  501    0  0.00000000000E+00  0.00000000000E+00  0.13397715109E+03  0.13397715109E+03  0.00000000000E+00 0. -1.
         -1   -1    0    0    0  501 -0.00000000000E+00 -0.00000000000E+00 -0.24336558718E+03  0.24336558718E+03  0.00000000000E+00 0.  1.
         25    2    1    2    0    0  0.70081442508E+02 -0.34380418250E+02 -0.18357085902E+03  0.23545675480E+03  0.12509277101E+03 0.  0.
         23    2    1    2    0    0 -0.70081442508E+02  0.34380418250E+02  0.74182422936E+02  0.14188598346E+03  0.92386030802E+02 0.  0.
          5    1    3    3  502    0  0.72203117411E+02 -0.59810576259E+01 -0.19216983428E+03  0.20541611627E+03  0.41800000000E+01 0. -1.
         -5    1    3    3    0  502 -0.21216749027E+01 -0.28399360624E+02  0.85989752615E+01  0.30040638538E+02  0.41800000000E+01 0. -1.
        -11    1    4    4    0    0  0.15680338198E+02  0.30716849352E+02  0.14922842352E+02  0.37577773536E+02  0.00000000000E+00 0. -1.
         11    1    4    4    0    0 -0.85761780706E+02  0.36635688984E+01  0.59259580584E+02  0.10430820993E+03  0.00000000000E+00 0.  1.
</event>
<event>
 8    1  0.3541538E-009  0.1773046E+03  0.7561462E-02  0.1170437E+00
         -2   -1    0    0    0  501 -0.00000000000E+00  0.00000000000E+00  0.39921419765E+03  0.39921419765E+03  0.00000000000E+00 0.  1.
          2   -1    0    0  501    0  0.00000000000E+00 -0.00000000000E+00 -0.13992262165E+03  0.13992262165E+03  0.00000000000E+00 0. -1.
         25    2    1    2    0    0 -0.13650160509E+03  0.29371108719E+02 -0.43532917641E+02  0.19245218137E+03  0.12508947588E+03 0.  0.
         23    2    1    2    0    0  0.13650160509E+03 -0.29371108719E+02  0.30282449364E+03  0.34668463793E+03  0.94827285141E+02 0.  0.
          5    1    3    3  502    0 -0.91858510900E+02  0.78410402360E+02 -0.24151182022E+02  0.12323525963E+03  0.41800000000E+01 0.  1.
         -5    1    3    3    0  502 -0.44643094189E+02 -0.49039293641E+02 -0.19381735619E+02  0.69216921740E+02  0.41800000000E+01 0.  1.
        -11    1    4    4    0    0  0.82225942758E+02 -0.62894248348E+02  0.16457907962E+03  0.19443010463E+03  0.00000000000E+00 0. -1.
         11    1    4    4    0    0  0.54275662332E+02  0.33523139630E+02  0.13824541402E+03  0.15225453330E+03  0.00000000000E+00 0.  1.
</event>
<event>
 8    1  0.3541538E-009  0.2076950E+03  0.7561462E-02  0.1143404E+00
          1   -1    0    0  501    0  0.00000000000E+00  0.00000000000E+00  0.12499208130E+03  0.12499208130E+03  0.00000000000E+00 0. -1.
         -1   -1    0    0    0  501 -0.00000000000E+00 -0.00000000000E+00 -0.42636842301E+03  0.42636842301E+03  0.00000000000E+00 0.  1.
         25    2    1    2    0    0  0.18232971109E+03  0.74580405906E+02 -0.21606638201E+03  0.31801939761E+03  0.12508115498E+03 0.  0.
         23    2    1    2    0    0 -0.18232971109E+03 -0.74580405906E+02 -0.85309959707E+02  0.23334110671E+03  0.91454482463E+02 0.  0.
          5    1    3    3  502    0  0.78172107648E+02 -0.64510706208E+01 -0.19004694677E+02  0.80815503129E+02  0.41800000000E+01 0. -1.
         -5    1    3    3    0  502  0.10415760344E+03  0.81031476527E+02 -0.19706168733E+03  0.23720389448E+03  0.41800000000E+01 0. -1.
        -11    1    4    4    0    0 -0.12098325367E+03 -0.77011689924E+02 -0.21895836422E+02  0.14507644780E+03  0.00000000000E+00 0. -1.
         11    1    4    4    0    0 -0.61346457421E+02  0.24312840181E+01 -0.63414123286E+02  0.88264658908E+02  0.00000000000E+00 0.  1.
</event>
